 running    4 mpi-ranks, on    1 nodes
 distrk:  each k-point on    1 cores,    4 groups
 distr:  one band on    1 cores,    1 groups
 OpenACC runtime initialized ...    4 GPUs detected
 vasp.6.4.2 20Jul23 (build Nov 12 2023 22:16:35) complex                         
 POSCAR found type information on POSCAR GaO N 
 POSCAR found :  3 types and     120 ions
 scaLAPACK will be used selectively (only on CPU)
 LDA part: xc-table for Pade appr. of Perdew
 POSCAR, INCAR and KPOINTS ok, starting setup
 FFT: planning ... GRIDC
 FFT: planning ... GRID_SOFT
 FFT: planning ... GRID
 WAVECAR not read
 entering main loop
       N       E                     dE             d eps       ncg     rms          rms(c)
DAV:   1     0.219480126153E+05    0.21948E+05   -0.32099E+05 10128   0.282E+03
DAV:   2     0.485318628872E+04   -0.17095E+05   -0.16110E+05 10128   0.815E+02
DAV:   3    -0.155309516577E+03   -0.50085E+04   -0.47167E+04 12912   0.320E+02
DAV:   4    -0.779758987921E+03   -0.62445E+03   -0.61132E+03 12520   0.121E+02
DAV:   5    -0.822675789994E+03   -0.42917E+02   -0.42583E+02 14432   0.343E+01    0.606E+01
RMM:   6    -0.710437681467E+03    0.11224E+03   -0.37709E+02 13164   0.235E+01    0.161E+01
RMM:   7    -0.714184372198E+03   -0.37467E+01   -0.65035E+01 13901   0.974E+00    0.129E+01
RMM:   8    -0.713613417013E+03    0.57096E+00   -0.72843E+00 13072   0.457E+00    0.435E+00
RMM:   9    -0.713772410195E+03   -0.15899E+00   -0.23753E+00 15333   0.272E+00    0.299E+00
RMM:  10    -0.713626396080E+03    0.14601E+00   -0.12755E+00 13720   0.144E+00    0.604E-01
RMM:  11    -0.713660715476E+03   -0.34319E-01   -0.33665E-01 15441   0.713E-01    0.404E-01
RMM:  12    -0.713668286914E+03   -0.75714E-02   -0.66102E-02 14111   0.311E-01    0.187E-01
RMM:  13    -0.713669430382E+03   -0.11435E-02   -0.19763E-02 15363   0.167E-01    0.533E-02
RMM:  14    -0.713669958909E+03   -0.52853E-03   -0.57821E-03 14344   0.784E-02    0.322E-02
RMM:  15    -0.713670135465E+03   -0.17656E-03   -0.15838E-03 13078   0.436E-02    0.269E-02
RMM:  16    -0.713670191052E+03   -0.55587E-04   -0.80582E-04 11083   0.258E-02    0.518E-03
RMM:  17    -0.713670214261E+03   -0.23209E-04   -0.22711E-04 10503   0.153E-02    0.397E-03
RMM:  18    -0.713670225196E+03   -0.10935E-04   -0.10317E-04  9658   0.856E-03    0.163E-03
RMM:  19    -0.713670227849E+03   -0.26522E-05   -0.29234E-05  8452   0.631E-03
   1 F= -.71367023E+03 E0= -.71365931E+03  d E =-.713670E+03
 curvature:   0.00 expect dE= 0.000E+00 dE for cont linesearch  0.000E+00
 trial: gam= 0.00000 g(F)=  0.150E+00 g(S)=  0.000E+00 ort = 0.000E+00 (trialstep = 0.100E+01)
 search vector abs. value=  0.150E+00
 bond charge predicted
       N       E                     dE             d eps       ncg     rms          rms(c)
DAV:   1    -0.713596176255E+03    0.74049E-01   -0.35286E+01 10800   0.833E+00    0.962E-01
RMM:   2    -0.713720150768E+03   -0.12397E+00   -0.13379E+00 13494   0.228E+00    0.324E-01
RMM:   3    -0.713743873758E+03   -0.23723E-01   -0.27537E-01 15398   0.858E-01    0.352E-01
RMM:   4    -0.713743671397E+03    0.20236E-03   -0.29928E-02 15142   0.291E-01    0.185E-01
RMM:   5    -0.713742945721E+03    0.72568E-03   -0.95723E-03 15025   0.144E-01    0.691E-02
RMM:   6    -0.713743037330E+03   -0.91609E-04   -0.17650E-03 15348   0.614E-02    0.464E-02
RMM:   7    -0.713743034234E+03    0.30961E-05   -0.54667E-04 13519   0.319E-02    0.193E-02
RMM:   8    -0.713743044347E+03   -0.10113E-04   -0.16310E-04 11161   0.168E-02    0.126E-02
RMM:   9    -0.713743045335E+03   -0.98805E-06   -0.49588E-05  9425   0.108E-02
   2 F= -.71374305E+03 E0= -.71373279E+03  d E =-.728175E-01
 trial-energy change:   -0.072817  1 .order   -0.072003   -0.149894    0.005889
 step:   0.9633(harm=  0.9622)  dis= 0.01687  next Energy=  -713.743153 (dE=-0.729E-01)
 bond charge predicted
       N       E                     dE             d eps       ncg     rms          rms(c)
DAV:   1    -0.713742957810E+03    0.86536E-04   -0.47476E-02 11280   0.306E-01    0.340E-02
RMM:   2    -0.713743118145E+03   -0.16033E-03   -0.17291E-03 13386   0.821E-02    0.118E-02
RMM:   3    -0.713743146508E+03   -0.28364E-04   -0.35000E-04 13994   0.310E-02    0.123E-02
RMM:   4    -0.713743145283E+03    0.12254E-05   -0.38690E-05  8017   0.123E-02
   3 F= -.71374315E+03 E0= -.71373287E+03  d E =-.729174E-01
 curvature:  -0.48 expect dE=-0.359E-01 dE for cont linesearch -0.361E-05
 trial: gam= 0.49133 g(F)=  0.747E-01 g(S)=  0.000E+00 ort = 0.106E-02 (trialstep = 0.993E+00)
 search vector abs. value=  0.112E+00
 bond charge predicted
       N       E                     dE             d eps       ncg     rms          rms(c)
DAV:   1    -0.713696514402E+03    0.46632E-01   -0.28231E+01 10464   0.701E+00    0.887E-01
RMM:   2    -0.713774653410E+03   -0.78139E-01   -0.84891E-01 12561   0.175E+00    0.262E-01
RMM:   3    -0.713792636248E+03   -0.17983E-01   -0.20035E-01 14979   0.710E-01    0.277E-01
RMM:   4    -0.713793218922E+03   -0.58267E-03   -0.19689E-02 15160   0.226E-01    0.165E-01
RMM:   5    -0.713792821445E+03    0.39748E-03   -0.57486E-03 14515   0.105E-01    0.925E-02
RMM:   6    -0.713792781542E+03    0.39903E-04   -0.10009E-03 14920   0.441E-02    0.392E-02
RMM:   7    -0.713792781470E+03    0.72556E-07   -0.28997E-04 11143   0.202E-02    0.128E-02
RMM:   8    -0.713792785258E+03   -0.37883E-05   -0.78410E-05  9568   0.126E-02
   4 F= -.71379279E+03 E0= -.71378228E+03  d E =-.496400E-01
 trial-energy change:   -0.049640  1 .order   -0.049586   -0.074678   -0.024494
 step:   1.4772(harm=  1.4772)  dis= 0.02114  next Energy=  -713.798709 (dE=-0.556E-01)
 bond charge predicted
       N       E                     dE             d eps       ncg     rms          rms(c)
DAV:   1    -0.713776711650E+03    0.16070E-01   -0.67309E+00 11016   0.342E+00    0.426E-01
RMM:   2    -0.713794902227E+03   -0.18191E-01   -0.19744E-01 12450   0.844E-01    0.127E-01
RMM:   3    -0.713799143201E+03   -0.42410E-02   -0.47171E-02 14928   0.346E-01    0.133E-01
RMM:   4    -0.713799303677E+03   -0.16048E-03   -0.47510E-03 15106   0.110E-01    0.834E-02
RMM:   5    -0.713799205860E+03    0.97816E-04   -0.14287E-03 13983   0.518E-02    0.494E-02
RMM:   6    -0.713799191484E+03    0.14377E-04   -0.24678E-04 12348   0.221E-02    0.203E-02
RMM:   7    -0.713799191486E+03   -0.26048E-08   -0.77783E-05  9605   0.113E-02
   5 F= -.71379919E+03 E0= -.71378858E+03  d E =-.560462E-01
 curvature:  -1.10 expect dE=-0.585E-01 dE for cont linesearch -0.264E-08
 trial: gam= 0.72020 g(F)=  0.533E-01 g(S)=  0.000E+00 ort =-0.164E-04 (trialstep = 0.109E+01)
 search vector abs. value=  0.111E+00
 bond charge predicted
       N       E                     dE             d eps       ncg     rms          rms(c)
DAV:   1    -0.713697734182E+03    0.10146E+00   -0.32939E+01 10512   0.794E+00    0.949E-01
RMM:   2    -0.713798517347E+03   -0.10078E+00   -0.10820E+00 12893   0.204E+00    0.279E-01
RMM:   3    -0.713821456797E+03   -0.22939E-01   -0.25137E-01 15221   0.810E-01    0.303E-01
RMM:   4    -0.713822293928E+03   -0.83713E-03   -0.24974E-02 15362   0.258E-01    0.200E-01
RMM:   5    -0.713821577688E+03    0.71624E-03   -0.82676E-03 14398   0.128E-01    0.109E-01
RMM:   6    -0.713821511582E+03    0.66106E-04   -0.14620E-03 15616   0.553E-02    0.529E-02
RMM:   7    -0.713821500149E+03    0.11433E-04   -0.48332E-04 12395   0.251E-02    0.156E-02
RMM:   8    -0.713821503981E+03   -0.38323E-05   -0.11377E-04  9955   0.148E-02    0.595E-03
RMM:   9    -0.713821507359E+03   -0.33780E-05   -0.45150E-05  8868   0.943E-03
   6 F= -.71382151E+03 E0= -.71381085E+03  d E =-.223159E-01
 trial-energy change:   -0.022316  1 .order   -0.021766   -0.058024    0.014491
 step:   0.8795(harm=  0.8718)  dis= 0.01155  next Energy=  -713.822900 (dE=-0.237E-01)
 bond charge predicted
       N       E                     dE             d eps       ncg     rms          rms(c)
DAV:   1    -0.713818306341E+03    0.31976E-02   -0.12245E+00 10768   0.153E+00    0.182E-01
RMM:   2    -0.713821918807E+03   -0.36125E-02   -0.38666E-02 12710   0.388E-01    0.547E-02
RMM:   3    -0.713822788666E+03   -0.86986E-03   -0.94949E-03 15111   0.158E-01    0.568E-02
RMM:   4    -0.713822829154E+03   -0.40488E-04   -0.96858E-04 14949   0.510E-02    0.390E-02
RMM:   5    -0.713822801968E+03    0.27187E-04   -0.30359E-04 12179   0.255E-02    0.225E-02
RMM:   6    -0.713822799390E+03    0.25777E-05   -0.49263E-05  9000   0.114E-02
   7 F= -.71382280E+03 E0= -.71381215E+03  d E =-.236079E-01
 curvature:  -0.91 expect dE=-0.212E-01 dE for cont linesearch -0.411E-05
 trial: gam= 0.44436 g(F)=  0.233E-01 g(S)=  0.000E+00 ort = 0.709E-03 (trialstep = 0.105E+01)
 search vector abs. value=  0.459E-01
 bond charge predicted
       N       E                     dE             d eps       ncg     rms          rms(c)
DAV:   1    -0.713790706507E+03    0.32095E-01   -0.12305E+01 10584   0.498E+00    0.576E-01
RMM:   2    -0.713827597794E+03   -0.36891E-01   -0.39199E-01 12749   0.126E+00    0.172E-01
RMM:   3    -0.713836673993E+03   -0.90762E-02   -0.97507E-02 15256   0.514E-01    0.178E-01
RMM:   4    -0.713837097633E+03   -0.42364E-03   -0.96929E-03 15309   0.162E-01    0.116E-01
RMM:   5    -0.713836902080E+03    0.19555E-03   -0.29202E-03 14563   0.772E-02    0.683E-02
RMM:   6    -0.713836882155E+03    0.19925E-04   -0.53963E-04 14455   0.329E-02    0.327E-02
RMM:   7    -0.713836879497E+03    0.26582E-05   -0.17698E-04 10488   0.160E-02    0.863E-03
RMM:   8    -0.713836881047E+03   -0.15503E-05   -0.44956E-05  9002   0.104E-02
   8 F= -.71383688E+03 E0= -.71382616E+03  d E =-.140817E-01
 trial-energy change:   -0.014082  1 .order   -0.014054   -0.024777   -0.003331
 step:   1.2103(harm=  1.2103)  dis= 0.01507  next Energy=  -713.837112 (dE=-0.143E-01)
 bond charge predicted
       N       E                     dE             d eps       ncg     rms          rms(c)
DAV:   1    -0.713836132729E+03    0.74677E-03   -0.29807E-01 11624   0.776E-01    0.857E-02
RMM:   2    -0.713837021987E+03   -0.88926E-03   -0.94326E-03 12721   0.193E-01    0.264E-02
RMM:   3    -0.713837236580E+03   -0.21459E-03   -0.23329E-03 15217   0.790E-02    0.285E-02
RMM:   4    -0.713837246559E+03   -0.99792E-05   -0.23474E-04 12732   0.249E-02    0.186E-02
RMM:   5    -0.713837242762E+03    0.37969E-05   -0.88671E-05 10472   0.156E-02
   9 F= -.71383724E+03 E0= -.71382651E+03  d E =-.144434E-01
 curvature:  -1.18 expect dE=-0.172E-01 dE for cont linesearch -0.116E-04
 trial: gam= 0.59460 g(F)=  0.146E-01 g(S)=  0.000E+00 ort = 0.672E-03 (trialstep = 0.108E+01)
 search vector abs. value=  0.317E-01
 bond charge predicted
       N       E                     dE             d eps       ncg     rms          rms(c)
DAV:   1    -0.713811396450E+03    0.25850E-01   -0.92508E+00 10496   0.426E+00    0.506E-01
RMM:   2    -0.713839554173E+03   -0.28158E-01   -0.29786E-01 12741   0.108E+00    0.149E-01
RMM:   3    -0.713846055034E+03   -0.65009E-02   -0.69897E-02 15190   0.432E-01    0.155E-01
RMM:   4    -0.713846357709E+03   -0.30268E-03   -0.69679E-03 15225   0.138E-01    0.102E-01
RMM:   5    -0.713846234490E+03    0.12322E-03   -0.21527E-03 14543   0.662E-02    0.601E-02
RMM:   6    -0.713846221054E+03    0.13436E-04   -0.37991E-04 13691   0.277E-02    0.294E-02
RMM:   7    -0.713846219756E+03    0.12984E-05   -0.13123E-04 10263   0.141E-02    0.683E-03
RMM:   8    -0.713846221624E+03   -0.18682E-05   -0.31106E-05  8563   0.878E-03
  10 F= -.71384622E+03 E0= -.71383548E+03  d E =-.897886E-02
 trial-energy change:   -0.008979  1 .order   -0.008753   -0.016247   -0.001259
 step:   1.1628(harm=  1.1708)  dis= 0.01437  next Energy=  -713.846270 (dE=-0.903E-02)
 bond charge predicted
       N       E                     dE             d eps       ncg     rms          rms(c)
DAV:   1    -0.713846108037E+03    0.11172E-03   -0.54547E-02 11520   0.328E-01    0.358E-02
RMM:   2    -0.713846273213E+03   -0.16518E-03   -0.17454E-03 12626   0.812E-02    0.113E-02
RMM:   3    -0.713846309468E+03   -0.36254E-04   -0.40554E-04 13774   0.329E-02    0.126E-02
RMM:   4    -0.713846311194E+03   -0.17263E-05   -0.45896E-05  8701   0.125E-02
  11 F= -.71384631E+03 E0= -.71383556E+03  d E =-.906843E-02
 curvature:  -1.22 expect dE=-0.816E-02 dE for cont linesearch -0.126E-05
 trial: gam= 0.46552 g(F)=  0.667E-02 g(S)=  0.000E+00 ort = 0.181E-03 (trialstep = 0.110E+01)
 search vector abs. value=  0.137E-01
 bond charge predicted
       N       E                     dE             d eps       ncg     rms          rms(c)
DAV:   1    -0.713835247862E+03    0.11062E-01   -0.40976E+00 10520   0.284E+00    0.331E-01
RMM:   2    -0.713847519409E+03   -0.12272E-01   -0.12972E-01 12794   0.719E-01    0.993E-02
RMM:   3    -0.713850386554E+03   -0.28671E-02   -0.30765E-02 15164   0.289E-01    0.102E-01
RMM:   4    -0.713850458055E+03   -0.71501E-04   -0.30536E-03 15085   0.931E-02    0.428E-02
RMM:   5    -0.713850460330E+03   -0.22752E-05   -0.74608E-04 14620   0.414E-02    0.290E-02
RMM:   6    -0.713850462776E+03   -0.24452E-05   -0.14246E-04 11719   0.178E-02    0.131E-02
RMM:   7    -0.713850464766E+03   -0.19903E-05   -0.48514E-05  9054   0.105E-02
  12 F= -.71385046E+03 E0= -.71383972E+03  d E =-.415357E-02
 trial-energy change:   -0.004154  1 .order   -0.003857   -0.007405   -0.000310
 step:   1.1347(harm=  1.1445)  dis= 0.00987  next Energy=  -713.850470 (dE=-0.416E-02)
 bond charge predicted
       N       E                     dE             d eps       ncg     rms          rms(c)
DAV:   1    -0.713850464920E+03   -0.21445E-05   -0.50281E-03 11480   0.101E-01    0.896E-03
RMM:   2    -0.713850481669E+03   -0.16749E-04   -0.17788E-04 12242   0.275E-02    0.372E-03
RMM:   3    -0.713850484872E+03   -0.32025E-05   -0.44276E-05  7701   0.117E-02
  13 F= -.71385048E+03 E0= -.71383974E+03  d E =-.417368E-02
 curvature:  -1.11 expect dE=-0.272E-02 dE for cont linesearch -0.713E-06
 trial: gam= 0.37467 g(F)=  0.245E-02 g(S)=  0.000E+00 ort = 0.937E-04 (trialstep = 0.110E+01)
 search vector abs. value=  0.444E-02
 bond charge predicted
       N       E                     dE             d eps       ncg     rms          rms(c)
DAV:   1    -0.713847180175E+03    0.33015E-02   -0.13221E+00 10430   0.161E+00    0.183E-01
RMM:   2    -0.713851132475E+03   -0.39523E-02   -0.41868E-02 12855   0.412E-01    0.585E-02
RMM:   3    -0.713852051451E+03   -0.91898E-03   -0.99726E-03 15148   0.164E-01    0.605E-02
RMM:   4    -0.713852093128E+03   -0.41676E-04   -0.10409E-03 14987   0.528E-02    0.361E-02
RMM:   5    -0.713852081704E+03    0.11424E-04   -0.30848E-04 12732   0.261E-02    0.203E-02
RMM:   6    -0.713852080360E+03    0.13437E-05   -0.50587E-05  9243   0.115E-02
  14 F= -.71385208E+03 E0= -.71384130E+03  d E =-.159549E-02
 trial-energy change:   -0.001595  1 .order   -0.001457   -0.002744   -0.000170
 step:   1.1588(harm=  1.1773)  dis= 0.00552  next Energy=  -713.852085 (dE=-0.160E-02)
 bond charge predicted
       N       E                     dE             d eps       ncg     rms          rms(c)
DAV:   1    -0.713852079351E+03    0.23528E-05   -0.34304E-03 11680   0.836E-02    0.928E-03
RMM:   2    -0.713852092790E+03   -0.13439E-04   -0.14494E-04 11788   0.240E-02    0.375E-03
RMM:   3    -0.713852094864E+03   -0.20740E-05   -0.33633E-05  7118   0.107E-02
  15 F= -.71385209E+03 E0= -.71384131E+03  d E =-.160999E-02
 curvature:  -0.99 expect dE=-0.118E-02 dE for cont linesearch -0.203E-06
 trial: gam= 0.51213 g(F)=  0.120E-02 g(S)=  0.000E+00 ort = 0.303E-04 (trialstep = 0.112E+01)
 search vector abs. value=  0.240E-02
 bond charge predicted
       N       E                     dE             d eps       ncg     rms          rms(c)
DAV:   1    -0.713850314535E+03    0.17783E-02   -0.68508E-01 10568   0.119E+00    0.128E-01
RMM:   2    -0.713852372141E+03   -0.20576E-02   -0.21851E-02 13090   0.309E-01    0.426E-02
RMM:   3    -0.713852874629E+03   -0.50249E-03   -0.53829E-03 15108   0.122E-01    0.416E-02
RMM:   4    -0.713852907243E+03   -0.32614E-04   -0.59700E-04 14900   0.401E-02    0.273E-02
RMM:   5    -0.713852899140E+03    0.81025E-05   -0.16726E-04 12010   0.201E-02    0.129E-02
RMM:   6    -0.713852899313E+03   -0.17298E-06   -0.30670E-05  8347   0.920E-03
  16 F= -.71385290E+03 E0= -.71384214E+03  d E =-.804449E-03
 trial-energy change:   -0.000804  1 .order   -0.000717   -0.001357   -0.000076
 step:   1.1615(harm=  1.1813)  dis= 0.00375  next Energy=  -713.852901 (dE=-0.806E-03)
 bond charge predicted
       N       E                     dE             d eps       ncg     rms          rms(c)
DAV:   1    -0.713852900481E+03   -0.13403E-05   -0.12757E-03 11240   0.525E-02    0.561E-03
RMM:   2    -0.713852906062E+03   -0.55819E-05   -0.61088E-05  8718   0.165E-02
  17 F= -.71385291E+03 E0= -.71384215E+03  d E =-.811199E-03
 curvature:  -1.06 expect dE=-0.708E-03 dE for cont linesearch -0.464E-06
 trial: gam= 0.57818 g(F)=  0.669E-03 g(S)=  0.000E+00 ort =-0.324E-04 (trialstep = 0.112E+01)
 search vector abs. value=  0.143E-02
 bond charge predicted
       N       E                     dE             d eps       ncg     rms          rms(c)
DAV:   1    -0.713852009519E+03    0.89096E-03   -0.40995E-01 10638   0.915E-01    0.974E-02
RMM:   2    -0.713853156681E+03   -0.11472E-02   -0.12188E-02 12819   0.231E-01    0.343E-02
RMM:   3    -0.713853466544E+03   -0.30986E-03   -0.32774E-03 15059   0.951E-02    0.309E-02
RMM:   4    -0.713853490033E+03   -0.23488E-04   -0.36508E-04 13675   0.314E-02    0.212E-02
RMM:   5    -0.713853487365E+03    0.26678E-05   -0.10498E-04 10945   0.176E-02    0.117E-02
RMM:   6    -0.713853487061E+03    0.30348E-06   -0.22164E-05  7372   0.768E-03
  18 F= -.71385349E+03 E0= -.71384274E+03  d E =-.580999E-03
 trial-energy change:   -0.000581  1 .order   -0.000487   -0.000731   -0.000244
 step:   1.3588(harm=  1.6865)  dis= 0.00339  next Energy=  -713.853513 (dE=-0.607E-03)
 bond charge predicted
       N       E                     dE             d eps       ncg     rms          rms(c)
DAV:   1    -0.713853474421E+03    0.12944E-04   -0.18091E-02 11560   0.192E-01    0.199E-02
RMM:   2    -0.713853528758E+03   -0.54337E-04   -0.57643E-04 12924   0.485E-02    0.728E-03
RMM:   3    -0.713853540280E+03   -0.11523E-04   -0.13470E-04 12450   0.196E-02    0.685E-03
RMM:   4    -0.713853541006E+03   -0.72577E-06   -0.19126E-05  6559   0.944E-03
  19 F= -.71385354E+03 E0= -.71384279E+03  d E =-.634944E-03
 curvature:  -1.23 expect dE=-0.641E-03 dE for cont linesearch -0.110E-04
 ZBRENT: increasing intervall
 opt :   1.8276  next Energy=  -713.853546 (dE=-0.639E-03)
 bond charge predicted
       N       E                     dE             d eps       ncg     rms          rms(c)
DAV:   1    -0.713853327332E+03    0.21295E-03   -0.71001E-02 10718   0.381E-01    0.417E-02
RMM:   2    -0.713853525926E+03   -0.19859E-03   -0.21084E-03 12843   0.967E-02    0.142E-02
RMM:   3    -0.713853579992E+03   -0.54066E-04   -0.57381E-04 14662   0.398E-02    0.122E-02
RMM:   4    -0.713853584664E+03   -0.46723E-05   -0.69740E-05  9998   0.145E-02
  20 F= -.71385358E+03 E0= -.71384284E+03  d E =-.678602E-03
 curvature:  -0.50 expect dE=-0.483E-03 dE for cont linesearch -0.613E-05
 ZBRENT: bracketing found
 ZBRENT: interpolating
 opt :   1.5751  next Energy=  -713.853553 (dE=-0.647E-03)
 bond charge predicted
       N       E                     dE             d eps       ncg     rms          rms(c)
DAV:   1    -0.713853492498E+03    0.87494E-04   -0.20816E-02 10704   0.208E-01    0.204E-02
RMM:   2    -0.713853558161E+03   -0.65663E-04   -0.70032E-04 12796   0.567E-02    0.790E-03
RMM:   3    -0.713853573496E+03   -0.15335E-04   -0.17350E-04 13145   0.231E-02    0.825E-03
RMM:   4    -0.713853573970E+03   -0.47337E-06   -0.21948E-05  6436   0.101E-02
  21 F= -.71385357E+03 E0= -.71384283E+03  d E =-.667907E-03
 curvature:  -1.00 expect dE=-0.734E-03 dE for cont linesearch -0.205E-04
 ZBRENT: interpolating
 opt :   1.7176  next Energy=  -713.853592 (dE=-0.686E-03)
 bond charge predicted
       N       E                     dE             d eps       ncg     rms          rms(c)
DAV:   1    -0.713853558299E+03    0.15198E-04   -0.65913E-03 10528   0.117E-01    0.119E-02
RMM:   2    -0.713853579105E+03   -0.20806E-04   -0.22063E-04 12688   0.308E-02    0.427E-03
RMM:   3    -0.713853582799E+03   -0.36942E-05   -0.50843E-05  7768   0.127E-02
  22 F= -.71385358E+03 E0= -.71384284E+03  d E =-.676737E-03
 curvature:  -0.36 expect dE=-0.304E-03 dE for cont linesearch -0.203E-05
 trial: gam= 1.45467 g(F)=  0.854E-03 g(S)=  0.000E+00 ort =-0.904E-04 (trialstep = 0.492E+00)
 search vector abs. value=  0.362E-02
 bond charge predicted
       N       E                     dE             d eps       ncg     rms          rms(c)
DAV:   1    -0.713853241092E+03    0.33801E-03   -0.20049E-01 10692   0.636E-01    0.684E-02
RMM:   2    -0.713853774050E+03   -0.53296E-03   -0.56752E-03 12491   0.158E-01    0.246E-02
RMM:   3    -0.713853924526E+03   -0.15048E-03   -0.15970E-03 14962   0.671E-02    0.213E-02
RMM:   4    -0.713853935909E+03   -0.11382E-04   -0.17949E-04 12515   0.227E-02    0.140E-02
RMM:   5    -0.713853935385E+03    0.52326E-06   -0.51469E-05  9464   0.135E-02
  23 F= -.71385394E+03 E0= -.71384320E+03  d E =-.352586E-03
 trial-energy change:   -0.000353  1 .order   -0.000306   -0.000355   -0.000257
 step:   1.7892(harm=  1.7892)  dis= 0.00665  next Energy=  -713.854229 (dE=-0.646E-03)
 bond charge predicted
       N       E                     dE             d eps       ncg     rms          rms(c)
DAV:   1    -0.713849348273E+03    0.45876E-02   -0.13955E+00 10760   0.168E+00    0.184E-01
RMM:   2    -0.713852958203E+03   -0.36099E-02   -0.38428E-02 12377   0.411E-01    0.647E-02
RMM:   3    -0.713854058240E+03   -0.11000E-02   -0.11533E-02 15134   0.178E-01    0.554E-02
RMM:   4    -0.713854145149E+03   -0.86909E-04   -0.12225E-03 15149   0.567E-02    0.405E-02
RMM:   5    -0.713854134202E+03    0.10946E-04   -0.31966E-04 12541   0.262E-02    0.237E-02
RMM:   6    -0.713854131679E+03    0.25239E-05   -0.58445E-05  9312   0.118E-02
  24 F= -.71385413E+03 E0= -.71384341E+03  d E =-.548879E-03
 curvature:  -4.49 expect dE=-0.526E-02 dE for cont linesearch -0.196E-03
 ZBRENT: interpolating
 opt :   1.2288  next Energy=  -713.854243 (dE=-0.660E-03)
 bond charge predicted
       N       E                     dE             d eps       ncg     rms          rms(c)
DAV:   1    -0.713853312909E+03    0.82129E-03   -0.25824E-01 10664   0.721E-01    0.791E-02
RMM:   2    -0.713853964494E+03   -0.65159E-03   -0.69305E-03 12350   0.174E-01    0.280E-02
RMM:   3    -0.713854160945E+03   -0.19645E-03   -0.20605E-03 14985   0.756E-02    0.231E-02
RMM:   4    -0.713854176312E+03   -0.15367E-04   -0.21526E-04 12749   0.245E-02    0.172E-02
RMM:   5    -0.713854174618E+03    0.16938E-05   -0.65476E-05 10123   0.148E-02
  25 F= -.71385417E+03 E0= -.71384345E+03  d E =-.591819E-03
 curvature:  -2.55 expect dE=-0.146E-02 dE for cont linesearch -0.117E-04
 ZBRENT: interpolating
 opt :   1.3657  next Energy=  -713.854183 (dE=-0.601E-03)
 bond charge predicted
       N       E                     dE             d eps       ncg     rms          rms(c)
DAV:   1    -0.713854133385E+03    0.42927E-04   -0.15357E-02 11002   0.176E-01    0.164E-02
RMM:   2    -0.713854171802E+03   -0.38417E-04   -0.41111E-04 12170   0.417E-02    0.673E-03
RMM:   3    -0.713854180947E+03   -0.91451E-05   -0.10968E-04 10896   0.180E-02    0.631E-03
RMM:   4    -0.713854181464E+03   -0.51704E-06   -0.14679E-05  6431   0.874E-03
  26 F= -.71385418E+03 E0= -.71384346E+03  d E =-.598665E-03
 curvature:  -1.93 expect dE=-0.122E-02 dE for cont linesearch -0.418E-05
 trial: gam= 0.74230 g(F)=  0.634E-03 g(S)=  0.000E+00 ort =-0.886E-04 (trialstep = 0.666E+00)
 search vector abs. value=  0.250E-02
 bond charge predicted
       N       E                     dE             d eps       ncg     rms          rms(c)
DAV:   1    -0.713853549969E+03    0.63098E-03   -0.25269E-01 10712   0.730E-01    0.793E-02
RMM:   2    -0.713854262980E+03   -0.71301E-03   -0.75576E-03 12689   0.185E-01    0.268E-02
RMM:   3    -0.713854472360E+03   -0.20938E-03   -0.22037E-03 15127   0.785E-02    0.237E-02
RMM:   4    -0.713854489095E+03   -0.16735E-04   -0.23561E-04 12894   0.255E-02    0.175E-02
RMM:   5    -0.713854487208E+03    0.18877E-05   -0.77028E-05 10566   0.161E-02
  27 F= -.71385449E+03 E0= -.71384375E+03  d E =-.305743E-03
 trial-energy change:   -0.000306  1 .order   -0.000261   -0.000378   -0.000144
 step:   0.8361(harm=  1.0779)  dis= 0.00232  next Energy=  -713.854506 (dE=-0.325E-03)
 bond charge predicted
       N       E                     dE             d eps       ncg     rms          rms(c)
DAV:   1    -0.713854457086E+03    0.32009E-04   -0.16586E-02 11594   0.187E-01    0.244E-02
RMM:   2    -0.713854507796E+03   -0.50710E-04   -0.54354E-04 12612   0.495E-02    0.783E-03
RMM:   3    -0.713854522343E+03   -0.14547E-04   -0.16332E-04 12755   0.214E-02    0.572E-03
RMM:   4    -0.713854523851E+03   -0.15085E-05   -0.23037E-05  6688   0.104E-02
  28 F= -.71385452E+03 E0= -.71384379E+03  d E =-.342387E-03
 curvature:  -1.55 expect dE=-0.402E-03 dE for cont linesearch -0.195E-05
 ZBRENT: extrapolating
 opt :   0.8952  next Energy=  -713.854526 (dE=-0.344E-03)
 bond charge predicted
       N       E                     dE             d eps       ncg     rms          rms(c)
DAV:   1    -0.713854522382E+03   -0.39261E-07   -0.19815E-03 12104   0.662E-02    0.803E-03
RMM:   2    -0.713854529547E+03   -0.71649E-05   -0.77528E-05 10106   0.200E-02
  29 F= -.71385453E+03 E0= -.71384379E+03  d E =-.348083E-03
 curvature:  -1.32 expect dE=-0.370E-03 dE for cont linesearch -0.407E-05
 ZBRENT: bracketing found
 ZBRENT: interpolating
 opt :   0.8591  next Energy=  -713.854524 (dE=-0.343E-03)
 bond charge predicted
       N       E                     dE             d eps       ncg     rms          rms(c)
DAV:   1    -0.713854524234E+03   -0.18519E-05   -0.69846E-04 10504   0.388E-02    0.480E-03
RMM:   2    -0.713854526462E+03   -0.22279E-05   -0.24386E-05  5971   0.125E-02
  30 F= -.71385453E+03 E0= -.71384379E+03  d E =-.344998E-03
 curvature:  -0.21 expect dE=-0.674E-04 dE for cont linesearch -0.996E-05
 ZBRENT: interpolating
 opt :   0.8879  next Energy=  -713.854530 (dE=-0.348E-03)
 bond charge predicted
       N       E                     dE             d eps       ncg     rms          rms(c)
DAV:   1    -0.713854526856E+03   -0.26216E-05   -0.41522E-04 10192   0.324E-02    0.381E-03
RMM:   2    -0.713854529670E+03   -0.28144E-05   -0.31420E-05  7707   0.138E-02
  31 F= -.71385453E+03 E0= -.71384379E+03  d E =-.348206E-03
 curvature:  -0.01 expect dE=-0.192E-05 dE for cont linesearch -0.108E-07
 ZBRENT: bisectioning
 opt :   0.8735  next Energy=  -713.854530 (dE=-0.349E-03)
 bond charge predicted
       N       E                     dE             d eps       ncg     rms          rms(c)
DAV:   1    -0.713854528004E+03   -0.11483E-05   -0.89116E-05  9248   0.190E-02    0.180E-03
RMM:   2    -0.713854529271E+03   -0.12671E-05   -0.13214E-05  5319   0.784E-03
  32 F= -.71385453E+03 E0= -.71384379E+03  d E =-.347807E-03
 curvature:  -0.35 expect dE=-0.111E-03 dE for cont linesearch -0.122E-04
 ZBRENT: interpolating
 opt :   0.8854  next Energy=  -713.854530 (dE=-0.348E-03)
 bond charge predicted
       N       E                     dE             d eps       ncg     rms          rms(c)
DAV:   1    -0.713854528850E+03   -0.84656E-06   -0.61870E-05  8654   0.155E-02    0.143E-03
RMM:   2    -0.713854529657E+03   -0.80692E-06   -0.83974E-06  5229   0.589E-03
  33 F= -.71385453E+03 E0= -.71384379E+03  d E =-.348193E-03
 curvature:  -0.00 expect dE=-0.657E-06 dE for cont linesearch -0.557E-09
 trial: gam= 0.31675 g(F)=  0.286E-03 g(S)=  0.000E+00 ort = 0.246E-04 (trialstep = 0.710E+00)
 search vector abs. value=  0.552E-03
 bond charge predicted
       N       E                     dE             d eps       ncg     rms          rms(c)
DAV:   1    -0.713854460680E+03    0.68171E-04   -0.66371E-02 10700   0.376E-01    0.412E-02
RMM:   2    -0.713854661923E+03   -0.20124E-03   -0.21389E-03 12775   0.960E-02    0.128E-02
RMM:   3    -0.713854711569E+03   -0.49646E-04   -0.54807E-04 14828   0.393E-02    0.130E-02
RMM:   4    -0.713854714179E+03   -0.26099E-05   -0.59430E-05  9616   0.137E-02
  34 F= -.71385471E+03 E0= -.71384398E+03  d E =-.184521E-03
 trial-energy change:   -0.000185  1 .order   -0.000145   -0.000209   -0.000081
 step:   1.1645(harm=  1.1645)  dis= 0.00094  next Energy=  -713.854701 (dE=-0.171E-03)
 bond charge predicted
       N       E                     dE             d eps       ncg     rms          rms(c)
DAV:   1    -0.713854661218E+03    0.50351E-04   -0.26716E-02 11176   0.241E-01    0.293E-02
RMM:   2    -0.713854747372E+03   -0.86154E-04   -0.92612E-04 12836   0.671E-02    0.885E-03
RMM:   3    -0.713854768150E+03   -0.20778E-04   -0.23464E-04 13140   0.270E-02    0.723E-03
RMM:   4    -0.713854769805E+03   -0.16544E-05   -0.33940E-05  7344   0.124E-02
  35 F= -.71385477E+03 E0= -.71384403E+03  d E =-.240147E-03
 curvature:  -1.09 expect dE=-0.181E-03 dE for cont linesearch -0.919E-06
 trial: gam= 0.54352 g(F)=  0.166E-03 g(S)=  0.000E+00 ort = 0.215E-04 (trialstep = 0.801E+00)
 search vector abs. value=  0.352E-03
 bond charge predicted
       N       E                     dE             d eps       ncg     rms          rms(c)
DAV:   1    -0.713854693204E+03    0.74946E-04   -0.54816E-02 10646   0.336E-01    0.388E-02
RMM:   2    -0.713854854596E+03   -0.16139E-03   -0.17151E-03 12617   0.867E-02    0.119E-02
RMM:   3    -0.713854897429E+03   -0.42833E-04   -0.45978E-04 14105   0.359E-02    0.115E-02
RMM:   4    -0.713854900490E+03   -0.30615E-05   -0.52323E-05  9101   0.140E-02
  36 F= -.71385490E+03 E0= -.71384416E+03  d E =-.130686E-03
 trial-energy change:   -0.000131  1 .order   -0.000096   -0.000142   -0.000049
 step:   1.2207(harm=  1.2207)  dis= 0.00107  next Energy=  -713.854878 (dE=-0.108E-03)
 bond charge predicted
       N       E                     dE             d eps       ncg     rms          rms(c)
DAV:   1    -0.713854874186E+03    0.23243E-04   -0.14811E-02 11376   0.176E-01    0.227E-02
RMM:   2    -0.713854919346E+03   -0.45160E-04   -0.48685E-04 12527   0.486E-02    0.725E-03
RMM:   3    -0.713854931381E+03   -0.12035E-04   -0.13603E-04 12366   0.202E-02    0.532E-03
RMM:   4    -0.713854932315E+03   -0.93393E-06   -0.18688E-05  6734   0.954E-03
  37 F= -.71385493E+03 E0= -.71384419E+03  d E =-.162510E-03
 curvature:  -1.21 expect dE=-0.156E-03 dE for cont linesearch -0.186E-05
 trial: gam= 0.88590 g(F)=  0.128E-03 g(S)=  0.000E+00 ort = 0.233E-04 (trialstep = 0.699E+00)
 search vector abs. value=  0.446E-03
 bond charge predicted
       N       E                     dE             d eps       ncg     rms          rms(c)
DAV:   1    -0.713854848230E+03    0.83151E-04   -0.51691E-02 10920   0.328E-01    0.370E-02
RMM:   2    -0.713854991668E+03   -0.14344E-03   -0.15197E-03 12453   0.838E-02    0.118E-02
RMM:   3    -0.713855035041E+03   -0.43373E-04   -0.44799E-04 13905   0.359E-02    0.105E-02
RMM:   4    -0.713855038864E+03   -0.38228E-05   -0.54880E-05  8971   0.144E-02
  38 F= -.71385504E+03 E0= -.71384430E+03  d E =-.106549E-03
 trial-energy change:   -0.000107  1 .order   -0.000074   -0.000104   -0.000045
 step:   1.2226(harm=  1.2226)  dis= 0.00134  next Energy=  -713.855023 (dE=-0.911E-04)
 bond charge predicted
       N       E                     dE             d eps       ncg     rms          rms(c)
DAV:   1    -0.713854987398E+03    0.47643E-04   -0.28837E-02 11336   0.245E-01    0.292E-02
RMM:   2    -0.713855067357E+03   -0.79959E-04   -0.85291E-04 12386   0.636E-02    0.956E-03
RMM:   3    -0.713855092388E+03   -0.25030E-04   -0.26232E-04 13000   0.276E-02    0.740E-03
RMM:   4    -0.713855094880E+03   -0.24920E-05   -0.36875E-05  7793   0.131E-02
  39 F= -.71385509E+03 E0= -.71384435E+03  d E =-.162565E-03
 curvature:  -1.83 expect dE=-0.113E-03 dE for cont linesearch -0.325E-05
 ZBRENT: increasing intervall
 opt :   2.2700  next Energy=  -713.855087 (dE=-0.155E-03)
 bond charge predicted
       N       E                     dE             d eps       ncg     rms          rms(c)
DAV:   1    -0.713854712194E+03    0.38019E-03   -0.11609E-01 10960   0.491E-01    0.555E-02
RMM:   2    -0.713855027828E+03   -0.31563E-03   -0.33440E-03 12427   0.123E-01    0.178E-02
RMM:   3    -0.713855125538E+03   -0.97710E-04   -0.10005E-03 14877   0.530E-02    0.155E-02
RMM:   4    -0.713855133975E+03   -0.84376E-05   -0.11463E-04 11883   0.182E-02    0.120E-02
RMM:   5    -0.713855132849E+03    0.11268E-05   -0.35418E-05  8534   0.114E-02
  40 F= -.71385513E+03 E0= -.71384439E+03  d E =-.200534E-03
 curvature:   4.42 expect dE= 0.110E-02 dE for cont linesearch  0.110E-05
 trial: gam= 2.43959 g(F)=  0.249E-03 g(S)=  0.000E+00 ort =-0.105E-04 (trialstep = 0.158E+00)
 search vector abs. value=  0.285E-02
 bond charge predicted
       N       E                     dE             d eps       ncg     rms          rms(c)
DAV:   1    -0.713855100982E+03    0.32994E-04   -0.17260E-02 11304   0.188E-01    0.241E-02
RMM:   2    -0.713855147477E+03   -0.46496E-04   -0.49375E-04 12120   0.463E-02    0.741E-03
RMM:   3    -0.713855162561E+03   -0.15084E-04   -0.15550E-04 12147   0.207E-02    0.590E-03
RMM:   4    -0.713855163779E+03   -0.12176E-05   -0.20663E-05  7057   0.990E-03
  41 F= -.71385516E+03 E0= -.71384442E+03  d E =-.309302E-04
 trial-energy change:   -0.000031  1 .order   -0.000023   -0.000035   -0.000011
 step:   0.2333(harm=  0.2333)  dis= 0.00067  next Energy=  -713.855159 (dE=-0.260E-04)
 bond charge predicted
       N       E                     dE             d eps       ncg     rms          rms(c)
DAV:   1    -0.713855160074E+03    0.24877E-05   -0.37974E-03 11400   0.881E-02    0.111E-02
RMM:   2    -0.713855170038E+03   -0.99641E-05   -0.10647E-04  9835   0.222E-02    0.396E-03
RMM:   3    -0.713855172887E+03   -0.28497E-05   -0.34412E-05  7651   0.109E-02
  42 F= -.71385517E+03 E0= -.71384443E+03  d E =-.400387E-04
 curvature:  -1.49 expect dE=-0.319E-03 dE for cont linesearch -0.110E-06
 trial: gam=-0.00727 g(F)=  0.214E-03 g(S)=  0.000E+00 ort = 0.145E-04 (trialstep = 0.173E+00)
 search vector abs. value=  0.214E-03
 bond charge predicted
       N       E                     dE             d eps       ncg     rms          rms(c)
DAV:   1    -0.713855198604E+03   -0.28566E-04   -0.14700E-03 11208   0.584E-02    0.614E-03
RMM:   2    -0.713855205670E+03   -0.70661E-05   -0.76428E-05 10946   0.172E-02
  43 F= -.71385521E+03 E0= -.71384446E+03  d E =-.327824E-04
 trial-energy change:   -0.000033  1 .order   -0.000027   -0.000037   -0.000017
 step:   0.3214(harm=  0.3214)  dis= 0.00020  next Energy=  -713.855207 (dE=-0.344E-04)
 bond charge predicted
       N       E                     dE             d eps       ncg     rms          rms(c)
DAV:   1    -0.713855220204E+03   -0.21601E-04   -0.11456E-03 11838   0.537E-02    0.485E-03
RMM:   2    -0.713855226131E+03   -0.59270E-05   -0.69303E-05 11922   0.190E-02
  44 F= -.71385523E+03 E0= -.71384448E+03  d E =-.532437E-04
 curvature:  -0.16 expect dE=-0.746E-05 dE for cont linesearch -0.375E-05
 ZBRENT: increasing intervall
 opt :   0.6174  next Energy=  -713.855239 (dE=-0.659E-04)
 bond charge predicted
       N       E                     dE             d eps       ncg     rms          rms(c)
DAV:   1    -0.713855226594E+03   -0.63903E-05   -0.43602E-03 10992   0.102E-01    0.890E-03
RMM:   2    -0.713855245989E+03   -0.19395E-04   -0.21715E-04 13515   0.330E-02    0.497E-03
RMM:   3    -0.713855248144E+03   -0.21546E-05   -0.47242E-05  8243   0.127E-02
  45 F= -.71385525E+03 E0= -.71384450E+03  d E =-.752564E-04
 curvature:  -0.54 expect dE=-0.352E-04 dE for cont linesearch -0.140E-06
 trial: gam= 0.33259 g(F)=  0.648E-04 g(S)=  0.000E+00 ort =-0.742E-05 (trialstep = 0.262E+00)
 search vector abs. value=  0.836E-04
 bond charge predicted
       N       E                     dE             d eps       ncg     rms          rms(c)
DAV:   1    -0.713855258493E+03   -0.12504E-04   -0.13363E-03 13734   0.628E-02    0.594E-03
RMM:   2    -0.713855264801E+03   -0.63074E-05   -0.69692E-05  9618   0.179E-02
  46 F= -.71385526E+03 E0= -.71384452E+03  d E =-.166571E-04
 trial-energy change:   -0.000017  1 .order   -0.000012   -0.000016   -0.000007
 step:   0.4613(harm=  0.4613)  dis= 0.00013  next Energy=  -713.855263 (dE=-0.144E-04)
 reached required accuracy - stopping structural energy minimisation
