<?xml version="1.0" encoding="ISO-8859-1"?>
<modeling>
 <generator>
  <i name="program" type="string">vasp </i>
  <i name="version" type="string">6.4.2  </i>
  <i name="subversion" type="string">20Jul23 (build Nov 12 2023 22:16:35) complex                          parallel </i>
  <i name="platform" type="string">LinuxNV </i>
  <i name="date" type="string">2025 03 07 </i>
  <i name="time" type="string">20:40:03 </i>
 </generator>
 <incar>
  <i type="int" name="ISTART">     0</i>
  <i type="string" name="PREC">Normal</i>
  <i type="string" name="ALGO">Fast</i>
  <i type="int" name="ISPIN">     1</i>
  <i type="int" name="ICHARG">     2</i>
  <i type="int" name="IBRION">     2</i>
  <i name="EDIFF">      0.00001000</i>
  <i name="EDIFFG">     -0.00500000</i>
  <i type="int" name="NSW">   300</i>
  <i type="int" name="ISIF">     2</i>
  <i name="ENCUT">    450.00000000</i>
  <i type="string" name="LREAL">Auto</i>
  <i type="logical" name="LPLANE"> T  </i>
  <i type="int" name="ISMEAR">     0</i>
  <i name="SIGMA">      0.05000000</i>
  <i type="logical" name="LWAVE"> F  </i>
  <i type="logical" name="LCHARG"> F  </i>
 </incar>
 <primitive_cell>
  <structure name="primitive_cell" >
   <crystal>
    <varray name="basis" >
     <v>       0.00000000      12.28047342       0.00000000 </v>
     <v>       9.14270205       0.00000000       0.00000000 </v>
     <v>       0.00000000      -2.76826177     -11.30069772 </v>
    </varray>
    <i name="volume">   1268.80515525 </i>
    <varray name="rec_basis" >
     <v>       0.00000000       0.08143009      -0.01994742 </v>
     <v>       0.10937686      -0.00000000       0.00000000 </v>
     <v>       0.00000000       0.00000000      -0.08849011 </v>
    </varray>
   </crystal>
   <varray name="positions" >
    <v>       0.65883830       0.00000000       0.15736517 </v>
    <v>       0.65883830       0.00000000       0.65736517 </v>
    <v>       0.65883830       0.33333333       0.15736517 </v>
    <v>       0.65883830       0.33333333       0.65736517 </v>
    <v>       0.65883830       0.66666667       0.15736517 </v>
    <v>       0.65883830       0.66666667       0.65736517 </v>
    <v>       0.84116170       0.16666667       0.34263483 </v>
    <v>       0.84116170       0.16666667       0.84263483 </v>
    <v>       0.84116170       0.50000000       0.34263483 </v>
    <v>       0.84116170       0.50000000       0.84263483 </v>
    <v>       0.84116170       0.83333333       0.34263483 </v>
    <v>       0.84116170       0.83333333       0.84263483 </v>
    <v>       0.59047440       0.16666667       0.39739300 </v>
    <v>       0.59047440       0.16666667       0.89739300 </v>
    <v>       0.59047440       0.50000000       0.39739300 </v>
    <v>       0.59047440       0.50000000       0.89739300 </v>
    <v>       0.59047440       0.83333333       0.39739300 </v>
    <v>       0.59047440       0.83333333       0.89739300 </v>
    <v>       0.90952560       0.00000000       0.10260700 </v>
    <v>       0.90952560       0.00000000       0.60260700 </v>
    <v>       0.90952560       0.33333333       0.10260700 </v>
    <v>       0.90952560       0.33333333       0.60260700 </v>
    <v>       0.90952560       0.66666667       0.10260700 </v>
    <v>       0.90952560       0.66666667       0.60260700 </v>
    <v>       0.15883830       0.16666667       0.15736517 </v>
    <v>       0.15883830       0.16666667       0.65736517 </v>
    <v>       0.15883830       0.50000000       0.15736517 </v>
    <v>       0.15883830       0.50000000       0.65736517 </v>
    <v>       0.15883830       0.83333333       0.15736517 </v>
    <v>       0.15883830       0.83333333       0.65736517 </v>
    <v>       0.34116170       0.00000000       0.34263483 </v>
    <v>       0.34116170       0.00000000       0.84263483 </v>
    <v>       0.34116170       0.33333333       0.34263483 </v>
    <v>       0.34116170       0.33333333       0.84263483 </v>
    <v>       0.34116170       0.66666667       0.34263483 </v>
    <v>       0.34116170       0.66666667       0.84263483 </v>
    <v>       0.09047440       0.00000000       0.39739300 </v>
    <v>       0.09047440       0.00000000       0.89739300 </v>
    <v>       0.09047440       0.33333333       0.39739300 </v>
    <v>       0.09047440       0.33333333       0.89739300 </v>
    <v>       0.09047440       0.66666667       0.39739300 </v>
    <v>       0.09047440       0.66666667       0.89739300 </v>
    <v>       0.40952560       0.16666667       0.10260700 </v>
    <v>       0.40952560       0.16666667       0.60260700 </v>
    <v>       0.40952560       0.50000000       0.10260700 </v>
    <v>       0.40952560       0.50000000       0.60260700 </v>
    <v>       0.40952560       0.83333333       0.10260700 </v>
    <v>       0.40952560       0.83333333       0.60260700 </v>
    <v>       0.99646913       0.16666667       0.12833205 </v>
    <v>       0.99646913       0.16666667       0.62833205 </v>
    <v>       0.99646913       0.50000000       0.12833205 </v>
    <v>       0.99646913       0.50000000       0.62833205 </v>
    <v>       0.99646913       0.83333333       0.12833205 </v>
    <v>       0.99646913       0.83333333       0.62833205 </v>
    <v>       0.50353087       0.00000000       0.37166795 </v>
    <v>       0.50353087       0.00000000       0.87166795 </v>
    <v>       0.50353087       0.33333333       0.37166795 </v>
    <v>       0.50353087       0.33333333       0.87166795 </v>
    <v>       0.50353087       0.66666667       0.37166795 </v>
    <v>       0.50353087       0.66666667       0.87166795 </v>
    <v>       0.67337106       0.16666667       0.28161508 </v>
    <v>       0.67337106       0.16666667       0.78161508 </v>
    <v>       0.67337106       0.50000000       0.28161508 </v>
    <v>       0.67337106       0.50000000       0.78161508 </v>
    <v>       0.67337106       0.83333333       0.28161508 </v>
    <v>       0.67337106       0.83333333       0.78161508 </v>
    <v>       0.82662894       0.00000000       0.21838492 </v>
    <v>       0.82662894       0.00000000       0.71838492 </v>
    <v>       0.82662894       0.33333333       0.21838492 </v>
    <v>       0.82662894       0.33333333       0.71838492 </v>
    <v>       0.82662894       0.66666667       0.21838492 </v>
    <v>       0.82662894       0.66666667       0.71838492 </v>
    <v>       0.83549502       0.00000000       0.44542296 </v>
    <v>       0.83549502       0.00000000       0.94542296 </v>
    <v>       0.83549502       0.33333333       0.44542296 </v>
    <v>       0.83549502       0.33333333       0.94542296 </v>
    <v>       0.83549502       0.66666667       0.44542296 </v>
    <v>       0.83549502       0.66666667       0.94542296 </v>
    <v>       0.66450498       0.16666667       0.05457704 </v>
    <v>       0.66450498       0.16666667       0.55457704 </v>
    <v>       0.66450498       0.50000000       0.05457704 </v>
    <v>       0.66450498       0.50000000       0.55457704 </v>
    <v>       0.66450498       0.83333333       0.05457704 </v>
    <v>       0.66450498       0.83333333       0.55457704 </v>
    <v>       0.49646913       0.00000000       0.12833205 </v>
    <v>       0.49646913       0.00000000       0.62833205 </v>
    <v>       0.49646913       0.33333333       0.12833205 </v>
    <v>       0.49646913       0.33333333       0.62833205 </v>
    <v>       0.49646913       0.66666667       0.12833205 </v>
    <v>       0.49646913       0.66666667       0.62833205 </v>
    <v>       0.00353087       0.16666667       0.87166795 </v>
    <v>       0.00353087       0.50000000       0.37166795 </v>
    <v>       0.00353087       0.50000000       0.87166795 </v>
    <v>       0.00353087       0.83333333       0.37166795 </v>
    <v>       0.00353087       0.83333333       0.87166795 </v>
    <v>       0.17337106       0.00000000       0.28161508 </v>
    <v>       0.17337106       0.00000000       0.78161508 </v>
    <v>       0.17337106       0.33333333       0.28161508 </v>
    <v>       0.17337106       0.33333333       0.78161508 </v>
    <v>       0.17337106       0.66666667       0.28161508 </v>
    <v>       0.17337106       0.66666667       0.78161508 </v>
    <v>       0.32662894       0.16666667       0.21838492 </v>
    <v>       0.32662894       0.16666667       0.71838492 </v>
    <v>       0.32662894       0.50000000       0.21838492 </v>
    <v>       0.32662894       0.50000000       0.71838492 </v>
    <v>       0.32662894       0.83333333       0.21838492 </v>
    <v>       0.32662894       0.83333333       0.71838492 </v>
    <v>       0.33549502       0.16666667       0.44542296 </v>
    <v>       0.33549502       0.16666667       0.94542296 </v>
    <v>       0.33549502       0.50000000       0.44542296 </v>
    <v>       0.33549502       0.50000000       0.94542296 </v>
    <v>       0.33549502       0.83333333       0.44542296 </v>
    <v>       0.33549502       0.83333333       0.94542296 </v>
    <v>       0.16450498       0.00000000       0.05457704 </v>
    <v>       0.16450498       0.00000000       0.55457704 </v>
    <v>       0.16450498       0.33333333       0.05457704 </v>
    <v>       0.16450498       0.33333333       0.55457704 </v>
    <v>       0.16450498       0.66666667       0.05457704 </v>
    <v>       0.16450498       0.66666667       0.55457704 </v>
    <v>       0.00353087       0.16666667       0.37166795 </v>
   </varray>
  </structure>
  <varray name="primitive_index" >
   <v type="int" >        1 </v>
   <v type="int" >        2 </v>
   <v type="int" >        3 </v>
   <v type="int" >        4 </v>
   <v type="int" >        5 </v>
   <v type="int" >        6 </v>
   <v type="int" >        7 </v>
   <v type="int" >        8 </v>
   <v type="int" >        9 </v>
   <v type="int" >       10 </v>
   <v type="int" >       11 </v>
   <v type="int" >       12 </v>
   <v type="int" >       13 </v>
   <v type="int" >       14 </v>
   <v type="int" >       15 </v>
   <v type="int" >       16 </v>
   <v type="int" >       17 </v>
   <v type="int" >       18 </v>
   <v type="int" >       19 </v>
   <v type="int" >       20 </v>
   <v type="int" >       21 </v>
   <v type="int" >       22 </v>
   <v type="int" >       23 </v>
   <v type="int" >       24 </v>
   <v type="int" >       25 </v>
   <v type="int" >       26 </v>
   <v type="int" >       27 </v>
   <v type="int" >       28 </v>
   <v type="int" >       29 </v>
   <v type="int" >       30 </v>
   <v type="int" >       31 </v>
   <v type="int" >       32 </v>
   <v type="int" >       33 </v>
   <v type="int" >       34 </v>
   <v type="int" >       35 </v>
   <v type="int" >       36 </v>
   <v type="int" >       37 </v>
   <v type="int" >       38 </v>
   <v type="int" >       39 </v>
   <v type="int" >       40 </v>
   <v type="int" >       41 </v>
   <v type="int" >       42 </v>
   <v type="int" >       43 </v>
   <v type="int" >       44 </v>
   <v type="int" >       45 </v>
   <v type="int" >       46 </v>
   <v type="int" >       47 </v>
   <v type="int" >       48 </v>
   <v type="int" >       49 </v>
   <v type="int" >       50 </v>
   <v type="int" >       51 </v>
   <v type="int" >       52 </v>
   <v type="int" >       53 </v>
   <v type="int" >       54 </v>
   <v type="int" >       55 </v>
   <v type="int" >       56 </v>
   <v type="int" >       57 </v>
   <v type="int" >       58 </v>
   <v type="int" >       59 </v>
   <v type="int" >       60 </v>
   <v type="int" >       61 </v>
   <v type="int" >       62 </v>
   <v type="int" >       63 </v>
   <v type="int" >       64 </v>
   <v type="int" >       65 </v>
   <v type="int" >       66 </v>
   <v type="int" >       67 </v>
   <v type="int" >       68 </v>
   <v type="int" >       69 </v>
   <v type="int" >       70 </v>
   <v type="int" >       71 </v>
   <v type="int" >       72 </v>
   <v type="int" >       73 </v>
   <v type="int" >       74 </v>
   <v type="int" >       75 </v>
   <v type="int" >       76 </v>
   <v type="int" >       77 </v>
   <v type="int" >       78 </v>
   <v type="int" >       79 </v>
   <v type="int" >       80 </v>
   <v type="int" >       81 </v>
   <v type="int" >       82 </v>
   <v type="int" >       83 </v>
   <v type="int" >       84 </v>
   <v type="int" >       85 </v>
   <v type="int" >       86 </v>
   <v type="int" >       87 </v>
   <v type="int" >       88 </v>
   <v type="int" >       89 </v>
   <v type="int" >       90 </v>
   <v type="int" >       91 </v>
   <v type="int" >       92 </v>
   <v type="int" >       93 </v>
   <v type="int" >       94 </v>
   <v type="int" >       95 </v>
   <v type="int" >       96 </v>
   <v type="int" >       97 </v>
   <v type="int" >       98 </v>
   <v type="int" >       99 </v>
   <v type="int" >      100 </v>
   <v type="int" >      101 </v>
   <v type="int" >      102 </v>
   <v type="int" >      103 </v>
   <v type="int" >      104 </v>
   <v type="int" >      105 </v>
   <v type="int" >      106 </v>
   <v type="int" >      107 </v>
   <v type="int" >      108 </v>
   <v type="int" >      109 </v>
   <v type="int" >      110 </v>
   <v type="int" >      111 </v>
   <v type="int" >      112 </v>
   <v type="int" >      113 </v>
   <v type="int" >      114 </v>
   <v type="int" >      115 </v>
   <v type="int" >      116 </v>
   <v type="int" >      117 </v>
   <v type="int" >      118 </v>
   <v type="int" >      119 </v>
   <v type="int" >      120 </v>
  </varray>
 </primitive_cell>
 <kpoints>
  <generation param="Gamma">
   <v type="int" name="divisions">       2        2        2 </v>
   <v name="usershift">      0.00000000       0.00000000       0.00000000 </v>
   <v name="genvec1">      0.50000000       0.00000000       0.00000000 </v>
   <v name="genvec2">      0.00000000       0.50000000       0.00000000 </v>
   <v name="genvec3">      0.00000000       0.00000000       0.50000000 </v>
   <v name="shift">      0.00000000       0.00000000       0.00000000 </v>
  </generation>
  <varray name="kpointlist" >
   <v>       0.00000000       0.00000000       0.00000000 </v>
   <v>       0.50000000       0.00000000       0.00000000 </v>
   <v>       0.00000000       0.50000000       0.00000000 </v>
   <v>       0.50000000       0.50000000       0.00000000 </v>
   <v>       0.00000000       0.00000000       0.50000000 </v>
   <v>       0.50000000       0.00000000       0.50000000 </v>
   <v>       0.00000000       0.50000000       0.50000000 </v>
   <v>       0.50000000       0.50000000       0.50000000 </v>
  </varray>
  <varray name="weights" >
   <v>       0.12500000 </v>
   <v>       0.12500000 </v>
   <v>       0.12500000 </v>
   <v>       0.12500000 </v>
   <v>       0.12500000 </v>
   <v>       0.12500000 </v>
   <v>       0.12500000 </v>
   <v>       0.12500000 </v>
  </varray>
 </kpoints>
 <parameters>
  <separator name="general" >
   <i type="string" name="SYSTEM">unknown system</i>
   <i type="logical" name="LCOMPAT"> F  </i>
  </separator>
  <separator name="electronic" >
   <i type="string" name="PREC">normal</i>
   <i name="ENMAX">    450.00000000</i>
   <i name="ENAUG">    627.11200000</i>
   <i name="EDIFF">      0.00001000</i>
   <i type="int" name="IALGO">    68</i>
   <i type="int" name="IWAVPR">    11</i>
   <i type="int" name="NBANDS">   633</i>
   <i type="int" name="NBANDSLOW">    -1</i>
   <i type="int" name="NBANDSHIGH">    -1</i>
   <i name="NELECT">   1055.00000000</i>
   <i type="int" name="TURBO">     0</i>
   <i type="int" name="IRESTART">     0</i>
   <i type="int" name="NREBOOT">     0</i>
   <i type="int" name="NMIN">     0</i>
   <i name="EREF">      0.00000000</i>
   <separator name="electronic smearing" >
    <i type="int" name="ISMEAR">     0</i>
    <i name="SIGMA">      0.05000000</i>
    <i name="KSPACING">      0.50000000</i>
    <i type="logical" name="KGAMMA"> T  </i>
    <i type="logical" name="KBLOWUP"> T  </i>
   </separator>
   <separator name="electronic projectors" >
    <i type="logical" name="LREAL"> T  </i>
    <v name="ROPT">     -0.00050000     -0.00050000     -0.00050000</v>
    <i type="int" name="LMAXPAW">  -100</i>
    <i type="int" name="LMAXMIX">     2</i>
    <i type="logical" name="NLSPLINE"> F  </i>
   </separator>
   <separator name="electronic startup" >
    <i type="int" name="ISTART">     0</i>
    <i type="int" name="ICHARG">     2</i>
    <i type="int" name="INIWAV">     1</i>
   </separator>
   <separator name="electronic spin" >
    <i type="int" name="ISPIN">     1</i>
    <i type="logical" name="LNONCOLLINEAR"> F  </i>
    <v name="MAGMOM">      1.00000000      1.00000000      1.00000000      1.00000000      1.00000000      1.00000000      1.00000000      1.00000000      1.00000000      1.00000000      1.00000000      1.00000000      1.00000000      1.00000000      1.00000000      1.00000000      1.00000000      1.00000000      1.00000000      1.00000000
      1.00000000      1.00000000      1.00000000      1.00000000      1.00000000      1.00000000      1.00000000      1.00000000      1.00000000      1.00000000      1.00000000      1.00000000      1.00000000      1.00000000      1.00000000      1.00000000      1.00000000      1.00000000      1.00000000      1.00000000
      1.00000000      1.00000000      1.00000000      1.00000000      1.00000000      1.00000000      1.00000000      1.00000000      1.00000000      1.00000000      1.00000000      1.00000000      1.00000000      1.00000000      1.00000000      1.00000000      1.00000000      1.00000000      1.00000000      1.00000000
      1.00000000      1.00000000      1.00000000      1.00000000      1.00000000      1.00000000      1.00000000      1.00000000      1.00000000      1.00000000      1.00000000      1.00000000      1.00000000      1.00000000      1.00000000      1.00000000      1.00000000      1.00000000      1.00000000      1.00000000
      1.00000000      1.00000000      1.00000000      1.00000000      1.00000000      1.00000000      1.00000000      1.00000000      1.00000000      1.00000000      1.00000000      1.00000000      1.00000000      1.00000000      1.00000000      1.00000000      1.00000000      1.00000000      1.00000000      1.00000000
      1.00000000      1.00000000      1.00000000      1.00000000      1.00000000      1.00000000      1.00000000      1.00000000      1.00000000      1.00000000      1.00000000      1.00000000      1.00000000      1.00000000      1.00000000      1.00000000      1.00000000      1.00000000      1.00000000      1.00000000
</v>
    <i name="NUPDOWN">     -1.00000000</i>
    <i type="logical" name="LSORBIT"> F  </i>
    <v name="SAXIS">      0.00000000      0.00000000      1.00000000</v>
    <i type="logical" name="LSPIRAL"> F  </i>
    <v name="QSPIRAL">      0.00000000      0.00000000      0.00000000</v>
    <i type="logical" name="LZEROZ"> F  </i>
   </separator>
   <separator name="electronic exchange-correlation" >
    <i type="logical" name="LASPH"> F  </i>
    <i type="logical" name="LMETAGGA"> F  </i>
   </separator>
   <separator name="electronic convergence" >
    <i type="int" name="NELM">    60</i>
    <i type="int" name="NELMDL">    -5</i>
    <i type="int" name="NELMIN">     2</i>
    <i name="ENINI">    450.00000000</i>
    <separator name="electronic convergence detail" >
     <i type="logical" name="LDIAG"> T  </i>
     <i type="logical" name="LSUBROT"> F  </i>
     <i name="WEIMIN">      0.00100000</i>
     <i name="EBREAK">      0.00000000</i>
     <i name="DEPER">      0.30000000</i>
     <i type="int" name="NRMM">     4</i>
     <i name="TIME">      0.40000000</i>
    </separator>
   </separator>
   <separator name="electronic mixer" >
    <i name="AMIX">      0.40000000</i>
    <i name="BMIX">      1.00000000</i>
    <i name="AMIN">      0.10000000</i>
    <i name="AMIX_MAG">      1.60000000</i>
    <i name="BMIX_MAG">      1.00000000</i>
    <separator name="electronic mixer details" >
     <i type="int" name="IMIX">     4</i>
     <i type="logical" name="MIXFIRST"> F  </i>
     <i type="int" name="MAXMIX">   -45</i>
     <i name="WC">    100.00000000</i>
     <i type="int" name="INIMIX">     1</i>
     <i type="int" name="MIXPRE">     1</i>
     <i type="int" name="MREMOVE">     5</i>
    </separator>
   </separator>
   <separator name="electronic dipolcorrection" >
    <i type="logical" name="LDIPOL"> F  </i>
    <i type="logical" name="LMONO"> F  </i>
    <i type="int" name="IDIPOL">     0</i>
    <i name="EPSILON">      1.00000000</i>
    <v name="DIPOL">   -100.00000000   -100.00000000   -100.00000000</v>
    <i name="EFIELD">      0.00000000</i>
   </separator>
  </separator>
  <separator name="grids" >
   <i type="int" name="NGX">    64</i>
   <i type="int" name="NGY">    48</i>
   <i type="int" name="NGZ">    60</i>
   <i type="int" name="NGXF">   128</i>
   <i type="int" name="NGYF">    96</i>
   <i type="int" name="NGZF">   120</i>
   <i type="logical" name="ADDGRID"> F  </i>
  </separator>
  <separator name="ionic" >
   <i type="int" name="NSW">   300</i>
   <i type="int" name="IBRION">     2</i>
   <i type="int" name="MDALGO">     0</i>
   <i type="int" name="ISIF">     2</i>
   <i name="PSTRESS">      0.00000000</i>
   <i name="EDIFFG">     -0.00500000</i>
   <i type="int" name="NFREE">     1</i>
   <i name="POTIM">      0.50000000</i>
   <i name="SMASS">     -3.00000000</i>
   <i name="SCALEE">      1.00000000</i>
  </separator>
  <separator name="ionic md" >
   <i name="TEBEG">      0.00010000</i>
   <i name="TEEND">      0.00010000</i>
   <i type="int" name="NBLOCK">     1</i>
   <i type="int" name="KBLOCK">   300</i>
   <i type="int" name="NPACO">   256</i>
   <i name="APACO">     10.00000000</i>
  </separator>
  <separator name="symmetry" >
   <i type="int" name="ISYM">     2</i>
   <i name="SYMPREC">      0.00001000</i>
  </separator>
  <separator name="dos" >
   <i type="int" name="LORBIT">     0</i>
   <v name="RWIGS">     -1.00000000     -1.00000000     -1.00000000</v>
   <i type="int" name="NEDOS">   301</i>
   <i name="EMIN">     10.00000000</i>
   <i name="EMAX">    -10.00000000</i>
   <i name="EFERMI">      0.00000000</i>
  </separator>
  <separator name="writing" >
   <i type="int" name="NWRITE">     2</i>
   <i type="logical" name="LWAVE"> F  </i>
   <i type="logical" name="LDOWNSAMPLE"> F  </i>
   <i type="logical" name="LCHARG"> F  </i>
   <i type="logical" name="LPARD"> F  </i>
   <i type="logical" name="LVTOT"> F  </i>
   <i type="logical" name="LVHAR"> F  </i>
   <i type="logical" name="LELF"> F  </i>
   <i type="logical" name="LOPTICS"> F  </i>
   <v name="STM">      0.00000000      0.00000000      0.00000000      0.00000000      0.00000000      0.00000000      0.00000000</v>
  </separator>
  <separator name="performance" >
   <i type="int" name="NPAR">     1</i>
   <i type="int" name="NSIM">     4</i>
   <i type="int" name="NBLK">    -1</i>
   <i type="logical" name="LPLANE"> T  </i>
   <i type="logical" name="LSCALAPACK"> T  </i>
   <i type="logical" name="LSCAAWARE"> F  </i>
   <i type="logical" name="LSCALU"> F  </i>
   <i type="logical" name="LASYNC"> F  </i>
   <i type="logical" name="LORBITALREAL"> F  </i>
  </separator>
  <separator name="miscellaneous" >
   <i type="int" name="IDIOT">     3</i>
   <i type="int" name="PHON_NSTRUCT">    -1</i>
   <i type="logical" name="LMUSIC"> F  </i>
   <v name="POMASS">     69.72300000     16.00000000     14.00100000</v>
   <v name="DARWINR">      0.00000000      0.00000000      0.00000000</v>
   <v name="DARWINV">      1.00000000      1.00000000      1.00000000</v>
   <i type="logical" name="LCORR"> T  </i>
  </separator>
  <i type="logical" name="GGA_COMPAT"> T  </i>
  <i type="logical" name="LBERRY"> F  </i>
  <i type="int" name="ICORELEVEL">     0</i>
  <i type="logical" name="LDAU"> F  </i>
  <i type="int" name="I_CONSTRAINED_M">     0</i>
  <separator name="electronic exchange-correlation" >
   <i type="string" name="GGA">--</i>
   <i type="int" name="VOSKOWN">     0</i>
   <i type="logical" name="LHFCALC"> F  </i>
   <i type="string" name="PRECFOCK"></i>
   <i type="logical" name="LSYMGRAD"> F  </i>
   <i type="logical" name="LHFONE"> F  </i>
   <i type="logical" name="LRHFCALC"> F  </i>
   <i type="logical" name="LTHOMAS"> F  </i>
   <i type="logical" name="LMODELHF"> F  </i>
   <i type="logical" name="LFOCKACE"> F  </i>
   <i name="ENCUT4O">     -1.00000000</i>
   <i type="int" name="EXXOEP">     0</i>
   <i type="int" name="FOURORBIT">     0</i>
   <i name="AEXX">      0.00000000</i>
   <i name="HFALPHA">      0.00000000</i>
   <i name="MCALPHA">      0.00000000</i>
   <i name="ALDAX">      1.00000000</i>
   <i name="AGGAX">      1.00000000</i>
   <i name="ALDAC">      1.00000000</i>
   <i name="AGGAC">      1.00000000</i>
   <i type="int" name="NKREDX">     1</i>
   <i type="int" name="NKREDY">     1</i>
   <i type="int" name="NKREDZ">     1</i>
   <i type="logical" name="SHIFTRED"> F  </i>
   <i type="logical" name="ODDONLY"> F  </i>
   <i type="logical" name="EVENONLY"> F  </i>
   <i type="int" name="LMAXFOCK">     0</i>
   <i type="int" name="NMAXFOCKAE">     0</i>
   <i type="logical" name="LFOCKAEDFT"> F  </i>
   <i name="HFSCREEN">      0.00000000</i>
   <i name="HFSCREENC">      0.00000000</i>
   <i type="int" name="NBANDSGWLOW">     0</i>
  </separator>
  <separator name="vdW DFT" >
   <i type="logical" name="LUSE_VDW"> F  </i>
   <i type="int" name="IVDW_NL">     1</i>
   <i type="logical" name="LSPIN_VDW"> F  </i>
   <i name="Zab_VDW">     -0.84910000</i>
   <i name="PARAM1">      0.12340000</i>
   <i name="PARAM2">      1.00000000</i>
   <i name="PARAM3">      0.00000000</i>
  </separator>
  <separator name="model GW" >
   <i type="int" name="MODEL_GW">     0</i>
   <i name="MODEL_EPS0">      6.34402578</i>
   <i name="MODEL_ALPHA">      1.00000000</i>
  </separator>
  <separator name="linear response parameters" >
   <i type="logical" name="LEPSILON"> F  </i>
   <i type="logical" name="LRPA"> F  </i>
   <i type="logical" name="LNABLA"> F  </i>
   <i type="logical" name="LVEL"> F  </i>
   <i name="CSHIFT">      0.10000000</i>
   <i name="OMEGAMAX">     -1.00000000</i>
   <i name="DEG_THRESHOLD">      0.00200000</i>
   <i name="RTIME">     -0.10000000</i>
   <i name="WPLASMAI">      0.00000000</i>
   <v name="DFIELD">      0.00000000      0.00000000      0.00000000</v>
   <v name="WPLASMA">      0.00000000      0.00000000      0.00000000      0.00000000      0.00000000      0.00000000      0.00000000      0.00000000      0.00000000</v>
  </separator>
  <separator name="orbital magnetization" >
   <i type="logical" name="NUCIND"> F  </i>
   <v name="MAGPOS">      0.00000000      0.00000000      0.00000000</v>
   <i type="logical" name="LNICSALL"> T  </i>
   <i type="logical" name="ORBITALMAG"> F  </i>
   <i type="logical" name="LMAGBLOCH"> F  </i>
   <i type="logical" name="LCHIMAG"> F  </i>
   <i type="logical" name="LGAUGE"> T  </i>
   <i type="int" name="MAGATOM">     0</i>
   <v name="MAGDIPOL">      0.00000000      0.00000000      0.00000000</v>
   <v name="AVECCONST">      0.00000000      0.00000000      0.00000000</v>
  </separator>
  <separator name="response functions" >
   <i type="logical" name="LALL_IN_ONE"> F  </i>
   <i type="int" name="IALL_IN_ONE">    -1</i>
   <i type="int" name="NBANDS_WAVE">    -1</i>
   <i type="logical" name="LFINITE_TEMPERATURE"> F  </i>
   <i type="logical" name="LADDER"> F  </i>
   <i type="logical" name="LRPAFORCE"> F  </i>
   <i type="logical" name="LFXC"> F  </i>
   <i type="logical" name="LHARTREE"> T  </i>
   <i type="int" name="IBSE">     0</i>
   <v type="int" name="KPOINT">    -1     0     0     0</v>
   <i type="logical" name="LTCTC"> F  </i>
   <i type="logical" name="LTCTE"> F  </i>
   <i type="logical" name="LTETE"> F  </i>
   <i type="logical" name="LTRIPLET"> F  </i>
   <i type="logical" name="LFXCEPS"> F  </i>
   <i type="logical" name="LFXHEG"> F  </i>
   <i type="int" name="NATURALO">     2</i>
   <i type="logical" name="LHOLEGF"> F  </i>
   <i type="logical" name="L2ORDER"> F  </i>
   <i type="logical" name="LDMP1"> F  </i>
   <i type="logical" name="LMP2LT"> F  </i>
   <i type="logical" name="LSMP2LT"> F  </i>
   <i type="logical" name="LGWLF"> F  </i>
   <i name="ENCUTGW">     -1.60000002</i>
   <i name="ENCUTGWSOFT">     -1.60000002</i>
   <i name="ENCUTLF">     -1.00000000</i>
   <i type="logical" name="LESF_SPLINES"> F  </i>
   <i type="int" name="LMAXMP2">    -1</i>
   <i name="SCISSOR">      0.00000000</i>
   <i type="int" name="NOMEGA">     0</i>
   <i type="int" name="NOMEGAR">     0</i>
   <i type="int" name="NBANDSGW">    -1</i>
   <i type="int" name="NBANDSO">    -1</i>
   <i type="int" name="NBANDSV">    -1</i>
   <i type="int" name="NELMGW">     1</i>
   <i type="int" name="NELMHF">     1</i>
   <i type="int" name="DIM">     3</i>
   <i type="int" name="IESPILON">     4</i>
   <i type="int" name="ANTIRES">     0</i>
   <i name="OMEGAMAX">    -30.00000000</i>
   <i name="OMEGAMIN">    -30.00000000</i>
   <i name="OMEGATL">   -200.00000000</i>
   <i type="int" name="OMEGAGRID">     0</i>
   <i name="CSHIFT">     -0.10000000</i>
   <i type="logical" name="LSELFENERGY"> F  </i>
   <i type="logical" name="LSPECTRAL"> F  </i>
   <i type="logical" name="LSPECTRALGW"> F  </i>
   <i type="logical" name="LSINGLES"> F  </i>
   <i type="logical" name="LFERMIGW"> F  </i>
   <i type="logical" name="ODDONLYGW"> F  </i>
   <i type="logical" name="EVENONLYGW"> F  </i>
   <i type="int" name="NKREDLFX">     1</i>
   <i type="int" name="NKREDLFY">     1</i>
   <i type="int" name="NKREDLFZ">     1</i>
   <i type="int" name="MAXMEM">  2800</i>
   <i type="int" name="TELESCOPE">     0</i>
   <i type="int" name="NTAUPAR">    -1</i>
   <i type="int" name="NOMEGAPAR">    -1</i>
   <i name="DAMP_NEWTON">      0.80000001</i>
   <i name="LAMBDA">      1.00000000</i>
  </separator>
  <separator name="External order field" >
   <i name="OFIELD_KAPPA">      0.00000000</i>
   <v name="OFIELD_K">      0.00000000      0.00000000      0.00000000</v>
   <i name="OFIELD_Q6_NEAR">      0.00000000</i>
   <i name="OFIELD_Q6_FAR">      0.00000000</i>
   <i name="OFIELD_A">      0.00000000</i>
  </separator>
  <separator name="optional k-points parameters" >
   <i type="int" name="KPOINTS_OPT_MODE">     1</i>
   <i type="logical" name="LKPOINTS_OPT"> F  </i>
  </separator>
 </parameters>
 <atominfo>
  <atoms>     120 </atoms>
  <types>       3 </types>
  <array name="atoms" >
   <dimension dim="1">ion</dimension>
   <field type="string">element</field>
   <field type="int">atomtype</field>
   <set>
    <rc><c>Ga</c><c>   1</c></rc>
    <rc><c>Ga</c><c>   1</c></rc>
    <rc><c>Ga</c><c>   1</c></rc>
    <rc><c>Ga</c><c>   1</c></rc>
    <rc><c>Ga</c><c>   1</c></rc>
    <rc><c>Ga</c><c>   1</c></rc>
    <rc><c>Ga</c><c>   1</c></rc>
    <rc><c>Ga</c><c>   1</c></rc>
    <rc><c>Ga</c><c>   1</c></rc>
    <rc><c>Ga</c><c>   1</c></rc>
    <rc><c>Ga</c><c>   1</c></rc>
    <rc><c>Ga</c><c>   1</c></rc>
    <rc><c>Ga</c><c>   1</c></rc>
    <rc><c>Ga</c><c>   1</c></rc>
    <rc><c>Ga</c><c>   1</c></rc>
    <rc><c>Ga</c><c>   1</c></rc>
    <rc><c>Ga</c><c>   1</c></rc>
    <rc><c>Ga</c><c>   1</c></rc>
    <rc><c>Ga</c><c>   1</c></rc>
    <rc><c>Ga</c><c>   1</c></rc>
    <rc><c>Ga</c><c>   1</c></rc>
    <rc><c>Ga</c><c>   1</c></rc>
    <rc><c>Ga</c><c>   1</c></rc>
    <rc><c>Ga</c><c>   1</c></rc>
    <rc><c>Ga</c><c>   1</c></rc>
    <rc><c>Ga</c><c>   1</c></rc>
    <rc><c>Ga</c><c>   1</c></rc>
    <rc><c>Ga</c><c>   1</c></rc>
    <rc><c>Ga</c><c>   1</c></rc>
    <rc><c>Ga</c><c>   1</c></rc>
    <rc><c>Ga</c><c>   1</c></rc>
    <rc><c>Ga</c><c>   1</c></rc>
    <rc><c>Ga</c><c>   1</c></rc>
    <rc><c>Ga</c><c>   1</c></rc>
    <rc><c>Ga</c><c>   1</c></rc>
    <rc><c>Ga</c><c>   1</c></rc>
    <rc><c>Ga</c><c>   1</c></rc>
    <rc><c>Ga</c><c>   1</c></rc>
    <rc><c>Ga</c><c>   1</c></rc>
    <rc><c>Ga</c><c>   1</c></rc>
    <rc><c>Ga</c><c>   1</c></rc>
    <rc><c>Ga</c><c>   1</c></rc>
    <rc><c>Ga</c><c>   1</c></rc>
    <rc><c>Ga</c><c>   1</c></rc>
    <rc><c>Ga</c><c>   1</c></rc>
    <rc><c>Ga</c><c>   1</c></rc>
    <rc><c>Ga</c><c>   1</c></rc>
    <rc><c>Ga</c><c>   1</c></rc>
    <rc><c>O </c><c>   2</c></rc>
    <rc><c>O </c><c>   2</c></rc>
    <rc><c>O </c><c>   2</c></rc>
    <rc><c>O </c><c>   2</c></rc>
    <rc><c>O </c><c>   2</c></rc>
    <rc><c>O </c><c>   2</c></rc>
    <rc><c>O </c><c>   2</c></rc>
    <rc><c>O </c><c>   2</c></rc>
    <rc><c>O </c><c>   2</c></rc>
    <rc><c>O </c><c>   2</c></rc>
    <rc><c>O </c><c>   2</c></rc>
    <rc><c>O </c><c>   2</c></rc>
    <rc><c>O </c><c>   2</c></rc>
    <rc><c>O </c><c>   2</c></rc>
    <rc><c>O </c><c>   2</c></rc>
    <rc><c>O </c><c>   2</c></rc>
    <rc><c>O </c><c>   2</c></rc>
    <rc><c>O </c><c>   2</c></rc>
    <rc><c>O </c><c>   2</c></rc>
    <rc><c>O </c><c>   2</c></rc>
    <rc><c>O </c><c>   2</c></rc>
    <rc><c>O </c><c>   2</c></rc>
    <rc><c>O </c><c>   2</c></rc>
    <rc><c>O </c><c>   2</c></rc>
    <rc><c>O </c><c>   2</c></rc>
    <rc><c>O </c><c>   2</c></rc>
    <rc><c>O </c><c>   2</c></rc>
    <rc><c>O </c><c>   2</c></rc>
    <rc><c>O </c><c>   2</c></rc>
    <rc><c>O </c><c>   2</c></rc>
    <rc><c>O </c><c>   2</c></rc>
    <rc><c>O </c><c>   2</c></rc>
    <rc><c>O </c><c>   2</c></rc>
    <rc><c>O </c><c>   2</c></rc>
    <rc><c>O </c><c>   2</c></rc>
    <rc><c>O </c><c>   2</c></rc>
    <rc><c>O </c><c>   2</c></rc>
    <rc><c>O </c><c>   2</c></rc>
    <rc><c>O </c><c>   2</c></rc>
    <rc><c>O </c><c>   2</c></rc>
    <rc><c>O </c><c>   2</c></rc>
    <rc><c>O </c><c>   2</c></rc>
    <rc><c>O </c><c>   2</c></rc>
    <rc><c>O </c><c>   2</c></rc>
    <rc><c>O </c><c>   2</c></rc>
    <rc><c>O </c><c>   2</c></rc>
    <rc><c>O </c><c>   2</c></rc>
    <rc><c>O </c><c>   2</c></rc>
    <rc><c>O </c><c>   2</c></rc>
    <rc><c>O </c><c>   2</c></rc>
    <rc><c>O </c><c>   2</c></rc>
    <rc><c>O </c><c>   2</c></rc>
    <rc><c>O </c><c>   2</c></rc>
    <rc><c>O </c><c>   2</c></rc>
    <rc><c>O </c><c>   2</c></rc>
    <rc><c>O </c><c>   2</c></rc>
    <rc><c>O </c><c>   2</c></rc>
    <rc><c>O </c><c>   2</c></rc>
    <rc><c>O </c><c>   2</c></rc>
    <rc><c>O </c><c>   2</c></rc>
    <rc><c>O </c><c>   2</c></rc>
    <rc><c>O </c><c>   2</c></rc>
    <rc><c>O </c><c>   2</c></rc>
    <rc><c>O </c><c>   2</c></rc>
    <rc><c>O </c><c>   2</c></rc>
    <rc><c>O </c><c>   2</c></rc>
    <rc><c>O </c><c>   2</c></rc>
    <rc><c>O </c><c>   2</c></rc>
    <rc><c>O </c><c>   2</c></rc>
    <rc><c>O </c><c>   2</c></rc>
    <rc><c>O </c><c>   2</c></rc>
    <rc><c>N </c><c>   3</c></rc>
   </set>
  </array>
  <array name="atomtypes" >
   <dimension dim="1">type</dimension>
   <field type="int">atomspertype</field>
   <field type="string">element</field>
   <field>mass</field>
   <field>valence</field>
   <field type="string">pseudopotential</field>
   <set>
    <rc><c>  48</c><c>Ga</c><c>     69.72300000</c><c>     13.00000000</c><c>  PAW_PBE Ga_d 06Jul2010                </c></rc>
    <rc><c>  71</c><c>O </c><c>     16.00000000</c><c>      6.00000000</c><c>  PAW_PBE O 08Apr2002                   </c></rc>
    <rc><c>   1</c><c>N </c><c>     14.00100000</c><c>      5.00000000</c><c>  PAW_PBE N 08Apr2002                   </c></rc>
   </set>
  </array>
 </atominfo>
 <structure name="initialpos" >
  <crystal>
   <varray name="basis" >
    <v>       0.00000000      12.28047342       0.00000000 </v>
    <v>       9.14270205       0.00000000       0.00000000 </v>
    <v>       0.00000000      -2.76826177     -11.30069772 </v>
   </varray>
   <i name="volume">   1268.80515525 </i>
   <varray name="rec_basis" >
    <v>       0.00000000       0.08143009      -0.01994742 </v>
    <v>       0.10937686      -0.00000000       0.00000000 </v>
    <v>       0.00000000       0.00000000      -0.08849011 </v>
   </varray>
  </crystal>
  <varray name="positions" >
   <v>       0.65883830       0.00000000       0.15736517 </v>
   <v>       0.65883830       0.00000000       0.65736517 </v>
   <v>       0.65883830       0.33333333       0.15736517 </v>
   <v>       0.65883830       0.33333333       0.65736517 </v>
   <v>       0.65883830       0.66666667       0.15736517 </v>
   <v>       0.65883830       0.66666667       0.65736517 </v>
   <v>       0.84116170       0.16666667       0.34263483 </v>
   <v>       0.84116170       0.16666667       0.84263483 </v>
   <v>       0.84116170       0.50000000       0.34263483 </v>
   <v>       0.84116170       0.50000000       0.84263483 </v>
   <v>       0.84116170       0.83333333       0.34263483 </v>
   <v>       0.84116170       0.83333333       0.84263483 </v>
   <v>       0.59047440       0.16666667       0.39739300 </v>
   <v>       0.59047440       0.16666667       0.89739300 </v>
   <v>       0.59047440       0.50000000       0.39739300 </v>
   <v>       0.59047440       0.50000000       0.89739300 </v>
   <v>       0.59047440       0.83333333       0.39739300 </v>
   <v>       0.59047440       0.83333333       0.89739300 </v>
   <v>       0.90952560       0.00000000       0.10260700 </v>
   <v>       0.90952560       0.00000000       0.60260700 </v>
   <v>       0.90952560       0.33333333       0.10260700 </v>
   <v>       0.90952560       0.33333333       0.60260700 </v>
   <v>       0.90952560       0.66666667       0.10260700 </v>
   <v>       0.90952560       0.66666667       0.60260700 </v>
   <v>       0.15883830       0.16666667       0.15736517 </v>
   <v>       0.15883830       0.16666667       0.65736517 </v>
   <v>       0.15883830       0.50000000       0.15736517 </v>
   <v>       0.15883830       0.50000000       0.65736517 </v>
   <v>       0.15883830       0.83333333       0.15736517 </v>
   <v>       0.15883830       0.83333333       0.65736517 </v>
   <v>       0.34116170       0.00000000       0.34263483 </v>
   <v>       0.34116170       0.00000000       0.84263483 </v>
   <v>       0.34116170       0.33333333       0.34263483 </v>
   <v>       0.34116170       0.33333333       0.84263483 </v>
   <v>       0.34116170       0.66666667       0.34263483 </v>
   <v>       0.34116170       0.66666667       0.84263483 </v>
   <v>       0.09047440       0.00000000       0.39739300 </v>
   <v>       0.09047440       0.00000000       0.89739300 </v>
   <v>       0.09047440       0.33333333       0.39739300 </v>
   <v>       0.09047440       0.33333333       0.89739300 </v>
   <v>       0.09047440       0.66666667       0.39739300 </v>
   <v>       0.09047440       0.66666667       0.89739300 </v>
   <v>       0.40952560       0.16666667       0.10260700 </v>
   <v>       0.40952560       0.16666667       0.60260700 </v>
   <v>       0.40952560       0.50000000       0.10260700 </v>
   <v>       0.40952560       0.50000000       0.60260700 </v>
   <v>       0.40952560       0.83333333       0.10260700 </v>
   <v>       0.40952560       0.83333333       0.60260700 </v>
   <v>       0.99646913       0.16666667       0.12833205 </v>
   <v>       0.99646913       0.16666667       0.62833205 </v>
   <v>       0.99646913       0.50000000       0.12833205 </v>
   <v>       0.99646913       0.50000000       0.62833205 </v>
   <v>       0.99646913       0.83333333       0.12833205 </v>
   <v>       0.99646913       0.83333333       0.62833205 </v>
   <v>       0.50353087       0.00000000       0.37166795 </v>
   <v>       0.50353087       0.00000000       0.87166795 </v>
   <v>       0.50353087       0.33333333       0.37166795 </v>
   <v>       0.50353087       0.33333333       0.87166795 </v>
   <v>       0.50353087       0.66666667       0.37166795 </v>
   <v>       0.50353087       0.66666667       0.87166795 </v>
   <v>       0.67337106       0.16666667       0.28161508 </v>
   <v>       0.67337106       0.16666667       0.78161508 </v>
   <v>       0.67337106       0.50000000       0.28161508 </v>
   <v>       0.67337106       0.50000000       0.78161508 </v>
   <v>       0.67337106       0.83333333       0.28161508 </v>
   <v>       0.67337106       0.83333333       0.78161508 </v>
   <v>       0.82662894       0.00000000       0.21838492 </v>
   <v>       0.82662894       0.00000000       0.71838492 </v>
   <v>       0.82662894       0.33333333       0.21838492 </v>
   <v>       0.82662894       0.33333333       0.71838492 </v>
   <v>       0.82662894       0.66666667       0.21838492 </v>
   <v>       0.82662894       0.66666667       0.71838492 </v>
   <v>       0.83549502       0.00000000       0.44542296 </v>
   <v>       0.83549502       0.00000000       0.94542296 </v>
   <v>       0.83549502       0.33333333       0.44542296 </v>
   <v>       0.83549502       0.33333333       0.94542296 </v>
   <v>       0.83549502       0.66666667       0.44542296 </v>
   <v>       0.83549502       0.66666667       0.94542296 </v>
   <v>       0.66450498       0.16666667       0.05457704 </v>
   <v>       0.66450498       0.16666667       0.55457704 </v>
   <v>       0.66450498       0.50000000       0.05457704 </v>
   <v>       0.66450498       0.50000000       0.55457704 </v>
   <v>       0.66450498       0.83333333       0.05457704 </v>
   <v>       0.66450498       0.83333333       0.55457704 </v>
   <v>       0.49646913       0.00000000       0.12833205 </v>
   <v>       0.49646913       0.00000000       0.62833205 </v>
   <v>       0.49646913       0.33333333       0.12833205 </v>
   <v>       0.49646913       0.33333333       0.62833205 </v>
   <v>       0.49646913       0.66666667       0.12833205 </v>
   <v>       0.49646913       0.66666667       0.62833205 </v>
   <v>       0.00353087       0.16666667       0.87166795 </v>
   <v>       0.00353087       0.50000000       0.37166795 </v>
   <v>       0.00353087       0.50000000       0.87166795 </v>
   <v>       0.00353087       0.83333333       0.37166795 </v>
   <v>       0.00353087       0.83333333       0.87166795 </v>
   <v>       0.17337106       0.00000000       0.28161508 </v>
   <v>       0.17337106       0.00000000       0.78161508 </v>
   <v>       0.17337106       0.33333333       0.28161508 </v>
   <v>       0.17337106       0.33333333       0.78161508 </v>
   <v>       0.17337106       0.66666667       0.28161508 </v>
   <v>       0.17337106       0.66666667       0.78161508 </v>
   <v>       0.32662894       0.16666667       0.21838492 </v>
   <v>       0.32662894       0.16666667       0.71838492 </v>
   <v>       0.32662894       0.50000000       0.21838492 </v>
   <v>       0.32662894       0.50000000       0.71838492 </v>
   <v>       0.32662894       0.83333333       0.21838492 </v>
   <v>       0.32662894       0.83333333       0.71838492 </v>
   <v>       0.33549502       0.16666667       0.44542296 </v>
   <v>       0.33549502       0.16666667       0.94542296 </v>
   <v>       0.33549502       0.50000000       0.44542296 </v>
   <v>       0.33549502       0.50000000       0.94542296 </v>
   <v>       0.33549502       0.83333333       0.44542296 </v>
   <v>       0.33549502       0.83333333       0.94542296 </v>
   <v>       0.16450498       0.00000000       0.05457704 </v>
   <v>       0.16450498       0.00000000       0.55457704 </v>
   <v>       0.16450498       0.33333333       0.05457704 </v>
   <v>       0.16450498       0.33333333       0.55457704 </v>
   <v>       0.16450498       0.66666667       0.05457704 </v>
   <v>       0.16450498       0.66666667       0.55457704 </v>
   <v>       0.00353087       0.16666667       0.37166795 </v>
  </varray>
 </structure>
 <calculation>
  <scstep>
   <time name="dav">    1.77    1.76</time>
   <time name="total">    1.89    1.89</time>
   <energy>
    <i name="alphaZ">   5530.94812622 </i>
    <i name="ewald"> -88605.56783106 </i>
    <i name="hartreedc"> -33372.11073469 </i>
    <i name="XCdc">   4139.94457209 </i>
    <i name="pawpsdc"> 101761.42039030 </i>
    <i name="pawaedc">-117900.86270521 </i>
    <i name="eentropy">     -0.00644439 </i>
    <i name="bandstr">  16289.94631758 </i>
    <i name="atom"> 134104.30092448 </i>
    <i name="e_fr_energy">  21948.01261532 </i>
    <i name="e_wo_entrp">  21948.01905971 </i>
    <i name="e_0_energy">  21948.01583752 </i>
   </energy>
  </scstep>
  <scstep>
   <time name="dav">    1.71    1.71</time>
   <time name="total">    1.71    1.71</time>
   <energy>
    <i name="e_fr_energy">   4853.18628872 </i>
    <i name="e_wo_entrp">   4853.20752006 </i>
    <i name="e_0_energy">   4853.19690439 </i>
   </energy>
  </scstep>
  <scstep>
   <time name="dav">    2.09    2.09</time>
   <time name="total">    2.10    2.10</time>
   <energy>
    <i name="e_fr_energy">   -155.30951658 </i>
    <i name="e_wo_entrp">   -155.30366040 </i>
    <i name="e_0_energy">   -155.30658849 </i>
   </energy>
  </scstep>
  <scstep>
   <time name="dav">    2.06    2.06</time>
   <time name="total">    2.06    2.06</time>
   <energy>
    <i name="e_fr_energy">   -779.75898792 </i>
    <i name="e_wo_entrp">   -779.73210030 </i>
    <i name="e_0_energy">   -779.74554411 </i>
   </energy>
  </scstep>
  <scstep>
   <time name="dav">    2.29    2.29</time>
   <time name="total">    2.56    2.56</time>
   <energy>
    <i name="e_fr_energy">   -822.67578999 </i>
    <i name="e_wo_entrp">   -822.64975179 </i>
    <i name="e_0_energy">   -822.66277089 </i>
   </energy>
  </scstep>
  <scstep>
   <time name="diag">    0.24    0.24</time>
   <time name="diis">    2.50    2.50</time>
   <time name="orth">    0.03    0.03</time>
   <time name="total">    3.16    3.16</time>
   <energy>
    <i name="e_fr_energy">   -710.43768147 </i>
    <i name="e_wo_entrp">   -710.41947909 </i>
    <i name="e_0_energy">   -710.42858028 </i>
   </energy>
  </scstep>
  <scstep>
   <time name="diag">    0.24    0.24</time>
   <time name="diis">    2.63    2.63</time>
   <time name="orth">    0.03    0.03</time>
   <time name="total">    3.29    3.29</time>
   <energy>
    <i name="e_fr_energy">   -714.18437220 </i>
    <i name="e_wo_entrp">   -714.16176900 </i>
    <i name="e_0_energy">   -714.17307060 </i>
   </energy>
  </scstep>
  <scstep>
   <time name="diag">    0.24    0.24</time>
   <time name="diis">    2.48    2.48</time>
   <time name="orth">    0.03    0.03</time>
   <time name="total">    3.14    3.15</time>
   <energy>
    <i name="e_fr_energy">   -713.61341701 </i>
    <i name="e_wo_entrp">   -713.59742348 </i>
    <i name="e_0_energy">   -713.60542025 </i>
   </energy>
  </scstep>
  <scstep>
   <time name="diag">    0.24    0.24</time>
   <time name="diis">    2.90    2.90</time>
   <time name="orth">    0.03    0.03</time>
   <time name="total">    3.56    3.56</time>
   <energy>
    <i name="e_fr_energy">   -713.77241019 </i>
    <i name="e_wo_entrp">   -713.74955813 </i>
    <i name="e_0_energy">   -713.76098416 </i>
   </energy>
  </scstep>
  <scstep>
   <time name="diag">    0.24    0.24</time>
   <time name="diis">    2.61    2.61</time>
   <time name="orth">    0.03    0.03</time>
   <time name="total">    3.28    3.28</time>
   <energy>
    <i name="e_fr_energy">   -713.62639608 </i>
    <i name="e_wo_entrp">   -713.60441985 </i>
    <i name="e_0_energy">   -713.61540797 </i>
   </energy>
  </scstep>
  <scstep>
   <time name="diag">    0.24    0.24</time>
   <time name="diis">    2.95    2.95</time>
   <time name="orth">    0.03    0.03</time>
   <time name="total">    3.62    3.62</time>
   <energy>
    <i name="e_fr_energy">   -713.66071548 </i>
    <i name="e_wo_entrp">   -713.63896306 </i>
    <i name="e_0_energy">   -713.64983927 </i>
   </energy>
  </scstep>
  <scstep>
   <time name="diag">    0.24    0.24</time>
   <time name="diis">    2.66    2.66</time>
   <time name="orth">    0.03    0.03</time>
   <time name="total">    3.33    3.33</time>
   <energy>
    <i name="e_fr_energy">   -713.66828691 </i>
    <i name="e_wo_entrp">   -713.64655285 </i>
    <i name="e_0_energy">   -713.65741988 </i>
   </energy>
  </scstep>
  <scstep>
   <time name="diag">    0.24    0.24</time>
   <time name="diis">    2.93    2.93</time>
   <time name="orth">    0.03    0.03</time>
   <time name="total">    3.60    3.60</time>
   <energy>
    <i name="e_fr_energy">   -713.66943038 </i>
    <i name="e_wo_entrp">   -713.64761012 </i>
    <i name="e_0_energy">   -713.65852025 </i>
   </energy>
  </scstep>
  <scstep>
   <time name="diag">    0.24    0.24</time>
   <time name="diis">    2.72    2.72</time>
   <time name="orth">    0.03    0.03</time>
   <time name="total">    3.39    3.39</time>
   <energy>
    <i name="e_fr_energy">   -713.66995891 </i>
    <i name="e_wo_entrp">   -713.64811312 </i>
    <i name="e_0_energy">   -713.65903602 </i>
   </energy>
  </scstep>
  <scstep>
   <time name="diag">    0.24    0.24</time>
   <time name="diis">    2.50    2.50</time>
   <time name="orth">    0.03    0.03</time>
   <time name="total">    3.17    3.17</time>
   <energy>
    <i name="e_fr_energy">   -713.67013546 </i>
    <i name="e_wo_entrp">   -713.64830789 </i>
    <i name="e_0_energy">   -713.65922168 </i>
   </energy>
  </scstep>
  <scstep>
   <time name="diag">    0.24    0.24</time>
   <time name="diis">    2.11    2.11</time>
   <time name="orth">    0.03    0.03</time>
   <time name="total">    2.79    2.79</time>
   <energy>
    <i name="e_fr_energy">   -713.67019105 </i>
    <i name="e_wo_entrp">   -713.64836525 </i>
    <i name="e_0_energy">   -713.65927815 </i>
   </energy>
  </scstep>
  <scstep>
   <time name="diag">    0.24    0.24</time>
   <time name="diis">    2.00    2.00</time>
   <time name="orth">    0.03    0.03</time>
   <time name="total">    2.68    2.68</time>
   <energy>
    <i name="e_fr_energy">   -713.67021426 </i>
    <i name="e_wo_entrp">   -713.64838687 </i>
    <i name="e_0_energy">   -713.65930056 </i>
   </energy>
  </scstep>
  <scstep>
   <time name="diag">    0.24    0.24</time>
   <time name="diis">    1.86    1.86</time>
   <time name="orth">    0.03    0.03</time>
   <time name="total">    2.54    2.54</time>
   <energy>
    <i name="e_fr_energy">   -713.67022520 </i>
    <i name="e_wo_entrp">   -713.64839746 </i>
    <i name="e_0_energy">   -713.65931133 </i>
   </energy>
  </scstep>
  <scstep>
   <time name="diag">    0.24    0.24</time>
   <time name="diis">    1.62    1.62</time>
   <time name="orth">    0.03    0.03</time>
   <time name="total">    2.01    2.01</time>
   <energy>
    <i name="alphaZ">   5530.94812622 </i>
    <i name="ewald"> -88605.56783106 </i>
    <i name="hartreedc"> -33842.76038582 </i>
    <i name="XCdc">   4200.17842074 </i>
    <i name="pawpsdc"> 119746.83286106 </i>
    <i name="pawaedc">-136143.66791429 </i>
    <i name="eentropy">     -0.02182707 </i>
    <i name="bandstr">  -5703.91260211 </i>
    <i name="atom"> 134104.30092448 </i>
    <i name="e_fr_energy">   -713.67022785 </i>
    <i name="e_wo_entrp">   -713.64840078 </i>
    <i name="e_0_energy">   -713.65931432 </i>
   </energy>
  </scstep>
  <structure>
   <crystal>
    <varray name="basis" >
     <v>       0.00000000      12.28047342       0.00000000 </v>
     <v>       9.14270205       0.00000000       0.00000000 </v>
     <v>       0.00000000      -2.76826177     -11.30069772 </v>
    </varray>
    <i name="volume">   1268.80515525 </i>
    <varray name="rec_basis" >
     <v>       0.00000000       0.08143009      -0.01994742 </v>
     <v>       0.10937686      -0.00000000       0.00000000 </v>
     <v>       0.00000000       0.00000000      -0.08849011 </v>
    </varray>
   </crystal>
   <varray name="positions" >
    <v>       0.65883830       0.00000000       0.15736517 </v>
    <v>       0.65883830       0.00000000       0.65736517 </v>
    <v>       0.65883830       0.33333333       0.15736517 </v>
    <v>       0.65883830       0.33333333       0.65736517 </v>
    <v>       0.65883830       0.66666667       0.15736517 </v>
    <v>       0.65883830       0.66666667       0.65736517 </v>
    <v>       0.84116170       0.16666667       0.34263483 </v>
    <v>       0.84116170       0.16666667       0.84263483 </v>
    <v>       0.84116170       0.50000000       0.34263483 </v>
    <v>       0.84116170       0.50000000       0.84263483 </v>
    <v>       0.84116170       0.83333333       0.34263483 </v>
    <v>       0.84116170       0.83333333       0.84263483 </v>
    <v>       0.59047440       0.16666667       0.39739300 </v>
    <v>       0.59047440       0.16666667       0.89739300 </v>
    <v>       0.59047440       0.50000000       0.39739300 </v>
    <v>       0.59047440       0.50000000       0.89739300 </v>
    <v>       0.59047440       0.83333333       0.39739300 </v>
    <v>       0.59047440       0.83333333       0.89739300 </v>
    <v>       0.90952560       0.00000000       0.10260700 </v>
    <v>       0.90952560       0.00000000       0.60260700 </v>
    <v>       0.90952560       0.33333333       0.10260700 </v>
    <v>       0.90952560       0.33333333       0.60260700 </v>
    <v>       0.90952560       0.66666667       0.10260700 </v>
    <v>       0.90952560       0.66666667       0.60260700 </v>
    <v>       0.15883830       0.16666667       0.15736517 </v>
    <v>       0.15883830       0.16666667       0.65736517 </v>
    <v>       0.15883830       0.50000000       0.15736517 </v>
    <v>       0.15883830       0.50000000       0.65736517 </v>
    <v>       0.15883830       0.83333333       0.15736517 </v>
    <v>       0.15883830       0.83333333       0.65736517 </v>
    <v>       0.34116170       0.00000000       0.34263483 </v>
    <v>       0.34116170       0.00000000       0.84263483 </v>
    <v>       0.34116170       0.33333333       0.34263483 </v>
    <v>       0.34116170       0.33333333       0.84263483 </v>
    <v>       0.34116170       0.66666667       0.34263483 </v>
    <v>       0.34116170       0.66666667       0.84263483 </v>
    <v>       0.09047440       0.00000000       0.39739300 </v>
    <v>       0.09047440       0.00000000       0.89739300 </v>
    <v>       0.09047440       0.33333333       0.39739300 </v>
    <v>       0.09047440       0.33333333       0.89739300 </v>
    <v>       0.09047440       0.66666667       0.39739300 </v>
    <v>       0.09047440       0.66666667       0.89739300 </v>
    <v>       0.40952560       0.16666667       0.10260700 </v>
    <v>       0.40952560       0.16666667       0.60260700 </v>
    <v>       0.40952560       0.50000000       0.10260700 </v>
    <v>       0.40952560       0.50000000       0.60260700 </v>
    <v>       0.40952560       0.83333333       0.10260700 </v>
    <v>       0.40952560       0.83333333       0.60260700 </v>
    <v>       0.99646913       0.16666667       0.12833205 </v>
    <v>       0.99646913       0.16666667       0.62833205 </v>
    <v>       0.99646913       0.50000000       0.12833205 </v>
    <v>       0.99646913       0.50000000       0.62833205 </v>
    <v>       0.99646913       0.83333333       0.12833205 </v>
    <v>       0.99646913       0.83333333       0.62833205 </v>
    <v>       0.50353087       0.00000000       0.37166795 </v>
    <v>       0.50353087       0.00000000       0.87166795 </v>
    <v>       0.50353087       0.33333333       0.37166795 </v>
    <v>       0.50353087       0.33333333       0.87166795 </v>
    <v>       0.50353087       0.66666667       0.37166795 </v>
    <v>       0.50353087       0.66666667       0.87166795 </v>
    <v>       0.67337106       0.16666667       0.28161508 </v>
    <v>       0.67337106       0.16666667       0.78161508 </v>
    <v>       0.67337106       0.50000000       0.28161508 </v>
    <v>       0.67337106       0.50000000       0.78161508 </v>
    <v>       0.67337106       0.83333333       0.28161508 </v>
    <v>       0.67337106       0.83333333       0.78161508 </v>
    <v>       0.82662894       0.00000000       0.21838492 </v>
    <v>       0.82662894       0.00000000       0.71838492 </v>
    <v>       0.82662894       0.33333333       0.21838492 </v>
    <v>       0.82662894       0.33333333       0.71838492 </v>
    <v>       0.82662894       0.66666667       0.21838492 </v>
    <v>       0.82662894       0.66666667       0.71838492 </v>
    <v>       0.83549502       0.00000000       0.44542296 </v>
    <v>       0.83549502       0.00000000       0.94542296 </v>
    <v>       0.83549502       0.33333333       0.44542296 </v>
    <v>       0.83549502       0.33333333       0.94542296 </v>
    <v>       0.83549502       0.66666667       0.44542296 </v>
    <v>       0.83549502       0.66666667       0.94542296 </v>
    <v>       0.66450498       0.16666667       0.05457704 </v>
    <v>       0.66450498       0.16666667       0.55457704 </v>
    <v>       0.66450498       0.50000000       0.05457704 </v>
    <v>       0.66450498       0.50000000       0.55457704 </v>
    <v>       0.66450498       0.83333333       0.05457704 </v>
    <v>       0.66450498       0.83333333       0.55457704 </v>
    <v>       0.49646913       0.00000000       0.12833205 </v>
    <v>       0.49646913       0.00000000       0.62833205 </v>
    <v>       0.49646913       0.33333333       0.12833205 </v>
    <v>       0.49646913       0.33333333       0.62833205 </v>
    <v>       0.49646913       0.66666667       0.12833205 </v>
    <v>       0.49646913       0.66666667       0.62833205 </v>
    <v>       0.00353087       0.16666667       0.87166795 </v>
    <v>       0.00353087       0.50000000       0.37166795 </v>
    <v>       0.00353087       0.50000000       0.87166795 </v>
    <v>       0.00353087       0.83333333       0.37166795 </v>
    <v>       0.00353087       0.83333333       0.87166795 </v>
    <v>       0.17337106       0.00000000       0.28161508 </v>
    <v>       0.17337106       0.00000000       0.78161508 </v>
    <v>       0.17337106       0.33333333       0.28161508 </v>
    <v>       0.17337106       0.33333333       0.78161508 </v>
    <v>       0.17337106       0.66666667       0.28161508 </v>
    <v>       0.17337106       0.66666667       0.78161508 </v>
    <v>       0.32662894       0.16666667       0.21838492 </v>
    <v>       0.32662894       0.16666667       0.71838492 </v>
    <v>       0.32662894       0.50000000       0.21838492 </v>
    <v>       0.32662894       0.50000000       0.71838492 </v>
    <v>       0.32662894       0.83333333       0.21838492 </v>
    <v>       0.32662894       0.83333333       0.71838492 </v>
    <v>       0.33549502       0.16666667       0.44542296 </v>
    <v>       0.33549502       0.16666667       0.94542296 </v>
    <v>       0.33549502       0.50000000       0.44542296 </v>
    <v>       0.33549502       0.50000000       0.94542296 </v>
    <v>       0.33549502       0.83333333       0.44542296 </v>
    <v>       0.33549502       0.83333333       0.94542296 </v>
    <v>       0.16450498       0.00000000       0.05457704 </v>
    <v>       0.16450498       0.00000000       0.55457704 </v>
    <v>       0.16450498       0.33333333       0.05457704 </v>
    <v>       0.16450498       0.33333333       0.55457704 </v>
    <v>       0.16450498       0.66666667       0.05457704 </v>
    <v>       0.16450498       0.66666667       0.55457704 </v>
    <v>       0.00353087       0.16666667       0.37166795 </v>
   </varray>
  </structure>
  <varray name="forces" >
   <v>      -0.00500715      -0.01703612       0.02118251 </v>
   <v>      -0.00636009      -0.07720370       0.07330630 </v>
   <v>       0.00500715      -0.01703612       0.02118251 </v>
   <v>       0.00636009      -0.07720370       0.07330630 </v>
   <v>       0.00000000      -0.02681715       0.02359976 </v>
   <v>       0.00000000      -0.05382222       0.06477101 </v>
   <v>       0.00000000       0.23105414       0.00226478 </v>
   <v>       0.00000000      -0.04722898       0.00734759 </v>
   <v>      -0.01032476       0.17374206      -0.05843337 </v>
   <v>       0.04711286       0.04282738      -0.02994116 </v>
   <v>       0.01032476       0.17374206      -0.05843337 </v>
   <v>      -0.04711286       0.04282738      -0.02994116 </v>
   <v>       0.00000000      -0.02468558      -0.00714591 </v>
   <v>       0.00000000      -0.04041217      -0.03678288 </v>
   <v>       0.00006764      -0.01857165      -0.01149076 </v>
   <v>       0.00355561      -0.03361953      -0.03623387 </v>
   <v>      -0.00006764      -0.01857165      -0.01149076 </v>
   <v>      -0.00355561      -0.03361953      -0.03623387 </v>
   <v>      -0.27380912      -0.18776226      -0.05005906 </v>
   <v>      -0.15923633      -0.05207410       0.12209733 </v>
   <v>       0.27380912      -0.18776226      -0.05005906 </v>
   <v>       0.15923633      -0.05207410       0.12209733 </v>
   <v>       0.00000000      -0.00465574      -0.02944593 </v>
   <v>       0.00000000       0.02906249       0.08600674 </v>
   <v>       0.00000000       0.21702817      -0.14890118 </v>
   <v>       0.00000000       0.13075568       0.11650510 </v>
   <v>       0.00876803      -0.04802978      -0.05656995 </v>
   <v>       0.00581590      -0.02484059       0.12232181 </v>
   <v>      -0.00876803      -0.04802978      -0.05656995 </v>
   <v>      -0.00581590      -0.02484059       0.12232181 </v>
   <v>       0.00869885      -0.00512092      -0.04670312 </v>
   <v>      -0.00407130       0.06501158      -0.03832817 </v>
   <v>      -0.00869885      -0.00512092      -0.04670312 </v>
   <v>       0.00407130       0.06501158      -0.03832817 </v>
   <v>       0.00000000       0.01785270      -0.05129261 </v>
   <v>       0.00000000       0.04931000      -0.03678331 </v>
   <v>      -0.11803565      -0.02198792      -0.00450955 </v>
   <v>      -0.08810962       0.05000171      -0.02029326 </v>
   <v>       0.11803565      -0.02198792      -0.00450955 </v>
   <v>       0.08810962       0.05000171      -0.02029326 </v>
   <v>       0.00000000      -0.16313544       0.01284700 </v>
   <v>       0.00000000       0.00416271      -0.02983537 </v>
   <v>       0.00000000       0.02429737       0.00140391 </v>
   <v>       0.00000000       0.00666507       0.06335315 </v>
   <v>       0.00268552       0.02332511       0.00722152 </v>
   <v>      -0.00146817       0.00741873       0.04779028 </v>
   <v>      -0.00268552       0.02332511       0.00722152 </v>
   <v>       0.00146817       0.00741873       0.04779028 </v>
   <v>       0.00000000      -0.02178375      -0.33612591 </v>
   <v>       0.00000000       0.03605494       0.06409211 </v>
   <v>      -0.04413107      -0.00560944       0.00791853 </v>
   <v>      -0.02981259      -0.02374409      -0.05927970 </v>
   <v>       0.04413107      -0.00560944       0.00791853 </v>
   <v>       0.02981259      -0.02374409      -0.05927970 </v>
   <v>      -0.00047845       0.01624639       0.02814012 </v>
   <v>       0.00250453       0.01198089       0.03235081 </v>
   <v>       0.00047845       0.01624639       0.02814012 </v>
   <v>      -0.00250453       0.01198089       0.03235081 </v>
   <v>       0.00000000       0.01303483       0.02797000 </v>
   <v>       0.00000000       0.01071037       0.03290381 </v>
   <v>       0.00000000      -0.00614861       0.00861297 </v>
   <v>       0.00000000       0.00663848       0.00898899 </v>
   <v>      -0.00383057      -0.02662865       0.01760490 </v>
   <v>      -0.01120043       0.00220466       0.00971388 </v>
   <v>       0.00383057      -0.02662865       0.01760490 </v>
   <v>       0.01120043       0.00220466       0.00971388 </v>
   <v>      -0.14168850      -0.05441730       0.21219203 </v>
   <v>       0.02752860       0.04698935      -0.03955432 </v>
   <v>       0.14168850      -0.05441730       0.21219203 </v>
   <v>      -0.02752860       0.04698935      -0.03955432 </v>
   <v>       0.00000000      -0.00349655       0.01994676 </v>
   <v>       0.00000000       0.01212642      -0.03636539 </v>
   <v>      -0.14959844      -0.34245002      -0.21726557 </v>
   <v>       0.05581628      -0.13230032      -0.05185320 </v>
   <v>       0.14959844      -0.34245002      -0.21726557 </v>
   <v>      -0.05581628      -0.13230032      -0.05185320 </v>
   <v>       0.00000000      -0.20572017      -0.05050945 </v>
   <v>       0.00000000      -0.16737883      -0.00911363 </v>
   <v>       0.00000000       0.17688801       0.04742511 </v>
   <v>       0.00000000       0.18154504       0.00202005 </v>
   <v>       0.00194761       0.16973119       0.04799956 </v>
   <v>      -0.00566308       0.17375443       0.00360953 </v>
   <v>      -0.00194761       0.16973119       0.04799956 </v>
   <v>       0.00566308       0.17375443       0.00360953 </v>
   <v>       0.00122437      -0.00626235      -0.02424627 </v>
   <v>      -0.00029332       0.00607328      -0.04310300 </v>
   <v>      -0.00122437      -0.00626235      -0.02424627 </v>
   <v>       0.00029332       0.00607328      -0.04310300 </v>
   <v>       0.00000000      -0.00586823      -0.02456500 </v>
   <v>       0.00000000       0.00477846      -0.04128865 </v>
   <v>       0.00000000      -0.01810051       0.02723165 </v>
   <v>       0.27996771       0.02731432       0.01573336 </v>
   <v>      -0.02628826      -0.00182294       0.03003855 </v>
   <v>      -0.27996771       0.02731432       0.01573336 </v>
   <v>       0.02628826      -0.00182294       0.03003855 </v>
   <v>      -0.11624607       0.22412918       0.22394913 </v>
   <v>       0.02742885      -0.06253670      -0.01025898 </v>
   <v>       0.11624607       0.22412918       0.22394913 </v>
   <v>      -0.02742885      -0.06253670      -0.01025898 </v>
   <v>       0.00000000       0.02896536       0.05445506 </v>
   <v>       0.00000000      -0.02872120      -0.00044107 </v>
   <v>       0.00000000       0.03795925       0.01683048 </v>
   <v>       0.00000000       0.01363112      -0.04199064 </v>
   <v>       0.00651186       0.04029183       0.00854574 </v>
   <v>      -0.00284997       0.02371066      -0.04376371 </v>
   <v>      -0.00651186       0.04029183       0.00854574 </v>
   <v>       0.00284997       0.02371066      -0.04376371 </v>
   <v>       0.00000000      -0.13862926      -0.03925242 </v>
   <v>       0.00000000      -0.18212918      -0.01701348 </v>
   <v>       0.00385291      -0.15972062      -0.03336531 </v>
   <v>      -0.00584182      -0.17912149      -0.01864505 </v>
   <v>      -0.00385291      -0.15972062      -0.03336531 </v>
   <v>       0.00584182      -0.17912149      -0.01864505 </v>
   <v>       0.05300566       0.12777359       0.06381401 </v>
   <v>      -0.12205359       0.26605957      -0.26306704 </v>
   <v>      -0.05300566       0.12777359       0.06381401 </v>
   <v>       0.12205359       0.26605957      -0.26306704 </v>
   <v>       0.00000000       0.16765731       0.04666304 </v>
   <v>       0.00000000       0.18715691      -0.03853114 </v>
   <v>       0.00000000      -0.48405210       0.36301394 </v>
  </varray>
  <varray name="stress" >
   <v>      69.84231364       0.00000000       0.00000000 </v>
   <v>       0.00000000      61.82090118      -2.12879968 </v>
   <v>       0.00000000      -2.12879773      57.61793959 </v>
  </varray>
  <energy>
   <i name="e_fr_energy">   -713.67022785 </i>
   <i name="e_wo_entrp">   -713.64840078 </i>
   <i name="e_0_energy">   -713.65931432 </i>
  </energy>
  <time name="totalsc">   63.34   63.36</time>
 </calculation>
 <calculation>
  <scstep>
   <time name="dav">    1.83    1.83</time>
   <time name="total">    2.21    2.21</time>
   <energy>
    <i name="alphaZ">   5530.94812622 </i>
    <i name="ewald"> -88640.18513690 </i>
    <i name="hartreedc"> -33812.06884873 </i>
    <i name="XCdc">   4199.98198475 </i>
    <i name="pawpsdc"> 119746.88228063 </i>
    <i name="pawaedc">-136143.71152888 </i>
    <i name="eentropy">     -0.02119852 </i>
    <i name="bandstr">  -5699.72277930 </i>
    <i name="atom"> 134104.30092448 </i>
    <i name="e_fr_energy">   -713.59617626 </i>
    <i name="e_wo_entrp">   -713.57497773 </i>
    <i name="e_0_energy">   -713.58557699 </i>
   </energy>
  </scstep>
  <scstep>
   <time name="diag">    0.24    0.24</time>
   <time name="diis">    2.54    2.54</time>
   <time name="orth">    0.03    0.03</time>
   <time name="total">    3.20    3.20</time>
   <energy>
    <i name="e_fr_energy">   -713.72015077 </i>
    <i name="e_wo_entrp">   -713.69929120 </i>
    <i name="e_0_energy">   -713.70972098 </i>
   </energy>
  </scstep>
  <scstep>
   <time name="diag">    0.24    0.24</time>
   <time name="diis">    2.93    2.93</time>
   <time name="orth">    0.03    0.03</time>
   <time name="total">    3.59    3.59</time>
   <energy>
    <i name="e_fr_energy">   -713.74387376 </i>
    <i name="e_wo_entrp">   -713.72309122 </i>
    <i name="e_0_energy">   -713.73348249 </i>
   </energy>
  </scstep>
  <scstep>
   <time name="diag">    0.24    0.24</time>
   <time name="diis">    2.87    2.87</time>
   <time name="orth">    0.03    0.04</time>
   <time name="total">    3.53    3.53</time>
   <energy>
    <i name="e_fr_energy">   -713.74367140 </i>
    <i name="e_wo_entrp">   -713.72298839 </i>
    <i name="e_0_energy">   -713.73332989 </i>
   </energy>
  </scstep>
  <scstep>
   <time name="diag">    0.24    0.24</time>
   <time name="diis">    2.86    2.86</time>
   <time name="orth">    0.03    0.03</time>
   <time name="total">    3.52    3.52</time>
   <energy>
    <i name="e_fr_energy">   -713.74294572 </i>
    <i name="e_wo_entrp">   -713.72238919 </i>
    <i name="e_0_energy">   -713.73266746 </i>
   </energy>
  </scstep>
  <scstep>
   <time name="diag">    0.24    0.24</time>
   <time name="diis">    2.93    2.93</time>
   <time name="orth">    0.03    0.03</time>
   <time name="total">    3.59    3.59</time>
   <energy>
    <i name="e_fr_energy">   -713.74303733 </i>
    <i name="e_wo_entrp">   -713.72250158 </i>
    <i name="e_0_energy">   -713.73276946 </i>
   </energy>
  </scstep>
  <scstep>
   <time name="diag">    0.24    0.24</time>
   <time name="diis">    2.56    2.56</time>
   <time name="orth">    0.03    0.03</time>
   <time name="total">    3.22    3.22</time>
   <energy>
    <i name="e_fr_energy">   -713.74303423 </i>
    <i name="e_wo_entrp">   -713.72252771 </i>
    <i name="e_0_energy">   -713.73278097 </i>
   </energy>
  </scstep>
  <scstep>
   <time name="diag">    0.24    0.24</time>
   <time name="diis">    2.12    2.12</time>
   <time name="orth">    0.03    0.03</time>
   <time name="total">    2.78    2.79</time>
   <energy>
    <i name="e_fr_energy">   -713.74304435 </i>
    <i name="e_wo_entrp">   -713.72252155 </i>
    <i name="e_0_energy">   -713.73278295 </i>
   </energy>
  </scstep>
  <scstep>
   <time name="diag">    0.24    0.24</time>
   <time name="diis">    1.81    1.81</time>
   <time name="orth">    0.03    0.03</time>
   <time name="total">    2.19    2.19</time>
   <energy>
    <i name="alphaZ">   5530.94812622 </i>
    <i name="ewald"> -88640.18513690 </i>
    <i name="hartreedc"> -33809.71584222 </i>
    <i name="XCdc">   4199.88481366 </i>
    <i name="pawpsdc"> 119704.30576922 </i>
    <i name="pawaedc">-136100.48225156 </i>
    <i name="eentropy">     -0.02051357 </i>
    <i name="bandstr">  -5702.77893466 </i>
    <i name="atom"> 134104.30092448 </i>
    <i name="e_fr_energy">   -713.74304533 </i>
    <i name="e_wo_entrp">   -713.72253177 </i>
    <i name="e_0_energy">   -713.73278855 </i>
   </energy>
  </scstep>
  <structure>
   <crystal>
    <varray name="basis" >
     <v>       0.00000000      12.28047342       0.00000000 </v>
     <v>       9.14270205       0.00000000       0.00000000 </v>
     <v>       0.00000000      -2.76826177     -11.30069772 </v>
    </varray>
    <i name="volume">   1268.80515525 </i>
    <varray name="rec_basis" >
     <v>       0.00000000       0.08143009      -0.01994742 </v>
     <v>       0.10937686      -0.00000000       0.00000000 </v>
     <v>       0.00000000       0.00000000      -0.08849011 </v>
    </varray>
   </crystal>
   <varray name="positions" >
    <v>       0.65875099      -0.00002642       0.15727474 </v>
    <v>       0.65846447      -0.00003356       0.65705223 </v>
    <v>       0.65875099       0.33335975       0.15727474 </v>
    <v>       0.65846447       0.33336689       0.65705223 </v>
    <v>       0.65871024       0.66666667       0.15726442 </v>
    <v>       0.65856453       0.66666667       0.65708866 </v>
    <v>       0.84206719       0.16666667       0.34262516 </v>
    <v>       0.84096909       0.16666667       0.84260346 </v>
    <v>       0.84190046       0.49994552       0.34288428 </v>
    <v>       0.84135876       0.50024860       0.84276265 </v>
    <v>       0.84190046       0.83338781       0.34288428 </v>
    <v>       0.84135876       0.83308474       0.84276265 </v>
    <v>       0.59038430       0.16666667       0.39742351 </v>
    <v>       0.59035104       0.16666667       0.89755003 </v>
    <v>       0.59041250       0.50000036       0.39744205 </v>
    <v>       0.59037720       0.50001876       0.89754768 </v>
    <v>       0.59041250       0.83333298       0.39744205 </v>
    <v>       0.59037720       0.83331457       0.89754768 </v>
    <v>       0.90883617      -0.00144479       0.10282070 </v>
    <v>       0.90920354      -0.00084023       0.60208577 </v>
    <v>       0.90883617       0.33477812       0.10282070 </v>
    <v>       0.90920354       0.33417356       0.60208577 </v>
    <v>       0.90953565       0.66666667       0.10273270 </v>
    <v>       0.90955700       0.66666667       0.60223984 </v>
    <v>       0.15983416       0.16666667       0.15800083 </v>
    <v>       0.15923985       0.16666667       0.65686781 </v>
    <v>       0.15870406       0.50004627       0.15760667 </v>
    <v>       0.15862300       0.50003069       0.65684298 </v>
    <v>       0.15870406       0.83328707       0.15760667 </v>
    <v>       0.15862300       0.83330265       0.65684298 </v>
    <v>       0.34118653       0.00004590       0.34283421 </v>
    <v>       0.34145398      -0.00002148       0.84279845 </v>
    <v>       0.34118653       0.33328743       0.34283421 </v>
    <v>       0.34145398       0.33335482       0.84279845 </v>
    <v>       0.34128119       0.66666667       0.34285380 </v>
    <v>       0.34139081       0.66666667       0.84279186 </v>
    <v>       0.09039236      -0.00062283       0.39741225 </v>
    <v>       0.09069036      -0.00046492       0.89747963 </v>
    <v>       0.09039236       0.33395616       0.39741225 </v>
    <v>       0.09069036       0.33379826       0.89747963 </v>
    <v>       0.08982118       0.66666667       0.39733816 </v>
    <v>       0.09051946       0.66666667       0.89752037 </v>
    <v>       0.40961970       0.16666667       0.10260101 </v>
    <v>       0.40949082       0.16666667       0.60233655 </v>
    <v>       0.40961028       0.50001417       0.10257617 </v>
    <v>       0.40950875       0.49999225       0.60240298 </v>
    <v>       0.40961028       0.83331916       0.10257617 </v>
    <v>       0.40950875       0.83334108       0.60240298 </v>
    <v>       0.99670701       0.16666667       0.12976697 </v>
    <v>       0.99654909       0.16666667       0.62805844 </v>
    <v>       0.99643947       0.49976714       0.12829824 </v>
    <v>       0.99643290       0.49984269       0.62858511 </v>
    <v>       0.99643947       0.83356620       0.12829824 </v>
    <v>       0.99643290       0.83349064       0.62858511 </v>
    <v>       0.50356761      -0.00000252       0.37154782 </v>
    <v>       0.50354680       0.00001322       0.87152985 </v>
    <v>       0.50356761       0.33333586       0.37154782 </v>
    <v>       0.50354680       0.33332012       0.87152985 </v>
    <v>       0.50355516       0.66666667       0.37154855 </v>
    <v>       0.50354128       0.66666667       0.87152749 </v>
    <v>       0.67333862       0.16666667       0.28157831 </v>
    <v>       0.67338849       0.16666667       0.78157671 </v>
    <v>       0.67324952       0.49997979       0.28153992 </v>
    <v>       0.67337038       0.49994090       0.78157361 </v>
    <v>       0.67324952       0.83335355       0.28153992 </v>
    <v>       0.67337038       0.83339243       0.78157361 </v>
    <v>       0.82621097      -0.00074764       0.21747907 </v>
    <v>       0.82685159       0.00014526       0.71855378 </v>
    <v>       0.82621097       0.33408097       0.21747907 </v>
    <v>       0.82685159       0.33318808       0.71855378 </v>
    <v>       0.82659600       0.66666667       0.21829977 </v>
    <v>       0.82671157       0.66666667       0.71854016 </v>
    <v>       0.83435882      -0.00078938       0.44635047 </v>
    <v>       0.83502519       0.00029452       0.94564432 </v>
    <v>       0.83435882       0.33412271       0.44635047 </v>
    <v>       0.83502519       0.33303881       0.94564432 </v>
    <v>       0.83473547       0.66666667       0.44563858 </v>
    <v>       0.83484626       0.66666667       0.94546187 </v>
    <v>       0.66515423       0.16666667       0.05437458 </v>
    <v>       0.66521622       0.16666667       0.55456842 </v>
    <v>       0.66512556       0.50001028       0.05437213 </v>
    <v>       0.66518408       0.49997012       0.55456163 </v>
    <v>       0.66512556       0.83332306       0.05437213 </v>
    <v>       0.66518408       0.83336322       0.55456163 </v>
    <v>       0.49646786       0.00000646       0.12843555 </v>
    <v>       0.49653447      -0.00000155       0.62851605 </v>
    <v>       0.49646786       0.33332687       0.12843555 </v>
    <v>       0.49653447       0.33333488       0.62851605 </v>
    <v>       0.49646972       0.66666667       0.12843691 </v>
    <v>       0.49652763       0.66666667       0.62850831 </v>
    <v>       0.00343356       0.16666667       0.87155170 </v>
    <v>       0.00362303       0.50147729       0.37160079 </v>
    <v>       0.00349480       0.49986129       0.87153972 </v>
    <v>       0.00362303       0.83185605       0.37160079 </v>
    <v>       0.00349480       0.83347205       0.87153972 </v>
    <v>       0.17403602      -0.00061339       0.28065904 </v>
    <v>       0.17313527       0.00014473       0.78165888 </v>
    <v>       0.17403602       0.33394672       0.28065904 </v>
    <v>       0.17313527       0.33318860       0.78165888 </v>
    <v>       0.17343245       0.66666667       0.28138261 </v>
    <v>       0.17325866       0.66666667       0.78161696 </v>
    <v>       0.32676186       0.16666667       0.21831307 </v>
    <v>       0.32672289       0.16666667       0.71856418 </v>
    <v>       0.32677899       0.50003436       0.21834844 </v>
    <v>       0.32676419       0.49998496       0.71857175 </v>
    <v>       0.32677899       0.83329897       0.21834844 </v>
    <v>       0.32676419       0.83334837       0.71857175 </v>
    <v>       0.33498820       0.16666667       0.44559053 </v>
    <v>       0.33479592       0.16666667       0.94549559 </v>
    <v>       0.33489968       0.50002033       0.44556540 </v>
    <v>       0.33480930       0.49996917       0.94550256 </v>
    <v>       0.33489968       0.83331300       0.44556540 </v>
    <v>       0.33480930       0.83336416       0.94550256 </v>
    <v>       0.16494552       0.00027969       0.05430462 </v>
    <v>       0.16580332      -0.00064403       0.55570007 </v>
    <v>       0.16494552       0.33305364       0.05430462 </v>
    <v>       0.16580332       0.33397736       0.55570007 </v>
    <v>       0.16511870       0.66666667       0.05437784 </v>
    <v>       0.16527729       0.66666667       0.55474153 </v>
    <v>       0.00127998       0.16666667       0.37011825 </v>
   </varray>
  </structure>
  <varray name="forces" >
   <v>      -0.00985517      -0.02084277       0.02104342 </v>
   <v>       0.00310890       0.05870312      -0.02759311 </v>
   <v>       0.00985517      -0.02084277       0.02104342 </v>
   <v>      -0.00310890       0.05870312      -0.02759311 </v>
   <v>       0.00000000      -0.00146181      -0.00132001 </v>
[...]
       <r>    -9.7469     0.0000   144.0000 </r>
       <r>    -9.6370     0.0000   144.0000 </r>
       <r>    -9.5271     0.0000   144.0000 </r>
       <r>    -9.4172     0.0000   144.0000 </r>
       <r>    -9.3072     0.0000   144.0000 </r>
       <r>    -9.1973     0.1459   144.0160 </r>
       <r>    -9.0874    65.2258   151.1850 </r>
       <r>    -8.9775   368.0496   191.6372 </r>
       <r>    -8.8676   720.2284   270.7973 </r>
       <r>    -8.7577   806.1502   359.4010 </r>
       <r>    -8.6478   616.3791   427.1470 </r>
       <r>    -8.5379   738.2730   508.2904 </r>
       <r>    -8.4280   313.3587   542.7315 </r>
       <r>    -8.3181   147.3490   558.9266 </r>
       <r>    -8.2081   138.0479   574.0994 </r>
       <r>    -8.0982    84.9036   583.4312 </r>
       <r>    -7.9883   116.4701   596.2323 </r>
       <r>    -7.8784   133.1837   610.8705 </r>
       <r>    -7.7685    86.5565   620.3839 </r>
       <r>    -7.6586    14.5647   621.9847 </r>
       <r>    -7.5487     0.1390   622.0000 </r>
       <r>    -7.4388     0.0000   622.0000 </r>
       <r>    -7.3289     0.0021   622.0002 </r>
       <r>    -7.2190     4.9100   622.5399 </r>
       <r>    -7.1090    13.1591   623.9862 </r>
       <r>    -6.9991     0.1256   624.0000 </r>
       <r>    -6.8892     0.0000   624.0000 </r>
       <r>    -6.7793     0.0000   624.0000 </r>
       <r>    -6.6694     0.0000   624.0000 </r>
       <r>    -6.5595     0.0000   624.0000 </r>
       <r>    -6.4496     0.0000   624.0000 </r>
       <r>    -6.3397     0.0000   624.0000 </r>
       <r>    -6.2298     0.0000   624.0000 </r>
       <r>    -6.1199     0.0000   624.0000 </r>
       <r>    -6.0100     0.0000   624.0000 </r>
       <r>    -5.9000     0.0000   624.0000 </r>
       <r>    -5.7901     0.0000   624.0000 </r>
       <r>    -5.6802     0.0000   624.0000 </r>
       <r>    -5.5703     0.0000   624.0000 </r>
       <r>    -5.4604     0.0000   624.0000 </r>
       <r>    -5.3505     0.0000   624.0000 </r>
       <r>    -5.2406     0.0000   624.0000 </r>
       <r>    -5.1307     0.0000   624.0000 </r>
       <r>    -5.0208     0.0000   624.0000 </r>
       <r>    -4.9109     0.0000   624.0000 </r>
       <r>    -4.8009     0.0000   624.0000 </r>
       <r>    -4.6910     0.0000   624.0000 </r>
       <r>    -4.5811     0.0000   624.0000 </r>
       <r>    -4.4712     0.0000   624.0000 </r>
       <r>    -4.3613     0.0000   624.0000 </r>
       <r>    -4.2514     0.0000   624.0000 </r>
       <r>    -4.1415     0.0000   624.0000 </r>
       <r>    -4.0316     0.0000   624.0000 </r>
       <r>    -3.9217     0.0000   624.0000 </r>
       <r>    -3.8118     0.0000   624.0000 </r>
       <r>    -3.7018     0.0000   624.0000 </r>
       <r>    -3.5919     0.0000   624.0000 </r>
       <r>    -3.4820     0.0000   624.0000 </r>
       <r>    -3.3721     0.0000   624.0000 </r>
       <r>    -3.2622     0.0568   624.0062 </r>
       <r>    -3.1523     6.4470   624.7148 </r>
       <r>    -3.0424     8.9638   625.7000 </r>
       <r>    -2.9325    22.9408   628.2214 </r>
       <r>    -2.8226    25.3760   631.0105 </r>
       <r>    -2.7127    41.4939   635.5711 </r>
       <r>    -2.6028    23.2293   638.1242 </r>
       <r>    -2.4928    57.7629   644.4729 </r>
       <r>    -2.3829    35.6165   648.3875 </r>
       <r>    -2.2730    57.6406   654.7228 </r>
       <r>    -2.1631    66.1022   661.9881 </r>
       <r>    -2.0532    49.2835   667.4048 </r>
       <r>    -1.9433    36.6077   671.4283 </r>
       <r>    -1.8334    63.9271   678.4545 </r>
       <r>    -1.7235    53.8571   684.3740 </r>
       <r>    -1.6136    22.0933   686.8022 </r>
       <r>    -1.5037    35.2983   690.6819 </r>
       <r>    -1.3937    22.9564   693.2050 </r>
       <r>    -1.2838    34.3290   696.9781 </r>
       <r>    -1.1739    33.7189   700.6841 </r>
       <r>    -1.0640    36.4839   704.6940 </r>
       <r>    -0.9541    46.9111   709.8500 </r>
       <r>    -0.8442    34.7046   713.6644 </r>
       <r>    -0.7343    36.8590   717.7156 </r>
       <r>    -0.6244    30.7368   721.0938 </r>
       <r>    -0.5145    38.3114   725.3046 </r>
       <r>    -0.4046    41.2047   729.8334 </r>
       <r>    -0.2946    52.8827   735.6457 </r>
       <r>    -0.1847    36.9299   739.7047 </r>
       <r>    -0.0748    38.8260   743.9720 </r>
       <r>     0.0351    55.5010   750.0721 </r>
       <r>     0.1450    77.0446   758.5401 </r>
       <r>     0.2549    81.3679   767.4832 </r>
       <r>     0.3648    59.5317   774.0263 </r>
       <r>     0.4747    79.1758   782.7285 </r>
       <r>     0.5846    59.2304   789.2385 </r>
       <r>     0.6945    52.8690   795.0493 </r>
       <r>     0.8045    57.1840   801.3344 </r>
       <r>     0.9144    82.7810   810.4328 </r>
       <r>     1.0243    74.2682   818.5956 </r>
       <r>     1.1342    81.3784   827.5399 </r>
       <r>     1.2441    84.8588   836.8667 </r>
       <r>     1.3540    64.4925   843.9551 </r>
       <r>     1.4639    65.9150   851.1997 </r>
       <r>     1.5738    75.4440   859.4918 </r>
       <r>     1.6837    74.5531   867.6859 </r>
       <r>     1.7936    87.6240   877.3166 </r>
       <r>     1.9035    90.9109   887.3086 </r>
       <r>     2.0135    71.0895   895.1220 </r>
       <r>     2.1234    48.6818   900.4726 </r>
       <r>     2.2333    48.6463   905.8193 </r>
       <r>     2.3432   108.6468   917.7607 </r>
       <r>     2.4531    92.0367   927.8764 </r>
       <r>     2.5630    95.6809   938.3926 </r>
       <r>     2.6729    96.8495   949.0373 </r>
       <r>     2.7828    96.6121   959.6560 </r>
       <r>     2.8927   113.7816   972.1617 </r>
       <r>     3.0026   113.6590   984.6539 </r>
       <r>     3.1126   138.5088   999.8773 </r>
       <r>     3.2225   119.7202  1013.0357 </r>
       <r>     3.3324   112.3901  1025.3885 </r>
       <r>     3.4423    76.8508  1033.8352 </r>
       <r>     3.5522    56.3160  1040.0248 </r>
       <r>     3.6621    43.6524  1044.8227 </r>
       <r>     3.7720    71.8766  1052.7226 </r>
       <r>     3.8819    11.5855  1053.9959 </r>
       <r>     3.9918     0.0369  1054.0000 </r>
       <r>     4.1017     0.0000  1054.0000 </r>
       <r>     4.2117     0.0000  1054.0000 </r>
       <r>     4.3216     0.2056  1054.0226 </r>
       <r>     4.4315    10.6208  1055.1899 </r>
       <r>     4.5414     7.3371  1055.9964 </r>
       <r>     4.6513     0.0332  1056.0000 </r>
       <r>     4.7612     0.0000  1056.0000 </r>
       <r>     4.8711     0.0000  1056.0000 </r>
       <r>     4.9810     0.0000  1056.0000 </r>
       <r>     5.0909     0.0000  1056.0000 </r>
       <r>     5.2008     0.0000  1056.0000 </r>
       <r>     5.3107     0.0000  1056.0000 </r>
       <r>     5.4207     0.0000  1056.0000 </r>
       <r>     5.5306     0.0000  1056.0000 </r>
       <r>     5.6405     0.0000  1056.0000 </r>
       <r>     5.7504     0.0000  1056.0000 </r>
       <r>     5.8603     0.0000  1056.0000 </r>
       <r>     5.9702     0.0005  1056.0001 </r>
       <r>     6.0801     0.7687  1056.0845 </r>
       <r>     6.1900     1.4973  1056.2491 </r>
       <r>     6.2999     0.0081  1056.2500 </r>
       <r>     6.4098     0.0000  1056.2500 </r>
       <r>     6.5198     0.0000  1056.2500 </r>
       <r>     6.6297     0.0000  1056.2500 </r>
       <r>     6.7396     0.0000  1056.2500 </r>
       <r>     6.8495     0.0037  1056.2504 </r>
       <r>     6.9594     2.2628  1056.4991 </r>
       <r>     7.0693     5.6519  1057.1203 </r>
       <r>     7.1792     1.1789  1057.2499 </r>
       <r>     7.2891     1.0505  1057.3653 </r>
       <r>     7.3990     6.6891  1058.1005 </r>
       <r>     7.5089     1.3593  1058.2499 </r>
       <r>     7.6189     0.0006  1058.2500 </r>
       <r>     7.7288     0.2745  1058.2802 </r>
       <r>     7.8387     9.9165  1059.3701 </r>
       <r>     7.9486     4.9468  1059.9138 </r>
       <r>     8.0585     6.4271  1060.6202 </r>
       <r>     8.1684     4.9576  1061.1651 </r>
       <r>     8.2783     6.5187  1061.8816 </r>
       <r>     8.3882     2.8079  1062.1902 </r>
       <r>     8.4981     8.5331  1063.1281 </r>
       <r>     8.6080    13.3618  1064.5966 </r>
       <r>     8.7179     4.2010  1065.0584 </r>
       <r>     8.8279     2.3426  1065.3158 </r>
       <r>     8.9378    11.2310  1066.5502 </r>
       <r>     9.0477    16.4192  1068.3549 </r>
       <r>     9.1576    12.4961  1069.7283 </r>
       <r>     9.2675     9.0373  1070.7216 </r>
       <r>     9.3774    10.3480  1071.8589 </r>
       <r>     9.4873    25.6149  1074.6743 </r>
       <r>     9.5972    34.6435  1078.4819 </r>
       <r>     9.7071    24.9401  1081.2231 </r>
       <r>     9.8170    51.7420  1086.9100 </r>
       <r>     9.9270    48.9257  1092.2874 </r>
       <r>    10.0369    44.7913  1097.2104 </r>
       <r>    10.1468    23.1748  1099.7576 </r>
       <r>    10.2567    37.5313  1103.8826 </r>
       <r>    10.3666    30.9972  1107.2895 </r>
       <r>    10.4765    27.6602  1110.3296 </r>
       <r>    10.5864    36.8981  1114.3851 </r>
       <r>    10.6963    52.5230  1120.1579 </r>
       <r>    10.8062    32.3808  1123.7168 </r>
       <r>    10.9161    36.7505  1127.7561 </r>
       <r>    11.0261    30.9386  1131.1565 </r>
       <r>    11.1360    25.8715  1134.0001 </r>
       <r>    11.2459    41.2832  1138.5375 </r>
       <r>    11.3558    38.5837  1142.7782 </r>
       <r>    11.4657    42.8902  1147.4923 </r>
       <r>    11.5756    36.0446  1151.4539 </r>
       <r>    11.6855    50.0273  1156.9524 </r>
       <r>    11.7954    35.9665  1160.9055 </r>
       <r>    11.9053    10.0793  1162.0133 </r>
       <r>    12.0152     5.9009  1162.6618 </r>
       <r>    12.1251    24.8413  1165.3922 </r>
       <r>    12.2351    34.2395  1169.1554 </r>
       <r>    12.3450    34.7556  1172.9754 </r>
       <r>    12.4549    38.9074  1177.2517 </r>
       <r>    12.5648    50.3344  1182.7839 </r>
       <r>    12.6747    37.6226  1186.9190 </r>
       <r>    12.7846    38.6854  1191.1709 </r>
       <r>    12.8945    41.4504  1195.7267 </r>
       <r>    13.0044    30.4135  1199.0694 </r>
       <r>    13.1143    39.5875  1203.4205 </r>
       <r>    13.2242    38.6106  1207.6642 </r>
       <r>    13.3342    27.8826  1210.7287 </r>
       <r>    13.4441    56.7169  1216.9625 </r>
       <r>    13.5540    46.0233  1222.0209 </r>
       <r>    13.6639    41.4459  1226.5762 </r>
       <r>    13.7738    36.4637  1230.5839 </r>
       <r>    13.8837    38.1417  1234.7760 </r>
       <r>    13.9936    30.0833  1238.0825 </r>
       <r>    14.1035    39.5151  1242.4256 </r>
       <r>    14.2134    34.0927  1246.1727 </r>
       <r>    14.3233    22.1623  1248.6086 </r>
       <r>    14.4333    18.2264  1250.6118 </r>
       <r>    14.5432    46.6331  1255.7372 </r>
       <r>    14.6531    35.6436  1259.6548 </r>
       <r>    14.7630    36.3758  1263.6529 </r>
       <r>    14.8729    18.5545  1265.6922 </r>
       <r>    14.9828     2.7459  1265.9940 </r>
       <r>    15.0927     0.0546  1266.0000 </r>
       <r>    15.2026     0.0000  1266.0000 </r>
       <r>    15.3125     0.0000  1266.0000 </r>
       <r>    15.4224     0.0000  1266.0000 </r>
       <r>    15.5323     0.0000  1266.0000 </r>
       <r>    15.6423     0.0000  1266.0000 </r>
       <r>    15.7522     0.0000  1266.0000 </r>
       <r>    15.8621     0.0000  1266.0000 </r>
       <r>    15.9720     0.0000  1266.0000 </r>
       <r>    16.0819     0.0000  1266.0000 </r>
       <r>    16.1918     0.0000  1266.0000 </r>
       <r>    16.3017     0.0000  1266.0000 </r>
       <r>    16.4116     0.0000  1266.0000 </r>
      </set>
     </set>
    </array>
   </total>
  </dos>
 </calculation>
 <structure name="finalpos" >
  <crystal>
   <varray name="basis" >
    <v>       0.00000000      12.28047342       0.00000000 </v>
    <v>       9.14270205       0.00000000       0.00000000 </v>
    <v>       0.00000000      -2.76826177     -11.30069772 </v>
   </varray>
   <i name="volume">   1268.80515525 </i>
   <varray name="rec_basis" >
    <v>       0.00000000       0.08143009      -0.01994742 </v>
    <v>       0.10937686      -0.00000000       0.00000000 </v>
    <v>       0.00000000       0.00000000      -0.08849011 </v>
   </varray>
  </crystal>
  <varray name="positions" >
   <v>       0.65841153      -0.00063161       0.15594726 </v>
   <v>       0.65924052      -0.00011755       0.65685037 </v>
   <v>       0.65841153       0.33396494       0.15594726 </v>
   <v>       0.65924052       0.33345088       0.65685037 </v>
   <v>       0.65867212       0.66666667       0.15627204 </v>
   <v>       0.65942154       0.66666667       0.65696699 </v>
   <v>       0.83915821       0.16666667       0.34358410 </v>
   <v>       0.84109925       0.16666667       0.84319846 </v>
   <v>       0.84069420       0.50049232       0.34287143 </v>
   <v>       0.84163294       0.50012640       0.84381130 </v>
   <v>       0.84069420       0.83284101       0.34287143 </v>
   <v>       0.84163294       0.83320694       0.84381130 </v>
   <v>       0.59154307       0.16666667       0.39787937 </v>
   <v>       0.59077746       0.16666667       0.89752085 </v>
   <v>       0.59173254       0.50013887       0.39780198 </v>
   <v>       0.59049925       0.50013675       0.89708038 </v>
   <v>       0.59173254       0.83319447       0.39780198 </v>
   <v>       0.59049925       0.83319658       0.89708038 </v>
   <v>       0.90855874      -0.00120030       0.10373790 </v>
   <v>       0.90774455      -0.00092967       0.60111480 </v>
   <v>       0.90855874       0.33453363       0.10373790 </v>
   <v>       0.90774455       0.33426300       0.60111480 </v>
   <v>       0.90943629       0.66666667       0.10297831 </v>
   <v>       0.90876544       0.66666667       0.60187610 </v>
   <v>       0.16083122       0.16666667       0.15874508 </v>
   <v>       0.15992701       0.16666667       0.65514882 </v>
   <v>       0.15972128       0.50006066       0.15731777 </v>
   <v>       0.15898134       0.50005007       0.65621686 </v>
   <v>       0.15972128       0.83327267       0.15731777 </v>
   <v>       0.15898134       0.83328326       0.65621686 </v>
   <v>       0.34188542      -0.00041285       0.34401728 </v>
   <v>       0.34068231       0.00002627       0.84304672 </v>
   <v>       0.34188542       0.33374618       0.34401728 </v>
   <v>       0.34068231       0.33330706       0.84304672 </v>
   <v>       0.34178095       0.66666667       0.34354144 </v>
   <v>       0.34048515       0.66666667       0.84328594 </v>
   <v>       0.09009222      -0.00005011       0.39685224 </v>
   <v>       0.09143830      -0.00017737       0.89748689 </v>
   <v>       0.09009222       0.33338344       0.39685224 </v>
   <v>       0.09143830       0.33351070       0.89748689 </v>
   <v>       0.09154335       0.66666667       0.39777827 </v>
   <v>       0.09144461       0.66666667       0.89788478 </v>
   <v>       0.40893800       0.16666667       0.10203667 </v>
   <v>       0.40955747       0.16666667       0.60250534 </v>
   <v>       0.40890129       0.50007993       0.10204512 </v>
   <v>       0.40922825       0.50013447       0.60279652 </v>
   <v>       0.40890129       0.83325340       0.10204512 </v>
   <v>       0.40922825       0.83319887       0.60279652 </v>
   <v>       0.99661113       0.16666667       0.13759535 </v>
   <v>       0.99567463       0.16666667       0.62038228 </v>
   <v>       0.99693515       0.50009825       0.12778757 </v>
   <v>       0.99621543       0.49986548       0.62697037 </v>
   <v>       0.99693515       0.83323508       0.12778757 </v>
   <v>       0.99621543       0.83346785       0.62697037 </v>
   <v>       0.50431531      -0.00005655       0.37306041 </v>
   <v>       0.50329978       0.00007566       0.87259284 </v>
   <v>       0.50431531       0.33338988       0.37306041 </v>
   <v>       0.50329978       0.33325767       0.87259284 </v>
   <v>       0.50417299       0.66666667       0.37321175 </v>
   <v>       0.50299146       0.66666667       0.87215667 </v>
   <v>       0.67227387       0.16666667       0.27997742 </v>
   <v>       0.67303230       0.16666667       0.78099002 </v>
   <v>       0.67163823       0.50081811       0.27964334 </v>
   <v>       0.67331733       0.49964802       0.78109064 </v>
   <v>       0.67163823       0.83251523       0.27964334 </v>
   <v>       0.67331733       0.83368531       0.78109064 </v>
   <v>       0.82518217      -0.00304399       0.21820392 </v>
   <v>       0.82809448       0.00030552       0.71983635 </v>
   <v>       0.82518217       0.33637733       0.21820392 </v>
   <v>       0.82809448       0.33302781       0.71983635 </v>
   <v>       0.82710545       0.66666667       0.21914886 </v>
   <v>       0.82788916       0.66666667       0.71979768 </v>
   <v>       0.82804288      -0.00206264       0.44570647 </v>
   <v>       0.83436599       0.00067285       0.94658977 </v>
   <v>       0.82804288       0.33539597       0.44570647 </v>
   <v>       0.83436599       0.33266049       0.94658977 </v>
   <v>       0.83100963       0.66666667       0.44563369 </v>
   <v>       0.83294907       0.66666667       0.94621605 </v>
   <v>       0.66764910       0.16666667       0.05391916 </v>
   <v>       0.66801223       0.16666667       0.55471477 </v>
   <v>       0.66725028       0.50036980       0.05334289 </v>
   <v>       0.66792078       0.50009462       0.55473330 </v>
   <v>       0.66725028       0.83296354       0.05334289 </v>
   <v>       0.66792078       0.83323872       0.55473330 </v>
   <v>       0.49614194       0.00002054       0.12677424 </v>
   <v>       0.49676815      -0.00013178       0.62797927 </v>
   <v>       0.49614194       0.33331280       0.12677424 </v>
   <v>       0.49676815       0.33346511       0.62797927 </v>
   <v>       0.49602808       0.66666667       0.12626531 </v>
   <v>       0.49686326       0.66666667       0.62827312 </v>
   <v>       0.00388407       0.16666667       0.87238772 </v>
   <v>       0.00342649       0.50149442       0.37314147 </v>
   <v>       0.00406290       0.50006400       0.87267721 </v>
   <v>       0.00342649       0.83183891       0.37314147 </v>
   <v>       0.00406290       0.83326933       0.87267721 </v>
   <v>       0.17431805      -0.00157046       0.28083415 </v>
   <v>       0.17200015       0.00062916       0.77965997 </v>
   <v>       0.17431805       0.33490379       0.28083415 </v>
   <v>       0.17200015       0.33270417       0.77965997 </v>
   <v>       0.17338056       0.66666667       0.28082628 </v>
   <v>       0.17227266       0.66666667       0.78018328 </v>
   <v>       0.32837292       0.16666667       0.21982223 </v>
   <v>       0.32775931       0.16666667       0.71946064 </v>
   <v>       0.32817604       0.50015934       0.21955162 </v>
   <v>       0.32753489       0.49991262       0.71983058 </v>
   <v>       0.32817604       0.83317399       0.21955162 </v>
   <v>       0.32753489       0.83342071       0.71983058 </v>
   <v>       0.33334012       0.16666667       0.44594935 </v>
   <v>       0.33155580       0.16666667       0.94556760 </v>
   <v>       0.33323698       0.50035796       0.44616078 </v>
   <v>       0.33125242       0.49968482       0.94561506 </v>
   <v>       0.33323698       0.83297537       0.44616078 </v>
   <v>       0.33125242       0.83364851       0.94561506 </v>
   <v>       0.16638853       0.00093484       0.05458800 </v>
   <v>       0.16918229      -0.00104838       0.55392015 </v>
   <v>       0.16638853       0.33239849       0.05458800 </v>
   <v>       0.16918229       0.33438172       0.55392015 </v>
   <v>       0.16813647       0.66666667       0.05447995 </v>
   <v>       0.16848598       0.66666667       0.55443366 </v>
   <v>       0.00014599       0.16666667       0.36883432 </v>
  </varray>
 </structure>
</modeling>
