 running    4 mpi-ranks, on    1 nodes
 distrk:  each k-point on    1 cores,    4 groups
 distr:  one band on    1 cores,    1 groups
 OpenACC runtime initialized ...    4 GPUs detected
 vasp.6.4.2 20Jul23 (build Nov 12 2023 22:16:35) complex                         
 POSCAR found type information on POSCAR GaO P 
 POSCAR found :  3 types and     119 ions
 scaLAPACK will be used selectively (only on CPU)
 LDA part: xc-table for Pade appr. of Perdew
 POSCAR, INCAR and KPOINTS ok, starting setup
 FFT: planning ... GRIDC
 FFT: planning ... GRID_SOFT
 FFT: planning ... GRID
 WAVECAR not read
 initial charge from wavefunction
 entering main loop
       N       E                     dE             d eps       ncg     rms          ort
DAV:   1    -0.208008213580E+05   -0.20801E+05   -0.54471E+05  5064   0.753E+03
DAV:   2    -0.665833909977E+05   -0.45783E+05   -0.44080E+05  5064   0.126E+03
DAV:   3    -0.724045695053E+05   -0.58212E+04   -0.52389E+04  5064   0.394E+02
DAV:   4    -0.733382735764E+05   -0.93370E+03   -0.85593E+03  5064   0.132E+02
DAV:   5    -0.409221993027E+05    0.32416E+05   -0.74074E+02  5064   0.606E+01
 gam= 0.000 g(H,U,f)=  0.948E+05 0.187E+05 0.123E-03 ort(H,U,f) = 0.000E+00 0.000E+00 0.000E+00
SDA:   6     0.449652854469E+05    0.85887E+05   -0.74074E+02  5064   0.113E+06 0.000E+00
 gam= 0.000 trial= 0.400  step= 0.830 mean= 0.400
 gam= 0.906 g(H,U,f)=  0.839E+05 0.138E+05 0.505E+04 ort(H,U,f) =-0.179E+05-0.759E+04-0.460E+04
CGA:   7     0.206865449939E+05   -0.24279E+05   -0.47084E+05  5064   0.103E+06-0.301E+05
 gam= 0.906 trial= 0.421  step= 0.276 mean= 0.421
 gam= 0.374 g(H,U,f)=  0.328E+05 0.516E+04 0.413E+03 ort(H,U,f) = 0.123E+05 0.551E+04 0.619E+03
CGA:   8     0.138070377952E+05   -0.68795E+04   -0.10399E+05  5064   0.384E+05 0.184E+05
 gam= 0.374 trial= 0.414  step= 0.276 mean= 0.414
 gam= 0.639 g(H,U,f)=  0.216E+05 0.281E+04 0.118E+03 ort(H,U,f) = 0.526E+04 0.161E+04 0.917E+02
CGA:   9     0.898143280813E+04   -0.48256E+04   -0.62461E+04  5064   0.245E+05 0.696E+04
 gam= 0.639 trial= 0.407  step= 0.269 mean= 0.407
 gam= 0.857 g(H,U,f)=  0.142E+05 0.659E+04 0.217E+03 ort(H,U,f) = 0.541E+04-0.481E+04-0.972E+02
CGA:  10     0.581067821583E+04   -0.31708E+04   -0.39007E+04  5064   0.210E+05 0.503E+03
 gam= 0.857 trial= 0.400  step= 0.240 mean= 0.400
 gam= 0.453 g(H,U,f)=  0.837E+04 0.113E+04 0.139E+02 ort(H,U,f) = 0.254E+04 0.252E+02-0.358E+02
CGA:  11     0.387093923882E+04   -0.19397E+04   -0.25703E+04  5064   0.952E+04 0.253E+04

 gam= 0.453 trial= 0.392  step= 0.359 mean= 0.392
 gam= 0.495 g(H,U,f)=  0.413E+04 0.581E+03 0.945E+01 ort(H,U,f) = 0.109E+04 0.278E+03 0.274E+00
CGA:  12     0.201245140585E+04   -0.18585E+04   -0.19122E+04  5064   0.472E+04 0.137E+04
 gam= 0.495 trial= 0.391  step= 0.425 mean= 0.391
 gam= 0.591 g(H,U,f)=  0.234E+04 0.442E+03 0.520E+01 ort(H,U,f) = 0.267E+03 0.218E+03-0.928E+01
CGA:  13     0.848800650312E+03   -0.11637E+04   -0.11478E+04  5064   0.279E+04 0.476E+03
 gam= 0.591 trial= 0.392  step= 0.502 mean= 0.392
 gam= 0.712 g(H,U,f)=  0.160E+04 0.380E+03 0.273E+01 ort(H,U,f) =-0.420E+03 0.235E+03-0.253E+01
CGA:  14     0.840539814698E+02   -0.76475E+03   -0.76996E+03  5064   0.199E+04-0.188E+03
 gam= 0.712 trial= 0.398  step= 0.237 mean= 0.398
 gam= 0.715 g(H,U,f)=  0.991E+03 0.421E+03 0.687E+01 ort(H,U,f) = 0.441E+03-0.339E+03-0.580E+01
CGA:  15    -0.148286519855E+03   -0.23234E+03   -0.21937E+03  5064   0.142E+04 0.961E+02
 gam= 0.715 trial= 0.390  step= 0.245 mean= 0.390
 gam= 0.812 g(H,U,f)=  0.561E+03 0.582E+03 0.873E+01 ort(H,U,f) = 0.408E+03-0.368E+03 0.202E+01
CGA:  16    -0.327894952198E+03   -0.17961E+03   -0.18243E+03  5064   0.115E+04 0.420E+02
 gam= 0.812 trial= 0.383  step= 0.219 mean= 0.383
 gam= 0.608 g(H,U,f)=  0.381E+03 0.318E+03 0.205E+01 ort(H,U,f) = 0.928E+02-0.726E+02 0.290E+01
CGA:  17    -0.451237629632E+03   -0.12334E+03   -0.13013E+03  5064   0.701E+03 0.231E+02
 gam= 0.608 trial= 0.374  step= 0.253 mean= 0.374
 gam= 0.702 g(H,U,f)=  0.331E+03 0.161E+03 0.152E+00 ort(H,U,f) = 0.690E+01 0.174E+02-0.212E+00
CGA:  18    -0.535236950765E+03   -0.83999E+02   -0.90567E+02  5064   0.492E+03 0.241E+02
 gam= 0.702 trial= 0.368  step= 0.339 mean= 0.368
 gam= 0.735 g(H,U,f)=  0.242E+03 0.119E+03 0.342E+00 ort(H,U,f) =-0.401E+02 0.707E+02 0.184E+00
CGA:  19    -0.620879962942E+03   -0.85643E+02   -0.86263E+02  5064   0.362E+03 0.308E+02
 gam= 0.735 trial= 0.367  step= 0.355 mean= 0.367
 gam= 0.734 g(H,U,f)=  0.191E+03 0.734E+02 0.489E+00 ort(H,U,f) =-0.699E+02 0.932E+02 0.620E+00
CGA:  20    -0.688851568377E+03   -0.67972E+02   -0.68147E+02  5064   0.265E+03 0.240E+02
 gam= 0.734 trial= 0.366  step= 0.383 mean= 0.366
 gam= 0.757 g(H,U,f)=  0.149E+03 0.513E+02 0.167E+00 ort(H,U,f) =-0.488E+02 0.652E+02 0.448E+00
CGA:  21    -0.743156043207E+03   -0.54304E+02   -0.54173E+02  5064   0.201E+03 0.169E+02
 gam= 0.757 trial= 0.367  step= 0.361 mean= 0.367
 gam= 0.709 g(H,U,f)=  0.106E+03 0.362E+02 0.276E+00 ort(H,U,f) =-0.227E+02 0.353E+02-0.192E+00
CGA:  22    -0.781737564277E+03   -0.38582E+02   -0.38611E+02  5064   0.142E+03 0.124E+02
 gam= 0.709 trial= 0.367  step= 0.347 mean= 0.367
 gam= 0.657 g(H,U,f)=  0.694E+02 0.242E+02 0.320E-01 ort(H,U,f) =-0.198E+01 0.122E+02-0.367E-02
CGA:  23    -0.807852763206E+03   -0.26115E+02   -0.26228E+02  5064   0.936E+02 0.102E+02
 gam= 0.657 trial= 0.366  step= 0.350 mean= 0.366
 gam= 0.630 g(H,U,f)=  0.391E+02 0.198E+02 0.131E+00 ort(H,U,f) = 0.224E+01 0.377E+01-0.129E+00
CGA:  24    -0.825366252247E+03   -0.17513E+02   -0.17564E+02  5064   0.590E+02 0.588E+01
 gam= 0.630 trial= 0.365  step= 0.368 mean= 0.365
 gam= 0.704 g(H,U,f)=  0.256E+02 0.158E+02 0.178E+00 ort(H,U,f) =-0.279E+01 0.593E+01-0.430E-01
CGA:  25    -0.836914007618E+03   -0.11548E+02   -0.11543E+02  5064   0.415E+02 0.309E+01
 gam= 0.704 trial= 0.365  step= 0.384 mean= 0.365
 gam= 0.742 g(H,U,f)=  0.196E+02 0.111E+02 0.784E-01 ort(H,U,f) =-0.487E+01 0.683E+01-0.150E+00
CGA:  26    -0.845327156823E+03   -0.84131E+01   -0.83940E+01  5064   0.308E+02 0.181E+01
 gam= 0.742 trial= 0.366  step= 0.384 mean= 0.366
 gam= 0.765 g(H,U,f)=  0.154E+02 0.810E+01 0.105E+00 ort(H,U,f) =-0.453E+01 0.565E+01-0.956E-01
CGA:  27    -0.851513380077E+03   -0.61862E+01   -0.61759E+01  5064   0.236E+02 0.102E+01
 gam= 0.765 trial= 0.367  step= 0.378 mean= 0.367
 gam= 0.764 g(H,U,f)=  0.124E+02 0.556E+01 0.528E-01 ort(H,U,f) =-0.363E+01 0.414E+01-0.353E-01
CGA:  28    -0.856121011010E+03   -0.46076E+01   -0.46053E+01  5064   0.180E+02 0.475E+00
 gam= 0.764 trial= 0.368  step= 0.352 mean= 0.368
 gam= 0.677 g(H,U,f)=  0.855E+01 0.364E+01 0.606E-03 ort(H,U,f) =-0.181E+01 0.211E+01 0.206E-03
CGA:  29    -0.859353283288E+03   -0.32323E+01   -0.32342E+01  5064   0.122E+02 0.297E+00
 gam= 0.677 trial= 0.367  step= 0.356 mean= 0.367
 gam= 0.694 g(H,U,f)=  0.571E+01 0.274E+01 0.754E-02 ort(H,U,f) =-0.728E+00 0.946E+00-0.458E-02
CGA:  30    -0.861560850090E+03   -0.22076E+01   -0.22087E+01  5064   0.846E+01 0.214E+00
 gam= 0.694 trial= 0.366  step= 0.383 mean= 0.366
 gam= 0.705 g(H,U,f)=  0.388E+01 0.208E+01 0.143E-02 ort(H,U,f) =-0.567E+00 0.713E+00-0.631E-03
CGA:  31    -0.863209429620E+03   -0.16486E+01   -0.16473E+01  5064   0.596E+01 0.146E+00
 gam= 0.705 trial= 0.367  step= 0.397 mean= 0.367
 gam= 0.683 g(H,U,f)=  0.250E+01 0.155E+01 0.113E-01 ort(H,U,f) =-0.612E+00 0.707E+00-0.809E-02
CGA:  32    -0.864414054338E+03   -0.12046E+01   -0.12032E+01  5064   0.407E+01 0.877E-01
 gam= 0.683 trial= 0.369  step= 0.426 mean= 0.369
 gam= 0.783 g(H,U,f)=  0.205E+01 0.113E+01 0.745E-02 ort(H,U,f) =-0.648E+00 0.697E+00 0.387E-02
CGA:  33    -0.865295417596E+03   -0.88136E+00   -0.87974E+00  5064   0.318E+01 0.523E-01
 gam= 0.783 trial= 0.372  step= 0.426 mean= 0.372
 gam= 0.792 g(H,U,f)=  0.176E+01 0.765E+00 0.257E-03 ort(H,U,f) =-0.435E+00 0.469E+00-0.145E-02
CGA:  34    -0.865982463891E+03   -0.68705E+00   -0.68611E+00  5064   0.252E+01 0.325E-01
 gam= 0.792 trial= 0.374  step= 0.391 mean= 0.374
 gam= 0.744 g(H,U,f)=  0.131E+01 0.568E+00 0.202E-02 ort(H,U,f) =-0.170E+00 0.192E+00-0.329E-02
CGA:  35    -0.866480961882E+03   -0.49850E+00   -0.49834E+00  5064   0.188E+01 0.187E-01
 gam= 0.744 trial= 0.375  step= 0.368 mean= 0.375
 gam= 0.729 g(H,U,f)=  0.923E+00 0.444E+00 0.139E-03 ort(H,U,f) =-0.716E-01 0.833E-01-0.813E-04
CGA:  36    -0.866828480465E+03   -0.34752E+00   -0.34756E+00  5064   0.137E+01 0.116E-01
 gam= 0.729 trial= 0.375  step= 0.363 mean= 0.375
 gam= 0.000 g(H,U,f)=  0.612E+00 0.351E+00 0.945E-03 ort(H,U,f) =-0.732E-01 0.809E-01-0.564E-04
SDA:  37    -0.867078104640E+03   -0.24962E+00   -0.24967E+00  5064   0.965E+00 0.763E-02
 gam= 0.000 trial= 0.374  step= 0.948 mean= 0.374
 gam= 0.534 g(H,U,f)=  0.371E+00 0.143E+00 0.998E-03 ort(H,U,f) =-0.194E+00 0.196E+00-0.778E-03
CGA:  38    -0.867535387109E+03   -0.45728E+00   -0.45696E+00  5064   0.515E+00 0.122E-02
 gam= 0.534 trial= 0.403  step= 0.727 mean= 0.403
 gam= 0.365 g(H,U,f)=  0.156E+00 0.313E-01 0.621E-03 ort(H,U,f) =-0.111E+00 0.111E+00-0.451E-03
CGA:  39    -0.867722782383E+03   -0.18740E+00   -0.18748E+00  5064   0.188E+00-0.547E-03
 gam= 0.365 trial= 0.419  step= 0.634 mean= 0.419
 gam= 0.295 g(H,U,f)=  0.498E-01 0.576E-02 0.111E-04 ort(H,U,f) =-0.282E-01 0.271E-01 0.381E-04
CGA:  40    -0.867782286833E+03   -0.59504E-01   -0.59633E-01  5064   0.556E-01-0.107E-02
 gam= 0.295 trial= 0.430  step= 0.619 mean= 0.430
 gam= 0.211 g(H,U,f)=  0.108E-01 0.856E-03 0.446E-05 ort(H,U,f) =-0.496E-02 0.410E-02-0.176E-05
CGA:  41    -0.867799273751E+03   -0.16987E-01   -0.17098E-01  5064   0.117E-01-0.860E-03
 gam= 0.211 trial= 0.439  step= 0.608 mean= 0.439
 gam= 0.251 g(H,U,f)=  0.264E-02 0.268E-03 0.254E-04 ort(H,U,f) =-0.372E-03 0.427E-03 0.470E-05
CGA:  42    -0.867802776500E+03   -0.35027E-02   -0.35050E-02  5064   0.294E-02 0.589E-04
 gam= 0.251 trial= 0.448  step= 0.677 mean= 0.448
 gam= 0.315 g(H,U,f)=  0.840E-03 0.831E-04 0.108E-05 ort(H,U,f) = 0.193E-04 0.107E-03 0.525E-05
CGA:  43    -0.867803793375E+03   -0.10169E-02   -0.99820E-03  5064   0.924E-03 0.132E-03
 gam= 0.315 trial= 0.459  step= 0.567 mean= 0.459
 gam= 0.319 g(H,U,f)=  0.265E-03 0.286E-04 0.112E-05 ort(H,U,f) =-0.130E-04 0.494E-04 0.276E-05
CGA:  44    -0.867804070092E+03   -0.27672E-03   -0.27383E-03  5064   0.295E-03 0.392E-04
 gam= 0.319 trial= 0.465  step= 0.650 mean= 0.465
 gam= 0.393 g(H,U,f)=  0.103E-03 0.113E-04 0.216E-05 ort(H,U,f) =-0.136E-04 0.201E-04 0.273E-05
CGA:  45    -0.867804171183E+03   -0.10109E-03   -0.10007E-03  5064   0.116E-03 0.922E-05
 gam= 0.393 trial= 0.474  step= 0.702 mean= 0.474
 gam= 0.408 g(H,U,f)=  0.431E-04 0.397E-05 0.281E-06 ort(H,U,f) =-0.900E-05 0.887E-05 0.115E-05
CGA:  46    -0.867804213330E+03   -0.42147E-04   -0.42013E-04  5064   0.474E-04 0.101E-05
 gam= 0.408 trial= 0.485  step= 0.797 mean= 0.485
 gam= 0.501 g(H,U,f)=  0.224E-04 0.133E-05 0.344E-07 ort(H,U,f) =-0.358E-05 0.265E-05 0.244E-06
CGA:  47    -0.867804232244E+03   -0.18914E-04   -0.19026E-04  5064   0.237E-04-0.686E-06
 gam= 0.501 trial= 0.501  step= 0.698 mean= 0.501
 gam= 0.452 g(H,U,f)=  0.103E-04 0.373E-06 0.722E-07 ort(H,U,f) =-0.659E-06 0.126E-06 0.229E-06
CGA:  48    -0.867804240379E+03   -0.81354E-05   -0.81681E-05  5064   0.107E-04-0.304E-06
 gam= 0.452 trial= 0.511  step= 0.618 mean= 0.511
 final diagonalization
   1 F= -.86780424E+03 E0= -.86780106E+03  d E =-.636316E-02
 writing wavefunctions
Warning: ieee_invalid is signaling
Warning: ieee_divide_by_zero is signaling
Warning: ieee_underflow is signaling
Warning: ieee_inexact is signaling
FORTRAN STOP
Warning: ieee_invalid is signaling
Warning: ieee_divide_by_zero is signaling
Warning: ieee_underflow is signaling
Warning: ieee_invalid is signaling
Warning: ieee_divide_by_zero is signaling
Warning: ieee_underflow is signaling
Warning: ieee_inexact is signaling
FORTRAN STOP
Warning: ieee_inexact is signaling
FORTRAN STOP
Warning: ieee_invalid is signaling
Warning: ieee_divide_by_zero is signaling
Warning: ieee_underflow is signaling
Warning: ieee_inexact is signaling
FORTRAN STOP
