       N       E                     dE             d eps       ncg     rms          ort
DAV:   1    -0.208008213580E+05   -0.20801E+05   -0.54471E+05  5064   0.753E+03
DAV:   2    -0.665833909977E+05   -0.45783E+05   -0.44080E+05  5064   0.126E+03
DAV:   3    -0.724045695053E+05   -0.58212E+04   -0.52389E+04  5064   0.394E+02
DAV:   4    -0.733382735764E+05   -0.93370E+03   -0.85593E+03  5064   0.132E+02
DAV:   5    -0.409221993027E+05    0.32416E+05   -0.74074E+02  5064   0.606E+01
SDA:   6     0.449652854469E+05    0.85887E+05   -0.74074E+02  5064   0.113E+06 0.000E+00
CGA:   7     0.206865449939E+05   -0.24279E+05   -0.47084E+05  5064   0.103E+06-0.301E+05
CGA:   8     0.138070377952E+05   -0.68795E+04   -0.10399E+05  5064   0.384E+05 0.184E+05
CGA:   9     0.898143280813E+04   -0.48256E+04   -0.62461E+04  5064   0.245E+05 0.696E+04
CGA:  10     0.581067821583E+04   -0.31708E+04   -0.39007E+04  5064   0.210E+05 0.503E+03
CGA:  11     0.387093923882E+04   -0.19397E+04   -0.25703E+04  5064   0.952E+04 0.253E+04
CGA:  12     0.201245140585E+04   -0.18585E+04   -0.19122E+04  5064   0.472E+04 0.137E+04
CGA:  13     0.848800650312E+03   -0.11637E+04   -0.11478E+04  5064   0.279E+04 0.476E+03
CGA:  14     0.840539814698E+02   -0.76475E+03   -0.76996E+03  5064   0.199E+04-0.188E+03
CGA:  15    -0.148286519855E+03   -0.23234E+03   -0.21937E+03  5064   0.142E+04 0.961E+02
CGA:  16    -0.327894952198E+03   -0.17961E+03   -0.18243E+03  5064   0.115E+04 0.420E+02
CGA:  17    -0.451237629632E+03   -0.12334E+03   -0.13013E+03  5064   0.701E+03 0.231E+02
CGA:  18    -0.535236950765E+03   -0.83999E+02   -0.90567E+02  5064   0.492E+03 0.241E+02
CGA:  19    -0.620879962942E+03   -0.85643E+02   -0.86263E+02  5064   0.362E+03 0.308E+02
CGA:  20    -0.688851568377E+03   -0.67972E+02   -0.68147E+02  5064   0.265E+03 0.240E+02
CGA:  21    -0.743156043207E+03   -0.54304E+02   -0.54173E+02  5064   0.201E+03 0.169E+02
CGA:  22    -0.781737564277E+03   -0.38582E+02   -0.38611E+02  5064   0.142E+03 0.124E+02
CGA:  23    -0.807852763206E+03   -0.26115E+02   -0.26228E+02  5064   0.936E+02 0.102E+02
CGA:  24    -0.825366252247E+03   -0.17513E+02   -0.17564E+02  5064   0.590E+02 0.588E+01
CGA:  25    -0.836914007618E+03   -0.11548E+02   -0.11543E+02  5064   0.415E+02 0.309E+01
CGA:  26    -0.845327156823E+03   -0.84131E+01   -0.83940E+01  5064   0.308E+02 0.181E+01
CGA:  27    -0.851513380077E+03   -0.61862E+01   -0.61759E+01  5064   0.236E+02 0.102E+01
CGA:  28    -0.856121011010E+03   -0.46076E+01   -0.46053E+01  5064   0.180E+02 0.475E+00
CGA:  29    -0.859353283288E+03   -0.32323E+01   -0.32342E+01  5064   0.122E+02 0.297E+00
CGA:  30    -0.861560850090E+03   -0.22076E+01   -0.22087E+01  5064   0.846E+01 0.214E+00
CGA:  31    -0.863209429620E+03   -0.16486E+01   -0.16473E+01  5064   0.596E+01 0.146E+00
CGA:  32    -0.864414054338E+03   -0.12046E+01   -0.12032E+01  5064   0.407E+01 0.877E-01
CGA:  33    -0.865295417596E+03   -0.88136E+00   -0.87974E+00  5064   0.318E+01 0.523E-01
CGA:  34    -0.865982463891E+03   -0.68705E+00   -0.68611E+00  5064   0.252E+01 0.325E-01
CGA:  35    -0.866480961882E+03   -0.49850E+00   -0.49834E+00  5064   0.188E+01 0.187E-01
CGA:  36    -0.866828480465E+03   -0.34752E+00   -0.34756E+00  5064   0.137E+01 0.116E-01
SDA:  37    -0.867078104640E+03   -0.24962E+00   -0.24967E+00  5064   0.965E+00 0.763E-02
CGA:  38    -0.867535387109E+03   -0.45728E+00   -0.45696E+00  5064   0.515E+00 0.122E-02
CGA:  39    -0.867722782383E+03   -0.18740E+00   -0.18748E+00  5064   0.188E+00-0.547E-03
CGA:  40    -0.867782286833E+03   -0.59504E-01   -0.59633E-01  5064   0.556E-01-0.107E-02
CGA:  41    -0.867799273751E+03   -0.16987E-01   -0.17098E-01  5064   0.117E-01-0.860E-03
CGA:  42    -0.867802776500E+03   -0.35027E-02   -0.35050E-02  5064   0.294E-02 0.589E-04
CGA:  43    -0.867803793375E+03   -0.10169E-02   -0.99820E-03  5064   0.924E-03 0.132E-03
CGA:  44    -0.867804070092E+03   -0.27672E-03   -0.27383E-03  5064   0.295E-03 0.392E-04
CGA:  45    -0.867804171183E+03   -0.10109E-03   -0.10007E-03  5064   0.116E-03 0.922E-05
CGA:  46    -0.867804213330E+03   -0.42147E-04   -0.42013E-04  5064   0.474E-04 0.101E-05
CGA:  47    -0.867804232244E+03   -0.18914E-04   -0.19026E-04  5064   0.237E-04-0.686E-06
CGA:  48    -0.867804240379E+03   -0.81354E-05   -0.81681E-05  5064   0.107E-04-0.304E-06
   1 F= -.86780424E+03 E0= -.86780106E+03  d E =-.636316E-02
