 vasp.6.4.2 20Jul23 (build Nov 12 2023 22:16:35) complex                         
 executed on              LinuxNV date 2025.03.14  14:56:58
 running    4 mpi-ranks, on    1 nodes
 distrk:  each k-point on    1 cores,    4 groups
 distr:  one band on NCORE=   1 cores,    1 groups
 OpenACC runtime initialized ...    4 GPUs detected


--------------------------------------------------------------------------------------------------------


 INCAR:
   PREC = Normal
   ENCUT = 450
   NELM = 500
   IBRION = -1
   ISPIN = 1
   NSW = 0
   ISIF = 2
   EDIFF = 1E-5
   EDIFFG = -5E-3
   ISTART = 0
   ICHARG = 0
   ISMEAR = 0
   SIGMA = 0.05
   LWAVE = .T.
   LCHARG = .T.
   LREAL = Auto
   LPLANE = .TRUE.
   NPAR = 1
   KPAR = 4
   NCORE = 1
   ALGO = All
   LHFCALC = .TRUE.
   HSE06 = .TRUE.
   HFSCREEN = 0.18
   TIME = 0.4
   AEXX = 0.35
   LMAXFOCK = 4
   PRECFOCK = Fast
   NELECT = 1056

 POTCAR:    PAW_PBE Ga_d 06Jul2010                
 POTCAR:     PAW_PBE O 08Apr2002                  
 POTCAR:    PAW_PBE P 06Sep2000                   
 POTCAR:    PAW_PBE Ga_d 06Jul2010                
   SHA256 =  a60ddf36e14f00ea098d9e3914b3745f1b7105e68786148f49ae384e44b4226c Ga_d/POTCAR           
   COPYR  = (c) Copyright 06Jul2010 Georg Kresse                                                    
   COPYR  = This file is part of the software VASP. Any use, copying, and all other rights are regul
   COPYR  = If you do not have a valid VASP license, you may not use, copy or distribute this file. 
   VRHFIN =Ga: s2p1                                                                                 
   LEXCH  = PE                                                                                      
   EATOM  =  2148.8298 eV,  157.9345 Ry                                                             
                                                                                                    
   TITEL  = PAW_PBE Ga_d 06Jul2010                                                                  
   LULTRA =        F    use ultrasoft PP ?                                                          
   IUNSCR =        1    unscreen: 0-lin 1-nonlin 2-no                                               
   RPACOR =    1.700    partial core radius                                                         
   POMASS =   69.723; ZVAL   =   13.000    mass and valenz                                          
   RCORE  =    2.300    outmost cutoff radius                                                       
   RWIGS  =    2.300; RWIGS  =    1.217    wigner-seitz radius (au A)                               
   ENMAX  =  282.691; ENMIN  =  212.018 eV                                                          
   ICORE  =        3    local potential                                                             
   LCOR   =        T    correct aug charges                                                         
   LPAW   =        T    paw PP                                                                      
   EAUG   =  490.690                                                                                
   DEXC   =    0.000                                                                                
   RMAX   =    2.341    core radius for proj-oper                                                   
   RAUG   =    1.300    factor for augmentation sphere                                              
   RDEP   =    2.413    radius for radial grids                                                     
   RDEPT  =    1.856    core radius for aug-charge                                                  
                                                                                                    
   Atomic configuration                                                                             
    9 entries                                                                                       
     n  l   j            E        occ.                                                              
     1  0  0.50    -10228.7831   2.0000                                                             
     2  0  0.50     -1262.1604   2.0000                                                             
     2  1  1.50     -1098.6333   6.0000                                                             
     3  0  0.50      -148.1110   2.0000                                                             
     3  1  1.50       -98.8436   6.0000                                                             
     3  2  2.50       -19.1549  10.0000                                                             
     4  0  0.50        -8.9483   2.0000                                                             
     4  1  0.50        -2.5791   1.0000                                                             
     4  3  2.50        -2.7416   0.0000                                                             
   Description                                                                                      
     l       E           TYP  RCUT    TYP  RCUT                                                     
     2    -19.1549037     23  2.300                                                                 
     2     -5.4423304     23  2.300                                                                 
     0     -8.9483111     23  2.300                                                                 
     0     68.0291300     23  2.300                                                                 
     1     -2.5790802     23  2.100                                                                 
     1     81.6349560     23  2.300                                                                 
     3      6.8029130     23  2.300                                                                 
  local pseudopotential read in
  partial core-charges read in
  partial kinetic energy density read in
  atomic valenz-charges read in
  non local Contribution for L=            2  read in
    real space projection operators read in
  non local Contribution for L=            2  read in
    real space projection operators read in
  non local Contribution for L=            0  read in
    real space projection operators read in
  non local Contribution for L=            0  read in
    real space projection operators read in
  non local Contribution for L=            1  read in
    real space projection operators read in
  non local Contribution for L=            1  read in
    real space projection operators read in
    PAW grid and wavefunctions read in
 
   number of l-projection  operators is LMAX  =            6
   number of lm-projection operators is LMMAX =           18
 
 POTCAR:     PAW_PBE O 08Apr2002                  
   SHA256 =  818f92134a0a090dccd8ba1447fa70422a3b330e708bb4f08108d8ae51209ddf O/POTCAR              
   COPYR  = (c) Copyright 08Apr2002 Georg Kresse                                                    
   COPYR  = This file is part of the software VASP. Any use, copying, and all other rights are regul
   COPYR  = If you do not have a valid VASP license, you may not use, copy or distribute this file. 
   VRHFIN =O: s2p4                                                                                  
   LEXCH  = PE                                                                                      
   EATOM  =   432.3788 eV,   31.7789 Ry                                                             
                                                                                                    
   TITEL  = PAW_PBE O 08Apr2002                                                                     
   LULTRA =        F    use ultrasoft PP ?                                                          
   IUNSCR =        1    unscreen: 0-lin 1-nonlin 2-no                                               
   RPACOR =    1.200    partial core radius                                                         
   POMASS =   16.000; ZVAL   =    6.000    mass and valenz                                          
   RCORE  =    1.520    outmost cutoff radius                                                       
   RWIGS  =    1.550; RWIGS  =    0.820    wigner-seitz radius (au A)                               
   ENMAX  =  400.000; ENMIN  =  300.000 eV                                                          
   ICORE  =        2    local potential                                                             
   LCOR   =        T    correct aug charges                                                         
   LPAW   =        T    paw PP                                                                      
   EAUG   =  605.392                                                                                
   DEXC   =    0.000                                                                                
   RMAX   =    1.553    core radius for proj-oper                                                   
   RAUG   =    1.300    factor for augmentation sphere                                              
   RDEP   =    1.550    radius for radial grids                                                     
   RDEPT  =    1.329    core radius for aug-charge                                                  
                                                                                                    
   Atomic configuration                                                                             
    4 entries                                                                                       
     n  l   j            E        occ.                                                              
     1  0  0.50      -514.6923   2.0000                                                             
     2  0  0.50       -23.9615   2.0000                                                             
     2  1  0.50        -9.0305   4.0000                                                             
     3  2  1.50        -9.5241   0.0000                                                             
   Description                                                                                      
     l       E           TYP  RCUT    TYP  RCUT                                                     
     0    -23.9615318     23  1.200                                                                 
     0     -9.5240782     23  1.200                                                                 
     1     -9.0304911     23  1.520                                                                 
     1      8.1634956     23  1.520                                                                 
     2     -9.5240782      7  1.500                                                                 
  local pseudopotential read in
  partial core-charges read in
  partial kinetic energy density read in
  kinetic energy density of atom read in
  atomic valenz-charges read in
  non local Contribution for L=            0  read in
    real space projection operators read in
  non local Contribution for L=            0  read in
    real space projection operators read in
  non local Contribution for L=            1  read in
    real space projection operators read in
  non local Contribution for L=            1  read in
    real space projection operators read in
    PAW grid and wavefunctions read in
 
   number of l-projection  operators is LMAX  =            4
   number of lm-projection operators is LMMAX =            8
 
 POTCAR:    PAW_PBE P 06Sep2000                   
   SHA256 =  df60c54a93efe35c9e85ae94c010c75e9f6960a95d5595d7cdba4096d109af88 P/POTCAR              
   COPYR  = (c) Copyright 06Sep2000 Georg Kresse                                                    
   COPYR  = This file is part of the software VASP. Any use, copying, and all other rights are regul
   COPYR  = If you do not have a valid VASP license, you may not use, copy or distribute this file. 
   VRHFIN =P : s2p3                                                                                 
   LEXCH  = PE                                                                                      
   EATOM  =   176.0430 eV,   12.9388 Ry                                                             
                                                                                                    
   TITEL  = PAW_PBE P 06Sep2000                                                                     
   LULTRA =        F    use ultrasoft PP ?                                                          
   IUNSCR =        1    unscreen: 0-lin 1-nonlin 2-no                                               
   RPACOR =    1.500    partial core radius                                                         
   POMASS =   30.974; ZVAL   =    5.000    mass and valenz                                          
   RCORE  =    1.900    outmost cutoff radius                                                       
   RWIGS  =    2.330; RWIGS  =    1.233    wigner-seitz radius (au A)                               
   ENMAX  =  255.040; ENMIN  =  191.280 eV                                                          
   ICORE  =        2    local potential                                                             
   LCOR   =        T    correct aug charges                                                         
   LPAW   =        T    paw PP                                                                      
   EAUG   =  342.924                                                                                
   DEXC   =    0.000                                                                                
   RMAX   =    1.935    core radius for proj-oper                                                   
   RAUG   =    1.300    factor for augmentation sphere                                              
   RDEP   =    1.931    radius for radial grids                                                     
   RDEPT  =    1.794    core radius for aug-charge                                                  
                                                                                                    
   Atomic configuration                                                                             
    6 entries                                                                                       
     n  l   j            E        occ.                                                              
     1  0  0.50     -2084.0982   2.0000                                                             
     2  0  0.50      -173.9859   2.0000                                                             
     2  1  1.50      -124.4865   6.0000                                                             
     3  0  0.50       -13.9692   2.0000                                                             
     3  1  0.50        -5.5067   3.0000                                                             
     3  2  1.50        -5.4423   0.0000                                                             
   Description                                                                                      
     l       E           TYP  RCUT    TYP  RCUT                                                     
     0    -13.9691527     23  1.900                                                                 
     0    -11.7794650     23  1.900                                                                 
     1     -5.5066937     23  1.900                                                                 
     1     -0.2556953     23  1.900                                                                 
     2     -5.4423304     23  1.900                                                                 
  local pseudopotential read in
  partial core-charges read in
  partial kinetic energy density read in
  atomic valenz-charges read in
  non local Contribution for L=            0  read in
    real space projection operators read in
  non local Contribution for L=            0  read in
    real space projection operators read in
  non local Contribution for L=            1  read in
    real space projection operators read in
  non local Contribution for L=            1  read in
    real space projection operators read in
                                                                                                                                                                                                                                                                                                                                                                                                                                                                                                                                                                                                                                                                                                                                                                                                                                                                                                                                                                                                                                                                                                                                                                                                                                                                                                                                                                                                                                                                                                                                                                                                                                                                                                                                                                                                                                                                                                                                                                                                                                                                                                                                                                                                                                                                                                                                                                                                                                                                                                                                                                                                                                                                                                                                                                                                                                                                                                                                                                                                                                                                                                                                                                                                                                                                                                                                                                                                                                                                                                                                                                                                                                                                                                                                                                                                                                                                                                                                                                                                                                                                                                                                                                                                                                                                                                                                                                                                                                                                                                                                                                                                                                                                                                                                                                                                                                                                                                                                                                                                                                                                                                                                                                                                                                                                                                                                                                                                                                                                                                                                                                                                                                                                                                                                                                                                                                                                                                                                                                                                                                                                                                                                                                                                                                                                                                                                                                                                                                                                                                                                                                                                                                                                                                                                                                                                                                                                                                                                                                                                                                                                                                                                                                                                                                                                                                                                                                                                                                                                                                                                                                                                                                                                                                                                                                                                                                                                                                                                                                                                                                                                                                                                                                                                                                                                                                                                                                                                                                                                                                                                                                                                                                                                                                                                                                                                                                                                                                                                                                                                                                                                                                                                                                                                                                                                                                                                                                                                                                                                                                                                                                                                                                                                                                                                                                                                                                                                                                                                                                                                                                                                                                                                                                                                                                                                                                                                                                                                                                                                                                                                                                                                                                                                                                                                                                                                                                                                                                                                                                                                                                                                                                                                                                                                                                                                                                                                                                                                                                                                                                                                                                                                                                                                                                                                                                                                                                                                                                                                                                                                                                                                                                                                                                                                                                                                                                                                                                                                                                                                                                                                                                                                                                                                                                                                                                                                                                                                                                                                                                                                                                                                                                                                                                                                                                                                                                                                                                                                                                                                                                                                                                                                                                                                                                                                                                                                                                                                                                                                                                                                                                                                                                                                                                                                                                                                                                                                                                                                                                                                                                                                                                                                                                                                                                                                                                                                                                                                                                                                                                                                                                                                                                                                                                                                                                                                                                                                                                                                                                                                                                                                                                                                                                                                                                                                                                                                                                                                                                                                                                                                                                                                                                                                                                                                                                                                                                                                                                                                                                                                                                                                                                                                                                                                                                                                                                                                                                                                                                                                                                                                                                                                                                                                                                                                                                                                                                                                                                                                                                                                                                                                                                                                                                                                                                                                                                                                                                                                                                                                                                                                                                                                                                                                                                                                                                                                                                                                                                                                                                                                                                                                                                                                                                                                                                                                                                                                                                                                                                                                                                                                                                                                                                                                                                                                                                                                                                                                                                                                                                                                                                                                                                                                                                                                                                                                                                                                                                                                                                                                                                                                                                                                                                                                                                                                                                                                                                                                                                                                                                                                                                                                                                                                                                                                                                                                                                                                                                                                                                                                                                                                                                                                                                                                                                                                                                                                                                                                                                                                                                                                                                                                                                                                                                                                                                                                                                                                                                                                                                                                                                                                                                                                                                                                                                                                                                                                                                                                                                                                                                                                                                                                                                                                                                                                                                                                                                                                                                                                                                                                                                                                                                                                                                                                                                                                                                                                                                                                                                                                                                                                                                                                                                                                                                                                                                                                                                                                                                                                                                                                                                                                                                                                                                                                                                                                                                                                                                                                                                                                                                                                                                                                                                                                                                                                                                                                                                                                                                                                                                                                                                                                                                                                                                                                                                                                                                                                                                                                                                                                                                                                                                                                                                                                                                                                                                                                                                                                                                                                                                                                                                                                                                                                                                                                                                                                                                                                                                                                                                                                                                                                                                                                                                                                                                                                                                                                                                                                                                                                                                                                                                                                                                                                                                                                                                                                                                                                                                                                                                                                                                                                                                                                                                                                                                                                                                                                                                                                                                                                                                                                                                                                                                                                                                                                                                                                                                                                                                                                                                                                                                                                                                                                                                                                                                                                                                                                                                                                                                                                                                                                                                                                                                                                                                                                                                                                                                                                                                                                                                                                                                                                                                                                                                                                                                                                                                                                                                                                                                                                                                                                                                                                                                                                                                                                                                                                                                                                                                                                                                                                                                                                                                                                                                                                                                                                                                                                                                                                                                                                                                                                                                                                                                                                                                                                                                                                                                                                                                                                                                                                                                                                                                                                                                                                                                                                                                                                                                                                                                                                                                                                                                                                                                                                                                                                                                                                                                                                                                                                                                                                                                                                                                                                                                                                                                                                                                                                                                                                                                                                                                                                                                                                                                                                                                                                                                                                                                                                                                                                                                                                                                                                                                                                                                                                                                                                                                                                                                                                                                                                                                                                                                                                                                                                                                                                                                                                                                                                                                                                                                                                                                                                                                                                                                                                                                                                                                                                                                                                                                                                                                                                                                                                                                                                                                                                                                                                                                                                                                                                                                                                                                                                                                                                                                                                                                                                                                                                                                                                                                                                                                                                                                                                                                                                                                                                                                                                                                                                                                                                                                                                                                                                                                                                                                                                                                                                                                                                                                                                                                                                                                                                                                                                                                                                                                                                                                                                                                                                                                                                                                                                                                                                                                                                                                                                                                                                                                                                                                                                                                                                                                                                                                                                                                                                                                                                                                                                                                                                                                                                                                                                                                                                                                                                                                                                                                                                                                                                                                                                                                                                                                                                                                                                                                                                                                                                                                                                                                                                                                                                                                                                                                                                                                                                                                                                                                                                                                                                                                                                                                                                                                                                                                                                                                                                                                                                                                                                                                                                                                                                                                                                                                                                                                                                                                                                                                                                                                                                                                                                                                                                                                                                                                                                                                                                                                                                                                                                                                                                                                                                                                                                                                                                                                                                                                                                                                                                                                                                                                                                                                                                                                                                                                                                                                                                                                                                                                                                                                                                                                                                                                                                                                                                                                                                                                                                                                                                                                                                                                                                                                                                                                                                                                                                                                                                                                                                                                                                                                                                                                                                                                                                                                                                                                                                                                                                                                                                                                                                                                                                                                                                                                                                                                                                                                                                                                                                                                                                                                                                                                                                                                                                                                                                                                                                                                                                                                                                                                                                                                                                                                                                                                                                                                                                                                                                                                                                                                                                                                                                                                                                                                                                                                                                                                                                                                                                                                                                                                                                                                                                                                                                                                                                                                                                                                                                                                                                                                                                                                                                                                                                                                                                                                                                                                                                                                                                                                                                                                                                                                                                                                                                                                                                                                                                                                                                                                                                                                                                                                                                                                                                                                                                                                                                                                                                                                                                                                                                                                                                                                                                                                                                                                                                                                                                                                                                                                                                                                                                                                                                                                                                                                                                                                                                                                                                                                                                                                                                                                                                                                                                                                                                                                                                                                                                                                                                                                                                                                                                                                                                                                                                                                                                                                                                                                                                                                                                                                                                                                                                                                                                                                                                                                                                                                                                                                                                                                                                                                                                                                                                                                                                                                                                                                                                                                                                                                                                                                                                                                                                                                                                                                                                                                                                                                                                                                                                                                                                                                                                                                                                                                                                                                                                                                                                                                                                                                                                                                                                                                                                                                                                                                                                                                                                                                                                                                                                                                                                                                                                                                                                                                                                                                                                                                                                                                                                                                                                                                                                                                                                                                                                                                                                                                                                                                                                                                                                                                                                                                                                                                                                                                                                                                                                                                                                                                                                                                                                                                                                                                                                                                                                                                                                                                                                                                                                                                                                                                                                                                                                                                                                                                                                                                                                                                                                                                                                                                                                                                                                                                                                                                                                                                                                                                                                                                                                                                                                                                                                                                                                                                                                                                                                                                                                                                                                                                                                                                                                                                                                                                                                                                                                                                                                                                                                                                                                                                                                                                                                                                                                                                                                                                                                                                                                                                                                                                                                                                                                                                                                                                                                                                                                                                                                                                                                                                                                                                                                                                                                                                                                                                                                                                                                                                                                                                                                                                                                                                                                                                                                                                                                                                                                                                                                                                                                                                                                                                                                                                                                                                                                                                                                                                                                                                                                                                                                                                                                                                                                                                                                                                                                                                                                                                                                                                                                                                                                                                                                                                                                                                                                                                                                                                                                                                                                                                                                                                                                                                                                                                                                                                                                  

 Free energy of the ion-electron system (eV)
  ---------------------------------------------------
  alpha Z        PSCENC =      5376.25786726
  Ewald energy   TEWEN  =    -86518.53378655
  -Hartree energ DENC   =    -36538.22566200
  -exchange      EXHF   =      3678.47164826
  -V(xc)+E(xc)   XCENC  =      2557.40934772
  PAW double counting   =    188161.14210892  -200975.66859291
  entropy T*S    EENTRO =        -0.01444724
  eigenvalues    EBANDS =     13486.36304879
  atomic energy  EATOM  =    131459.35058357
  ---------------------------------------------------
  free energy    TOTEN  =     20686.54499393 eV

  energy without entropy =    20686.55944117  energy(sigma->0) =    20686.55221755
  exchange ACFDT corr.  =      -140.34300450  see jH, gK, PRB 81, 115126


--------------------------------------------------------------------------------------------------------




--------------------------------------- Iteration      1(   8)  ---------------------------------------


    POTLOK:  cpu time      1.4657: real time      1.4654
    SETDIJ:  cpu time      0.4696: real time      0.4695
    TRIAL :  cpu time    232.3490: real time    232.3130
    CORREC:  cpu time    235.0484: real time    235.0123
    CHARGE:  cpu time      0.2057: real time      0.2057
    --------------------------------------------
      LOOP:  cpu time    469.5387: real time    469.4690

 eigenvalue-minimisations  :     0
 total energy-change (2. order) :-0.6879507E+04  (-0.6246101E+04)
 number of electron    1055.9999228 magnetization 
 augmentation part      417.1087874 magnetization 

 Free energy of the ion-electron system (eV)
  ---------------------------------------------------
  alpha Z        PSCENC =      5376.25786726
  Ewald energy   TEWEN  =    -86518.53378655
  -Hartree energ DENC   =    -29425.74161169
  -exchange      EXHF   =      3482.59335496
  -V(xc)+E(xc)   XCENC  =      2472.09602877
  PAW double counting   =    182523.08002690  -195974.39983849
  entropy T*S    EENTRO =        -0.03018196
  eigenvalues    EBANDS =       412.34961773
  atomic energy  EATOM  =    131459.35058357
  ---------------------------------------------------
  free energy    TOTEN  =     13807.03779523 eV

  energy without entropy =    13807.06797718  energy(sigma->0) =    13807.05288621
  exchange ACFDT corr.  =      -118.64404088  see jH, gK, PRB 81, 115126


--------------------------------------------------------------------------------------------------------




--------------------------------------- Iteration      1(   9)  ---------------------------------------


    POTLOK:  cpu time      1.4389: real time      1.4387
    SETDIJ:  cpu time      0.5083: real time      0.5082
    TRIAL :  cpu time    232.8033: real time    232.7642
    CORREC:  cpu time    234.5559: real time    234.5179
    CHARGE:  cpu time      0.2158: real time      0.2157
    --------------------------------------------
      LOOP:  cpu time    469.5238: real time    469.4469

 eigenvalue-minimisations  :     0
 total energy-change (2. order) :-0.4825605E+04  (-0.3900716E+04)
 number of electron    1055.9999207 magnetization 
 augmentation part      433.4365128 magnetization 

 Free energy of the ion-electron system (eV)
  ---------------------------------------------------
  alpha Z        PSCENC =      5376.25786726
  Ewald energy   TEWEN  =    -86518.53378655
  -Hartree energ DENC   =    -29746.66049448
  -exchange      EXHF   =      3518.32831218
  -V(xc)+E(xc)   XCENC  =      2494.29016306
  PAW double counting   =    155372.79393062  -170848.36528132
  entropy T*S    EENTRO =        -0.01965795
  eigenvalues    EBANDS =     -2125.99830426
  atomic energy  EATOM  =    131459.35058357
  ---------------------------------------------------
  free energy    TOTEN  =      8981.43280813 eV

  energy without entropy =     8981.45246608  energy(sigma->0) =     8981.44263711
  exchange ACFDT corr.  =       -79.02108321  see jH, gK, PRB 81, 115126


--------------------------------------------------------------------------------------------------------




--------------------------------------- Iteration      1(  10)  ---------------------------------------


    POTLOK:  cpu time      1.4463: real time      1.4461
    SETDIJ:  cpu time      0.5256: real time      0.5255
    TRIAL :  cpu time    232.8439: real time    232.8071
    CORREC:  cpu time    234.6027: real time    234.5675
    CHARGE:  cpu time      0.2070: real time      0.2069
    --------------------------------------------
      LOOP:  cpu time    469.6270: real time    469.5552

 eigenvalue-minimisations  :     0
 total energy-change (2. order) :-0.3170755E+04  (-0.2570287E+04)
 number of electron    1055.9999143 magnetization 
 augmentation part      438.8478031 magnetization 

 Free energy of the ion-electron system (eV)
  ---------------------------------------------------
  alpha Z        PSCENC =      5376.25786726
  Ewald energy   TEWEN  =    -86518.53378655
  -Hartree energ DENC   =    -31518.48029008
  -exchange      EXHF   =      3661.30615848
  -V(xc)+E(xc)   XCENC  =      2579.93081926
  PAW double counting   =    141520.79167304  -158009.09499384
  entropy T*S    EENTRO =        -0.00963619
  eigenvalues    EBANDS =     -2740.83015737
  atomic energy  EATOM  =    131459.35058357
  ---------------------------------------------------
  free energy    TOTEN  =      5810.67821583 eV

  energy without entropy =     5810.68785202  energy(sigma->0) =     5810.68303393
  exchange ACFDT corr.  =       -85.27945040  see jH, gK, PRB 81, 115126


--------------------------------------------------------------------------------------------------------




--------------------------------------- Iteration      1(  11)  ---------------------------------------


    POTLOK:  cpu time      1.4788: real time      1.4786
    SETDIJ:  cpu time      0.4681: real time      0.4680
    TRIAL :  cpu time    232.6277: real time    232.5952
    CORREC:  cpu time    234.7133: real time    234.6788
    CHARGE:  cpu time      0.2147: real time      0.2146
    --------------------------------------------
      LOOP:  cpu time    469.5028: real time    469.4359

 eigenvalue-minimisations  :     0
[...]
   0.268E+02 0.133E+03 -.848E+02   -.268E+02 -.133E+03 0.881E+02   -.611E-01 0.249E+00 -.293E+01
   0.117E-04 0.121E+03 -.368E+02   -.242E-12 -.121E+03 0.386E+02   0.000E+00 0.168E+00 -.168E+01
   -.742E-04 0.975E+02 -.599E+02   -.511E-11 -.978E+02 0.620E+02   0.000E+00 0.292E+00 -.188E+01
   -.423E+02 0.136E+03 -.384E+02   0.418E+02 -.137E+03 0.379E+02   0.419E+00 0.106E+01 0.397E+00
   -.268E+02 0.133E+03 -.848E+02   0.268E+02 -.133E+03 0.881E+02   0.611E-01 0.249E+00 -.293E+01
   0.258E+02 -.579E+02 0.598E+02   -.229E+02 0.643E+02 -.606E+02   -.245E+01 -.542E+01 0.720E+00
   0.137E+02 -.588E+02 0.269E+01   -.125E+02 0.647E+02 -.832E+01   -.945E+00 -.494E+01 0.473E+01
   -.646E-04 -.123E+02 0.871E+02   0.856E-12 0.779E+01 -.944E+02   0.000E+00 0.399E+01 0.602E+01
   -.246E-04 -.127E+02 0.440E+02   0.122E-11 0.176E+02 -.485E+02   0.000E+00 -.408E+01 0.380E+01
   -.258E+02 -.579E+02 0.598E+02   0.229E+02 0.643E+02 -.606E+02   0.245E+01 -.542E+01 0.720E+00
   -.137E+02 -.588E+02 0.269E+01   0.125E+02 0.647E+02 -.832E+01   0.945E+00 -.494E+01 0.473E+01
   -.595E-04 0.828E+02 -.339E+02   -.388E-12 -.933E+02 0.383E+02   0.000E+00 0.887E+01 -.370E+01
   0.618E-05 0.438E+02 0.401E+01   -.365E-12 -.493E+02 -.236E+01   0.000E+00 0.451E+01 -.137E+01
   -.236E+01 0.363E+02 -.191E+02   0.381E+01 -.432E+02 0.227E+02   -.124E+01 0.575E+01 -.302E+01
   0.366E+02 0.381E+02 -.631E+01   -.395E+02 -.445E+02 0.887E+01   0.236E+01 0.538E+01 -.217E+01
   0.236E+01 0.363E+02 -.191E+02   -.381E+01 -.432E+02 0.227E+02   0.124E+01 0.575E+01 -.302E+01
   -.366E+02 0.381E+02 -.631E+01   0.395E+02 -.445E+02 0.887E+01   -.236E+01 0.538E+01 -.217E+01
   0.924E+01 0.359E+02 0.476E+02   -.848E+01 -.336E+02 -.446E+02   -.648E+00 -.185E+01 -.247E+01
   0.880E+01 0.448E+02 0.498E+02   -.832E+01 -.416E+02 -.490E+02   -.401E+00 -.270E+01 -.619E+00
   0.459E-04 0.628E+02 0.380E+02   0.433E-13 -.614E+02 -.342E+02   0.000E+00 -.117E+01 -.320E+01
   -.515E-05 0.204E+02 -.375E+02   0.392E-11 -.213E+02 0.455E+02   0.000E+00 0.891E+00 -.678E+01
   -.924E+01 0.359E+02 0.476E+02   0.848E+01 -.336E+02 -.446E+02   0.648E+00 -.185E+01 -.247E+01
   -.880E+01 0.448E+02 0.498E+02   0.832E+01 -.416E+02 -.490E+02   0.401E+00 -.270E+01 -.619E+00
   -.406E-04 -.167E+03 -.661E+01   -.424E-12 0.166E+03 0.234E+01   0.000E+00 0.114E+01 0.365E+01
   -.383E-04 -.104E+03 -.430E+02   0.115E-10 0.103E+03 0.413E+02   0.000E+00 0.822E+00 0.145E+01
   0.605E+02 -.139E+03 -.916E+01   -.626E+02 0.141E+03 0.604E+01   0.178E+01 -.199E+01 0.264E+01
   -.850E+02 -.116E+03 0.175E+02   0.908E+02 0.117E+03 -.257E+02   -.494E+01 -.497E+00 0.686E+01
   -.605E+02 -.139E+03 -.916E+01   0.626E+02 0.141E+03 0.604E+01   -.178E+01 -.199E+01 0.264E+01
   0.850E+02 -.116E+03 0.175E+02   -.908E+02 0.117E+03 -.257E+02   0.494E+01 -.497E+00 0.686E+01
   -.326E-04 0.574E+02 0.459E+02   -.301E-12 -.726E+02 -.431E+02   0.000E+00 0.128E+02 -.234E+01
   -.498E-05 0.707E+02 0.111E+03   0.169E-10 -.808E+02 -.110E+03   0.000E+00 0.859E+01 -.101E+01
   0.275E+02 0.954E+02 0.678E+02   -.286E+02 -.110E+03 -.657E+02   0.968E+00 0.121E+02 -.171E+01
   0.830E+02 0.843E+02 0.755E+02   -.873E+02 -.982E+02 -.792E+02   0.348E+01 0.118E+02 0.323E+01
   -.275E+02 0.954E+02 0.678E+02   0.286E+02 -.110E+03 -.657E+02   -.968E+00 0.121E+02 -.171E+01
   -.830E+02 0.843E+02 0.755E+02   0.873E+02 -.982E+02 -.792E+02   -.348E+01 0.118E+02 0.323E+01
   0.246E+02 -.112E+03 -.511E+02   -.243E+02 0.121E+03 0.501E+02   -.253E+00 -.760E+01 0.800E+00
   -.736E+01 -.124E+03 -.719E+02   0.901E+01 0.136E+03 0.691E+02   -.139E+01 -.973E+01 0.239E+01
   -.717E-05 -.660E+02 -.465E+02   0.821E-12 0.732E+02 0.450E+02   0.000E+00 -.613E+01 0.118E+01
   -.352E-05 -.125E+03 -.397E+02   0.940E-12 0.136E+03 0.369E+02   0.000E+00 -.950E+01 0.237E+01
   -.246E+02 -.112E+03 -.511E+02   0.243E+02 0.121E+03 0.501E+02   0.253E+00 -.760E+01 0.800E+00
   0.736E+01 -.124E+03 -.719E+02   -.901E+01 0.136E+03 0.691E+02   0.139E+01 -.973E+01 0.239E+01
   0.945E-04 0.114E+02 0.686E+01   -.405E-13 -.470E+01 -.943E+01   0.000E+00 -.567E+01 0.216E+01
   -.309E-04 0.155E+02 -.145E+02   -.427E-12 -.687E+01 0.114E+02   0.000E+00 -.732E+01 0.261E+01
   0.189E+02 0.139E+02 0.112E+02   -.193E+02 -.828E+01 -.141E+02   0.320E+00 -.475E+01 0.245E+01
   -.630E+00 -.106E+01 -.325E+00   0.979E+00 0.806E+01 -.378E+01   -.322E+00 -.591E+01 0.348E+01
   -.189E+02 0.139E+02 0.112E+02   0.193E+02 -.828E+01 -.141E+02   -.320E+00 -.475E+01 0.245E+01
   0.631E+00 -.106E+01 -.324E+00   -.979E+00 0.806E+01 -.378E+01   0.322E+00 -.591E+01 0.348E+01
   0.244E+03 -.178E+03 0.152E+02   -.265E+03 0.184E+03 -.200E+02   0.176E+02 -.571E+01 0.403E+01
   -.352E+02 -.522E+02 0.177E+02   0.401E+02 0.521E+02 -.161E+02   -.415E+01 0.848E-01 -.132E+01
   -.337E-05 -.291E+02 0.219E+02   -.250E-13 0.252E+02 -.240E+02   0.000E+00 0.337E+01 0.181E+01
   -.820E-04 -.629E+02 -.856E+02   0.776E-11 0.725E+02 0.929E+02   0.000E+00 -.844E+01 -.610E+01
   -.244E+03 -.178E+03 0.152E+02   0.265E+03 0.184E+03 -.200E+02   -.176E+02 -.571E+01 0.403E+01
   0.352E+02 -.522E+02 0.177E+02   -.401E+02 0.521E+02 -.161E+02   0.415E+01 0.848E-01 -.132E+01
   0.219E-04 0.932E+02 0.118E+02   -.352E-12 -.918E+02 -.454E+01   0.000E+00 -.124E+01 -.618E+01
   0.816E+02 0.101E+03 0.381E+02   -.819E+02 -.996E+02 -.313E+02   0.299E+00 -.103E+01 -.577E+01
   0.358E+02 0.138E+03 0.430E+02   -.377E+02 -.144E+03 -.423E+02   0.150E+01 0.527E+01 -.471E+00
   -.816E+02 0.101E+03 0.381E+02   0.819E+02 -.996E+02 -.313E+02   -.299E+00 -.103E+01 -.577E+01
   -.358E+02 0.138E+03 0.430E+02   0.377E+02 -.144E+03 -.423E+02   -.150E+01 0.527E+01 -.471E+00
   0.604E+02 0.438E+02 -.295E+02   -.629E+02 -.493E+02 0.251E+02   0.216E+01 0.473E+01 0.368E+01
   0.190E+02 -.193E+02 -.582E+02   -.199E+02 0.160E+02 0.538E+02   0.763E+00 0.283E+01 0.372E+01
   0.121E-03 -.503E+02 -.361E+02   -.112E-11 0.519E+02 0.312E+02   0.000E+00 -.137E+01 0.409E+01
   -.644E-04 -.317E+02 -.451E+02   -.551E-12 0.308E+02 0.398E+02   0.000E+00 0.679E+00 0.456E+01
   -.604E+02 0.438E+02 -.295E+02   0.629E+02 -.493E+02 0.251E+02   -.216E+01 0.473E+01 0.368E+01
   -.190E+02 -.193E+02 -.582E+02   0.199E+02 0.160E+02 0.538E+02   -.763E+00 0.283E+01 0.372E+01
   0.571E+02 0.188E+03 0.959E+01   -.593E+02 -.198E+03 -.511E+01   0.187E+01 0.805E+01 -.381E+01
   0.746E+01 0.160E+03 0.704E+02   -.764E+01 -.171E+03 -.678E+02   0.140E+00 0.944E+01 -.214E+01
   0.187E-03 0.147E+03 0.488E+02   -.559E-11 -.158E+03 -.450E+02   0.000E+00 0.893E+01 -.321E+01
   -.984E-04 0.129E+03 0.631E+02   0.112E-12 -.136E+03 -.608E+02   0.000E+00 0.624E+01 -.188E+01
   -.571E+02 0.188E+03 0.959E+01   0.593E+02 -.198E+03 -.511E+01   -.187E+01 0.805E+01 -.381E+01
   -.746E+01 0.160E+03 0.704E+02   0.764E+01 -.171E+03 -.678E+02   -.140E+00 0.944E+01 -.214E+01
   0.473E-04 -.989E+02 0.246E+02   -.423E-12 0.111E+03 -.322E+02   0.000E+00 -.104E+02 0.651E+01
   -.178E-04 -.485E+02 -.370E+03   -.128E-12 0.581E+02 0.393E+03   0.000E+00 -.818E+01 -.195E+02
   0.545E+02 -.879E+02 -.836E+02   -.553E+02 0.989E+02 0.874E+02   0.564E+00 -.935E+01 -.344E+01
   0.369E+02 -.110E+03 -.102E+03   -.363E+02 0.123E+03 0.100E+03   -.490E+00 -.108E+02 0.159E+01
   -.545E+02 -.879E+02 -.836E+02   0.553E+02 0.989E+02 0.874E+02   -.564E+00 -.935E+01 -.344E+01
   -.369E+02 -.110E+03 -.102E+03   0.363E+02 0.123E+03 0.100E+03   0.490E+00 -.108E+02 0.159E+01
   -.499E-04 0.149E+03 0.151E+03   -.124E-13 -.151E+03 -.153E+03   0.000E+00 0.173E+01 0.167E+01
 -----------------------------------------------------------------------------------------------
   0.180E-03 0.966E+01 -.416E+02   -.906E-13 -.966E-12 0.313E-12   0.999E-15 -.664E+01 0.363E+02
 
 
 POSITION                                       TOTAL-FORCE (eV/Angst)
 -----------------------------------------------------------------------------------
      0.00000      7.65046     -1.78899        -0.000000      0.055766      0.075348
      0.00000      6.35604     -7.37047        -0.000000     -0.014303     -0.099546
      3.04405      7.65708     -1.76863        -0.012222      0.013788      0.025648
      3.01756      6.38756     -7.43473        -0.068336      0.155413     -0.006178
      6.09866      7.65708     -1.76863         0.012222      0.013788      0.025648
      6.12515      6.38756     -7.43473         0.068336      0.155413     -0.006178
      1.53383      9.38547     -3.87740        -0.004711      0.122673     -0.135581
      1.51836      8.15089     -9.47444         0.119572     -0.153529     -0.057713
      4.57135      9.36911     -3.89222        -0.000000     -0.121483     -0.086819
      4.57135      7.57184    -10.13302        -0.000000      0.209586      0.049548
      7.60887      9.38547     -3.87740         0.004711      0.122673     -0.135581
      7.62434      8.15089     -9.47444        -0.119572     -0.153529     -0.057713
      1.49860      6.10818     -4.44771         0.046522      0.029820     -0.033586
      1.49973      4.90675    -10.12879        -0.025409     -0.089587     -0.003531
      4.57135      6.22659     -4.53426        -0.000000     -0.046038      0.048187
      4.57135      4.65599    -10.07903        -0.000000     -0.072972     -0.052143
      7.64411      6.10818     -4.44771        -0.046522      0.029820     -0.033586
      7.64297      4.90675    -10.12879         0.025409     -0.089587     -0.003531
      0.00000     10.97125     -1.18912        -0.000000     -0.138809      0.094797
      0.00000      9.61220     -6.70252        -0.000000      0.005904     -0.026236
      3.30645     10.75728     -1.04195        -0.123174      0.003551     -0.089790
      3.04672      9.52813     -6.77847        -0.038196     -0.062128     -0.105367
      5.83625     10.75728     -1.04195         0.123174      0.003551     -0.089790
      6.09598      9.52813     -6.77847         0.038196     -0.062128     -0.105367
      1.49577      1.40189     -1.77575         0.170054      0.076417      0.184765
      1.48421      0.22327     -7.30076        -0.049357      0.017244      0.067046
      4.57135      1.61693     -1.81510        -0.000000     -0.150239     -0.076865
      4.57135      0.20599     -7.37480        -0.000000      0.031686     -0.019270
      7.64693      1.40189     -1.77575        -0.170054      0.076417      0.184765
      7.65849      0.22327     -7.30076         0.049357      0.017244      0.067046
      0.00000      3.05154     -3.89932        -0.000000      0.124975     -0.115188
      0.00000      1.85806     -9.53836        -0.000000     -0.073017     -0.023544
      3.03667      3.24031     -3.90076        -0.046657     -0.097529      0.004437
      3.01568      1.83016     -9.49940        -0.039333     -0.085143     -0.003390
      6.10603      3.24031     -3.90076         0.046657     -0.097529      0.004437
      6.12703      1.83016     -9.49940         0.039333     -0.085143     -0.003390
      0.00000     -1.37091    -10.07922        -0.000000      0.203336     -0.041431
      2.98266     -0.03041     -4.45477        -0.101073     -0.023998     -0.086458
      3.37301     -1.30327    -10.16476         0.016445      0.036295     -0.005619
      6.16004     -0.03041     -4.45477         0.101073     -0.023998     -0.086458
      5.76969     -1.30327    -10.16476        -0.016445      0.036295     -0.005619
      1.52726      4.68583     -1.16578         0.021665      0.059204     -0.036743
      1.53758      3.42379     -6.85769        -0.016081      0.033756      0.034918
      4.57135      4.74615     -1.15483        -0.000000      0.093660      0.000956
      4.57135      3.43218     -6.82632        -0.000000      0.037589     -0.010266
      7.61544      4.68583     -1.16578        -0.021665      0.059204     -0.036743
      7.60513      3.42379     -6.85769         0.016081      0.033756      0.034918
      1.70678     11.74003     -1.26703        -0.125752     -0.179747      0.058557
      1.53415     -1.70863     -7.08001        -0.053284     -0.162167      0.188831
      4.57135     -0.21357     -1.75926        -0.000000      0.176099      0.180238
      4.57135     -1.72267     -7.11365        -0.000000     -0.098499      0.179311
      7.43592     11.74003     -1.26703         0.125752     -0.179747      0.058557
      7.60855     -1.70863     -7.08001         0.053284     -0.162167      0.188831
      0.00000      5.05557     -4.18184        -0.000000      0.299114     -0.141868
      0.00000      3.78254     -9.88559        -0.000000      0.117909     -0.041260
      3.07626      5.17205     -4.22279        -0.061838      0.160209     -0.111757
      2.97228      3.76271     -9.85132         0.082322      0.178779     -0.082586
      6.06644      5.17205     -4.22279         0.061838      0.160209     -0.111757
      6.17043      3.76271     -9.85132        -0.082322      0.178779     -0.082586
      1.50905      7.46432     -3.15661        -0.027146     -0.012455     -0.058988
      1.44290      6.10654     -8.69544         0.008732     -0.074430      0.005676
      4.57135      7.45485     -3.13032        -0.000000      0.017077     -0.081803
      4.57135      6.11389     -8.83348        -0.000000      0.097827     -0.366976
      7.63365      7.46432     -3.15661         0.027146     -0.012455     -0.058988
      7.69980      6.10654     -8.69544        -0.008732     -0.074430      0.005676
      0.00000      9.55917     -2.45121        -0.000000      0.072888      0.145883
      0.00000      8.28984     -8.08566        -0.000000      0.024625      0.002214
      3.06500      9.50699     -2.49637         0.076744     -0.065487      0.094976
      2.86170      8.19599     -8.03685        -0.257760     -0.056369      0.219390
      6.07770      9.50699     -2.49637        -0.076744     -0.065487      0.094976
      6.28100      8.19599     -8.03685         0.257760     -0.056369      0.219390
      0.00000      8.87460     -5.00988        -0.000000      0.526615     -0.053183
      0.00000      7.76784    -10.64557        -0.000000      0.431522     -0.031328
      3.08098      8.83887     -5.04510         0.001369      0.529681      0.008577
      2.70656      7.22881    -10.61702         0.160241      0.565807      0.130530
      6.06172      8.83887     -5.04510        -0.001369      0.529681      0.008577
      6.43614      7.22881    -10.61702        -0.160241      0.565807      0.130530
      1.50015      7.99674     -0.64994         0.024081     -0.293651     -0.031493
      1.50503      6.65957     -6.19358        -0.051721     -0.407231      0.055797
      4.57135      7.89530     -0.57671        -0.000000     -0.268925      0.013555
      4.57135      6.71943     -6.30891        -0.000000     -0.412543      0.080993
      7.64255      7.99674     -0.64994        -0.024081     -0.293651     -0.031493
      7.63767      6.65957     -6.19358         0.051721     -0.407231      0.055797
      0.00000      5.72391     -1.43011        -0.000000     -0.196319      0.074283
      0.00000      4.41205     -7.06970        -0.000000     -0.283523      0.115080
      3.03178      5.75181     -1.44108         0.015433     -0.169840      0.090799
      3.05691      4.46150     -7.12601        -0.031805     -0.241619      0.153673
      6.11092      5.75181     -1.44108        -0.015433     -0.169840      0.090799
      6.08579      4.46150     -7.12601         0.031805     -0.241619      0.153673
      1.60737     11.13402     -4.34598         0.723818     -0.326090      0.136975
      1.65801     -2.24272     -9.86672        -0.156390      0.014909     -0.076376
      4.57135     -1.03721     -4.34992        -0.000000      0.108199      0.072091
      4.57135      9.35662     -9.80769        -0.000000     -0.506346     -0.243743
      7.53533     11.13402     -4.34598        -0.723818     -0.326090      0.136975
      7.48470     -2.24272     -9.86672         0.156390      0.014909     -0.076376
      0.00000     -0.00344     -8.82421        -0.000000     -0.008339     -0.207350
      3.12252      1.39519     -3.28509         0.022142     -0.012832     -0.167215
      2.97238      0.02744     -8.69461        -0.004991      0.272310      0.036787
      6.02018      1.39519     -3.28509        -0.022142     -0.012832     -0.167215
      6.17032      0.02744     -8.69461         0.004991      0.272310      0.036787
      1.58023      3.47473     -2.54272         0.066666      0.130441      0.119221
      1.52211      2.11670     -8.16481         0.009426      0.054497      0.176304
      4.57135      3.46710     -2.53127        -0.000000     -0.103863      0.150192
      4.57135      2.08945     -8.12623        -0.000000     -0.029180      0.200134
      7.56247      3.47473     -2.54272        -0.066666      0.130441      0.119221
      7.62059      2.11670     -8.16481        -0.009426      0.054497      0.176304
      1.57748      2.97450     -5.10559         0.056152      0.345520     -0.137734
      1.52464      1.44172    -10.68734        -0.008240      0.377760     -0.041959
      4.57135      2.95516     -5.06644        -0.000000      0.360514     -0.104454
      4.57135      1.58101    -10.64968        -0.000000      0.310650     -0.057955
      7.56522      2.97450     -5.10559        -0.056152      0.345520     -0.137734
      7.61806      1.44172    -10.68734         0.008240      0.377760     -0.041959
      0.00000      1.94967     -0.51766        -0.000000     -0.493382      0.217393
      0.00000      0.71331     -6.31622        -0.000000     -0.332201     -0.895910
      2.97927      1.95276     -0.71179        -0.057565     -0.455975     -0.243469
      3.06331      0.63240     -6.19825        -0.012699     -0.458525      0.018069
      6.16343      1.95276     -0.71179         0.057565     -0.455975     -0.243469
      6.07939      0.63240     -6.19825         0.012699     -0.458525      0.018069
      0.00000      0.82940     -3.39453        -0.000000      0.544953      0.486047
 -----------------------------------------------------------------------------------
    total drift:                                0.000180     -0.072265      0.170399


--------------------------------------------------------------------------------------------------------



  FREE ENERGIE OF THE ION-ELECTRON SYSTEM (eV)
  ---------------------------------------------------
  free  energy   TOTEN  =      -867.80424038 eV

  energy  without entropy=     -867.79787722  energy(sigma->0) =     -867.80105880
 


--------------------------------------------------------------------------------------------------------


    POTLOK:  cpu time      1.9770: real time      1.9796


--------------------------------------------------------------------------------------------------------


 writing wavefunctions
     LOOP+:  cpu time  21237.6096: real time  21236.4907
    4ORBIT:  cpu time      0.0000: real time      0.0000

 total amount of memory used by VASP MPI-rank0  7507614. kBytes
=======================================================================

   base      :      30000. kBytes
   nonlr-proj:      46669. kBytes
   fftplans  :      51012. kBytes
   grid      :     102973. kBytes
   one-center:       1850. kBytes
   HF        :        194. kBytes
   wavefun   :    7045683. kBytes
   fock_wrk  :     229233. kBytes
 
  
  
 General timing and accounting informations for this job:
 ========================================================
  
                  Total CPU time used (sec):    21269.406
                            User time (sec):    21247.636
                          System time (sec):       21.770
                         Elapsed time (sec):    21270.587
  
                   Maximum memory used (kb):    13316480.
                   Average memory used (kb):          N/A
  
                          Minor page faults:      8511634
                          Major page faults:            5
                 Voluntary context switches:       406056
