       N       E                     dE             d eps       ncg     rms          rms(c)
DAV:   1     0.694919936340E+02    0.69492E+02   -0.31015E+03   456   0.576E+02
DAV:   2     0.323463054304E+01   -0.66257E+02   -0.61770E+02   535   0.143E+02
DAV:   3    -0.899743659748E+01   -0.12232E+02   -0.10343E+02   587   0.583E+01
DAV:   4    -0.976701616865E+01   -0.76958E+00   -0.76891E+00   405   0.946E+00
DAV:   5    -0.979211600796E+01   -0.25100E-01   -0.25082E-01   492   0.170E+00    0.656E+00
RMM:   6    -0.956859164616E+01    0.22352E+00   -0.11288E+00   352   0.965E+00    0.311E+00
RMM:   7    -0.979889833850E+01   -0.23031E+00   -0.22651E-01   352   0.444E+00    0.155E+00
RMM:   8    -0.980041206248E+01   -0.15137E-02   -0.16845E-01   352   0.337E+00    0.425E-01
RMM:   9    -0.980855940007E+01   -0.81473E-02   -0.17485E-02   356   0.118E+00    0.247E-01
RMM:  10    -0.981041014287E+01   -0.18507E-02   -0.48437E-03   352   0.615E-01    0.821E-02
RMM:  11    -0.981062304971E+01   -0.21291E-03   -0.93990E-04   365   0.225E-01    0.336E-02
RMM:  12    -0.981086261458E+01   -0.23956E-03   -0.34274E-04   353   0.142E-01    0.275E-02
RMM:  13    -0.981103530285E+01   -0.17269E-03   -0.67952E-05   342   0.653E-02    0.686E-03
RMM:  14    -0.981111105556E+01   -0.75753E-04   -0.21985E-05   282   0.370E-02    0.545E-03
RMM:  15    -0.981125084066E+01   -0.13979E-03   -0.10470E-05   259   0.212E-02    0.366E-03
RMM:  16    -0.981129227730E+01   -0.41437E-04   -0.59267E-06   256   0.154E-02    0.152E-03
RMM:  17    -0.981132957175E+01   -0.37294E-04   -0.41242E-06   240   0.111E-02    0.164E-03
RMM:  18    -0.981133670214E+01   -0.71304E-05   -0.13945E-06   209   0.648E-03
   1 F= -.98113367E+01 E0= -.98113367E+01  d E =-.981134E+01  mag=     2.0000
       N       E                     dE             d eps       ncg     rms          rms(c)
DAV:   1    -0.848084892211E+01    0.13305E+01   -0.20843E+02   424   0.126E+02    0.541E+00
RMM:   2    -0.854640329925E+01   -0.65554E-01   -0.26874E+00   352   0.158E+01    0.211E+00
RMM:   3    -0.867385552994E+01   -0.12745E+00   -0.29763E-01   352   0.533E+00    0.954E-01
RMM:   4    -0.869707189368E+01   -0.23216E-01   -0.81755E-02   353   0.248E+00    0.408E-01
RMM:   5    -0.870276011407E+01   -0.56882E-02   -0.86731E-03   352   0.829E-01    0.199E-01
RMM:   6    -0.870581043597E+01   -0.30503E-02   -0.22699E-03   352   0.415E-01    0.412E-02
RMM:   7    -0.870639490955E+01   -0.58447E-03   -0.32679E-04   355   0.148E-01    0.188E-02
RMM:   8    -0.870670670630E+01   -0.31180E-03   -0.15143E-04   351   0.946E-02    0.144E-02
RMM:   9    -0.870710587376E+01   -0.39917E-03   -0.42327E-05   320   0.500E-02    0.109E-02
RMM:  10    -0.870726211250E+01   -0.15624E-03   -0.26909E-05   296   0.362E-02    0.442E-03
RMM:  11    -0.870740172890E+01   -0.13962E-03   -0.24181E-05   287   0.321E-02    0.597E-03
RMM:  12    -0.870745604295E+01   -0.54314E-04   -0.98955E-06   260   0.217E-02    0.163E-03
RMM:  13    -0.870747308716E+01   -0.17044E-04   -0.37726E-06   254   0.140E-02    0.104E-03
RMM:  14    -0.870748424567E+01   -0.11159E-04   -0.12436E-06   214   0.707E-03    0.369E-04
RMM:  15    -0.870748910523E+01   -0.48596E-05   -0.35747E-07   174   0.475E-03
   2 F= -.87074891E+01 E0= -.87074891E+01  d E =0.110385E+01  mag=     2.0000
       N       E                     dE             d eps       ncg     rms          rms(c)
DAV:   1    -0.953137015084E+01   -0.82389E+00   -0.15083E+02   367   0.109E+02    0.440E+00
RMM:   2    -0.974145694834E+01   -0.21009E+00   -0.27273E+00   352   0.157E+01    0.203E+00
RMM:   3    -0.984359050895E+01   -0.10213E+00   -0.23424E-01   352   0.470E+00    0.105E+00
RMM:   4    -0.984502878057E+01   -0.14383E-02   -0.10639E-01   352   0.307E+00    0.359E-01
RMM:   5    -0.985082329631E+01   -0.57945E-02   -0.89104E-03   352   0.952E-01    0.206E-01
RMM:   6    -0.985254859004E+01   -0.17253E-02   -0.16432E-03   352   0.377E-01    0.105E-01
RMM:   7    -0.985362675462E+01   -0.10782E-02   -0.38638E-04   353   0.199E-01    0.299E-02
RMM:   8    -0.985386827272E+01   -0.24152E-03   -0.18369E-04   352   0.116E-01    0.107E-02
RMM:   9    -0.985420627435E+01   -0.33800E-03   -0.70784E-05   324   0.640E-02    0.118E-02
RMM:  10    -0.985444907139E+01   -0.24280E-03   -0.48140E-05   312   0.453E-02    0.499E-03
RMM:  11    -0.985449469603E+01   -0.45625E-04   -0.10556E-05   261   0.210E-02    0.297E-03
RMM:  12    -0.985458623790E+01   -0.91542E-04   -0.14192E-05   278   0.218E-02    0.412E-03
RMM:  13    -0.985459688019E+01   -0.10642E-04   -0.39431E-06   248   0.123E-02    0.116E-03
RMM:  14    -0.985461254143E+01   -0.15661E-04   -0.33083E-06   256   0.118E-02    0.246E-03
RMM:  15    -0.985461499014E+01   -0.24487E-05   -0.10386E-06   219   0.628E-03
   3 F= -.98546150E+01 E0= -.98546150E+01  d E =-.432783E-01  mag=     2.0000
       N       E                     dE             d eps       ncg     rms          rms(c)
DAV:   1    -0.985516590541E+01   -0.55336E-03   -0.40441E-02   419   0.182E+00    0.754E-02
RMM:   2    -0.985514277872E+01    0.23127E-04   -0.66855E-04   352   0.242E-01    0.352E-02
RMM:   3    -0.985519404863E+01   -0.51270E-04   -0.74290E-05   351   0.884E-02    0.168E-02
RMM:   4    -0.985520767011E+01   -0.13621E-04   -0.37449E-05   324   0.529E-02    0.653E-03
RMM:   5    -0.985521111675E+01   -0.34466E-05   -0.36538E-06   241   0.166E-02
   4 F= -.98552111E+01 E0= -.98552111E+01  d E =-.438744E-01  mag=     2.0000
       N       E                     dE             d eps       ncg     rms          rms(c)
DAV:   1    -0.985522098213E+01   -0.13312E-04   -0.71021E-04   390   0.239E-01    0.115E-02
RMM:   2    -0.985522029345E+01    0.68868E-06   -0.94005E-06   240   0.323E-02
   5 F= -.98552203E+01 E0= -.98552203E+01  d E =-.438836E-01  mag=     2.0000
