 vasp.6.4.2 20Jul23 (build Nov 12 2023 22:16:35) complex                         
 executed on              LinuxNV date 2025.03.09  14:17:20
 running    4 mpi-ranks, on    1 nodes
 distrk:  each k-point on    1 cores,    4 groups
 distr:  one band on NCORE=   1 cores,    1 groups
 OpenACC runtime initialized ...    4 GPUs detected


--------------------------------------------------------------------------------------------------------


 INCAR:
   PREC = Normal
   ENCUT = 450
   IBRION = 2
   ISPIN = 2
   NSW = 300
   ISIF = 2
   EDIFF = 1E-5
   EDIFFG = -5E-3
   ALGO = Fast
   ISTART = 0
   ICHARG = 2
   ISMEAR = 0
   SIGMA = 0.01
   LWAVE = .F.
   LCHARG = .F.
   LREAL = Auto
   LPLANE = .TRUE.
   NPAR = 4
   KPAR = 4
   NCORE = 1

 POTCAR:    PAW_PBE O 08Apr2002                   
 -----------------------------------------------------------------------------
|                                                                             |
|           W    W    AA    RRRRR   N    N  II  N    N   GGGG   !!!           |
|           W    W   A  A   R    R  NN   N  II  NN   N  G    G  !!!           |
|           W    W  A    A  R    R  N N  N  II  N N  N  G       !!!           |
|           W WW W  AAAAAA  RRRRR   N  N N  II  N  N N  G  GGG   !            |
|           WW  WW  A    A  R   R   N   NN  II  N   NN  G    G                |
|           W    W  A    A  R    R  N    N  II  N    N   GGGG   !!!           |
|                                                                             |
|     You use a magnetic or noncollinear calculation, but did not specify     |
|     the initial magnetic moment with the MAGMOM tag. Note that a            |
|     default of 1 will be used for all atoms. This ferromagnetic setup       |
|     may break the symmetry of the crystal, in particular it may rule        |
|     out finding an antiferromagnetic solution. Thence, we recommend         |
|     setting the initial magnetic moment manually or verifying carefully     |
|     that this magnetic setup is desired.                                    |
|                                                                             |
 -----------------------------------------------------------------------------

 POTCAR:    PAW_PBE O 08Apr2002                   
   SHA256 =  818f92134a0a090dccd8ba1447fa70422a3b330e708bb4f08108d8ae51209ddf O/POTCAR              
   COPYR  = (c) Copyright 08Apr2002 Georg Kresse                                                    
   COPYR  = This file is part of the software VASP. Any use, copying, and all other rights are regul
   COPYR  = If you do not have a valid VASP license, you may not use, copy or distribute this file. 
   VRHFIN =O: s2p4                                                                                  
   LEXCH  = PE                                                                                      
   EATOM  =   432.3788 eV,   31.7789 Ry                                                             
                                                                                                    
   TITEL  = PAW_PBE O 08Apr2002                                                                     
   LULTRA =        F    use ultrasoft PP ?                                                          
   IUNSCR =        1    unscreen: 0-lin 1-nonlin 2-no                                               
   RPACOR =    1.200    partial core radius                                                         
   POMASS =   16.000; ZVAL   =    6.000    mass and valenz                                          
   RCORE  =    1.520    outmost cutoff radius                                                       
   RWIGS  =    1.550; RWIGS  =    0.820    wigner-seitz radius (au A)                               
   ENMAX  =  400.000; ENMIN  =  300.000 eV                                                          
   ICORE  =        2    local potential                                                             
   LCOR   =        T    correct aug charges                                                         
   LPAW   =        T    paw PP                                                                      
   EAUG   =  605.392                                                                                
   DEXC   =    0.000                                                                                
   RMAX   =    1.553    core radius for proj-oper                                                   
   RAUG   =    1.300    factor for augmentation sphere                                              
   RDEP   =    1.550    radius for radial grids                                                     
   RDEPT  =    1.329    core radius for aug-charge                                                  
                                                                                                    
   Atomic configuration                                                                             
    4 entries                                                                                       
     n  l   j            E        occ.                                                              
     1  0  0.50      -514.6923   2.0000                                                             
     2  0  0.50       -23.9615   2.0000                                                             
     2  1  0.50        -9.0305   4.0000                                                             
     3  2  1.50        -9.5241   0.0000                                                             
   Description                                                                                      
     l       E           TYP  RCUT    TYP  RCUT                                                     
     0    -23.9615318     23  1.200                                                                 
     0     -9.5240782     23  1.200                                                                 
     1     -9.0304911     23  1.520                                                                 
     1      8.1634956     23  1.520                                                                 
     2     -9.5240782      7  1.500                                                                 
  local pseudopotential read in
  partial core-charges read in
  partial kinetic energy density read in
  kinetic energy density of atom read in
  atomic valenz-charges read in
  non local Contribution for L=            0  read in
    real space projection operators read in
  non local Contribution for L=            0  read in
    real space projection operators read in
  non local Contribution for L=            1  read in
    real space projection operators read in
  non local Contribution for L=            1  read in
    real space projection operators read in
    PAW grid and wavefunctions read in
 
   number of l-projection  operators is LMAX  =            4
   number of lm-projection operators is LMMAX =            8
 
 -----------------------------------------------------------------------------
|                                                                             |
|               ----> ADVICE to this user running VASP <----                  |
|                                                                             |
|     You have a (more or less) 'small supercell' and for smaller cells       |
|     it is recommended to use the reciprocal-space projection scheme!        |
|     The real-space optimization is not efficient for small cells and it     |
|     is also less accurate ...                                               |
|     Therefore, set LREAL=.FALSE. in the INCAR file.                         |
|                                                                             |
 -----------------------------------------------------------------------------

 Optimization of the real space projectors (new method)

 maximal supplied QI-value         = 24.76
 optimisation between [QCUT,QGAM] = [ 10.64, 21.54] = [ 31.73,129.89] Ry 
 Optimized for a Real-space Cutoff    1.23 Angstroem

   l    n(q)    QCUT    max X(q) W(low)/X(q) W(high)/X(q)  e(spline) 
   0      8    10.645    20.381    0.38E-03    0.60E-03    0.15E-06
   0      8    10.645    15.268    0.40E-03    0.65E-03    0.17E-06
   1      7    10.645     5.964    0.30E-03    0.63E-03    0.18E-06
   1      7    10.645     5.382    0.24E-03    0.53E-03    0.16E-06
  PAW_PBE O 08Apr2002                   :
 energy of atom  1       EATOM= -432.3788
 kinetic energy error for atom=    0.0389 (will be added to EATOM!!)
 
 
 POSCAR: O
  positions in cartesian coordinates
  No initial velocities read in
 exchange correlation table for  LEXCH =        8
   RHO(1)=    0.500       N(1)  =     2000
   RHO(2)=  100.500       N(2)  =     4000
 


--------------------------------------------------------------------------------------------------------


 ion  position               nearest neighbor table
   1  0.000  0.000  0.000-   2 1.20
   2  0.000  0.000  0.135-   1 1.20
 
  LATTYP: Found a simple orthorhombic cell.
 ALAT       =     7.5000000000
 B/A-ratio  =     1.0666666667
 C/A-ratio  =     1.1866666667
  
  Lattice vectors:
  
 A1 = (   7.5000000000,   0.0000000000,   0.0000000000)
 A2 = (   0.0000000000,   8.0000000000,   0.0000000000)
 A3 = (   0.0000000000,   0.0000000000,   8.9000000000)


Analysis of symmetry for initial positions (statically):
=====================================================================
 Subroutine PRICEL returns:
 Original cell was already a primitive cell.
 

 Routine SETGRP: Setting up the symmetry group for a 
 simple orthorhombic supercell.


 Subroutine GETGRP returns: Found  8 space group operations
 (whereof  4 operations were pure point group operations)
 out of a pool of  8 trial point group operations.


The static configuration has the point symmetry C_2v.
 The point group associated with its full space group is D_2h.


Analysis of symmetry for dynamics (positions and initial velocities):
=====================================================================
 Subroutine PRICEL returns:
 Original cell was already a primitive cell.
 

 Routine SETGRP: Setting up the symmetry group for a 
 simple orthorhombic supercell.


 Subroutine GETGRP returns: Found  8 space group operations
 (whereof  4 operations were pure point group operations)
 out of a pool of  8 trial point group operations.


The dynamic configuration has the point symmetry C_2v.
 The point group associated with its full space group is D_2h.


Analysis of structural, dynamic, and magnetic symmetry:
=====================================================================
 Subroutine PRICEL returns:
 Original cell was already a primitive cell.
 

 Routine SETGRP: Setting up the symmetry group for a 
 simple orthorhombic supercell.


 Subroutine GETGRP returns: Found  8 space group operations
 (whereof  4 operations were pure point group operations)
 out of a pool of  8 trial point group operations.


The overall configuration has the point symmetry C_2v.
 The point group associated with its full space group is D_2h.


 Subroutine INISYM returns: Found  8 space group operations
 (whereof  4 operations are pure point group operations),
 and found     1 'primitive' translations


----------------------------------------------------------------------------------------

                                     Primitive cell                                     

  volume of cell :     534.0000

  direct lattice vectors                    reciprocal lattice vectors
     7.500000000  0.000000000  0.000000000     0.133333333  0.000000000  0.000000000
     0.000000000  8.000000000  0.000000000     0.000000000  0.125000000  0.000000000
     0.000000000  0.000000000  8.900000000     0.000000000  0.000000000  0.112359551

  length of vectors
     7.500000000  8.000000000  8.900000000     0.133333333  0.125000000  0.112359551

  position of ions in fractional coordinates (direct lattice)
     0.000000000  0.000000000  0.000000000
     0.000000000  0.000000000  0.134831461

  ion indices of the primitive-cell ions
   primitive index   ion index
                 1           1
                 2           2

----------------------------------------------------------------------------------------

 
 
 KPOINTS: Automatic mesh                          

Automatic generation of k-mesh.
 Grid dimensions read from file:
 generate k-points for:    2    2    2

 Generating k-lattice:

  Cartesian coordinates                     Fractional coordinates (reciprocal lattice)
     0.066666667  0.000000000  0.000000000     0.500000000  0.000000000  0.000000000
     0.000000000  0.062500000  0.000000000     0.000000000  0.500000000  0.000000000
     0.000000000  0.000000000  0.056179775     0.000000000  0.000000000  0.500000000

  Length of vectors
     0.066666667  0.062500000  0.056179775

  Shift w.r.t. Gamma in fractional coordinates (k-lattice)
     0.000000000  0.000000000  0.000000000

 
 Subroutine IBZKPT returns following result:
 ===========================================
 
 Found      8 irreducible k-points:
 
 Following reciprocal coordinates:
            Coordinates               Weight
  0.000000  0.000000  0.000000      1.000000
  0.500000  0.000000  0.000000      1.000000
  0.000000  0.500000  0.000000      1.000000
  0.500000  0.500000  0.000000      1.000000
  0.000000  0.000000  0.500000      1.000000
  0.500000  0.000000  0.500000      1.000000
  0.000000  0.500000  0.500000      1.000000
  0.500000  0.500000  0.500000      1.000000
 
 Following cartesian coordinates:
            Coordinates               Weight
  0.000000  0.000000  0.000000      1.000000
  0.066667  0.000000  0.000000      1.000000
  0.000000  0.062500  0.000000      1.000000
  0.066667  0.062500  0.000000      1.000000
  0.000000  0.000000  0.056180      1.000000
  0.066667  0.000000  0.056180      1.000000
  0.000000  0.062500  0.056180      1.000000
  0.066667  0.062500  0.056180      1.000000
 


--------------------------------------------------------------------------------------------------------




 Dimension of arrays:
   k-points           NKPTS =      8   k-points in BZ     NKDIM =      8   number of bands    NBANDS=     11
   number of dos      NEDOS =    301   number of ions     NIONS =      2
   non local maximal  LDIM  =      4   non local SUM 2l+1 LMDIM =      8
   total plane-waves  NPLWV =  80640
   max r-space proj   IRMAX =   1218   max aug-charges    IRDMAX=   2158
   dimension x,y,z NGX =    40 NGY =   42 NGZ =   48
   dimension x,y,z NGXF=    80 NGYF=   84 NGZF=   96
   support grid    NGXF=    80 NGYF=   84 NGZF=   96
   ions per type =               2
   NGX,Y,Z   is equivalent  to a cutoff of   8.87,  8.73,  8.97 a.u.
   NGXF,Y,Z  is equivalent  to a cutoff of  17.73, 17.46, 17.93 a.u.

 SYSTEM =  unknown system                          
 POSCAR =  O                                       

 Startparameter for this run:
   NWRITE =      2    write-flag & timer
   PREC   = normal    normal or accurate (medium, high low for compatibility)
   ISTART =      0    job   : 0-new  1-cont  2-samecut
   ICHARG =      2    charge: 1-file 2-atom 10-const
   ISPIN  =      2    spin polarized calculation?
   LNONCOLLINEAR =      F non collinear calculations
   LSORBIT =      F    spin-orbit coupling
   INIWAV =      1    electr: 0-lowe 1-rand  2-diag
   LASPH  =      F    aspherical Exc in radial PAW
 Electronic Relaxation 1
   ENCUT  =  450.0 eV  33.07 Ry    5.75 a.u.  12.97 13.84 15.39*2*pi/ulx,y,z
   ENINI  =  450.0     initial cutoff
   ENAUG  =  605.4 eV  augmentation charge cutoff
   NELM   =     60;   NELMIN=  2; NELMDL= -5     # of ELM steps 
   EDIFF  = 0.1E-04   stopping-criterion for ELM
   LREAL  =      T    real-space projection
   NLSPLINE    = F    spline interpolate recip. space projectors
   LCOMPAT=      F    compatible to vasp.4.4
   GGA_COMPAT  = T    GGA compatible to vasp.4.4-vasp.4.6
   LMAXPAW     = -100 max onsite density
   LMAXMIX     =    2 max onsite mixed and CHGCAR
   VOSKOWN=      0    Vosko Wilk Nusair interpolation
   ROPT   =   -0.00050
 Ionic relaxation
   EDIFFG = -.5E-02   stopping-criterion for IOM
   NSW    =    300    number of steps for IOM
   NBLOCK =      1;   KBLOCK =    300    inner block; outer block 
   IBRION =      2    ionic relax: 0-MD 1-quasi-New 2-CG
   NFREE  =      1    steps in history (QN), initial steepest desc. (CG)
   ISIF   =      2    stress and relaxation
   IWAVPR =     11    prediction:  0-non 1-charg 2-wave 3-comb
   ISYM   =      2    0-nonsym 1-usesym 2-fastsym
   LCORR  =      T    Harris-Foulkes like correction to forces

   POTIM  = 0.5000    time-step for ionic-motion
   TEIN   =    0.0    initial temperature
   TEBEG  =    0.0;   TEEND  =   0.0 temperature during run
   SMASS  =  -3.00    Nose mass-parameter (am)
   estimated Nose-frequenzy (Omega)   =  0.10E-29 period in steps = 0.13E+47 mass=  -0.129E-26a.u.
   SCALEE = 1.0000    scale energy and forces
   NPACO  =    256;   APACO  = 10.0  distance and # of slots for P.C.
   PSTRESS=    0.0 pullay stress

  Mass of Ions in am
   POMASS =  16.00
  Ionic Valenz
   ZVAL   =   6.00
  Atomic Wigner-Seitz radii
   RWIGS  =  -1.00
  virtual crystal weights 
   VCA    =   1.00
   NELECT =      12.0000    total number of electrons
   NUPDOWN=      -1.0000    fix difference up-down

 DOS related values:
   EMIN   =  10.00;   EMAX   =-10.00  energy-range for DOS
   EFERMI =   0.00;   METHOD = LEGACY      
   ISMEAR =     0;   SIGMA  =   0.01  broadening in eV -4-tet -1-fermi 0-gaus

 Electronic relaxation 2 (details)
   IALGO  =     68    algorithm
   LDIAG  =      T    sub-space diagonalisation (order eigenvalues)
   LSUBROT=      F    optimize rotation matrix (better conditioning)
   TURBO    =      0    0=normal 1=particle mesh
   IRESTART =      0    0=no restart 2=restart with 2 vectors
   NREBOOT  =      0    no. of reboots
   NMIN     =      0    reboot dimension
   EREF     =   0.00    reference energy to select bands
   IMIX   =      4    mixing-type and parameters
     AMIX     =   0.40;   BMIX     =  1.00
     AMIX_MAG =   1.60;   BMIX_MAG =  1.00
     AMIN     =   0.10
     WC   =   100.;   INIMIX=   1;  MIXPRE=   1;  MAXMIX= -45

 Intra band minimization:
   WEIMIN = 0.0010     energy-eigenvalue tresh-hold
   EBREAK =  0.23E-06  absolut break condition
   DEPER  =   0.30     relativ break condition  

   TIME   =   0.40     timestep for ELM

  volume/ion in A,a.u.               =     267.00      1801.80
  Fermi-wavevector in a.u.,A,eV,Ry     =   0.461978  0.873012  2.903808  0.213424
  Thomas-Fermi vector in A             =   1.449321
 
 Write flags
   LWAVE        =      F    write WAVECAR
   LDOWNSAMPLE  =      F    k-point downsampling of WAVECAR
   LCHARG       =      F    write CHGCAR
   LVTOT        =      F    write LOCPOT, total local potential
   LVHAR        =      F    write LOCPOT, Hartree potential only
   LELF         =      F    write electronic localiz. function (ELF)
   LORBIT       =      0    0 simple, 1 ext, 2 COOP (PROOUT), +10 PAW based schemes


 Dipole corrections
   LMONO  =      F    monopole corrections only (constant potential shift)
   LDIPOL =      F    correct potential (dipole corrections)
   IDIPOL =      0    1-x, 2-y, 3-z, 4-all directions 
   EPSILON=  1.0000000 bulk dielectric constant

 Exchange correlation treatment:
   GGA     =    --    GGA type
   LEXCH   =     8    internal setting for exchange type
   LIBXC   =     F    Libxc                    
   VOSKOWN =     0    Vosko Wilk Nusair interpolation
   LHFCALC =     F    Hartree Fock is set to
   LHFONE  =     F    Hartree Fock one center treatment
   AEXX    =    0.0000 exact exchange contribution

 Linear response parameters
   LEPSILON=     F    determine dielectric tensor
   LRPA    =     F    only Hartree local field effects (RPA)
   LNABLA  =     F    use nabla operator in PAW spheres
   LVEL    =     F    velocity operator in full k-point grid
   CSHIFT  =0.1000    complex shift for real part using Kramers Kronig
   OMEGAMAX=  -1.0    maximum frequency
   DEG_THRESHOLD= 0.2000000E-02 threshold for treating states as degnerate
   RTIME   =   -0.100 relaxation time in fs
  (WPLASMAI=    0.000 imaginary part of plasma frequency in eV, 0.658/RTIME)
   DFIELD  = 0.0000000 0.0000000 0.0000000 field for delta impulse in time
 
  Optional k-point grid parameters
   LKPOINTS_OPT  =     F    use optional k-point grid
   KPOINTS_OPT_MODE=     1    mode for optional k-point grid
 
 Orbital magnetization related:
   ORBITALMAG=     F  switch on orbital magnetization
   LCHIMAG   =     F  perturbation theory with respect to B field
   DQ        =  0.001000  dq finite difference perturbation B field
   LLRAUG    =     F  two centre corrections for induced B field
   LBONE     =     F  B-component reconstruction in AE one-centre
   LVGVCALC  =     T  calculate vGv susceptibility
   LVGVAPPL  =     F  apply vGv susceptibility instead of pGv for G=0

 Random number generation:
   RANDOM_GENERATOR = DEFAULT
   PCG_SEED         = not used


--------------------------------------------------------------------------------------------------------


 conjugate gradient relaxation of ions
 charge density and potential will be updated during run
 spin polarized calculation
 RMM-DIIS sequential band-by-band and
  variant of blocked Davidson during initial phase
 perform sub-space diagonalisation
    before iterative eigenvector-optimisation
 modified Broyden-mixing scheme, WC =      100.0
 initial mixing is a Kerker type mixing with AMIX =  0.4000 and BMIX =      1.0000
 Hartree-type preconditioning will be used
 using additional bands             5
 real space projection scheme for non local part
 use partial core corrections
 calculate Harris-corrections to forces 
   (improved forces if not selfconsistent)
 use gradient corrections 
 use of overlap-Matrix (Vanderbilt PP)
 Gauss-broadening in eV      SIGMA  =   0.01


--------------------------------------------------------------------------------------------------------


  energy-cutoff  :      450.00
  volume of cell :      534.00
      direct lattice vectors                 reciprocal lattice vectors
     7.500000000  0.000000000  0.000000000     0.133333333  0.000000000  0.000000000
     0.000000000  8.000000000  0.000000000     0.000000000  0.125000000  0.000000000
     0.000000000  0.000000000  8.900000000     0.000000000  0.000000000  0.112359551

  length of vectors
     7.500000000  8.000000000  8.900000000     0.133333333  0.125000000  0.112359551


 
 k-points in units of 2pi/SCALE and weight: Automatic mesh                          
   0.00000000  0.00000000  0.00000000       0.125
   0.06666667  0.00000000  0.00000000       0.125
   0.00000000  0.06250000  0.00000000       0.125
   0.06666667  0.06250000  0.00000000       0.125
   0.00000000  0.00000000  0.05617978       0.125
   0.06666667  0.00000000  0.05617978       0.125
   0.00000000  0.06250000  0.05617978       0.125
   0.06666667  0.06250000  0.05617978       0.125
 
 k-points in reciprocal lattice and weights: Automatic mesh                          
   0.00000000  0.00000000  0.00000000       0.125
   0.50000000  0.00000000  0.00000000       0.125
   0.00000000  0.50000000  0.00000000       0.125
   0.50000000  0.50000000  0.00000000       0.125
   0.00000000  0.00000000  0.50000000       0.125
   0.50000000  0.00000000  0.50000000       0.125
   0.00000000  0.50000000  0.50000000       0.125
   0.50000000  0.50000000  0.50000000       0.125
 
 position of ions in fractional coordinates (direct lattice) 
   0.00000000  0.00000000  0.00000000
   0.00000000  0.00000000  0.13483146
 
 position of ions in cartesian coordinates  (Angst):
   0.00000000  0.00000000  0.00000000
   0.00000000  0.00000000  1.20000000
 


--------------------------------------------------------------------------------------------------------


 k-point   1 :   0.0000 0.0000 0.0000  plane waves:   11565
 k-point   2 :   0.5000 0.0000 0.0000  plane waves:   11594
 k-point   3 :   0.0000 0.5000 0.0000  plane waves:   11568
 k-point   4 :   0.5000 0.5000 0.0000  plane waves:   11596
 k-point   5 :   0.0000 0.0000 0.5000  plane waves:   11570
 k-point   6 :   0.5000 0.0000 0.5000  plane waves:   11560
 k-point   7 :   0.0000 0.5000 0.5000  plane waves:   11576
 k-point   8 :   0.5000 0.5000 0.5000  plane waves:   11576

 maximum and minimum number of plane-waves per node :     11596    11560

 maximum number of plane-waves:     11596
 maximum index in each direction: 
   IXMAX=   12   IYMAX=   13   IZMAX=   15
   IXMIN=  -13   IYMIN=  -14   IZMIN=  -15


 serial   3D FFT for wavefunctions
 parallel 3D FFT for charge:
    minimum data exchange during FFTs selected (reduces bandwidth)


 total amount of memory used by VASP MPI-rank0   139033. kBytes
=======================================================================

   base      :      30000. kBytes
   nonlr-proj:        200. kBytes
   fftplans  :      22416. kBytes
   grid      :      53706. kBytes
   one-center:         12. kBytes
   wavefun   :      32699. kBytes
 
     INWAV:  cpu time      0.0000: real time      0.0001
 Broyden mixing: mesh for mixing (old mesh)
   NGX = 25   NGY = 27   NGZ = 31
  (NGX  = 80   NGY  = 84   NGZ  = 96)
  gives a total of  20925 points

 initial charge density was supplied:
 charge density of overlapping atoms calculated
 number of electron      12.0000000 magnetization       2.0000000
 keeping initial charge density in first step


--------------------------------------------------------------------------------------------------------


 Maximum index for non-local projection operator          1149
 Maximum index for augmentation-charges          1893 (set IRDMAX)


--------------------------------------------------------------------------------------------------------


 First call to EWALD:  gamma=   0.218
 Maximum number of real-space cells 3x 3x 3
 Maximum number of reciprocal cells 3x 3x 3

    FEWALD:  cpu time      0.0010: real time      0.0010


--------------------------------------- Ionic step        1  -------------------------------------------




--------------------------------------- Iteration      1(   1)  ---------------------------------------


    POTLOK:  cpu time      0.0394: real time      0.0394
    SETDIJ:  cpu time      0.0111: real time      0.0111
     EDDAV:  cpu time      0.1191: real time      0.1191
       DOS:  cpu time      0.0005: real time      0.0005
    --------------------------------------------
      LOOP:  cpu time      0.1701: real time      0.1700

 eigenvalue-minimisations  :   456
 total energy-change (2. order) : 0.6949199E+02  (-0.3101464E+03)
 number of electron      12.0000000 magnetization       2.0000000
 augmentation part       12.0000000 magnetization       2.0000000

 Free energy of the ion-electron system (eV)
  ---------------------------------------------------
  alpha Z        PSCENC =         1.04085735
  Ewald energy   TEWEN  =        73.99599140
  -Hartree energ DENC   =      -801.68399491
  -exchange      EXHF   =         0.00000000
  -V(xc)+E(xc)   XCENC  =        54.83247461
  PAW double counting   =       692.81204765     -696.39983308
  entropy T*S    EENTRO =        -0.00027136
  eigenvalues    EBANDS =      -119.78499299
  atomic energy  EATOM  =       864.67971496
  Solvation  Ediel_sol  =         0.00000000
  ---------------------------------------------------
  free energy    TOTEN  =        69.49199363 eV

  energy without entropy =       69.49226499  energy(sigma->0) =       69.49212931


--------------------------------------------------------------------------------------------------------




--------------------------------------- Iteration      1(   2)  ---------------------------------------


     EDDAV:  cpu time      0.0970: real time      0.0976
       DOS:  cpu time      0.0002: real time      0.0002
    --------------------------------------------
      LOOP:  cpu time      0.0973: real time      0.0979

 eigenvalue-minimisations  :   535
 total energy-change (2. order) :-0.6625736E+02  (-0.6177040E+02)
 number of electron      12.0000000 magnetization       2.0000000
 augmentation part       12.0000000 magnetization       2.0000000

 Free energy of the ion-electron system (eV)
  ---------------------------------------------------
  alpha Z        PSCENC =         1.04085735
  Ewald energy   TEWEN  =        73.99599140
  -Hartree energ DENC   =      -801.68399491
  -exchange      EXHF   =         0.00000000
  -V(xc)+E(xc)   XCENC  =        54.83247461
  PAW double counting   =       692.81204765     -696.39983308
  entropy T*S    EENTRO =        -0.00000000
  eigenvalues    EBANDS =      -186.04262744
  atomic energy  EATOM  =       864.67971496
  Solvation  Ediel_sol  =         0.00000000
  ---------------------------------------------------
  free energy    TOTEN  =         3.23463054 eV

  energy without entropy =        3.23463054  energy(sigma->0) =        3.23463054


--------------------------------------------------------------------------------------------------------




--------------------------------------- Iteration      1(   3)  ---------------------------------------


     EDDAV:  cpu time      0.0920: real time      0.0924
       DOS:  cpu time      0.0002: real time      0.0002
    --------------------------------------------
      LOOP:  cpu time      0.0922: real time      0.0926

 eigenvalue-minimisations  :   587
 total energy-change (2. order) :-0.1223207E+02  (-0.1034294E+02)
 number of electron      12.0000000 magnetization       2.0000000
 augmentation part       12.0000000 magnetization       2.0000000

 Free energy of the ion-electron system (eV)
  ---------------------------------------------------
  alpha Z        PSCENC =         1.04085735
  Ewald energy   TEWEN  =        73.99599140
  -Hartree energ DENC   =      -801.68399491
  -exchange      EXHF   =         0.00000000
  -V(xc)+E(xc)   XCENC  =        54.83247461
  PAW double counting   =       692.81204765     -696.39983308
  entropy T*S    EENTRO =        -0.00000000
  eigenvalues    EBANDS =      -198.27469458
  atomic energy  EATOM  =       864.67971496
  Solvation  Ediel_sol  =         0.00000000
  ---------------------------------------------------
  free energy    TOTEN  =        -8.99743660 eV

  energy without entropy =       -8.99743660  energy(sigma->0) =       -8.99743660


--------------------------------------------------------------------------------------------------------




--------------------------------------- Iteration      1(   4)  ---------------------------------------


     EDDAV:  cpu time      0.0599: real time      0.0603
       DOS:  cpu time      0.0002: real time      0.0002
    --------------------------------------------
      LOOP:  cpu time      0.0601: real time      0.0605

 eigenvalue-minimisations  :   405
 total energy-change (2. order) :-0.7695796E+00  (-0.7689145E+00)
 number of electron      12.0000000 magnetization       2.0000000
 augmentation part       12.0000000 magnetization       2.0000000

 Free energy of the ion-electron system (eV)
  ---------------------------------------------------
  alpha Z        PSCENC =         1.04085735
  Ewald energy   TEWEN  =        73.99599140
  -Hartree energ DENC   =      -801.68399491
  -exchange      EXHF   =         0.00000000
  -V(xc)+E(xc)   XCENC  =        54.83247461
  PAW double counting   =       692.81204765     -696.39983308
  entropy T*S    EENTRO =        -0.00000000
  eigenvalues    EBANDS =      -199.04427415
  atomic energy  EATOM  =       864.67971496
  Solvation  Ediel_sol  =         0.00000000
  ---------------------------------------------------
  free energy    TOTEN  =        -9.76701617 eV

  energy without entropy =       -9.76701617  energy(sigma->0) =       -9.76701617


--------------------------------------------------------------------------------------------------------




--------------------------------------- Iteration      1(   5)  ---------------------------------------


     EDDAV:  cpu time      0.0668: real time      0.0671
       DOS:  cpu time      0.0002: real time      0.0002
    CHARGE:  cpu time      0.0521: real time      0.0521
    MIXING:  cpu time      0.0170: real time      0.0170
    --------------------------------------------
      LOOP:  cpu time      0.1361: real time      0.1364

 eigenvalue-minimisations  :   492
 total energy-change (2. order) :-0.2509984E-01  (-0.2508225E-01)
 number of electron      11.9999900 magnetization       1.9999979
 augmentation part        1.1951428 magnetization       0.4909921

 Broyden mixing:
  rms(total) = 0.65566E+00    rms(broyden)= 0.65042E+00
  rms(prec ) = 0.70803E+00
  weight for this iteration     100.00

 Free energy of the ion-electron system (eV)
  ---------------------------------------------------
  alpha Z        PSCENC =         1.04085735
  Ewald energy   TEWEN  =        73.99599140
  -Hartree energ DENC   =      -801.68399491
  -exchange      EXHF   =         0.00000000
  -V(xc)+E(xc)   XCENC  =        54.83247461
  PAW double counting   =       692.81204765     -696.39983308
  entropy T*S    EENTRO =        -0.00000000
  eigenvalues    EBANDS =      -199.06937399
  atomic energy  EATOM  =       864.67971496
  Solvation  Ediel_sol  =         0.00000000
  ---------------------------------------------------
  free energy    TOTEN  =        -9.79211601 eV

  energy without entropy =       -9.79211601  energy(sigma->0) =       -9.79211601


--------------------------------------------------------------------------------------------------------




--------------------------------------- Iteration      1(   6)  ---------------------------------------


    POTLOK:  cpu time      0.0139: real time      0.0146
    SETDIJ:  cpu time      0.0111: real time      0.0111
    EDDIAG:  cpu time      0.0070: real time      0.0070
  RMM-DIIS:  cpu time      0.0574: real time      0.0574
    ORTHCH:  cpu time      0.0015: real time      0.0015
       DOS:  cpu time      0.0002: real time      0.0002
    CHARGE:  cpu time      0.0517: real time      0.0517
    MIXING:  cpu time      0.0186: real time      0.0186
    --------------------------------------------
      LOOP:  cpu time      0.1614: real time      0.1621

 eigenvalue-minimisations  :   352
 total energy-change (2. order) : 0.2235244E+00  (-0.1128819E+00)
 number of electron      11.9999901 magnetization       1.9999970
 augmentation part        1.1831759 magnetization       0.4998134

 Broyden mixing:
  rms(total) = 0.31088E+00    rms(broyden)= 0.31018E+00
  rms(prec ) = 0.33975E+00
  weight for this iteration     100.00

 eigenvalues of (default mixing * dielectric matrix)
  average eigenvalue GAMMA=   0.7488
  0.7488

 Free energy of the ion-electron system (eV)
  ---------------------------------------------------
  alpha Z        PSCENC =         1.04085735
  Ewald energy   TEWEN  =        73.99599140
  -Hartree energ DENC   =      -806.05115910
  -exchange      EXHF   =         0.00000000
  -V(xc)+E(xc)   XCENC  =        55.56327800
  PAW double counting   =       776.05753531     -779.62066146
  entropy T*S    EENTRO =        -0.00000000
  eigenvalues    EBANDS =      -195.23414810
  atomic energy  EATOM  =       864.67971496
  Solvation  Ediel_sol  =         0.00000000
  ---------------------------------------------------
  free energy    TOTEN  =        -9.56859165 eV

  energy without entropy =       -9.56859165  energy(sigma->0) =       -9.56859165


--------------------------------------------------------------------------------------------------------




--------------------------------------- Iteration      1(   7)  ---------------------------------------


    POTLOK:  cpu time      0.0136: real time      0.0139
    SETDIJ:  cpu time      0.0104: real time      0.0104
    EDDIAG:  cpu time      0.0066: real time      0.0066
  RMM-DIIS:  cpu time      0.0569: real time      0.0569
    ORTHCH:  cpu time      0.0015: real time      0.0015
       DOS:  cpu time      0.0002: real time      0.0002
    CHARGE:  cpu time      0.0510: real time      0.0510
    MIXING:  cpu time      0.0192: real time      0.0192
    --------------------------------------------
      LOOP:  cpu time      0.1594: real time      0.1597

 eigenvalue-minimisations  :   352
 total energy-change (2. order) :-0.2303067E+00  (-0.2265150E-01)
 number of electron      11.9999902 magnetization       1.9999959
 augmentation part        1.1736560 magnetization       0.4955685

 Broyden mixing:
  rms(total) = 0.15521E+00    rms(broyden)= 0.15516E+00
  rms(prec ) = 0.17208E+00
  weight for this iteration     100.00

 eigenvalues of (default mixing * dielectric matrix)
  average eigenvalue GAMMA=   1.2689
  0.6964  1.8413

 Free energy of the ion-electron system (eV)
  ---------------------------------------------------
  alpha Z        PSCENC =         1.04085735
  Ewald energy   TEWEN  =        73.99599140
  -Hartree energ DENC   =      -807.92253042
  -exchange      EXHF   =         0.00000000
  -V(xc)+E(xc)   XCENC  =        55.46202750
  PAW double counting   =       822.98013620     -826.66198276
  entropy T*S    EENTRO =        -0.00000000
  eigenvalues    EBANDS =      -193.37311257
  atomic energy  EATOM  =       864.67971496
  Solvation  Ediel_sol  =         0.00000000
  ---------------------------------------------------
  free energy    TOTEN  =        -9.79889834 eV

  energy without entropy =       -9.79889834  energy(sigma->0) =       -9.79889834


--------------------------------------------------------------------------------------------------------




--------------------------------------- Iteration      1(   8)  ---------------------------------------


    POTLOK:  cpu time      0.0135: real time      0.0139
    SETDIJ:  cpu time      0.0105: real time      0.0105
    EDDIAG:  cpu time      0.0066: real time      0.0066
  RMM-DIIS:  cpu time      0.0568: real time      0.0567
    ORTHCH:  cpu time      0.0015: real time      0.0015
       DOS:  cpu time      0.0002: real time      0.0002
    CHARGE:  cpu time      0.0510: real time      0.0510
    MIXING:  cpu time      0.0189: real time      0.0189
    --------------------------------------------
      LOOP:  cpu time      0.1589: real time      0.1593

 eigenvalue-minimisations  :   352
 total energy-change (2. order) :-0.1513724E-02  (-0.1684542E-01)
 number of electron      11.9999902 magnetization       1.9999960
 augmentation part        1.1639644 magnetization       0.4948612

 Broyden mixing:
  rms(total) = 0.42479E-01    rms(broyden)= 0.42406E-01
  rms(prec ) = 0.46477E-01
  weight for this iteration     100.00

 eigenvalues of (default mixing * dielectric matrix)
  average eigenvalue GAMMA=   1.1597
  2.0111  0.8053  0.6627

 Free energy of the ion-electron system (eV)
  ---------------------------------------------------
  alpha Z        PSCENC =         1.04085735
  Ewald energy   TEWEN  =        73.99599140
  -Hartree energ DENC   =      -809.86700746
  -exchange      EXHF   =         0.00000000
  -V(xc)+E(xc)   XCENC  =        55.63926548
  PAW double counting   =       887.89645244     -891.56752611
  entropy T*S    EENTRO =        -0.00000000
  eigenvalues    EBANDS =      -191.61816012
  atomic energy  EATOM  =       864.67971496
  Solvation  Ediel_sol  =         0.00000000
  ---------------------------------------------------
  free energy    TOTEN  =        -9.80041206 eV

  energy without entropy =       -9.80041206  energy(sigma->0) =       -9.80041206


--------------------------------------------------------------------------------------------------------




--------------------------------------- Iteration      1(   9)  ---------------------------------------


    POTLOK:  cpu time      0.0137: real time      0.0140
    SETDIJ:  cpu time      0.0104: real time      0.0104
    EDDIAG:  cpu time      0.0066: real time      0.0066
  RMM-DIIS:  cpu time      0.0577: real time      0.0577
    ORTHCH:  cpu time      0.0015: real time      0.0015
       DOS:  cpu time      0.0002: real time      0.0002
    CHARGE:  cpu time      0.0514: real time      0.0514
    MIXING:  cpu time      0.0199: real time      0.0199
    --------------------------------------------
      LOOP:  cpu time      0.1615: real time      0.1618

 eigenvalue-minimisations  :   356
 total energy-change (2. order) :-0.8147338E-02  (-0.1748470E-02)
 number of electron      11.9999903 magnetization       1.9999960
 augmentation part        1.1623395 magnetization       0.4943598

 Broyden mixing:
  rms(total) = 0.24742E-01    rms(broyden)= 0.24733E-01
  rms(prec ) = 0.27510E-01
  weight for this iteration     100.00

 eigenvalues of (default mixing * dielectric matrix)
  average eigenvalue GAMMA=   1.3988
  2.1005  2.1005  0.7426  0.6515

 Free energy of the ion-electron system (eV)
  ---------------------------------------------------
  alpha Z        PSCENC =         1.04085735
  Ewald energy   TEWEN  =        73.99599140
  -Hartree energ DENC   =      -809.63190612
  -exchange      EXHF   =         0.00000000
  -V(xc)+E(xc)   XCENC  =        55.62032572
  PAW double counting   =       895.93369703     -899.59888073
  entropy T*S    EENTRO =        -0.00000000
  eigenvalues    EBANDS =      -191.84835900
  atomic energy  EATOM  =       864.67971496
  Solvation  Ediel_sol  =         0.00000000
  ---------------------------------------------------
  free energy    TOTEN  =        -9.80855940 eV

  energy without entropy =       -9.80855940  energy(sigma->0) =       -9.80855940


--------------------------------------------------------------------------------------------------------




--------------------------------------- Iteration      1(  10)  ---------------------------------------


    POTLOK:  cpu time      0.0142: real time      0.0147
    SETDIJ:  cpu time      0.0098: real time      0.0098
    EDDIAG:  cpu time      0.0067: real time      0.0066
  RMM-DIIS:  cpu time      0.0571: real time      0.0571
    ORTHCH:  cpu time      0.0015: real time      0.0015
       DOS:  cpu time      0.0002: real time      0.0002
    CHARGE:  cpu time      0.0511: real time      0.0511
    MIXING:  cpu time      0.0203: real time      0.0203
    --------------------------------------------
      LOOP:  cpu time      0.1610: real time      0.1614

 eigenvalue-minimisations  :   352
 total energy-change (2. order) :-0.1850743E-02  (-0.4843652E-03)
 number of electron      11.9999903 magnetization       1.9999960
 augmentation part        1.1631116 magnetization       0.4945793

 Broyden mixing:
  rms(total) = 0.82116E-02    rms(broyden)= 0.82055E-02
  rms(prec ) = 0.98285E-02
  weight for this iteration     100.00

 eigenvalues of (default mixing * dielectric matrix)
  average eigenvalue GAMMA=   1.2961
  2.2165  2.0507  0.8632  0.6752  0.6752

 Free energy of the ion-electron system (eV)
  ---------------------------------------------------
  alpha Z        PSCENC =         1.04085735
  Ewald energy   TEWEN  =        73.99599140
  -Hartree energ DENC   =      -809.26228870
  -exchange      EXHF   =         0.00000000
  -V(xc)+E(xc)   XCENC  =        55.58379455
  PAW double counting   =       906.97079101     -910.59129514
  entropy T*S    EENTRO =        -0.00000000
  eigenvalues    EBANDS =      -192.22797556
  atomic energy  EATOM  =       864.67971496
  Solvation  Ediel_sol  =         0.00000000
  ---------------------------------------------------
  free energy    TOTEN  =        -9.81041014 eV

  energy without entropy =       -9.81041014  energy(sigma->0) =       -9.81041014


--------------------------------------------------------------------------------------------------------




--------------------------------------- Iteration      1(  11)  ---------------------------------------


    POTLOK:  cpu time      0.0137: real time      0.0141
    SETDIJ:  cpu time      0.0116: real time      0.0116
    EDDIAG:  cpu time      0.0066: real time      0.0066
  RMM-DIIS:  cpu time      0.0604: real time      0.0603
    ORTHCH:  cpu time      0.0015: real time      0.0015
       DOS:  cpu time      0.0002: real time      0.0002
    CHARGE:  cpu time      0.0514: real time      0.0514
    MIXING:  cpu time      0.0213: real time      0.0213
    --------------------------------------------
      LOOP:  cpu time      0.1667: real time      0.1671

 eigenvalue-minimisations  :   365
 total energy-change (2. order) :-0.2129068E-03  (-0.9398964E-04)
 number of electron      11.9999903 magnetization       1.9999960
 augmentation part        1.1624571 magnetization       0.4942389

 Broyden mixing:
  rms(total) = 0.33608E-02    rms(broyden)= 0.33587E-02
  rms(prec ) = 0.43988E-02
  weight for this iteration     100.00

 eigenvalues of (default mixing * dielectric matrix)
  average eigenvalue GAMMA=   1.2440
  2.3259  1.7799  1.3018  0.7618  0.6474  0.6474

 Free energy of the ion-electron system (eV)
  ---------------------------------------------------
  alpha Z        PSCENC =         1.04085735
  Ewald energy   TEWEN  =        73.99599140
  -Hartree energ DENC   =      -809.48918082
  -exchange      EXHF   =         0.00000000
  -V(xc)+E(xc)   XCENC  =        55.59929488
  PAW double counting   =       908.30454908     -911.93008187
  entropy T*S    EENTRO =        -0.00000000
  eigenvalues    EBANDS =      -192.01176804
  atomic energy  EATOM  =       864.67971496
  Solvation  Ediel_sol  =         0.00000000
  ---------------------------------------------------
  free energy    TOTEN  =        -9.81062305 eV

  energy without entropy =       -9.81062305  energy(sigma->0) =       -9.81062305


--------------------------------------------------------------------------------------------------------




--------------------------------------- Iteration      1(  12)  ---------------------------------------


    POTLOK:  cpu time      0.0137: real time      0.0140
    SETDIJ:  cpu time      0.0104: real time      0.0104
    EDDIAG:  cpu time      0.0066: real time      0.0066
  RMM-DIIS:  cpu time      0.0582: real time      0.0582
    ORTHCH:  cpu time      0.0015: real time      0.0015
       DOS:  cpu time      0.0002: real time      0.0002
    CHARGE:  cpu time      0.0524: real time      0.0524
    MIXING:  cpu time      0.0219: real time      0.0219
    --------------------------------------------
      LOOP:  cpu time      0.1650: real time      0.1653

 eigenvalue-minimisations  :   353
 total energy-change (2. order) :-0.2395649E-03  (-0.3427401E-04)
 number of electron      11.9999903 magnetization       1.9999960
 augmentation part        1.1618682 magnetization       0.4941034

 Broyden mixing:
  rms(total) = 0.27454E-02    rms(broyden)= 0.27431E-02
  rms(prec ) = 0.35152E-02
  weight for this iteration     100.00

 eigenvalues of (default mixing * dielectric matrix)
  average eigenvalue GAMMA=   1.3592
  2.4030  2.4030  1.6904  0.9623  0.7391  0.6455  0.6715

 Free energy of the ion-electron system (eV)
  ---------------------------------------------------
  alpha Z        PSCENC =         1.04085735
  Ewald energy   TEWEN  =        73.99599140
  -Hartree energ DENC   =      -809.65735429
  -exchange      EXHF   =         0.00000000
  -V(xc)+E(xc)   XCENC  =        55.60808326
  PAW double counting   =       908.70446898     -912.32727153
  entropy T*S    EENTRO =        -0.00000000
  eigenvalues    EBANDS =      -191.85535275
  atomic energy  EATOM  =       864.67971496
  Solvation  Ediel_sol  =         0.00000000
  ---------------------------------------------------
  free energy    TOTEN  =        -9.81086261 eV

  energy without entropy =       -9.81086261  energy(sigma->0) =       -9.81086261


--------------------------------------------------------------------------------------------------------




--------------------------------------- Iteration      1(  13)  ---------------------------------------


    POTLOK:  cpu time      0.0137: real time      0.0140
    SETDIJ:  cpu time      0.0104: real time      0.0104
    EDDIAG:  cpu time      0.0066: real time      0.0066
  RMM-DIIS:  cpu time      0.0572: real time      0.0572
    ORTHCH:  cpu time      0.0015: real time      0.0015
       DOS:  cpu time      0.0002: real time      0.0002
    CHARGE:  cpu time      0.0514: real time      0.0514
    MIXING:  cpu time      0.0236: real time      0.0236
    --------------------------------------------
      LOOP:  cpu time      0.1646: real time      0.1648

 eigenvalue-minimisations  :   342
 total energy-change (2. order) :-0.1726883E-03  (-0.6795169E-05)
 number of electron      11.9999903 magnetization       1.9999960
 augmentation part        1.1618419 magnetization       0.4940489

 Broyden mixing:
  rms(total) = 0.68559E-03    rms(broyden)= 0.68492E-03
  rms(prec ) = 0.12877E-02
  weight for this iteration     100.00

 eigenvalues of (default mixing * dielectric matrix)
  average eigenvalue GAMMA=   1.2905
  2.4627  2.4627  1.5077  1.0765  0.7671  0.7334  0.6361  0.6778

 Free energy of the ion-electron system (eV)
  ---------------------------------------------------
  alpha Z        PSCENC =         1.04085735
  Ewald energy   TEWEN  =        73.99599140
  -Hartree energ DENC   =      -809.65863656
  -exchange      EXHF   =         0.00000000
  -V(xc)+E(xc)   XCENC  =        55.60537079
  PAW double counting   =       908.81685027     -912.43488231
  entropy T*S    EENTRO =        -0.00000000
  eigenvalues    EBANDS =      -191.85630120
  atomic energy  EATOM  =       864.67971496
  Solvation  Ediel_sol  =         0.00000000
  ---------------------------------------------------
  free energy    TOTEN  =        -9.81103530 eV

  energy without entropy =       -9.81103530  energy(sigma->0) =       -9.81103530


--------------------------------------------------------------------------------------------------------




--------------------------------------- Iteration      1(  14)  ---------------------------------------


    POTLOK:  cpu time      0.0136: real time      0.0140
    SETDIJ:  cpu time      0.0104: real time      0.0104
    EDDIAG:  cpu time      0.0066: real time      0.0066
  RMM-DIIS:  cpu time      0.0467: real time      0.0467
    ORTHCH:  cpu time      0.0015: real time      0.0015
       DOS:  cpu time      0.0002: real time      0.0002
    CHARGE:  cpu time      0.0515: real time      0.0515
    MIXING:  cpu time      0.0252: real time      0.0252
    --------------------------------------------
      LOOP:  cpu time      0.1558: real time      0.1561

 eigenvalue-minimisations  :   282
 total energy-change (2. order) :-0.7575272E-04  (-0.2198543E-05)
 number of electron      11.9999903 magnetization       1.9999960
 augmentation part        1.1618915 magnetization       0.4940525

 Broyden mixing:
  rms(total) = 0.54464E-03    rms(broyden)= 0.54446E-03
  rms(prec ) = 0.97816E-03
  weight for this iteration     100.00

 eigenvalues of (default mixing * dielectric matrix)
  average eigenvalue GAMMA=   1.3367
  2.4959  2.4959  1.6245  1.6245  1.0720  0.7515  0.6669  0.6669  0.6324

 Free energy of the ion-electron system (eV)
  ---------------------------------------------------
  alpha Z        PSCENC =         1.04085735
  Ewald energy   TEWEN  =        73.99599140
  -Hartree energ DENC   =      -809.63128332
  -exchange      EXHF   =         0.00000000
  -V(xc)+E(xc)   XCENC  =        55.60316816
  PAW double counting   =       908.81764184     -912.43415038
  entropy T*S    EENTRO =        -0.00000000
  eigenvalues    EBANDS =      -191.88305107
  atomic energy  EATOM  =       864.67971496
  Solvation  Ediel_sol  =         0.00000000
  ---------------------------------------------------
  free energy    TOTEN  =        -9.81111106 eV

  energy without entropy =       -9.81111106  energy(sigma->0) =       -9.81111106


--------------------------------------------------------------------------------------------------------




--------------------------------------- Iteration      1(  15)  ---------------------------------------


    POTLOK:  cpu time      0.0136: real time      0.0139
    SETDIJ:  cpu time      0.0106: real time      0.0105
    EDDIAG:  cpu time      0.0072: real time      0.0072
  RMM-DIIS:  cpu time      0.0438: real time      0.0438
    ORTHCH:  cpu time      0.0015: real time      0.0015
       DOS:  cpu time      0.0002: real time      0.0002
    CHARGE:  cpu time      0.0528: real time      0.0528
    MIXING:  cpu time      0.0257: real time      0.0257
    --------------------------------------------
      LOOP:  cpu time      0.1554: real time      0.1557

 eigenvalue-minimisations  :   259
 total energy-change (2. order) :-0.1397851E-03  (-0.1047046E-05)
 number of electron      11.9999903 magnetization       1.9999960
 augmentation part        1.1618811 magnetization       0.4940458

 Broyden mixing:
  rms(total) = 0.36590E-03    rms(broyden)= 0.36581E-03
  rms(prec ) = 0.56008E-03
  weight for this iteration     100.00

 eigenvalues of (default mixing * dielectric matrix)
  average eigenvalue GAMMA=   1.3816
  3.0792  2.5048  2.1723  1.3650  1.1705  0.7792  0.7792  0.6951  0.6351  0.6351

 Free energy of the ion-electron system (eV)
  ---------------------------------------------------
  alpha Z        PSCENC =         1.04085735
  Ewald energy   TEWEN  =        73.99599140
  -Hartree energ DENC   =      -809.64697124
  -exchange      EXHF   =         0.00000000
  -V(xc)+E(xc)   XCENC  =        55.60335104
  PAW double counting   =       908.70061512     -912.31594707
  entropy T*S    EENTRO =        -0.00000000
  eigenvalues    EBANDS =      -191.86886240
  atomic energy  EATOM  =       864.67971496
  Solvation  Ediel_sol  =         0.00000000
  ---------------------------------------------------
  free energy    TOTEN  =        -9.81125084 eV

  energy without entropy =       -9.81125084  energy(sigma->0) =       -9.81125084


--------------------------------------------------------------------------------------------------------




--------------------------------------- Iteration      1(  16)  ---------------------------------------


    POTLOK:  cpu time      0.0137: real time      0.0142
    SETDIJ:  cpu time      0.0102: real time      0.0102
    EDDIAG:  cpu time      0.0073: real time      0.0073
  RMM-DIIS:  cpu time      0.0460: real time      0.0459
    ORTHCH:  cpu time      0.0015: real time      0.0015
       DOS:  cpu time      0.0003: real time      0.0003
    CHARGE:  cpu time      0.0520: real time      0.0520
    MIXING:  cpu time      0.0271: real time      0.0271
    --------------------------------------------
      LOOP:  cpu time      0.1582: real time      0.1585

 eigenvalue-minimisations  :   256
 total energy-change (2. order) :-0.4143664E-04  (-0.5926728E-06)
 number of electron      11.9999903 magnetization       1.9999960
 augmentation part        1.1618281 magnetization       0.4940305

 Broyden mixing:
  rms(total) = 0.15234E-03    rms(broyden)= 0.15209E-03
  rms(prec ) = 0.26276E-03
  weight for this iteration     100.00

 eigenvalues of (default mixing * dielectric matrix)
  average eigenvalue GAMMA=   1.4438
  3.6069  2.5005  2.1279  1.5061  1.5061  1.1485  0.7596  0.7596  0.6883  0.6523
  0.6254

 Free energy of the ion-electron system (eV)
  ---------------------------------------------------
  alpha Z        PSCENC =         1.04085735
  Ewald energy   TEWEN  =        73.99599140
  -Hartree energ DENC   =      -809.66957920
  -exchange      EXHF   =         0.00000000
  -V(xc)+E(xc)   XCENC  =        55.60437677
  PAW double counting   =       908.66165698     -912.27708234
  entropy T*S    EENTRO =        -0.00000000
  eigenvalues    EBANDS =      -191.84722820
  atomic energy  EATOM  =       864.67971496
  Solvation  Ediel_sol  =         0.00000000
  ---------------------------------------------------
  free energy    TOTEN  =        -9.81129228 eV

  energy without entropy =       -9.81129228  energy(sigma->0) =       -9.81129228


--------------------------------------------------------------------------------------------------------




--------------------------------------- Iteration      1(  17)  ---------------------------------------


    POTLOK:  cpu time      0.0146: real time      0.0154
    SETDIJ:  cpu time      0.0107: real time      0.0107
    EDDIAG:  cpu time      0.0074: real time      0.0074
  RMM-DIIS:  cpu time      0.0452: real time      0.0452
    ORTHCH:  cpu time      0.0016: real time      0.0016
       DOS:  cpu time      0.0002: real time      0.0002
    CHARGE:  cpu time      0.0520: real time      0.0520
    MIXING:  cpu time      0.0286: real time      0.0285
    --------------------------------------------
      LOOP:  cpu time      0.1602: real time      0.1610

 eigenvalue-minimisations  :   240
 total energy-change (2. order) :-0.3729445E-04  (-0.4124182E-06)
 number of electron      11.9999903 magnetization       1.9999960
 augmentation part        1.1618006 magnetization       0.4940175

 Broyden mixing:
  rms(total) = 0.16450E-03    rms(broyden)= 0.16436E-03
  rms(prec ) = 0.21473E-03
  weight for this iteration     100.00

 eigenvalues of (default mixing * dielectric matrix)
  average eigenvalue GAMMA=   1.5225
  4.4746  2.5038  2.3061  2.1975  1.2580  1.2580  0.7877  0.7877  0.7424  0.6213
  0.6662  0.6662

 Free energy of the ion-electron system (eV)
  ---------------------------------------------------
  alpha Z        PSCENC =         1.04085735
  Ewald energy   TEWEN  =        73.99599140
  -Hartree energ DENC   =      -809.67932574
  -exchange      EXHF   =         0.00000000
  -V(xc)+E(xc)   XCENC  =        55.60472648
  PAW double counting   =       908.66986868     -912.28579532
  entropy T*S    EENTRO =        -0.00000000
  eigenvalues    EBANDS =      -191.83736738
  atomic energy  EATOM  =       864.67971496
  Solvation  Ediel_sol  =         0.00000000
  ---------------------------------------------------
  free energy    TOTEN  =        -9.81132957 eV

  energy without entropy =       -9.81132957  energy(sigma->0) =       -9.81132957


--------------------------------------------------------------------------------------------------------




--------------------------------------- Iteration      1(  18)  ---------------------------------------


    POTLOK:  cpu time      0.0147: real time      0.0152
    SETDIJ:  cpu time      0.0107: real time      0.0107
    EDDIAG:  cpu time      0.0076: real time      0.0076
  RMM-DIIS:  cpu time      0.0431: real time      0.0431
    ORTHCH:  cpu time      0.0016: real time      0.0016
       DOS:  cpu time      0.0003: real time      0.0003
    --------------------------------------------
      LOOP:  cpu time      0.0780: real time      0.0785

 eigenvalue-minimisations  :   209
 total energy-change (2. order) :-0.7130390E-05  (-0.1394457E-06)
 number of electron      11.9999903 magnetization       1.9999960
 augmentation part        1.1618006 magnetization       0.4940175

 Free energy of the ion-electron system (eV)
  ---------------------------------------------------
  alpha Z        PSCENC =         1.04085735
  Ewald energy   TEWEN  =        73.99599140
  -Hartree energ DENC   =      -809.67321698
  -exchange      EXHF   =         0.00000000
  -V(xc)+E(xc)   XCENC  =        55.60438224
  PAW double counting   =       908.67605225     -912.29205370
  entropy T*S    EENTRO =        -0.00000000
  eigenvalues    EBANDS =      -191.84306423
  atomic energy  EATOM  =       864.67971496
  Solvation  Ediel_sol  =         0.00000000
  ---------------------------------------------------
  free energy    TOTEN  =        -9.81133670 eV

  energy without entropy =       -9.81133670  energy(sigma->0) =       -9.81133670


--------------------------------------------------------------------------------------------------------




 average (electrostatic) potential at core
  the test charge radii are     0.7215
  (the norm of the test charge is              1.0000)
       1 -83.6734       2 -83.6734
 
 
 
 E-fermi :  -6.3921     XC(G=0):  -0.9990     alpha+bet : -0.2805

 Fermi energy:        -6.3921117585

 spin component 1

 k-point     1 :       0.0000    0.0000    0.0000
  band No.  band energies     occupation 
      1     -33.0424      1.00000
      2     -20.1668      1.00000
      3     -13.3716      1.00000
      4     -13.3711      1.00000
      5     -13.2949      1.00000
      6      -6.4903      1.00000
      7      -6.4892      1.00000
      8      -0.3823      0.00000
      9       1.1375      0.00000
     10       1.5988      0.00000
     11       1.7639      0.00000

 k-point     2 :       0.5000    0.0000    0.0000
  band No.  band energies     occupation 
      1     -33.0427      1.00000
      2     -20.1667      1.00000
      3     -13.3717      1.00000
      4     -13.3716      1.00000
      5     -13.2949      1.00000
      6      -6.4900      1.00000
      7      -6.4898      1.00000
      8       0.1796      0.00000
      9       0.3923      0.00000
     10       1.4744      0.00000
     11       2.1283      0.00000

 k-point     3 :       0.0000    0.5000    0.0000
  band No.  band energies     occupation 
      1     -33.0426      1.00000
      2     -20.1666      1.00000
      3     -13.3719      1.00000
      4     -13.3712      1.00000
      5     -13.2948      1.00000
      6      -6.4899      1.00000
      7      -6.4893      1.00000
      8       0.0805      0.00000
      9       0.3394      0.00000
     10       1.4047      0.00000
     11       2.0387      0.00000

 k-point     4 :       0.5000    0.5000    0.0000
  band No.  band energies     occupation 
      1     -33.0426      1.00000
      2     -20.1667      1.00000
      3     -13.3717      1.00000
      4     -13.3716      1.00000
      5     -13.2948      1.00000
      6      -6.4899      1.00000
      7      -6.4898      1.00000
      8       0.6778      0.00000
      9       0.8055      0.00000
     10       0.8472      0.00000
     11       1.1662      0.00000

 k-point     5 :       0.0000    0.0000    0.5000
  band No.  band energies     occupation 
      1     -33.0425      1.00000
      2     -20.1668      1.00000
      3     -13.3716      1.00000
      4     -13.3712      1.00000
      5     -13.2949      1.00000
      6      -6.4901      1.00000
      7      -6.4898      1.00000
      8      -0.0894      0.00000
      9       0.1903      0.00000
     10       2.0035      0.00000
     11       2.2922      0.00000

 k-point     6 :       0.5000    0.0000    0.5000
  band No.  band energies     occupation 
      1     -33.0427      1.00000
      2     -20.1667      1.00000
      3     -13.3717      1.00000
      4     -13.3715      1.00000
      5     -13.2948      1.00000
      6      -6.4897      1.00000
      7      -6.4896      1.00000
      8       0.4705      0.00000
      9       0.6467      0.00000
     10       0.6899      0.00000
     11       1.1105      0.00000

 k-point     7 :       0.0000    0.5000    0.5000
  band No.  band energies     occupation 
      1     -33.0427      1.00000
      2     -20.1667      1.00000
      3     -13.3718      1.00000
      4     -13.3712      1.00000
      5     -13.2948      1.00000
      6      -6.4900      1.00000
      7      -6.4893      1.00000
      8       0.3634      0.00000
      9       0.5704      0.00000
     10       0.6479      0.00000
     11       1.0379      0.00000

 k-point     8 :       0.5000    0.5000    0.5000
  band No.  band energies     occupation 
      1     -33.0427      1.00000
      2     -20.1666      1.00000
      3     -13.3717      1.00000
      4     -13.3716      1.00000
      5     -13.2947      1.00000
      6      -6.4900      1.00000
      7      -6.4897      1.00000
      8       0.9597      0.00000
      9       0.9895      0.00000
     10       1.0627      0.00000
     11       1.1164      0.00000
 Fermi energy:        -6.3921117585

 spin component 2

 k-point     1 :       0.0000    0.0000    0.0000
  band No.  band energies     occupation 
      1     -31.8419      1.00000
      2     -18.3744      1.00000
      3     -12.3448      1.00000
      4     -11.5276      1.00000
      5     -11.5271      1.00000
      6      -4.2037      0.00000
      7      -4.2025      0.00000
      8      -0.2247      0.00000
      9       1.4313      0.00000
     10       1.6714      0.00000
     11       1.9620      0.00000

 k-point     2 :       0.5000    0.0000    0.0000
  band No.  band energies     occupation 
      1     -31.8422      1.00000
      2     -18.3744      1.00000
      3     -12.3448      1.00000
      4     -11.5278      1.00000
      5     -11.5276      1.00000
      6      -4.2039      0.00000
      7      -4.2034      0.00000
      8       0.3706      0.00000
      9       0.5219      0.00000
     10       1.8302      0.00000
     11       2.2118      0.00000

 k-point     3 :       0.0000    0.5000    0.0000
  band No.  band energies     occupation 
      1     -31.8421      1.00000
      2     -18.3743      1.00000
      3     -12.3447      1.00000
      4     -11.5279      1.00000
      5     -11.5272      1.00000
      6      -4.2039      0.00000
      7      -4.2025      0.00000
      8       0.2750      0.00000
      9       0.4597      0.00000
     10       1.7584      0.00000
     11       2.1250      0.00000

 k-point     4 :       0.5000    0.5000    0.0000
  band No.  band energies     occupation 
      1     -31.8421      1.00000
      2     -18.3744      1.00000
      3     -12.3446      1.00000
      4     -11.5277      1.00000
      5     -11.5277      1.00000
      6      -4.2040      0.00000
      7      -4.2037      0.00000
      8       0.9078      0.00000
      9       0.9797      0.00000
     10       1.0098      0.00000
     11       1.2275      0.00000

 k-point     5 :       0.0000    0.0000    0.5000
  band No.  band energies     occupation 
      1     -31.8419      1.00000
      2     -18.3745      1.00000
      3     -12.3448      1.00000
      4     -11.5276      1.00000
      5     -11.5272      1.00000
      6      -4.2038      0.00000
      7      -4.2031      0.00000
      8       0.0762      0.00000
      9       0.3633      0.00000
     10       2.2150      0.00000
     11       2.4796      0.00000

 k-point     6 :       0.5000    0.0000    0.5000
  band No.  band energies     occupation 
      1     -31.8422      1.00000
      2     -18.3743      1.00000
      3     -12.3446      1.00000
      4     -11.5278      1.00000
      5     -11.5275      1.00000
      6      -4.2039      0.00000
      7      -4.2033      0.00000
      8       0.6726      0.00000
      9       0.8293      0.00000
     10       0.8642      0.00000
     11       1.2295      0.00000

 k-point     7 :       0.0000    0.5000    0.5000
  band No.  band energies     occupation 
      1     -31.8421      1.00000
      2     -18.3744      1.00000
      3     -12.3447      1.00000
      4     -11.5279      1.00000
      5     -11.5272      1.00000
      6      -4.2042      0.00000
      7      -4.2027      0.00000
      8       0.5679      0.00000
      9       0.7773      0.00000
     10       0.7889      0.00000
     11       1.1489      0.00000

 k-point     8 :       0.5000    0.5000    0.5000
  band No.  band energies     occupation 
      1     -31.8422      1.00000
      2     -18.3743      1.00000
      3     -12.3446      1.00000
      4     -11.5277      1.00000
      5     -11.5276      1.00000
      6      -4.2041      0.00000
      7      -4.2040      0.00000
      8       1.2186      0.00000
      9       1.2441      0.00000
     10       1.2457      0.00000
     11       1.2886      0.00000


--------------------------------------------------------------------------------------------------------


 soft charge-density along one line, spin component            1
         0         1         2         3         4         5         6         7         8         9
 total charge-density along one line
 
 soft charge-density along one line, spin component            2
         0         1         2         3         4         5         6         7         8         9
 total charge-density along one line
 
 pseudopotential strength for first ion, spin component:            1
 14.536 -17.872  -0.000  -0.142   0.000   0.000   0.179  -0.000
-17.872  22.009   0.000   0.181  -0.000  -0.000  -0.229   0.000
 -0.000   0.000 -11.378  -0.000  -0.000  14.251   0.000   0.000
 -0.142   0.181  -0.000 -11.395   0.000   0.000  14.262  -0.000
  0.000  -0.000  -0.000   0.000 -11.378   0.000  -0.000  14.251
  0.000  -0.000  14.251   0.000   0.000 -17.809  -0.000  -0.000
  0.179  -0.229   0.000  14.262  -0.000  -0.000 -17.807   0.000
 -0.000   0.000   0.000  -0.000  14.251  -0.000   0.000 -17.809
 pseudopotential strength for first ion, spin component:            2
 14.007 -17.189  -0.000  -0.142   0.000   0.000   0.178  -0.000
-17.189  21.127   0.000   0.180  -0.000  -0.000  -0.228   0.000
 -0.000   0.000 -10.765  -0.000  -0.000  13.391   0.000   0.000
 -0.142   0.180  -0.000 -11.184   0.000   0.000  13.966  -0.000
  0.000  -0.000  -0.000   0.000 -10.765   0.000  -0.000  13.391
  0.000  -0.000  13.391   0.000   0.000 -16.596  -0.000  -0.000
  0.178  -0.228   0.000  13.966  -0.000  -0.000 -17.388   0.000
 -0.000   0.000   0.000  -0.000  13.391  -0.000   0.000 -16.596
 total augmentation occupancy for first ion, spin component:            1
  2.625   0.406   0.000   0.613   0.000   0.000   0.291   0.000
  0.406   0.206   0.000   0.599   0.000   0.000   0.186   0.000
  0.000   0.000   1.731   0.000   0.000   0.102   0.000   0.000
  0.613   0.599   0.000   2.561   0.000   0.000   0.590   0.000
  0.000   0.000   0.000   0.000   1.732   0.000   0.000   0.103
  0.000   0.000   0.102   0.000   0.000   0.035   0.000   0.000
  0.291   0.186   0.000   0.590   0.000   0.000   0.173   0.000
  0.000   0.000   0.000   0.000   0.103   0.000   0.000   0.035
 total augmentation occupancy for first ion, spin component:            2
 -0.106  -0.060   0.000  -0.019   0.000   0.000  -0.016   0.000
 -0.060  -0.010   0.000  -0.011   0.000   0.000  -0.006   0.000
  0.000   0.000   0.325   0.000   0.000  -0.096   0.000   0.000
 -0.019  -0.011   0.000  -0.038   0.000   0.000  -0.019   0.000
  0.000   0.000   0.000   0.000   0.325   0.000   0.000  -0.096
  0.000   0.000  -0.096   0.000   0.000   0.007   0.000   0.000
 -0.016  -0.006   0.000  -0.019   0.000   0.000  -0.006   0.000
  0.000   0.000   0.000   0.000  -0.096   0.000   0.000   0.007


------------------------ aborting loop because EDIFF is reached ----------------------------------------


    CHARGE:  cpu time      0.0623: real time      0.0622
    FORLOC:  cpu time      0.0035: real time      0.0035
    FORNL :  cpu time      0.0365: real time      0.0365
    STRESS:  cpu time      0.1135: real time      0.1134
    FORCOR:  cpu time      0.0144: real time      0.0144
    FORHAR:  cpu time      0.0022: real time      0.0022
    MIXING:  cpu time      0.0308: real time      0.0308
    OFIELD:  cpu time      0.0000: real time      0.0000

  FORCE on cell =-STRESS in cart. coord.  units (eV):
  Direction    XX          YY          ZZ          XY          YZ          ZX
  --------------------------------------------------------------------------------------
  Alpha Z     1.04086     1.04086     1.04086
  Ewald     -93.43756  -116.22312   283.65668     0.00000     0.00000     0.00000
  Hartree   229.89369   208.00122   371.76800    -0.00000    -0.00000    -0.00000
  E(xc)     -59.37443   -59.37415   -58.18418     0.00000    -0.00000     0.00000
  Local    -320.29518  -275.61129  -791.59686    -0.00000    -0.00000     0.00000
  n-local   -43.97298   -43.96073   -48.50071     0.00000    -0.00000     0.00000
  augment    13.16085    13.16444    10.51648    -0.00000     0.00000     0.00000
  Kinetic   272.51126   272.51681   234.22784    -0.00001     0.00001     0.00000
  Fock        0.00000     0.00000     0.00000     0.00000     0.00000     0.00000
  -------------------------------------------------------------------------------------
  Total      -0.47348    -0.44597     2.92809     0.00000     0.00000     0.00000
  in kB      -1.42059    -1.33806     8.78525     0.00000     0.00000     0.00000
  external pressure =        2.01 kB  Pullay stress =        0.00 kB


 VOLUME and BASIS-vectors are now :
 -----------------------------------------------------------------------------
  energy-cutoff  :      450.00
  volume of cell :      534.00
      direct lattice vectors                 reciprocal lattice vectors
     7.500000000  0.000000000  0.000000000     0.133333333  0.000000000  0.000000000
     0.000000000  8.000000000  0.000000000     0.000000000  0.125000000  0.000000000
     0.000000000  0.000000000  8.900000000     0.000000000  0.000000000  0.112359551

  length of vectors
     7.500000000  8.000000000  8.900000000     0.133333333  0.125000000  0.112359551


 FORCES acting on ions
    electron-ion (+dipol)            ewald-force                    non-local-force                 convergence-correction
 -----------------------------------------------------------------------------------------------
   0.164E-16 -.232E-12 0.299E+03   0.199E-15 -.902E-16 -.357E+03   0.132E-21 0.000E+00 0.549E+02   0.227E-14 0.648E-14 0.891E-03
   -.939E-14 -.701E-12 -.299E+03   0.660E-17 -.507E-17 0.357E+03   -.106E-21 0.000E+00 -.549E+02   -.159E-14 -.472E-13 -.891E-03
 -----------------------------------------------------------------------------------------------
   -.938E-14 -.932E-12 0.690E-04   0.206E-15 -.952E-16 0.000E+00   0.265E-22 0.000E+00 0.711E-14   0.686E-15 -.407E-13 0.296E-08
 
 
 POSITION                                       TOTAL-FORCE (eV/Angst)
 -----------------------------------------------------------------------------------
      0.00000      0.00000      0.00000        -0.000000      0.000000     -2.735561
      0.00000      0.00000      1.20000         0.000000      0.000000      2.735561
 -----------------------------------------------------------------------------------
    total drift:                               -0.000000     -0.000000      0.000069


--------------------------------------------------------------------------------------------------------



  FREE ENERGIE OF THE ION-ELECTRON SYSTEM (eV)
  ---------------------------------------------------
  free  energy   TOTEN  =        -9.81133670 eV

  energy  without entropy=       -9.81133670  energy(sigma->0) =       -9.81133670
 


--------------------------------------------------------------------------------------------------------


    POTLOK:  cpu time      0.0295: real time      0.0295


--------------------------------------------------------------------------------------------------------




--------------------------------------------------------------------------------------------------------


    WAVPRE:  cpu time      0.0465: real time      0.0494
    FEWALD:  cpu time      0.0002: real time      0.0002
    ORTHCH:  cpu time      0.0442: real time      0.0442
     LOOP+:  cpu time      2.9746: real time      2.9864


--------------------------------------- Ionic step        2  -------------------------------------------




--------------------------------------- Iteration      2(   1)  ---------------------------------------


    POTLOK:  cpu time      0.0152: real time      0.0152
    SETDIJ:  cpu time      0.0104: real time      0.0104
     EDDAV:  cpu time      0.0703: real time      0.0703
       DOS:  cpu time      0.0002: real time      0.0002
    CHARGE:  cpu time      0.0530: real time      0.0530
    MIXING:  cpu time      0.0171: real time      0.0171
    --------------------------------------------
      LOOP:  cpu time      0.1664: real time      0.1663

 eigenvalue-minimisations  :   424
 total energy-change (2. order) : 0.1330481E+01  (-0.2084294E+02)
 number of electron      11.9999954 magnetization       1.9999955
 augmentation part        1.0013498 magnetization       0.4716219

 Broyden mixing:
  rms(total) = 0.54139E+00    rms(broyden)= 0.53242E+00
  rms(prec ) = 0.58344E+00
  weight for this iteration     100.00

 Free energy of the ion-electron system (eV)
  ---------------------------------------------------
  alpha Z        PSCENC =         1.04085735
  Ewald energy   TEWEN  =        -2.94282970
  -Hartree energ DENC   =      -750.25041865
  -exchange      EXHF   =         0.00000000
  -V(xc)+E(xc)   XCENC  =        54.68836049
  PAW double counting   =       908.67352955     -912.28945831
  entropy T*S    EENTRO =        -0.00000000
  eigenvalues    EBANDS =      -172.08060460
  atomic energy  EATOM  =       864.67971496
  Solvation  Ediel_sol  =         0.00000000
  ---------------------------------------------------
  free energy    TOTEN  =        -8.48084892 eV

  energy without entropy =       -8.48084892  energy(sigma->0) =       -8.48084892


--------------------------------------------------------------------------------------------------------




--------------------------------------- Iteration      2(   2)  ---------------------------------------


    POTLOK:  cpu time      0.0154: real time      0.0158
    SETDIJ:  cpu time      0.0103: real time      0.0103
    EDDIAG:  cpu time      0.0079: real time      0.0079
  RMM-DIIS:  cpu time      0.0638: real time      0.0637
    ORTHCH:  cpu time      0.0017: real time      0.0017
       DOS:  cpu time      0.0002: real time      0.0002
    CHARGE:  cpu time      0.0520: real time      0.0520
    MIXING:  cpu time      0.0181: real time      0.0181
    --------------------------------------------
      LOOP:  cpu time      0.1694: real time      0.1697

 eigenvalue-minimisations  :   352
 total energy-change (2. order) :-0.6555438E-01  (-0.2687385E+00)
 number of electron      11.9999950 magnetization       1.9999953
 augmentation part        1.0245224 magnetization       0.4860197

 Broyden mixing:
  rms(total) = 0.21119E+00    rms(broyden)= 0.20961E+00
  rms(prec ) = 0.22611E+00
  weight for this iteration     100.00

 eigenvalues of (default mixing * dielectric matrix)
  average eigenvalue GAMMA=   0.7627
  0.7627

 Free energy of the ion-electron system (eV)
  ---------------------------------------------------
  alpha Z        PSCENC =         1.04085735
  Ewald energy   TEWEN  =        -2.94282970
  -Hartree energ DENC   =      -742.32531085
  -exchange      EXHF   =         0.00000000
  -V(xc)+E(xc)   XCENC  =        54.24511744
  PAW double counting   =       847.85513160     -851.31002563
  entropy T*S    EENTRO =        -0.00000000
  eigenvalues    EBANDS =      -179.78905847
  atomic energy  EATOM  =       864.67971496
  Solvation  Ediel_sol  =         0.00000000
  ---------------------------------------------------
  free energy    TOTEN  =        -8.54640330 eV

  energy without entropy =       -8.54640330  energy(sigma->0) =       -8.54640330


--------------------------------------------------------------------------------------------------------




--------------------------------------- Iteration      2(   3)  ---------------------------------------


    POTLOK:  cpu time      0.0151: real time      0.0154
    SETDIJ:  cpu time      0.0107: real time      0.0107
    EDDIAG:  cpu time      0.0080: real time      0.0080
  RMM-DIIS:  cpu time      0.0641: real time      0.0642
    ORTHCH:  cpu time      0.0017: real time      0.0017
       DOS:  cpu time      0.0002: real time      0.0002
    CHARGE:  cpu time      0.0520: real time      0.0520
    MIXING:  cpu time      0.0182: real time      0.0182
    --------------------------------------------
      LOOP:  cpu time      0.1699: real time      0.1703

 eigenvalue-minimisations  :   352
[...]


--------------------------------------- Ionic step        5  -------------------------------------------




--------------------------------------- Iteration      5(   1)  ---------------------------------------


    POTLOK:  cpu time      0.0167: real time      0.0167
    SETDIJ:  cpu time      0.0102: real time      0.0102
     EDDAV:  cpu time      0.0671: real time      0.0671
       DOS:  cpu time      0.0002: real time      0.0002
    CHARGE:  cpu time      0.0524: real time      0.0524
    MIXING:  cpu time      0.0173: real time      0.0173
    --------------------------------------------
      LOOP:  cpu time      0.1639: real time      0.1639

 eigenvalue-minimisations  :   390
 total energy-change (2. order) :-0.1331203E-04  (-0.7102072E-04)
 number of electron      11.9999919 magnetization       1.9999958
 augmentation part        1.1397104 magnetization       0.4946505

 Broyden mixing:
  rms(total) = 0.11480E-02    rms(broyden)= 0.11316E-02
  rms(prec ) = 0.12540E-02
  weight for this iteration     100.00

 Free energy of the ion-electron system (eV)
  ---------------------------------------------------
  alpha Z        PSCENC =         1.04085735
  Ewald energy   TEWEN  =        62.39013857
  -Hartree energ DENC   =      -799.60776590
  -exchange      EXHF   =         0.00000000
  -V(xc)+E(xc)   XCENC  =        55.34706122
  PAW double counting   =       881.77034035     -885.33143071
  entropy T*S    EENTRO =        -0.00000000
  eigenvalues    EBANDS =      -190.14413681
  atomic energy  EATOM  =       864.67971496
  Solvation  Ediel_sol  =         0.00000000
  ---------------------------------------------------
  free energy    TOTEN  =        -9.85522098 eV

  energy without entropy =       -9.85522098  energy(sigma->0) =       -9.85522098


--------------------------------------------------------------------------------------------------------




--------------------------------------- Iteration      5(   2)  ---------------------------------------


    POTLOK:  cpu time      0.0159: real time      0.0164
    SETDIJ:  cpu time      0.0109: real time      0.0109
    EDDIAG:  cpu time      0.0088: real time      0.0088
  RMM-DIIS:  cpu time      0.0493: real time      0.0493
    ORTHCH:  cpu time      0.0018: real time      0.0018
       DOS:  cpu time      0.0002: real time      0.0002
    --------------------------------------------
      LOOP:  cpu time      0.0869: real time      0.0874

 eigenvalue-minimisations  :   240
 total energy-change (2. order) : 0.6886800E-06  (-0.9400466E-06)
 number of electron      11.9999919 magnetization       1.9999958
 augmentation part        1.1397104 magnetization       0.4946505

 Free energy of the ion-electron system (eV)
  ---------------------------------------------------
  alpha Z        PSCENC =         1.04085735
  Ewald energy   TEWEN  =        62.39013857
  -Hartree energ DENC   =      -799.62515076
  -exchange      EXHF   =         0.00000000
  -V(xc)+E(xc)   XCENC  =        55.34817170
  PAW double counting   =       881.94608680     -885.50755955
  entropy T*S    EENTRO =        -0.00000000
  eigenvalues    EBANDS =      -190.12747935
  atomic energy  EATOM  =       864.67971496
  Solvation  Ediel_sol  =         0.00000000
  ---------------------------------------------------
  free energy    TOTEN  =        -9.85522029 eV

  energy without entropy =       -9.85522029  energy(sigma->0) =       -9.85522029


--------------------------------------------------------------------------------------------------------




 average (electrostatic) potential at core
  the test charge radii are     0.7215
  (the norm of the test charge is              1.0000)
       1 -83.6318       2 -83.6318
 
 
 
 E-fermi :  -6.6871     XC(G=0):  -1.0028     alpha+bet : -0.2805

 Fermi energy:        -6.6870575816

 spin component 1

 k-point     1 :       0.0000    0.0000    0.0000
  band No.  band energies     occupation 
      1     -32.3261      1.00000
      2     -20.4448      1.00000
      3     -13.2153      1.00000
      4     -13.0719      1.00000
      5     -13.0713      1.00000
      6      -6.7555      1.00000
      7      -6.7545      1.00000
      8      -0.3862      0.00000
      9       1.0197      0.00000
     10       1.5863      0.00000
     11       2.0645      0.00000

 k-point     2 :       0.5000    0.0000    0.0000
  band No.  band energies     occupation 
      1     -32.3263      1.00000
      2     -20.4447      1.00000
      3     -13.2153      1.00000
      4     -13.0720      1.00000
      5     -13.0718      1.00000
      6      -6.7552      1.00000
      7      -6.7549      1.00000
      8       0.1717      0.00000
      9       0.3995      0.00000
     10       1.2838      0.00000
     11       2.1013      0.00000

 k-point     3 :       0.0000    0.5000    0.0000
  band No.  band energies     occupation 
      1     -32.3263      1.00000
      2     -20.4446      1.00000
      3     -13.2152      1.00000
      4     -13.0722      1.00000
      5     -13.0714      1.00000
      6      -6.7551      1.00000
      7      -6.7545      1.00000
      8       0.0670      0.00000
      9       0.3544      0.00000
     10       1.2253      0.00000
     11       2.0113      0.00000

 k-point     4 :       0.5000    0.5000    0.0000
  band No.  band energies     occupation 
      1     -32.3263      1.00000
      2     -20.4447      1.00000
      3     -13.2152      1.00000
      4     -13.0719      1.00000
      5     -13.0718      1.00000
      6      -6.7552      1.00000
      7      -6.7551      1.00000
      8       0.6648      0.00000
      9       0.7997      0.00000
     10       0.8526      0.00000
     11       1.1958      0.00000

 k-point     5 :       0.0000    0.0000    0.5000
  band No.  band energies     occupation 
      1     -32.3261      1.00000
      2     -20.4448      1.00000
      3     -13.2153      1.00000
      4     -13.0718      1.00000
      5     -13.0714      1.00000
      6      -6.7553      1.00000
      7      -6.7550      1.00000
      8      -0.0913      0.00000
      9       0.1459      0.00000
     10       2.0185      0.00000
     11       2.1330      0.00000

 k-point     6 :       0.5000    0.0000    0.5000
  band No.  band energies     occupation 
      1     -32.3263      1.00000
      2     -20.4447      1.00000
      3     -13.2152      1.00000
      4     -13.0720      1.00000
      5     -13.0717      1.00000
      6      -6.7550      1.00000
      7      -6.7548      1.00000
      8       0.4688      0.00000
      9       0.5589      0.00000
     10       0.6955      0.00000
     11       1.1206      0.00000

 k-point     7 :       0.0000    0.5000    0.5000
  band No.  band energies     occupation 
      1     -32.3263      1.00000
      2     -20.4447      1.00000
      3     -13.2152      1.00000
      4     -13.0721      1.00000
      5     -13.0715      1.00000
      6      -6.7552      1.00000
      7      -6.7546      1.00000
      8       0.3574      0.00000
      9       0.4824      0.00000
     10       0.6590      0.00000
     11       2.6602      0.00000

 k-point     8 :       0.5000    0.5000    0.5000
  band No.  band energies     occupation 
      1     -32.3263      1.00000
      2     -20.4446      1.00000
      3     -13.2151      1.00000
      4     -13.0719      1.00000
      5     -13.0718      1.00000
      6      -6.7552      1.00000
      7      -6.7549      1.00000
      8       0.8252      0.00000
      9       0.9879      0.00000
     10       1.0642      0.00000
     11       1.1259      0.00000
 Fermi energy:        -6.6870575816

 spin component 2

 k-point     1 :       0.0000    0.0000    0.0000
  band No.  band energies     occupation 
      1     -31.1006      1.00000
      2     -18.6486      1.00000
      3     -12.2882      1.00000
      4     -11.2252      1.00000
      5     -11.2246      1.00000
      6      -4.4754      0.00000
      7      -4.4742      0.00000
      8      -0.2363      0.00000
      9       1.3543      0.00000
     10       1.6751      0.00000
     11       2.1780      0.00000

 k-point     2 :       0.5000    0.0000    0.0000
  band No.  band energies     occupation 
      1     -31.1009      1.00000
      2     -18.6485      1.00000
      3     -12.2882      1.00000
      4     -11.2254      1.00000
      5     -11.2251      1.00000
      6      -4.4755      0.00000
      7      -4.4751      0.00000
      8       0.3554      0.00000
      9       0.5218      0.00000
     10       1.7059      0.00000
     11       2.2039      0.00000

 k-point     3 :       0.0000    0.5000    0.0000
  band No.  band energies     occupation 
      1     -31.1008      1.00000
      2     -18.6485      1.00000
      3     -12.2881      1.00000
      4     -11.2255      1.00000
      5     -11.2247      1.00000
      6      -4.4755      0.00000
      7      -4.4743      0.00000
      8       0.2517      0.00000
      9       0.4695      0.00000
     10       1.6353      0.00000
     11       2.1151      0.00000

 k-point     4 :       0.5000    0.5000    0.0000
  band No.  band energies     occupation 
      1     -31.1008      1.00000
      2     -18.6486      1.00000
      3     -12.2881      1.00000
      4     -11.2253      1.00000
      5     -11.2252      1.00000
      6      -4.4756      0.00000
      7      -4.4753      0.00000
      8       0.8908      0.00000
      9       0.9600      0.00000
     10       1.0055      0.00000
     11       1.2551      0.00000

 k-point     5 :       0.0000    0.0000    0.5000
  band No.  band energies     occupation 
      1     -31.1007      1.00000
      2     -18.6486      1.00000
      3     -12.2882      1.00000
      4     -11.2251      1.00000
      5     -11.2247      1.00000
      6      -4.4754      0.00000
      7      -4.4748      0.00000
      8       0.0556      0.00000
      9       0.3460      0.00000
     10       2.2130      0.00000
     11       2.4806      0.00000

 k-point     6 :       0.5000    0.0000    0.5000
  band No.  band energies     occupation 
      1     -31.1009      1.00000
      2     -18.6485      1.00000
      3     -12.2881      1.00000
      4     -11.2254      1.00000
      5     -11.2250      1.00000
      6      -4.4755      0.00000
      7      -4.4750      0.00000
      8       0.6530      0.00000
      9       0.8161      0.00000
     10       0.8170      0.00000
     11       1.2516      0.00000

 k-point     7 :       0.0000    0.5000    0.5000
  band No.  band energies     occupation 
      1     -31.1008      1.00000
      2     -18.6485      1.00000
      3     -12.2881      1.00000
      4     -11.2254      1.00000
      5     -11.2247      1.00000
      6      -4.4758      0.00000
      7      -4.4744      0.00000
      8       0.5408      0.00000
      9       0.7367      0.00000
     10       0.7737      0.00000
     11       1.1821      0.00000

 k-point     8 :       0.5000    0.5000    0.5000
  band No.  band energies     occupation 
      1     -31.1009      1.00000
      2     -18.6485      1.00000
      3     -12.2880      1.00000
      4     -11.2253      1.00000
      5     -11.2252      1.00000
      6      -4.4756      0.00000
      7      -4.4756      0.00000
      8       1.1385      0.00000
      9       1.2230      0.00000
     10       1.2267      0.00000
     11       1.2794      0.00000


--------------------------------------------------------------------------------------------------------


 soft charge-density along one line, spin component            1
         0         1         2         3         4         5         6         7         8         9
 total charge-density along one line
 
 soft charge-density along one line, spin component            2
         0         1         2         3         4         5         6         7         8         9
 total charge-density along one line
 
 pseudopotential strength for first ion, spin component:            1
 14.530 -17.865   0.000  -0.129   0.000  -0.000   0.162  -0.000
-17.865  22.000  -0.000   0.164  -0.000   0.000  -0.207   0.000
  0.000  -0.000 -11.380   0.000  -0.000  14.255  -0.000   0.000
 -0.129   0.164   0.000 -11.382   0.000  -0.000  14.245  -0.000
  0.000  -0.000  -0.000   0.000 -11.380   0.000  -0.000  14.255
 -0.000   0.000  14.255  -0.000   0.000 -17.816   0.000  -0.000
  0.162  -0.207  -0.000  14.245  -0.000   0.000 -17.786   0.000
 -0.000   0.000   0.000  -0.000  14.255  -0.000   0.000 -17.816
 pseudopotential strength for first ion, spin component:            2
 14.000 -17.181   0.000  -0.128   0.000  -0.000   0.161  -0.000
-17.181  21.117  -0.000   0.163  -0.000   0.000  -0.205   0.000
  0.000  -0.000 -10.767  -0.000  -0.000  13.396   0.000   0.000
 -0.128   0.163  -0.000 -11.169   0.000   0.000  13.947  -0.000
  0.000  -0.000  -0.000   0.000 -10.767   0.000  -0.000  13.396
 -0.000   0.000  13.396   0.000   0.000 -16.604  -0.000  -0.000
  0.161  -0.205   0.000  13.947  -0.000  -0.000 -17.366   0.000
 -0.000   0.000   0.000  -0.000  13.396  -0.000   0.000 -16.604
 total augmentation occupancy for first ion, spin component:            1
  2.537   0.352   0.000   0.527   0.000   0.000   0.252   0.000
  0.352   0.181   0.000   0.545   0.000   0.000   0.165   0.000
  0.000   0.000   1.704   0.000   0.000   0.091   0.000   0.000
  0.527   0.545   0.000   2.423   0.000   0.000   0.541   0.000
  0.000   0.000   0.000   0.000   1.704   0.000   0.000   0.091
  0.000   0.000   0.091   0.000   0.000   0.030   0.000   0.000
  0.252   0.165   0.000   0.541   0.000   0.000   0.154   0.000
  0.000   0.000   0.000   0.000   0.091   0.000   0.000   0.030
 total augmentation occupancy for first ion, spin component:            2
 -0.103  -0.058   0.000  -0.016   0.000   0.000  -0.015   0.000
 -0.058  -0.009   0.000  -0.010   0.000   0.000  -0.006   0.000
  0.000   0.000   0.341   0.000   0.000  -0.092   0.000   0.000
 -0.016  -0.010   0.000  -0.037   0.000   0.000  -0.019   0.000
  0.000   0.000   0.000   0.000   0.341   0.000   0.000  -0.092
  0.000   0.000  -0.092   0.000   0.000   0.006   0.000   0.000
 -0.015  -0.006   0.000  -0.019   0.000   0.000  -0.006   0.000
  0.000   0.000   0.000   0.000  -0.092   0.000   0.000   0.006


------------------------ aborting loop because EDIFF is reached ----------------------------------------


    CHARGE:  cpu time      0.0622: real time      0.0622
    FORLOC:  cpu time      0.0033: real time      0.0033
    FORNL :  cpu time      0.0390: real time      0.0390
    STRESS:  cpu time      0.1241: real time      0.1241
    FORCOR:  cpu time      0.0156: real time      0.0156
    FORHAR:  cpu time      0.0025: real time      0.0025
    MIXING:  cpu time      0.0190: real time      0.0190
    OFIELD:  cpu time      0.0000: real time      0.0000

  FORCE on cell =-STRESS in cart. coord.  units (eV):
  Direction    XX          YY          ZZ          XY          YZ          ZX
  --------------------------------------------------------------------------------------
  Alpha Z     1.04086     1.04086     1.04086
  Ewald     -93.58221  -116.33217   272.30453    -0.00000    -0.00000    -0.00000
  Hartree   226.26946   204.41185   368.96825    -0.00000    -0.00000    -0.00000
  E(xc)     -59.11502   -59.11474   -57.95615     0.00000    -0.00000     0.00000
  Local    -315.88387  -271.27053  -780.23109    -0.00000     0.00000     0.00000
  n-local   -43.79636   -43.79404   -47.37846     0.00000    -0.00000    -0.00000
  augment    13.00055    13.00409    10.42642     0.00000    -0.00000    -0.00000
  Kinetic   271.61311   271.61855   232.49971    -0.00000     0.00000    -0.00000
  Fock        0.00000     0.00000     0.00000     0.00000     0.00000     0.00000
  -------------------------------------------------------------------------------------
  Total      -0.45349    -0.43614    -0.32592     0.00000     0.00000     0.00000
  in kB      -1.36061    -1.30856    -0.97787     0.00000     0.00000     0.00000
  external pressure =       -1.22 kB  Pullay stress =        0.00 kB


 VOLUME and BASIS-vectors are now :
 -----------------------------------------------------------------------------
  energy-cutoff  :      450.00
  volume of cell :      534.00
      direct lattice vectors                 reciprocal lattice vectors
     7.500000000  0.000000000  0.000000000     0.133333333  0.000000000  0.000000000
     0.000000000  8.000000000  0.000000000     0.000000000  0.125000000  0.000000000
     0.000000000  0.000000000  8.900000000     0.000000000  0.000000000  0.112359551

  length of vectors
     7.500000000  8.000000000  8.900000000     0.133333333  0.125000000  0.112359551


 FORCES acting on ions
    electron-ion (+dipol)            ewald-force                    non-local-force                 convergence-correction
 -----------------------------------------------------------------------------------------------
   -.489E-15 -.355E-12 0.286E+03   0.186E-15 0.592E-16 -.337E+03   0.129E-25 0.000E+00 0.519E+02   0.603E-14 0.260E-13 -.970E-03
   0.479E-15 0.371E-13 -.286E+03   0.196E-16 -.154E-15 0.337E+03   -.775E-25 0.000E+00 -.519E+02   0.541E-13 -.262E-14 0.970E-03
 -----------------------------------------------------------------------------------------------
   -.109E-16 -.318E-12 -.190E-04   0.206E-15 -.952E-16 0.000E+00   -.646E-25 0.000E+00 -.711E-14   0.601E-13 0.234E-13 0.932E-07
 
 
 POSITION                                       TOTAL-FORCE (eV/Angst)
 -----------------------------------------------------------------------------------
     -0.00000      0.00000     -0.01672        -0.000000      0.000000      0.002366
      0.00000      0.00000      1.21672         0.000000      0.000000     -0.002366
 -----------------------------------------------------------------------------------
    total drift:                                0.000000     -0.000000     -0.000019


--------------------------------------------------------------------------------------------------------



  FREE ENERGIE OF THE ION-ELECTRON SYSTEM (eV)
  ---------------------------------------------------
  free  energy   TOTEN  =        -9.85522029 eV

  energy  without entropy=       -9.85522029  energy(sigma->0) =       -9.85522029
 
 d Force = 0.8820190E-05[ 0.113E-05, 0.165E-04]  d Energy = 0.9176702E-05-0.357E-06
 d Force =-0.1614855E+00[-0.162E+00,-0.161E+00]  d Ewald  =-0.1614855E+00-0.123E-07


--------------------------------------------------------------------------------------------------------


    POTLOK:  cpu time      0.0312: real time      0.0312


--------------------------------------------------------------------------------------------------------




--------------------------------------------------------------------------------------------------------


  
 reached required accuracy - stopping structural energy minimisation
     LOOP+:  cpu time      0.5758: real time      0.5864
    4ORBIT:  cpu time      0.0000: real time      0.0000

 total amount of memory used by VASP MPI-rank0   139033. kBytes
=======================================================================

   base      :      30000. kBytes
   nonlr-proj:        200. kBytes
   fftplans  :      22416. kBytes
   grid      :      53706. kBytes
   one-center:         12. kBytes
   wavefun   :      32699. kBytes
 
  
  
 General timing and accounting informations for this job:
 ========================================================
  
                  Total CPU time used (sec):       15.141
                            User time (sec):       13.790
                          System time (sec):        1.351
                         Elapsed time (sec):       16.632
  
                   Maximum memory used (kb):     3695040.
                   Average memory used (kb):          N/A
  
                          Minor page faults:        70798
                          Major page faults:            3
                 Voluntary context switches:         3602
