<?xml version="1.0" encoding="ISO-8859-1"?>
<modeling>
 <generator>
  <i name="program" type="string">vasp </i>
  <i name="version" type="string">6.4.2  </i>
  <i name="subversion" type="string">20Jul23 (build Nov 12 2023 22:16:35) complex                          parallel </i>
  <i name="platform" type="string">LinuxNV </i>
  <i name="date" type="string">2025 03 09 </i>
  <i name="time" type="string">14:17:20 </i>
 </generator>
 <incar>
  <i type="int" name="ISTART">     0</i>
  <i type="string" name="PREC">Normal</i>
  <i type="string" name="ALGO">Fast</i>
  <i type="int" name="ISPIN">     2</i>
  <i type="int" name="ICHARG">     2</i>
  <i type="int" name="IBRION">     2</i>
  <i name="EDIFF">      0.00001000</i>
  <i name="EDIFFG">     -0.00500000</i>
  <i type="int" name="NSW">   300</i>
  <i type="int" name="ISIF">     2</i>
  <i name="ENCUT">    450.00000000</i>
  <i type="string" name="LREAL">Auto</i>
  <i type="logical" name="LPLANE"> T  </i>
  <i type="int" name="ISMEAR">     0</i>
  <i name="SIGMA">      0.01000000</i>
  <i type="logical" name="LWAVE"> F  </i>
  <i type="logical" name="LCHARG"> F  </i>
 </incar>
 <primitive_cell>
  <structure name="primitive_cell" >
   <crystal>
    <varray name="basis" >
     <v>       7.50000000       0.00000000       0.00000000 </v>
     <v>       0.00000000       8.00000000       0.00000000 </v>
     <v>       0.00000000       0.00000000       8.90000000 </v>
    </varray>
    <i name="volume">    534.00000000 </i>
    <varray name="rec_basis" >
     <v>       0.13333333       0.00000000       0.00000000 </v>
     <v>       0.00000000       0.12500000       0.00000000 </v>
     <v>       0.00000000       0.00000000       0.11235955 </v>
    </varray>
   </crystal>
   <varray name="positions" >
    <v>       0.00000000       0.00000000       0.00000000 </v>
    <v>       0.00000000       0.00000000       0.13483146 </v>
   </varray>
  </structure>
  <varray name="primitive_index" >
   <v type="int" >        1 </v>
   <v type="int" >        2 </v>
  </varray>
 </primitive_cell>
 <kpoints>
  <generation param="Gamma">
   <v type="int" name="divisions">       2        2        2 </v>
   <v name="usershift">      0.00000000       0.00000000       0.00000000 </v>
   <v name="genvec1">      0.50000000       0.00000000       0.00000000 </v>
   <v name="genvec2">      0.00000000       0.50000000       0.00000000 </v>
   <v name="genvec3">      0.00000000       0.00000000       0.50000000 </v>
   <v name="shift">      0.00000000       0.00000000       0.00000000 </v>
  </generation>
  <varray name="kpointlist" >
   <v>       0.00000000       0.00000000       0.00000000 </v>
   <v>       0.50000000       0.00000000       0.00000000 </v>
   <v>       0.00000000       0.50000000       0.00000000 </v>
   <v>       0.50000000       0.50000000       0.00000000 </v>
   <v>       0.00000000       0.00000000       0.50000000 </v>
   <v>       0.50000000       0.00000000       0.50000000 </v>
   <v>       0.00000000       0.50000000       0.50000000 </v>
   <v>       0.50000000       0.50000000       0.50000000 </v>
  </varray>
  <varray name="weights" >
   <v>       0.12500000 </v>
   <v>       0.12500000 </v>
   <v>       0.12500000 </v>
   <v>       0.12500000 </v>
   <v>       0.12500000 </v>
   <v>       0.12500000 </v>
   <v>       0.12500000 </v>
   <v>       0.12500000 </v>
  </varray>
 </kpoints>
 <parameters>
  <separator name="general" >
   <i type="string" name="SYSTEM">unknown system</i>
   <i type="logical" name="LCOMPAT"> F  </i>
  </separator>
  <separator name="electronic" >
   <i type="string" name="PREC">normal</i>
   <i name="ENMAX">    450.00000000</i>
   <i name="ENAUG">    605.39200000</i>
   <i name="EDIFF">      0.00001000</i>
   <i type="int" name="IALGO">    68</i>
   <i type="int" name="IWAVPR">    11</i>
   <i type="int" name="NBANDS">    11</i>
   <i type="int" name="NBANDSLOW">    -1</i>
   <i type="int" name="NBANDSHIGH">    -1</i>
   <i name="NELECT">     12.00000000</i>
   <i type="int" name="TURBO">     0</i>
   <i type="int" name="IRESTART">     0</i>
   <i type="int" name="NREBOOT">     0</i>
   <i type="int" name="NMIN">     0</i>
   <i name="EREF">      0.00000000</i>
   <separator name="electronic smearing" >
    <i type="int" name="ISMEAR">     0</i>
    <i name="SIGMA">      0.01000000</i>
    <i name="KSPACING">      0.50000000</i>
    <i type="logical" name="KGAMMA"> T  </i>
    <i type="logical" name="KBLOWUP"> T  </i>
   </separator>
   <separator name="electronic projectors" >
    <i type="logical" name="LREAL"> T  </i>
    <v name="ROPT">     -0.00050000</v>
    <i type="int" name="LMAXPAW">  -100</i>
    <i type="int" name="LMAXMIX">     2</i>
    <i type="logical" name="NLSPLINE"> F  </i>
   </separator>
   <separator name="electronic startup" >
    <i type="int" name="ISTART">     0</i>
    <i type="int" name="ICHARG">     2</i>
    <i type="int" name="INIWAV">     1</i>
   </separator>
   <separator name="electronic spin" >
    <i type="int" name="ISPIN">     2</i>
    <i type="logical" name="LNONCOLLINEAR"> F  </i>
    <v name="MAGMOM">      1.00000000      1.00000000</v>
    <i name="NUPDOWN">     -1.00000000</i>
    <i type="logical" name="LSORBIT"> F  </i>
    <v name="SAXIS">      0.00000000      0.00000000      1.00000000</v>
    <i type="logical" name="LSPIRAL"> F  </i>
    <v name="QSPIRAL">      0.00000000      0.00000000      0.00000000</v>
    <i type="logical" name="LZEROZ"> F  </i>
   </separator>
   <separator name="electronic exchange-correlation" >
    <i type="logical" name="LASPH"> F  </i>
    <i type="logical" name="LMETAGGA"> F  </i>
   </separator>
   <separator name="electronic convergence" >
    <i type="int" name="NELM">    60</i>
    <i type="int" name="NELMDL">    -5</i>
    <i type="int" name="NELMIN">     2</i>
    <i name="ENINI">    450.00000000</i>
    <separator name="electronic convergence detail" >
     <i type="logical" name="LDIAG"> T  </i>
     <i type="logical" name="LSUBROT"> F  </i>
     <i name="WEIMIN">      0.00100000</i>
     <i name="EBREAK">      0.00000023</i>
     <i name="DEPER">      0.30000000</i>
     <i type="int" name="NRMM">     4</i>
     <i name="TIME">      0.40000000</i>
    </separator>
   </separator>
   <separator name="electronic mixer" >
    <i name="AMIX">      0.40000000</i>
    <i name="BMIX">      1.00000000</i>
    <i name="AMIN">      0.10000000</i>
    <i name="AMIX_MAG">      1.60000000</i>
    <i name="BMIX_MAG">      1.00000000</i>
    <separator name="electronic mixer details" >
     <i type="int" name="IMIX">     4</i>
     <i type="logical" name="MIXFIRST"> F  </i>
     <i type="int" name="MAXMIX">   -45</i>
     <i name="WC">    100.00000000</i>
     <i type="int" name="INIMIX">     1</i>
     <i type="int" name="MIXPRE">     1</i>
     <i type="int" name="MREMOVE">     5</i>
    </separator>
   </separator>
   <separator name="electronic dipolcorrection" >
    <i type="logical" name="LDIPOL"> F  </i>
    <i type="logical" name="LMONO"> F  </i>
    <i type="int" name="IDIPOL">     0</i>
    <i name="EPSILON">      1.00000000</i>
    <v name="DIPOL">   -100.00000000   -100.00000000   -100.00000000</v>
    <i name="EFIELD">      0.00000000</i>
   </separator>
  </separator>
  <separator name="grids" >
   <i type="int" name="NGX">    40</i>
   <i type="int" name="NGY">    42</i>
   <i type="int" name="NGZ">    48</i>
   <i type="int" name="NGXF">    80</i>
   <i type="int" name="NGYF">    84</i>
   <i type="int" name="NGZF">    96</i>
   <i type="logical" name="ADDGRID"> F  </i>
  </separator>
  <separator name="ionic" >
   <i type="int" name="NSW">   300</i>
   <i type="int" name="IBRION">     2</i>
   <i type="int" name="MDALGO">     0</i>
   <i type="int" name="ISIF">     2</i>
   <i name="PSTRESS">      0.00000000</i>
   <i name="EDIFFG">     -0.00500000</i>
   <i type="int" name="NFREE">     1</i>
   <i name="POTIM">      0.50000000</i>
   <i name="SMASS">     -3.00000000</i>
   <i name="SCALEE">      1.00000000</i>
  </separator>
  <separator name="ionic md" >
   <i name="TEBEG">      0.00010000</i>
   <i name="TEEND">      0.00010000</i>
   <i type="int" name="NBLOCK">     1</i>
   <i type="int" name="KBLOCK">   300</i>
   <i type="int" name="NPACO">   256</i>
   <i name="APACO">     10.00000000</i>
  </separator>
  <separator name="symmetry" >
   <i type="int" name="ISYM">     2</i>
   <i name="SYMPREC">      0.00001000</i>
  </separator>
  <separator name="dos" >
   <i type="int" name="LORBIT">     0</i>
   <v name="RWIGS">     -1.00000000</v>
   <i type="int" name="NEDOS">   301</i>
   <i name="EMIN">     10.00000000</i>
   <i name="EMAX">    -10.00000000</i>
   <i name="EFERMI">      0.00000000</i>
  </separator>
  <separator name="writing" >
   <i type="int" name="NWRITE">     2</i>
   <i type="logical" name="LWAVE"> F  </i>
   <i type="logical" name="LDOWNSAMPLE"> F  </i>
   <i type="logical" name="LCHARG"> F  </i>
   <i type="logical" name="LPARD"> F  </i>
   <i type="logical" name="LVTOT"> F  </i>
   <i type="logical" name="LVHAR"> F  </i>
   <i type="logical" name="LELF"> F  </i>
   <i type="logical" name="LOPTICS"> F  </i>
   <v name="STM">      0.00000000      0.00000000      0.00000000      0.00000000      0.00000000      0.00000000      0.00000000</v>
  </separator>
  <separator name="performance" >
   <i type="int" name="NPAR">     1</i>
   <i type="int" name="NSIM">     4</i>
   <i type="int" name="NBLK">    -1</i>
   <i type="logical" name="LPLANE"> T  </i>
   <i type="logical" name="LSCALAPACK"> T  </i>
   <i type="logical" name="LSCAAWARE"> F  </i>
   <i type="logical" name="LSCALU"> F  </i>
   <i type="logical" name="LASYNC"> F  </i>
   <i type="logical" name="LORBITALREAL"> F  </i>
  </separator>
  <separator name="miscellaneous" >
   <i type="int" name="IDIOT">     3</i>
   <i type="int" name="PHON_NSTRUCT">    -1</i>
   <i type="logical" name="LMUSIC"> F  </i>
   <v name="POMASS">     16.00000000</v>
   <v name="DARWINR">      0.00000000</v>
   <v name="DARWINV">      1.00000000</v>
   <i type="logical" name="LCORR"> T  </i>
  </separator>
  <i type="logical" name="GGA_COMPAT"> T  </i>
  <i type="logical" name="LBERRY"> F  </i>
  <i type="int" name="ICORELEVEL">     0</i>
  <i type="logical" name="LDAU"> F  </i>
  <i type="int" name="I_CONSTRAINED_M">     0</i>
  <separator name="electronic exchange-correlation" >
   <i type="string" name="GGA">--</i>
   <i type="int" name="VOSKOWN">     0</i>
   <i type="logical" name="LHFCALC"> F  </i>
   <i type="string" name="PRECFOCK"></i>
   <i type="logical" name="LSYMGRAD"> F  </i>
   <i type="logical" name="LHFONE"> F  </i>
   <i type="logical" name="LRHFCALC"> F  </i>
   <i type="logical" name="LTHOMAS"> F  </i>
   <i type="logical" name="LMODELHF"> F  </i>
   <i type="logical" name="LFOCKACE"> F  </i>
   <i name="ENCUT4O">     -1.00000000</i>
   <i type="int" name="EXXOEP">     0</i>
   <i type="int" name="FOURORBIT">     0</i>
   <i name="AEXX">      0.00000000</i>
   <i name="HFALPHA">      0.00000000</i>
   <i name="MCALPHA">      0.00000000</i>
   <i name="ALDAX">      1.00000000</i>
   <i name="AGGAX">      1.00000000</i>
   <i name="ALDAC">      1.00000000</i>
   <i name="AGGAC">      1.00000000</i>
   <i type="int" name="NKREDX">     1</i>
   <i type="int" name="NKREDY">     1</i>
   <i type="int" name="NKREDZ">     1</i>
   <i type="logical" name="SHIFTRED"> F  </i>
   <i type="logical" name="ODDONLY"> F  </i>
   <i type="logical" name="EVENONLY"> F  </i>
   <i type="int" name="LMAXFOCK">     0</i>
   <i type="int" name="NMAXFOCKAE">     0</i>
   <i type="logical" name="LFOCKAEDFT"> F  </i>
   <i name="HFSCREEN">      0.00000000</i>
   <i name="HFSCREENC">      0.00000000</i>
   <i type="int" name="NBANDSGWLOW">     0</i>
  </separator>
  <separator name="vdW DFT" >
   <i type="logical" name="LUSE_VDW"> F  </i>
   <i type="int" name="IVDW_NL">     1</i>
   <i type="logical" name="LSPIN_VDW"> F  </i>
   <i name="Zab_VDW">     -0.84910000</i>
   <i name="PARAM1">      0.12340000</i>
   <i name="PARAM2">      1.00000000</i>
   <i name="PARAM3">      0.00000000</i>
  </separator>
  <separator name="model GW" >
   <i type="int" name="MODEL_GW">     0</i>
   <i name="MODEL_EPS0">    160.20000000</i>
   <i name="MODEL_ALPHA">      1.00000000</i>
  </separator>
  <separator name="linear response parameters" >
   <i type="logical" name="LEPSILON"> F  </i>
   <i type="logical" name="LRPA"> F  </i>
   <i type="logical" name="LNABLA"> F  </i>
   <i type="logical" name="LVEL"> F  </i>
   <i name="CSHIFT">      0.10000000</i>
   <i name="OMEGAMAX">     -1.00000000</i>
   <i name="DEG_THRESHOLD">      0.00200000</i>
   <i name="RTIME">     -0.10000000</i>
   <i name="WPLASMAI">      0.00000000</i>
   <v name="DFIELD">      0.00000000      0.00000000      0.00000000</v>
   <v name="WPLASMA">      0.00000000      0.00000000      0.00000000      0.00000000      0.00000000      0.00000000      0.00000000      0.00000000      0.00000000</v>
  </separator>
  <separator name="orbital magnetization" >
   <i type="logical" name="NUCIND"> F  </i>
   <v name="MAGPOS">      0.00000000      0.00000000      0.00000000</v>
   <i type="logical" name="LNICSALL"> T  </i>
   <i type="logical" name="ORBITALMAG"> F  </i>
   <i type="logical" name="LMAGBLOCH"> F  </i>
   <i type="logical" name="LCHIMAG"> F  </i>
   <i type="logical" name="LGAUGE"> T  </i>
   <i type="int" name="MAGATOM">     0</i>
   <v name="MAGDIPOL">      0.00000000      0.00000000      0.00000000</v>
   <v name="AVECCONST">      0.00000000      0.00000000      0.00000000</v>
  </separator>
  <separator name="response functions" >
   <i type="logical" name="LALL_IN_ONE"> F  </i>
   <i type="int" name="IALL_IN_ONE">    -1</i>
   <i type="int" name="NBANDS_WAVE">    -1</i>
   <i type="logical" name="LFINITE_TEMPERATURE"> F  </i>
   <i type="logical" name="LADDER"> F  </i>
   <i type="logical" name="LRPAFORCE"> F  </i>
   <i type="logical" name="LFXC"> F  </i>
   <i type="logical" name="LHARTREE"> T  </i>
   <i type="int" name="IBSE">     0</i>
   <v type="int" name="KPOINT">    -1     0     0     0</v>
   <i type="logical" name="LTCTC"> F  </i>
   <i type="logical" name="LTCTE"> F  </i>
   <i type="logical" name="LTETE"> F  </i>
   <i type="logical" name="LTRIPLET"> F  </i>
   <i type="logical" name="LFXCEPS"> F  </i>
   <i type="logical" name="LFXHEG"> F  </i>
   <i type="int" name="NATURALO">     2</i>
   <i type="logical" name="LHOLEGF"> F  </i>
   <i type="logical" name="L2ORDER"> F  </i>
   <i type="logical" name="LDMP1"> F  </i>
   <i type="logical" name="LMP2LT"> F  </i>
   <i type="logical" name="LSMP2LT"> F  </i>
   <i type="logical" name="LGWLF"> F  </i>
   <i name="ENCUTGW">     -1.60000002</i>
   <i name="ENCUTGWSOFT">     -1.60000002</i>
   <i name="ENCUTLF">     -1.00000000</i>
   <i type="logical" name="LESF_SPLINES"> F  </i>
   <i type="int" name="LMAXMP2">    -1</i>
   <i name="SCISSOR">      0.00000000</i>
   <i type="int" name="NOMEGA">     0</i>
   <i type="int" name="NOMEGAR">     0</i>
   <i type="int" name="NBANDSGW">    -1</i>
   <i type="int" name="NBANDSO">    -1</i>
   <i type="int" name="NBANDSV">    -1</i>
   <i type="int" name="NELMGW">     1</i>
   <i type="int" name="NELMHF">     1</i>
   <i type="int" name="DIM">     3</i>
   <i type="int" name="IESPILON">     4</i>
   <i type="int" name="ANTIRES">     0</i>
   <i name="OMEGAMAX">    -30.00000000</i>
   <i name="OMEGAMIN">    -30.00000000</i>
   <i name="OMEGATL">   -200.00000000</i>
   <i type="int" name="OMEGAGRID">     0</i>
   <i name="CSHIFT">     -0.10000000</i>
   <i type="logical" name="LSELFENERGY"> F  </i>
   <i type="logical" name="LSPECTRAL"> F  </i>
   <i type="logical" name="LSPECTRALGW"> F  </i>
   <i type="logical" name="LSINGLES"> F  </i>
   <i type="logical" name="LFERMIGW"> F  </i>
   <i type="logical" name="ODDONLYGW"> F  </i>
   <i type="logical" name="EVENONLYGW"> F  </i>
   <i type="int" name="NKREDLFX">     1</i>
   <i type="int" name="NKREDLFY">     1</i>
   <i type="int" name="NKREDLFZ">     1</i>
   <i type="int" name="MAXMEM">  2800</i>
   <i type="int" name="TELESCOPE">     0</i>
   <i type="int" name="NTAUPAR">    -1</i>
   <i type="int" name="NOMEGAPAR">    -1</i>
   <i name="DAMP_NEWTON">      0.80000001</i>
   <i name="LAMBDA">      1.00000000</i>
  </separator>
  <separator name="External order field" >
   <i name="OFIELD_KAPPA">      0.00000000</i>
   <v name="OFIELD_K">      0.00000000      0.00000000      0.00000000</v>
   <i name="OFIELD_Q6_NEAR">      0.00000000</i>
   <i name="OFIELD_Q6_FAR">      0.00000000</i>
   <i name="OFIELD_A">      0.00000000</i>
  </separator>
  <separator name="optional k-points parameters" >
   <i type="int" name="KPOINTS_OPT_MODE">     1</i>
   <i type="logical" name="LKPOINTS_OPT"> F  </i>
  </separator>
 </parameters>
 <atominfo>
  <atoms>       2 </atoms>
  <types>       1 </types>
  <array name="atoms" >
   <dimension dim="1">ion</dimension>
   <field type="string">element</field>
   <field type="int">atomtype</field>
   <set>
    <rc><c>O </c><c>   1</c></rc>
    <rc><c>O </c><c>   1</c></rc>
   </set>
  </array>
  <array name="atomtypes" >
   <dimension dim="1">type</dimension>
   <field type="int">atomspertype</field>
   <field type="string">element</field>
   <field>mass</field>
   <field>valence</field>
   <field type="string">pseudopotential</field>
   <set>
    <rc><c>   2</c><c>O </c><c>     16.00000000</c><c>      6.00000000</c><c>  PAW_PBE O 08Apr2002                   </c></rc>
   </set>
  </array>
 </atominfo>
 <structure name="initialpos" >
  <crystal>
   <varray name="basis" >
    <v>       7.50000000       0.00000000       0.00000000 </v>
    <v>       0.00000000       8.00000000       0.00000000 </v>
    <v>       0.00000000       0.00000000       8.90000000 </v>
   </varray>
   <i name="volume">    534.00000000 </i>
   <varray name="rec_basis" >
    <v>       0.13333333       0.00000000       0.00000000 </v>
    <v>       0.00000000       0.12500000       0.00000000 </v>
    <v>       0.00000000       0.00000000       0.11235955 </v>
   </varray>
  </crystal>
  <varray name="positions" >
   <v>       0.00000000       0.00000000       0.00000000 </v>
   <v>       0.00000000       0.00000000       0.13483146 </v>
  </varray>
 </structure>
 <calculation>
  <scstep>
   <time name="dav">    0.12    0.12</time>
   <time name="total">    0.17    0.17</time>
   <energy>
    <i name="alphaZ">      1.04085735 </i>
    <i name="ewald">     73.99599140 </i>
    <i name="hartreedc">   -801.68399491 </i>
    <i name="XCdc">     54.83247461 </i>
    <i name="pawpsdc">    692.81204765 </i>
    <i name="pawaedc">   -696.39983308 </i>
    <i name="eentropy">     -0.00027136 </i>
    <i name="bandstr">   -119.78499299 </i>
    <i name="atom">    864.67971496 </i>
    <i name="e_fr_energy">     69.49199363 </i>
    <i name="e_wo_entrp">     69.49226499 </i>
    <i name="e_0_energy">     69.49212931 </i>
   </energy>
  </scstep>
  <scstep>
   <time name="dav">    0.10    0.10</time>
   <time name="total">    0.10    0.10</time>
   <energy>
    <i name="e_fr_energy">      3.23463054 </i>
    <i name="e_wo_entrp">      3.23463054 </i>
    <i name="e_0_energy">      3.23463054 </i>
   </energy>
  </scstep>
  <scstep>
   <time name="dav">    0.09    0.09</time>
   <time name="total">    0.09    0.09</time>
   <energy>
    <i name="e_fr_energy">     -8.99743660 </i>
    <i name="e_wo_entrp">     -8.99743660 </i>
    <i name="e_0_energy">     -8.99743660 </i>
   </energy>
  </scstep>
  <scstep>
   <time name="dav">    0.06    0.06</time>
   <time name="total">    0.06    0.06</time>
   <energy>
    <i name="e_fr_energy">     -9.76701617 </i>
    <i name="e_wo_entrp">     -9.76701617 </i>
    <i name="e_0_energy">     -9.76701617 </i>
   </energy>
  </scstep>
  <scstep>
   <time name="dav">    0.07    0.07</time>
   <time name="total">    0.14    0.14</time>
   <energy>
    <i name="e_fr_energy">     -9.79211601 </i>
    <i name="e_wo_entrp">     -9.79211601 </i>
    <i name="e_0_energy">     -9.79211601 </i>
   </energy>
  </scstep>
  <scstep>
   <time name="diag">    0.01    0.01</time>
   <time name="diis">    0.06    0.06</time>
   <time name="orth">    0.00    0.00</time>
   <time name="total">    0.16    0.16</time>
   <energy>
    <i name="e_fr_energy">     -9.56859165 </i>
    <i name="e_wo_entrp">     -9.56859165 </i>
    <i name="e_0_energy">     -9.56859165 </i>
   </energy>
  </scstep>
  <scstep>
   <time name="diag">    0.01    0.01</time>
   <time name="diis">    0.06    0.06</time>
   <time name="orth">    0.00    0.00</time>
   <time name="total">    0.16    0.16</time>
   <energy>
    <i name="e_fr_energy">     -9.79889834 </i>
    <i name="e_wo_entrp">     -9.79889834 </i>
    <i name="e_0_energy">     -9.79889834 </i>
   </energy>
  </scstep>
  <scstep>
   <time name="diag">    0.01    0.01</time>
   <time name="diis">    0.06    0.06</time>
   <time name="orth">    0.00    0.00</time>
   <time name="total">    0.16    0.16</time>
   <energy>
    <i name="e_fr_energy">     -9.80041206 </i>
    <i name="e_wo_entrp">     -9.80041206 </i>
    <i name="e_0_energy">     -9.80041206 </i>
   </energy>
  </scstep>
  <scstep>
   <time name="diag">    0.01    0.01</time>
   <time name="diis">    0.06    0.06</time>
   <time name="orth">    0.00    0.00</time>
   <time name="total">    0.16    0.16</time>
   <energy>
    <i name="e_fr_energy">     -9.80855940 </i>
    <i name="e_wo_entrp">     -9.80855940 </i>
    <i name="e_0_energy">     -9.80855940 </i>
   </energy>
  </scstep>
  <scstep>
   <time name="diag">    0.01    0.01</time>
   <time name="diis">    0.06    0.06</time>
   <time name="orth">    0.00    0.00</time>
   <time name="total">    0.16    0.16</time>
   <energy>
    <i name="e_fr_energy">     -9.81041014 </i>
    <i name="e_wo_entrp">     -9.81041014 </i>
    <i name="e_0_energy">     -9.81041014 </i>
   </energy>
  </scstep>
  <scstep>
   <time name="diag">    0.01    0.01</time>
   <time name="diis">    0.06    0.06</time>
   <time name="orth">    0.00    0.00</time>
   <time name="total">    0.17    0.17</time>
   <energy>
    <i name="e_fr_energy">     -9.81062305 </i>
    <i name="e_wo_entrp">     -9.81062305 </i>
    <i name="e_0_energy">     -9.81062305 </i>
   </energy>
  </scstep>
  <scstep>
   <time name="diag">    0.01    0.01</time>
   <time name="diis">    0.06    0.06</time>
   <time name="orth">    0.00    0.00</time>
   <time name="total">    0.16    0.17</time>
   <energy>
    <i name="e_fr_energy">     -9.81086261 </i>
    <i name="e_wo_entrp">     -9.81086261 </i>
    <i name="e_0_energy">     -9.81086261 </i>
   </energy>
  </scstep>
  <scstep>
   <time name="diag">    0.01    0.01</time>
   <time name="diis">    0.06    0.06</time>
   <time name="orth">    0.00    0.00</time>
   <time name="total">    0.16    0.16</time>
   <energy>
    <i name="e_fr_energy">     -9.81103530 </i>
    <i name="e_wo_entrp">     -9.81103530 </i>
    <i name="e_0_energy">     -9.81103530 </i>
   </energy>
  </scstep>
  <scstep>
   <time name="diag">    0.01    0.01</time>
   <time name="diis">    0.05    0.05</time>
   <time name="orth">    0.00    0.00</time>
   <time name="total">    0.16    0.16</time>
   <energy>
    <i name="e_fr_energy">     -9.81111106 </i>
    <i name="e_wo_entrp">     -9.81111106 </i>
    <i name="e_0_energy">     -9.81111106 </i>
   </energy>
  </scstep>
  <scstep>
   <time name="diag">    0.01    0.01</time>
   <time name="diis">    0.04    0.04</time>
   <time name="orth">    0.00    0.00</time>
   <time name="total">    0.16    0.16</time>
   <energy>
    <i name="e_fr_energy">     -9.81125084 </i>
    <i name="e_wo_entrp">     -9.81125084 </i>
    <i name="e_0_energy">     -9.81125084 </i>
   </energy>
  </scstep>
  <scstep>
   <time name="diag">    0.01    0.01</time>
   <time name="diis">    0.05    0.05</time>
   <time name="orth">    0.00    0.00</time>
   <time name="total">    0.16    0.16</time>
   <energy>
    <i name="e_fr_energy">     -9.81129228 </i>
    <i name="e_wo_entrp">     -9.81129228 </i>
    <i name="e_0_energy">     -9.81129228 </i>
   </energy>
  </scstep>
  <scstep>
   <time name="diag">    0.01    0.01</time>
   <time name="diis">    0.05    0.05</time>
   <time name="orth">    0.00    0.00</time>
   <time name="total">    0.16    0.16</time>
   <energy>
    <i name="e_fr_energy">     -9.81132957 </i>
    <i name="e_wo_entrp">     -9.81132957 </i>
    <i name="e_0_energy">     -9.81132957 </i>
   </energy>
  </scstep>
  <scstep>
   <time name="diag">    0.01    0.01</time>
   <time name="diis">    0.04    0.04</time>
   <time name="orth">    0.00    0.00</time>
   <time name="total">    0.08    0.08</time>
   <energy>
    <i name="alphaZ">      1.04085735 </i>
    <i name="ewald">     73.99599140 </i>
    <i name="hartreedc">   -809.67321698 </i>
    <i name="XCdc">     55.60438224 </i>
    <i name="pawpsdc">    908.67605225 </i>
    <i name="pawaedc">   -912.29205370 </i>
    <i name="eentropy">     -0.00000000 </i>
    <i name="bandstr">   -191.84306423 </i>
    <i name="atom">    864.67971496 </i>
    <i name="e_fr_energy">     -9.81133670 </i>
    <i name="e_wo_entrp">     -9.81133670 </i>
    <i name="e_0_energy">     -9.81133670 </i>
   </energy>
  </scstep>
  <structure>
   <crystal>
    <varray name="basis" >
     <v>       7.50000000       0.00000000       0.00000000 </v>
     <v>       0.00000000       8.00000000       0.00000000 </v>
     <v>       0.00000000       0.00000000       8.90000000 </v>
    </varray>
    <i name="volume">    534.00000000 </i>
    <varray name="rec_basis" >
     <v>       0.13333333       0.00000000       0.00000000 </v>
     <v>       0.00000000       0.12500000       0.00000000 </v>
     <v>       0.00000000       0.00000000       0.11235955 </v>
    </varray>
   </crystal>
   <varray name="positions" >
    <v>       0.00000000       0.00000000       0.00000000 </v>
    <v>       0.00000000       0.00000000       0.13483146 </v>
   </varray>
  </structure>
  <varray name="forces" >
   <v>      -0.00000000       0.00000000      -2.73556055 </v>
   <v>       0.00000000       0.00000000       2.73556055 </v>
  </varray>
  <varray name="stress" >
   <v>      -1.42059236       0.00000000       0.00000000 </v>
   <v>       0.00000000      -1.33806189       0.00000000 </v>
   <v>       0.00000000       0.00000000       8.78525022 </v>
  </varray>
  <energy>
   <i name="e_fr_energy">     -9.81133670 </i>
   <i name="e_wo_entrp">     -9.81133670 </i>
   <i name="e_0_energy">     -9.81133670 </i>
  </energy>
  <time name="totalsc">    2.97    2.99</time>
 </calculation>
 <calculation>
  <scstep>
   <time name="dav">    0.07    0.07</time>
   <time name="total">    0.17    0.17</time>
   <energy>
    <i name="alphaZ">      1.04085735 </i>
    <i name="ewald">     -2.94282970 </i>
    <i name="hartreedc">   -750.25041865 </i>
    <i name="XCdc">     54.68836049 </i>
    <i name="pawpsdc">    908.67352955 </i>
    <i name="pawaedc">   -912.28945831 </i>
    <i name="eentropy">     -0.00000000 </i>
    <i name="bandstr">   -172.08060460 </i>
    <i name="atom">    864.67971496 </i>
    <i name="e_fr_energy">     -8.48084892 </i>
    <i name="e_wo_entrp">     -8.48084892 </i>
    <i name="e_0_energy">     -8.48084892 </i>
   </energy>
  </scstep>
  <scstep>
   <time name="diag">    0.01    0.01</time>
   <time name="diis">    0.06    0.06</time>
   <time name="orth">    0.00    0.00</time>
   <time name="total">    0.17    0.17</time>
   <energy>
    <i name="e_fr_energy">     -8.54640330 </i>
    <i name="e_wo_entrp">     -8.54640330 </i>
    <i name="e_0_energy">     -8.54640330 </i>
   </energy>
  </scstep>
  <scstep>
   <time name="diag">    0.01    0.01</time>
   <time name="diis">    0.06    0.06</time>
   <time name="orth">    0.00    0.00</time>
   <time name="total">    0.17    0.17</time>
   <energy>
    <i name="e_fr_energy">     -8.67385553 </i>
    <i name="e_wo_entrp">     -8.67385553 </i>
    <i name="e_0_energy">     -8.67385553 </i>
   </energy>
  </scstep>
  <scstep>
   <time name="diag">    0.01    0.01</time>
   <time name="diis">    0.07    0.07</time>
   <time name="orth">    0.00    0.00</time>
   <time name="total">    0.17    0.17</time>
   <energy>
    <i name="e_fr_energy">     -8.69707189 </i>
    <i name="e_wo_entrp">     -8.69707189 </i>
    <i name="e_0_energy">     -8.69707189 </i>
   </energy>
  </scstep>
  <scstep>
   <time name="diag">    0.01    0.01</time>
   <time name="diis">    0.06    0.06</time>
   <time name="orth">    0.00    0.00</time>
   <time name="total">    0.17    0.17</time>
   <energy>
    <i name="e_fr_energy">     -8.70276011 </i>
    <i name="e_wo_entrp">     -8.70276011 </i>
    <i name="e_0_energy">     -8.70276011 </i>
   </energy>
  </scstep>
  <scstep>
   <time name="diag">    0.01    0.01</time>
   <time name="diis">    0.06    0.06</time>
   <time name="orth">    0.00    0.00</time>
   <time name="total">    0.17    0.17</time>
   <energy>
    <i name="e_fr_energy">     -8.70581044 </i>
    <i name="e_wo_entrp">     -8.70581044 </i>
    <i name="e_0_energy">     -8.70581044 </i>
   </energy>
  </scstep>
  <scstep>
   <time name="diag">    0.01    0.01</time>
   <time name="diis">    0.06    0.06</time>
   <time name="orth">    0.00    0.00</time>
   <time name="total">    0.17    0.17</time>
   <energy>
    <i name="e_fr_energy">     -8.70639491 </i>
    <i name="e_wo_entrp">     -8.70639491 </i>
    <i name="e_0_energy">     -8.70639491 </i>
   </energy>
  </scstep>
  <scstep>
   <time name="diag">    0.01    0.01</time>
   <time name="diis">    0.06    0.06</time>
   <time name="orth">    0.00    0.00</time>
   <time name="total">    0.17    0.18</time>
   <energy>
    <i name="e_fr_energy">     -8.70670671 </i>
    <i name="e_wo_entrp">     -8.70670671 </i>
    <i name="e_0_energy">     -8.70670671 </i>
   </energy>
  </scstep>
  <scstep>
   <time name="diag">    0.01    0.01</time>
   <time name="diis">    0.06    0.06</time>
   <time name="orth">    0.00    0.00</time>
   <time name="total">    0.17    0.17</time>
   <energy>
    <i name="e_fr_energy">     -8.70710587 </i>
    <i name="e_wo_entrp">     -8.70710587 </i>
    <i name="e_0_energy">     -8.70710587 </i>
   </energy>
  </scstep>
  <scstep>
   <time name="diag">    0.01    0.01</time>
   <time name="diis">    0.06    0.06</time>
   <time name="orth">    0.00    0.00</time>
   <time name="total">    0.17    0.17</time>
   <energy>
    <i name="e_fr_energy">     -8.70726211 </i>
    <i name="e_wo_entrp">     -8.70726211 </i>
    <i name="e_0_energy">     -8.70726211 </i>
   </energy>
  </scstep>
  <scstep>
   <time name="diag">    0.01    0.01</time>
   <time name="diis">    0.06    0.06</time>
   <time name="orth">    0.00    0.00</time>
   <time name="total">    0.17    0.17</time>
   <energy>
    <i name="e_fr_energy">     -8.70740173 </i>
    <i name="e_wo_entrp">     -8.70740173 </i>
    <i name="e_0_energy">     -8.70740173 </i>
   </energy>
  </scstep>
  <scstep>
   <time name="diag">    0.01    0.01</time>
   <time name="diis">    0.05    0.05</time>
   <time name="orth">    0.00    0.00</time>
   <time name="total">    0.17    0.17</time>
   <energy>
    <i name="e_fr_energy">     -8.70745604 </i>
    <i name="e_wo_entrp">     -8.70745604 </i>
    <i name="e_0_energy">     -8.70745604 </i>
   </energy>
  </scstep>
  <scstep>
   <time name="diag">    0.01    0.01</time>
   <time name="diis">    0.05    0.05</time>
   <time name="orth">    0.00    0.00</time>
   <time name="total">    0.17    0.17</time>
   <energy>
    <i name="e_fr_energy">     -8.70747309 </i>
    <i name="e_wo_entrp">     -8.70747309 </i>
    <i name="e_0_energy">     -8.70747309 </i>
   </energy>
  </scstep>
  <scstep>
   <time name="diag">    0.01    0.01</time>
   <time name="diis">    0.05    0.05</time>
   <time name="orth">    0.00    0.00</time>
   <time name="total">    0.17    0.17</time>
   <energy>
    <i name="e_fr_energy">     -8.70748425 </i>
    <i name="e_wo_entrp">     -8.70748425 </i>
    <i name="e_0_energy">     -8.70748425 </i>
   </energy>
  </scstep>
  <scstep>
   <time name="diag">    0.19    0.19</time>
   <time name="diis">    0.41    0.41</time>
   <time name="orth">    0.00    0.00</time>
   <time name="total">    0.88    0.88</time>
   <energy>
    <i name="alphaZ">      1.04085735 </i>
    <i name="ewald">     -2.94282970 </i>
    <i name="hartreedc">   -740.47547932 </i>
    <i name="XCdc">     54.00319010 </i>
    <i name="pawpsdc">    767.50654280 </i>
    <i name="pawaedc">   -770.87892830 </i>
    <i name="eentropy">     -0.00000000 </i>
    <i name="bandstr">   -181.64055698 </i>
    <i name="atom">    864.67971496 </i>
    <i name="e_fr_energy">     -8.70748911 </i>
    <i name="e_wo_entrp">     -8.70748911 </i>
    <i name="e_0_energy">     -8.70748911 </i>
   </energy>
  </scstep>
  <structure>
   <crystal>
    <varray name="basis" >
     <v>       7.50000000       0.00000000       0.00000000 </v>
     <v>       0.00000000       8.00000000       0.00000000 </v>
     <v>       0.00000000       0.00000000       8.90000000 </v>
    </varray>
    <i name="volume">    534.00000000 </i>
    <varray name="rec_basis" >
     <v>       0.13333333       0.00000000       0.00000000 </v>
     <v>       0.00000000       0.12500000       0.00000000 </v>
     <v>       0.00000000       0.00000000       0.11235955 </v>
    </varray>
   </crystal>
   <varray name="positions" >
    <v>      -0.00000000       0.00000000      -0.01482817 </v>
    <v>       0.00000000       0.00000000       0.14965963 </v>
   </varray>
  </structure>
  <varray name="forces" >
   <v>      -0.00000000       0.00000000       7.67262839 </v>
   <v>       0.00000000       0.00000000      -7.67262839 </v>
  </varray>
  <varray name="stress" >
   <v>      -1.37911118       0.00000000       0.00000000 </v>
   <v>       0.00000000      -1.32145913       0.00000000 </v>
   <v>       0.00000000       0.00000000     -34.70000299 </v>
  </varray>
  <energy>
   <i name="e_fr_energy">     -8.70748911 </i>
   <i name="e_wo_entrp">     -8.70748911 </i>
   <i name="e_0_energy">     -8.70748911 </i>
  </energy>
  <time name="totalsc">    3.71    3.72</time>
 </calculation>
 <calculation>
  <scstep>
   <time name="dav">    0.07    0.07</time>
   <time name="total">    0.17    0.17</time>
   <energy>
    <i name="alphaZ">      1.04085735 </i>
    <i name="ewald">     61.00844227 </i>
    <i name="hartreedc">   -790.93447957 </i>
    <i name="XCdc">     54.81679801 </i>
    <i name="pawpsdc">    767.50592387 </i>
    <i name="pawaedc">   -770.87828780 </i>
    <i name="eentropy">     -0.00000000 </i>
    <i name="bandstr">   -196.77033923 </i>
    <i name="atom">    864.67971496 </i>
    <i name="e_fr_energy">     -9.53137015 </i>
    <i name="e_wo_entrp">     -9.53137015 </i>
    <i name="e_0_energy">     -9.53137015 </i>
   </energy>
  </scstep>
  <scstep>
   <time name="diag">    0.01    0.01</time>
   <time name="diis">    0.07    0.07</time>
   <time name="orth">    0.00    0.00</time>
   <time name="total">    0.18    0.18</time>
   <energy>
    <i name="e_fr_energy">     -9.74145695 </i>
    <i name="e_wo_entrp">     -9.74145695 </i>
    <i name="e_0_energy">     -9.74145695 </i>
   </energy>
  </scstep>
  <scstep>
   <time name="diag">    0.01    0.01</time>
   <time name="diis">    0.07    0.07</time>
   <time name="orth">    0.00    0.00</time>
   <time name="total">    0.18    0.18</time>
   <energy>
    <i name="e_fr_energy">     -9.84359051 </i>
    <i name="e_wo_entrp">     -9.84359051 </i>
    <i name="e_0_energy">     -9.84359051 </i>
   </energy>
  </scstep>
  <scstep>
   <time name="diag">    0.01    0.01</time>
   <time name="diis">    0.07    0.07</time>
   <time name="orth">    0.00    0.00</time>
   <time name="total">    0.18    0.18</time>
   <energy>
    <i name="e_fr_energy">     -9.84502878 </i>
    <i name="e_wo_entrp">     -9.84502878 </i>
    <i name="e_0_energy">     -9.84502878 </i>
   </energy>
  </scstep>
  <scstep>
   <time name="diag">    0.01    0.01</time>
   <time name="diis">    0.07    0.07</time>
   <time name="orth">    0.00    0.00</time>
   <time name="total">    0.18    0.18</time>
   <energy>
    <i name="e_fr_energy">     -9.85082330 </i>
    <i name="e_wo_entrp">     -9.85082330 </i>
    <i name="e_0_energy">     -9.85082330 </i>
   </energy>
  </scstep>
  <scstep>
   <time name="diag">    0.01    0.01</time>
   <time name="diis">    0.07    0.07</time>
   <time name="orth">    0.00    0.00</time>
   <time name="total">    0.18    0.18</time>
   <energy>
    <i name="e_fr_energy">     -9.85254859 </i>
    <i name="e_wo_entrp">     -9.85254859 </i>
    <i name="e_0_energy">     -9.85254859 </i>
   </energy>
  </scstep>
  <scstep>
   <time name="diag">    0.01    0.01</time>
   <time name="diis">    0.07    0.07</time>
   <time name="orth">    0.00    0.00</time>
   <time name="total">    0.18    0.18</time>
   <energy>
    <i name="e_fr_energy">     -9.85362675 </i>
    <i name="e_wo_entrp">     -9.85362675 </i>
    <i name="e_0_energy">     -9.85362675 </i>
   </energy>
  </scstep>
  <scstep>
   <time name="diag">    0.01    0.01</time>
   <time name="diis">    0.07    0.07</time>
   <time name="orth">    0.00    0.00</time>
   <time name="total">    0.18    0.18</time>
   <energy>
    <i name="e_fr_energy">     -9.85386827 </i>
    <i name="e_wo_entrp">     -9.85386827 </i>
    <i name="e_0_energy">     -9.85386827 </i>
   </energy>
  </scstep>
  <scstep>
   <time name="diag">    0.01    0.01</time>
   <time name="diis">    0.06    0.06</time>
   <time name="orth">    0.00    0.00</time>
   <time name="total">    0.18    0.18</time>
   <energy>
    <i name="e_fr_energy">     -9.85420627 </i>
    <i name="e_wo_entrp">     -9.85420627 </i>
    <i name="e_0_energy">     -9.85420627 </i>
   </energy>
  </scstep>
  <scstep>
   <time name="diag">    0.01    0.01</time>
   <time name="diis">    0.06    0.06</time>
   <time name="orth">    0.00    0.00</time>
   <time name="total">    0.17    0.17</time>
   <energy>
    <i name="e_fr_energy">     -9.85444907 </i>
    <i name="e_wo_entrp">     -9.85444907 </i>
    <i name="e_0_energy">     -9.85444907 </i>
   </energy>
  </scstep>
  <scstep>
   <time name="diag">    0.01    0.01</time>
   <time name="diis">    0.05    0.05</time>
   <time name="orth">    0.00    0.00</time>
   <time name="total">    0.17    0.17</time>
   <energy>
    <i name="e_fr_energy">     -9.85449470 </i>
    <i name="e_wo_entrp">     -9.85449470 </i>
    <i name="e_0_energy">     -9.85449470 </i>
   </energy>
  </scstep>
  <scstep>
   <time name="diag">    0.01    0.01</time>
   <time name="diis">    0.05    0.05</time>
   <time name="orth">    0.00    0.00</time>
   <time name="total">    0.17    0.17</time>
   <energy>
    <i name="e_fr_energy">     -9.85458624 </i>
    <i name="e_wo_entrp">     -9.85458624 </i>
    <i name="e_0_energy">     -9.85458624 </i>
   </energy>
  </scstep>
  <scstep>
   <time name="diag">    0.01    0.01</time>
   <time name="diis">    0.05    0.05</time>
   <time name="orth">    0.00    0.00</time>
   <time name="total">    0.17    0.17</time>
   <energy>
    <i name="e_fr_energy">     -9.85459688 </i>
    <i name="e_wo_entrp">     -9.85459688 </i>
    <i name="e_0_energy">     -9.85459688 </i>
   </energy>
  </scstep>
  <scstep>
   <time name="diag">    0.01    0.01</time>
   <time name="diis">    0.05    0.05</time>
   <time name="orth">    0.00    0.00</time>
   <time name="total">    0.17    0.17</time>
   <energy>
    <i name="e_fr_energy">     -9.85461254 </i>
    <i name="e_wo_entrp">     -9.85461254 </i>
    <i name="e_0_energy">     -9.85461254 </i>
   </energy>
  </scstep>
  <scstep>
   <time name="diag">    0.01    0.01</time>
   <time name="diis">    0.05    0.05</time>
   <time name="orth">    0.00    0.00</time>
   <time name="total">    0.09    0.09</time>
   <energy>
    <i name="alphaZ">      1.04085735 </i>
    <i name="ewald">     61.00844227 </i>
    <i name="hartreedc">   -798.43285723 </i>
    <i name="XCdc">     55.31875331 </i>
    <i name="pawpsdc">    879.14278630 </i>
    <i name="pawaedc">   -882.69873766 </i>
    <i name="eentropy">     -0.00000000 </i>
    <i name="bandstr">   -189.91357429 </i>
    <i name="atom">    864.67971496 </i>
    <i name="e_fr_energy">     -9.85461499 </i>
    <i name="e_wo_entrp">     -9.85461499 </i>
    <i name="e_0_energy">     -9.85461499 </i>
   </energy>
  </scstep>
  <structure>
   <crystal>
    <varray name="basis" >
     <v>       7.50000000       0.00000000       0.00000000 </v>
     <v>       0.00000000       8.00000000       0.00000000 </v>
     <v>       0.00000000       0.00000000       8.90000000 </v>
    </varray>
    <i name="volume">    534.00000000 </i>
    <varray name="rec_basis" >
     <v>       0.13333333       0.00000000       0.00000000 </v>
     <v>       0.00000000       0.12500000       0.00000000 </v>
     <v>       0.00000000       0.00000000       0.11235955 </v>
    </varray>
   </crystal>
   <varray name="positions" >
    <v>      -0.00000000       0.00000000      -0.00210969 </v>
    <v>       0.00000000       0.00000000       0.13694115 </v>
   </varray>
  </structure>
  <varray name="forces" >
   <v>       0.00000000       0.00000000       0.29267660 </v>
   <v>      -0.00000000       0.00000000      -0.29267660 </v>
  </varray>
  <varray name="stress" >
   <v>      -1.41668144       0.00000000       0.00000000 </v>
   <v>       0.00000000      -1.36353144       0.00000000 </v>
   <v>       0.00000000       0.00000000      -2.09372187 </v>
  </varray>
  <energy>
   <i name="e_fr_energy">     -9.85461499 </i>
   <i name="e_wo_entrp">     -9.85461499 </i>
   <i name="e_0_energy">     -9.85461499 </i>
  </energy>
  <time name="totalsc">    2.98    3.00</time>
 </calculation>
 <calculation>
  <scstep>
   <time name="dav">    0.08    0.08</time>
   <time name="total">    0.17    0.17</time>
   <energy>
    <i name="alphaZ">      1.04085735 </i>
    <i name="ewald">     62.22865310 </i>
    <i name="hartreedc">   -799.32384061 </i>
    <i name="XCdc">     55.33442473 </i>
    <i name="pawpsdc">    879.13748234 </i>
    <i name="pawaedc">   -882.69331908 </i>
    <i name="eentropy">     -0.00000000 </i>
    <i name="bandstr">   -190.25913869 </i>
    <i name="atom">    864.67971496 </i>
    <i name="e_fr_energy">     -9.85516591 </i>
    <i name="e_wo_entrp">     -9.85516591 </i>
    <i name="e_0_energy">     -9.85516591 </i>
   </energy>
  </scstep>
  <scstep>
   <time name="diag">    0.01    0.01</time>
   <time name="diis">    0.07    0.07</time>
   <time name="orth">    0.00    0.00</time>
   <time name="total">    0.18    0.18</time>
   <energy>
    <i name="e_fr_energy">     -9.85514278 </i>
    <i name="e_wo_entrp">     -9.85514278 </i>
    <i name="e_0_energy">     -9.85514278 </i>
   </energy>
  </scstep>
  <scstep>
   <time name="diag">    0.01    0.01</time>
   <time name="diis">    0.07    0.07</time>
   <time name="orth">    0.00    0.00</time>
   <time name="total">    0.18    0.18</time>
   <energy>
    <i name="e_fr_energy">     -9.85519405 </i>
    <i name="e_wo_entrp">     -9.85519405 </i>
    <i name="e_0_energy">     -9.85519405 </i>
   </energy>
  </scstep>
  <scstep>
   <time name="diag">    0.01    0.01</time>
   <time name="diis">    0.07    0.07</time>
   <time name="orth">    0.00    0.00</time>
   <time name="total">    0.18    0.18</time>
   <energy>
    <i name="e_fr_energy">     -9.85520767 </i>
    <i name="e_wo_entrp">     -9.85520767 </i>
    <i name="e_0_energy">     -9.85520767 </i>
   </energy>
  </scstep>
  <scstep>
   <time name="diag">    0.01    0.01</time>
   <time name="diis">    0.05    0.05</time>
   <time name="orth">    0.00    0.00</time>
   <time name="total">    0.09    0.09</time>
   <energy>
    <i name="alphaZ">      1.04085735 </i>
    <i name="ewald">     62.22865310 </i>
    <i name="hartreedc">   -799.49983840 </i>
    <i name="XCdc">     55.34553325 </i>
    <i name="pawpsdc">    881.59277537 </i>
    <i name="pawaedc">   -885.15407312 </i>
    <i name="eentropy">     -0.00000000 </i>
    <i name="bandstr">   -190.08883363 </i>
    <i name="atom">    864.67971496 </i>
    <i name="e_fr_energy">     -9.85521112 </i>
    <i name="e_wo_entrp">     -9.85521112 </i>
    <i name="e_0_energy">     -9.85521112 </i>
   </energy>
  </scstep>
  <structure>
   <crystal>
    <varray name="basis" >
     <v>       7.50000000       0.00000000       0.00000000 </v>
     <v>       0.00000000       8.00000000       0.00000000 </v>
     <v>       0.00000000       0.00000000       8.90000000 </v>
    </varray>
    <i name="volume">    534.00000000 </i>
    <varray name="rec_basis" >
     <v>       0.13333333       0.00000000       0.00000000 </v>
     <v>       0.00000000       0.12500000       0.00000000 </v>
     <v>       0.00000000       0.00000000       0.11235955 </v>
    </varray>
   </crystal>
   <varray name="positions" >
    <v>      -0.00000000       0.00000000      -0.00190579 </v>
    <v>       0.00000000       0.00000000       0.13673725 </v>
   </varray>
  </structure>
  <varray name="forces" >
   <v>       0.00000000       0.00000000       0.03448390 </v>
   <v>      -0.00000000       0.00000000      -0.03448390 </v>
  </varray>
  <varray name="stress" >
   <v>      -1.40442929       0.00000000       0.00000000 </v>
   <v>       0.00000000      -1.35283232       0.00000000 </v>
   <v>       0.00000000       0.00000000      -1.13286042 </v>
  </varray>
  <energy>
   <i name="e_fr_energy">     -9.85521112 </i>
   <i name="e_wo_entrp">     -9.85521112 </i>
   <i name="e_0_energy">     -9.85521112 </i>
  </energy>
  <time name="totalsc">    1.21    1.22</time>
 </calculation>
 <calculation>
  <scstep>
   <time name="dav">    0.07    0.07</time>
   <time name="total">    0.16    0.16</time>
   <energy>
    <i name="alphaZ">      1.04085735 </i>
    <i name="ewald">     62.39013857 </i>
    <i name="hartreedc">   -799.60776590 </i>
    <i name="XCdc">     55.34706122 </i>
    <i name="pawpsdc">    881.77034035 </i>
    <i name="pawaedc">   -885.33143071 </i>
    <i name="eentropy">     -0.00000000 </i>
    <i name="bandstr">   -190.14413681 </i>
    <i name="atom">    864.67971496 </i>
    <i name="e_fr_energy">     -9.85522098 </i>
    <i name="e_wo_entrp">     -9.85522098 </i>
    <i name="e_0_energy">     -9.85522098 </i>
   </energy>
  </scstep>
  <scstep>
   <time name="diag">    0.01    0.01</time>
   <time name="diis">    0.05    0.05</time>
   <time name="orth">    0.00    0.00</time>
   <time name="total">    0.09    0.09</time>
   <energy>
    <i name="alphaZ">      1.04085735 </i>
    <i name="ewald">     62.39013857 </i>
    <i name="hartreedc">   -799.62515076 </i>
    <i name="XCdc">     55.34817170 </i>
    <i name="pawpsdc">    881.94608680 </i>
    <i name="pawaedc">   -885.50755955 </i>
    <i name="eentropy">     -0.00000000 </i>
    <i name="bandstr">   -190.12747935 </i>
    <i name="atom">    864.67971496 </i>
    <i name="e_fr_energy">     -9.85522029 </i>
    <i name="e_wo_entrp">     -9.85522029 </i>
    <i name="e_0_energy">     -9.85522029 </i>
   </energy>
  </scstep>
  <structure>
   <crystal>
    <varray name="basis" >
     <v>       7.50000000       0.00000000       0.00000000 </v>
     <v>       0.00000000       8.00000000       0.00000000 </v>
     <v>       0.00000000       0.00000000       8.90000000 </v>
    </varray>
    <i name="volume">    534.00000000 </i>
    <varray name="rec_basis" >
     <v>       0.13333333       0.00000000       0.00000000 </v>
     <v>       0.00000000       0.12500000       0.00000000 </v>
     <v>       0.00000000       0.00000000       0.11235955 </v>
    </varray>
   </crystal>
   <varray name="positions" >
    <v>      -0.00000000       0.00000000      -0.00187890 </v>
    <v>       0.00000000       0.00000000       0.13671036 </v>
   </varray>
  </structure>
  <varray name="forces" >
   <v>      -0.00000000       0.00000000       0.00236620 </v>
   <v>       0.00000000       0.00000000      -0.00236620 </v>
  </varray>
  <varray name="stress" >
   <v>      -1.36060579       0.00000000       0.00000000 </v>
   <v>       0.00000000      -1.30856155       0.00000000 </v>
   <v>       0.00000000       0.00000000      -0.97786608 </v>
  </varray>
  <energy>
   <i name="e_fr_energy">     -9.85522029 </i>
   <i name="e_wo_entrp">     -9.85522029 </i>
   <i name="e_0_energy">     -9.85522029 </i>
  </energy>
  <time name="totalsc">    0.58    0.59</time>
  <eigenvalues>
   <array>
    <dimension dim="1">band</dimension>
    <dimension dim="2">kpoint</dimension>
    <dimension dim="3">spin</dimension>
    <field>eigene</field>
    <field>occ</field>
    <set>
     <set comment="spin 1">
      <set comment="kpoint 1">
       <r>  -32.3261    1.0000 </r>
       <r>  -20.4448    1.0000 </r>
       <r>  -13.2153    1.0000 </r>
       <r>  -13.0719    1.0000 </r>
       <r>  -13.0713    1.0000 </r>
       <r>   -6.7555    1.0000 </r>
       <r>   -6.7545    1.0000 </r>
       <r>   -0.3862    0.0000 </r>
       <r>    1.0197    0.0000 </r>
       <r>    1.5863    0.0000 </r>
       <r>    2.0645    0.0000 </r>
      </set>
      <set comment="kpoint 2">
       <r>  -32.3263    1.0000 </r>
       <r>  -20.4447    1.0000 </r>
       <r>  -13.2153    1.0000 </r>
       <r>  -13.0720    1.0000 </r>
       <r>  -13.0718    1.0000 </r>
       <r>   -6.7552    1.0000 </r>
       <r>   -6.7549    1.0000 </r>
       <r>    0.1717    0.0000 </r>
       <r>    0.3995    0.0000 </r>
       <r>    1.2838    0.0000 </r>
       <r>    2.1013    0.0000 </r>
      </set>
      <set comment="kpoint 3">
       <r>  -32.3263    1.0000 </r>
       <r>  -20.4446    1.0000 </r>
       <r>  -13.2152    1.0000 </r>
       <r>  -13.0722    1.0000 </r>
       <r>  -13.0714    1.0000 </r>
       <r>   -6.7551    1.0000 </r>
       <r>   -6.7545    1.0000 </r>
       <r>    0.0670    0.0000 </r>
       <r>    0.3544    0.0000 </r>
       <r>    1.2253    0.0000 </r>
       <r>    2.0113    0.0000 </r>
      </set>
      <set comment="kpoint 4">
       <r>  -32.3263    1.0000 </r>
       <r>  -20.4447    1.0000 </r>
       <r>  -13.2152    1.0000 </r>
       <r>  -13.0719    1.0000 </r>
       <r>  -13.0718    1.0000 </r>
       <r>   -6.7552    1.0000 </r>
       <r>   -6.7551    1.0000 </r>
       <r>    0.6648    0.0000 </r>
       <r>    0.7997    0.0000 </r>
       <r>    0.8526    0.0000 </r>
       <r>    1.1958    0.0000 </r>
      </set>
      <set comment="kpoint 5">
       <r>  -32.3261    1.0000 </r>
       <r>  -20.4448    1.0000 </r>
       <r>  -13.2153    1.0000 </r>
       <r>  -13.0718    1.0000 </r>
       <r>  -13.0714    1.0000 </r>
       <r>   -6.7553    1.0000 </r>
       <r>   -6.7550    1.0000 </r>
       <r>   -0.0913    0.0000 </r>
       <r>    0.1459    0.0000 </r>
       <r>    2.0185    0.0000 </r>
       <r>    2.1330    0.0000 </r>
      </set>
      <set comment="kpoint 6">
       <r>  -32.3263    1.0000 </r>
       <r>  -20.4447    1.0000 </r>
       <r>  -13.2152    1.0000 </r>
       <r>  -13.0720    1.0000 </r>
       <r>  -13.0717    1.0000 </r>
       <r>   -6.7550    1.0000 </r>
       <r>   -6.7548    1.0000 </r>
       <r>    0.4688    0.0000 </r>
       <r>    0.5589    0.0000 </r>
       <r>    0.6955    0.0000 </r>
       <r>    1.1206    0.0000 </r>
      </set>
      <set comment="kpoint 7">
       <r>  -32.3263    1.0000 </r>
       <r>  -20.4447    1.0000 </r>
       <r>  -13.2152    1.0000 </r>
       <r>  -13.0721    1.0000 </r>
       <r>  -13.0715    1.0000 </r>
       <r>   -6.7552    1.0000 </r>
       <r>   -6.7546    1.0000 </r>
       <r>    0.3574    0.0000 </r>
       <r>    0.4824    0.0000 </r>
       <r>    0.6590    0.0000 </r>
       <r>    2.6602    0.0000 </r>
      </set>
      <set comment="kpoint 8">
       <r>  -32.3263    1.0000 </r>
       <r>  -20.4446    1.0000 </r>
       <r>  -13.2151    1.0000 </r>
       <r>  -13.0719    1.0000 </r>
       <r>  -13.0718    1.0000 </r>
       <r>   -6.7552    1.0000 </r>
       <r>   -6.7549    1.0000 </r>
       <r>    0.8252    0.0000 </r>
       <r>    0.9879    0.0000 </r>
       <r>    1.0642    0.0000 </r>
       <r>    1.1259    0.0000 </r>
      </set>
     </set>
     <set comment="spin 2">
      <set comment="kpoint 1">
       <r>  -31.1006    1.0000 </r>
       <r>  -18.6486    1.0000 </r>
       <r>  -12.2882    1.0000 </r>
       <r>  -11.2252    1.0000 </r>
       <r>  -11.2246    1.0000 </r>
       <r>   -4.4754    0.0000 </r>
       <r>   -4.4742    0.0000 </r>
       <r>   -0.2363    0.0000 </r>
       <r>    1.3543    0.0000 </r>
       <r>    1.6751    0.0000 </r>
       <r>    2.1780    0.0000 </r>
      </set>
      <set comment="kpoint 2">
       <r>  -31.1009    1.0000 </r>
       <r>  -18.6485    1.0000 </r>
       <r>  -12.2882    1.0000 </r>
       <r>  -11.2254    1.0000 </r>
       <r>  -11.2251    1.0000 </r>
       <r>   -4.4755    0.0000 </r>
       <r>   -4.4751    0.0000 </r>
       <r>    0.3554    0.0000 </r>
       <r>    0.5218    0.0000 </r>
       <r>    1.7059    0.0000 </r>
       <r>    2.2039    0.0000 </r>
      </set>
      <set comment="kpoint 3">
       <r>  -31.1008    1.0000 </r>
       <r>  -18.6485    1.0000 </r>
       <r>  -12.2881    1.0000 </r>
       <r>  -11.2255    1.0000 </r>
       <r>  -11.2247    1.0000 </r>
       <r>   -4.4755    0.0000 </r>
       <r>   -4.4743    0.0000 </r>
       <r>    0.2517    0.0000 </r>
       <r>    0.4695    0.0000 </r>
       <r>    1.6353    0.0000 </r>
       <r>    2.1151    0.0000 </r>
      </set>
      <set comment="kpoint 4">
       <r>  -31.1008    1.0000 </r>
       <r>  -18.6486    1.0000 </r>
       <r>  -12.2881    1.0000 </r>
       <r>  -11.2253    1.0000 </r>
       <r>  -11.2252    1.0000 </r>
       <r>   -4.4756    0.0000 </r>
       <r>   -4.4753    0.0000 </r>
       <r>    0.8908    0.0000 </r>
       <r>    0.9600    0.0000 </r>
       <r>    1.0055    0.0000 </r>
       <r>    1.2551    0.0000 </r>
      </set>
      <set comment="kpoint 5">
       <r>  -31.1007    1.0000 </r>
       <r>  -18.6486    1.0000 </r>
       <r>  -12.2882    1.0000 </r>
       <r>  -11.2251    1.0000 </r>
       <r>  -11.2247    1.0000 </r>
       <r>   -4.4754    0.0000 </r>
       <r>   -4.4748    0.0000 </r>
       <r>    0.0556    0.0000 </r>
       <r>    0.3460    0.0000 </r>
       <r>    2.2130    0.0000 </r>
       <r>    2.4806    0.0000 </r>
      </set>
      <set comment="kpoint 6">
       <r>  -31.1009    1.0000 </r>
       <r>  -18.6485    1.0000 </r>
       <r>  -12.2881    1.0000 </r>
       <r>  -11.2254    1.0000 </r>
       <r>  -11.2250    1.0000 </r>
       <r>   -4.4755    0.0000 </r>
       <r>   -4.4750    0.0000 </r>
       <r>    0.6530    0.0000 </r>
       <r>    0.8161    0.0000 </r>
       <r>    0.8170    0.0000 </r>
       <r>    1.2516    0.0000 </r>
      </set>
      <set comment="kpoint 7">
       <r>  -31.1008    1.0000 </r>
       <r>  -18.6485    1.0000 </r>
       <r>  -12.2881    1.0000 </r>
       <r>  -11.2254    1.0000 </r>
       <r>  -11.2247    1.0000 </r>
       <r>   -4.4758    0.0000 </r>
       <r>   -4.4744    0.0000 </r>
       <r>    0.5408    0.0000 </r>
       <r>    0.7367    0.0000 </r>
       <r>    0.7737    0.0000 </r>
       <r>    1.1821    0.0000 </r>
      </set>
      <set comment="kpoint 8">
       <r>  -31.1009    1.0000 </r>
       <r>  -18.6485    1.0000 </r>
       <r>  -12.2880    1.0000 </r>
       <r>  -11.2253    1.0000 </r>
       <r>  -11.2252    1.0000 </r>
       <r>   -4.4756    0.0000 </r>
       <r>   -4.4756    0.0000 </r>
       <r>    1.1385    0.0000 </r>
       <r>    1.2230    0.0000 </r>
       <r>    1.2267    0.0000 </r>
       <r>    1.2794    0.0000 </r>
      </set>
     </set>
    </set>
   </array>
  </eigenvalues>
  <separator name="orbital magnetization" >
   <v name="MAGDIPOLOUT">      0.00000000      0.00000000      0.00000000</v>
  </separator>
  <dos>
   <i name="efermi">     -6.68705758 </i>
   <total>
    <array>
     <dimension dim="1">gridpoints</dimension>
     <dimension dim="2">spin</dimension>
     <field>energy</field>
     <field>total</field>
     <field>integrated</field>
     <set>
      <set comment="spin 1">
       <r>   -34.0757     0.0000     0.0000 </r>
       <r>   -33.9474     0.0000     0.0000 </r>
       <r>   -33.8191     0.0000     0.0000 </r>
       <r>   -33.6908     0.0000     0.0000 </r>
       <r>   -33.5625     0.0000     0.0000 </r>
       <r>   -33.4343     0.0000     0.0000 </r>
       <r>   -33.3060     0.0000     0.0000 </r>
       <r>   -33.1777     0.0000     0.0000 </r>
       <r>   -33.0494     0.0000     0.0000 </r>
       <r>   -32.9211     0.0000     0.0000 </r>
       <r>   -32.7928     0.0000     0.0000 </r>
       <r>   -32.6646     0.0000     0.0000 </r>
       <r>   -32.5363     0.0000     0.0000 </r>
       <r>   -32.4080     0.0000     0.0000 </r>
       <r>   -32.2797     7.7952     1.0000 </r>
       <r>   -32.1514     0.0000     1.0000 </r>
       <r>   -32.0231     0.0000     1.0000 </r>
       <r>   -31.8948     0.0000     1.0000 </r>
       <r>   -31.7666     0.0000     1.0000 </r>
       <r>   -31.6383     0.0000     1.0000 </r>
       <r>   -31.5100     0.0000     1.0000 </r>
       <r>   -31.3817     0.0000     1.0000 </r>
       <r>   -31.2534     0.0000     1.0000 </r>
       <r>   -31.1251     0.0000     1.0000 </r>
       <r>   -30.9969     0.0000     1.0000 </r>
       <r>   -30.8686     0.0000     1.0000 </r>
       <r>   -30.7403     0.0000     1.0000 </r>
       <r>   -30.6120     0.0000     1.0000 </r>
       <r>   -30.4837     0.0000     1.0000 </r>
       <r>   -30.3554     0.0000     1.0000 </r>
       <r>   -30.2272     0.0000     1.0000 </r>
       <r>   -30.0989     0.0000     1.0000 </r>
       <r>   -29.9706     0.0000     1.0000 </r>
       <r>   -29.8423     0.0000     1.0000 </r>
       <r>   -29.7140     0.0000     1.0000 </r>
       <r>   -29.5857     0.0000     1.0000 </r>
       <r>   -29.4575     0.0000     1.0000 </r>
       <r>   -29.3292     0.0000     1.0000 </r>
       <r>   -29.2009     0.0000     1.0000 </r>
       <r>   -29.0726     0.0000     1.0000 </r>
       <r>   -28.9443     0.0000     1.0000 </r>
       <r>   -28.8160     0.0000     1.0000 </r>
       <r>   -28.6878     0.0000     1.0000 </r>
       <r>   -28.5595     0.0000     1.0000 </r>
       <r>   -28.4312     0.0000     1.0000 </r>
       <r>   -28.3029     0.0000     1.0000 </r>
       <r>   -28.1746     0.0000     1.0000 </r>
       <r>   -28.0463     0.0000     1.0000 </r>
       <r>   -27.9180     0.0000     1.0000 </r>
       <r>   -27.7898     0.0000     1.0000 </r>
       <r>   -27.6615     0.0000     1.0000 </r>
       <r>   -27.5332     0.0000     1.0000 </r>
       <r>   -27.4049     0.0000     1.0000 </r>
       <r>   -27.2766     0.0000     1.0000 </r>
       <r>   -27.1483     0.0000     1.0000 </r>
       <r>   -27.0201     0.0000     1.0000 </r>
       <r>   -26.8918     0.0000     1.0000 </r>
       <r>   -26.7635     0.0000     1.0000 </r>
       <r>   -26.6352     0.0000     1.0000 </r>
       <r>   -26.5069     0.0000     1.0000 </r>
       <r>   -26.3786     0.0000     1.0000 </r>
       <r>   -26.2504     0.0000     1.0000 </r>
       <r>   -26.1221     0.0000     1.0000 </r>
       <r>   -25.9938     0.0000     1.0000 </r>
       <r>   -25.8655     0.0000     1.0000 </r>
       <r>   -25.7372     0.0000     1.0000 </r>
       <r>   -25.6089     0.0000     1.0000 </r>
       <r>   -25.4807     0.0000     1.0000 </r>
       <r>   -25.3524     0.0000     1.0000 </r>
       <r>   -25.2241     0.0000     1.0000 </r>
       <r>   -25.0958     0.0000     1.0000 </r>
       <r>   -24.9675     0.0000     1.0000 </r>
       <r>   -24.8392     0.0000     1.0000 </r>
       <r>   -24.7109     0.0000     1.0000 </r>
       <r>   -24.5827     0.0000     1.0000 </r>
       <r>   -24.4544     0.0000     1.0000 </r>
       <r>   -24.3261     0.0000     1.0000 </r>
       <r>   -24.1978     0.0000     1.0000 </r>
       <r>   -24.0695     0.0000     1.0000 </r>
       <r>   -23.9412     0.0000     1.0000 </r>
       <r>   -23.8130     0.0000     1.0000 </r>
       <r>   -23.6847     0.0000     1.0000 </r>
       <r>   -23.5564     0.0000     1.0000 </r>
       <r>   -23.4281     0.0000     1.0000 </r>
       <r>   -23.2998     0.0000     1.0000 </r>
       <r>   -23.1715     0.0000     1.0000 </r>
       <r>   -23.0433     0.0000     1.0000 </r>
       <r>   -22.9150     0.0000     1.0000 </r>
       <r>   -22.7867     0.0000     1.0000 </r>
       <r>   -22.6584     0.0000     1.0000 </r>
       <r>   -22.5301     0.0000     1.0000 </r>
       <r>   -22.4018     0.0000     1.0000 </r>
       <r>   -22.2736     0.0000     1.0000 </r>
       <r>   -22.1453     0.0000     1.0000 </r>
       <r>   -22.0170     0.0000     1.0000 </r>
       <r>   -21.8887     0.0000     1.0000 </r>
       <r>   -21.7604     0.0000     1.0000 </r>
       <r>   -21.6321     0.0000     1.0000 </r>
       <r>   -21.5039     0.0000     1.0000 </r>
       <r>   -21.3756     0.0000     1.0000 </r>
       <r>   -21.2473     0.0000     1.0000 </r>
       <r>   -21.1190     0.0000     1.0000 </r>
       <r>   -20.9907     0.0000     1.0000 </r>
       <r>   -20.8624     0.0000     1.0000 </r>
       <r>   -20.7341     0.0000     1.0000 </r>
       <r>   -20.6059     0.0000     1.0000 </r>
       <r>   -20.4776     0.0000     1.0000 </r>
       <r>   -20.3493     0.0000     2.0000 </r>
       <r>   -20.2210     0.0000     2.0000 </r>
       <r>   -20.0927     0.0000     2.0000 </r>
       <r>   -19.9644     0.0000     2.0000 </r>
       <r>   -19.8362     0.0000     2.0000 </r>
       <r>   -19.7079     0.0000     2.0000 </r>
       <r>   -19.5796     0.0000     2.0000 </r>
       <r>   -19.4513     0.0000     2.0000 </r>
       <r>   -19.3230     0.0000     2.0000 </r>
       <r>   -19.1947     0.0000     2.0000 </r>
       <r>   -19.0665     0.0000     2.0000 </r>
       <r>   -18.9382     0.0000     2.0000 </r>
       <r>   -18.8099     0.0000     2.0000 </r>
       <r>   -18.6816     0.0000     2.0000 </r>
       <r>   -18.5533     0.0000     2.0000 </r>
       <r>   -18.4250     0.0000     2.0000 </r>
       <r>   -18.2968     0.0000     2.0000 </r>
       <r>   -18.1685     0.0000     2.0000 </r>
       <r>   -18.0402     0.0000     2.0000 </r>
       <r>   -17.9119     0.0000     2.0000 </r>
       <r>   -17.7836     0.0000     2.0000 </r>
       <r>   -17.6553     0.0000     2.0000 </r>
       <r>   -17.5270     0.0000     2.0000 </r>
       <r>   -17.3988     0.0000     2.0000 </r>
       <r>   -17.2705     0.0000     2.0000 </r>
       <r>   -17.1422     0.0000     2.0000 </r>
       <r>   -17.0139     0.0000     2.0000 </r>
       <r>   -16.8856     0.0000     2.0000 </r>
       <r>   -16.7573     0.0000     2.0000 </r>
       <r>   -16.6291     0.0000     2.0000 </r>
       <r>   -16.5008     0.0000     2.0000 </r>
       <r>   -16.3725     0.0000     2.0000 </r>
       <r>   -16.2442     0.0000     2.0000 </r>
       <r>   -16.1159     0.0000     2.0000 </r>
       <r>   -15.9876     0.0000     2.0000 </r>
       <r>   -15.8594     0.0000     2.0000 </r>
       <r>   -15.7311     0.0000     2.0000 </r>
       <r>   -15.6028     0.0000     2.0000 </r>
       <r>   -15.4745     0.0000     2.0000 </r>
       <r>   -15.3462     0.0000     2.0000 </r>
       <r>   -15.2179     0.0000     2.0000 </r>
       <r>   -15.0897     0.0000     2.0000 </r>
       <r>   -14.9614     0.0000     2.0000 </r>
       <r>   -14.8331     0.0000     2.0000 </r>
       <r>   -14.7048     0.0000     2.0000 </r>
       <r>   -14.5765     0.0000     2.0000 </r>
       <r>   -14.4482     0.0000     2.0000 </r>
       <r>   -14.3200     0.0000     2.0000 </r>
       <r>   -14.1917     0.0000     2.0000 </r>
       <r>   -14.0634     0.0000     2.0000 </r>
       <r>   -13.9351     0.0000     2.0000 </r>
       <r>   -13.8068     0.0000     2.0000 </r>
       <r>   -13.6785     0.0000     2.0000 </r>
       <r>   -13.5502     0.0000     2.0000 </r>
       <r>   -13.4220     0.0000     2.0000 </r>
       <r>   -13.2937     0.0000     2.0000 </r>
       <r>   -13.1654     7.7952     3.0000 </r>
       <r>   -13.0371    15.5904     5.0000 </r>
       <r>   -12.9088     0.0000     5.0000 </r>
       <r>   -12.7805     0.0000     5.0000 </r>
       <r>   -12.6523     0.0000     5.0000 </r>
       <r>   -12.5240     0.0000     5.0000 </r>
       <r>   -12.3957     0.0000     5.0000 </r>
       <r>   -12.2674     0.0000     5.0000 </r>
       <r>   -12.1391     0.0000     5.0000 </r>
       <r>   -12.0108     0.0000     5.0000 </r>
       <r>   -11.8826     0.0000     5.0000 </r>
       <r>   -11.7543     0.0000     5.0000 </r>
       <r>   -11.6260     0.0000     5.0000 </r>
       <r>   -11.4977     0.0000     5.0000 </r>
       <r>   -11.3694     0.0000     5.0000 </r>
       <r>   -11.2411     0.0000     5.0000 </r>
       <r>   -11.1129     0.0000     5.0000 </r>
       <r>   -10.9846     0.0000     5.0000 </r>
       <r>   -10.8563     0.0000     5.0000 </r>
       <r>   -10.7280     0.0000     5.0000 </r>
       <r>   -10.5997     0.0000     5.0000 </r>
       <r>   -10.4714     0.0000     5.0000 </r>
       <r>   -10.3431     0.0000     5.0000 </r>
       <r>   -10.2149     0.0000     5.0000 </r>
       <r>   -10.0866     0.0000     5.0000 </r>
       <r>    -9.9583     0.0000     5.0000 </r>
       <r>    -9.8300     0.0000     5.0000 </r>
       <r>    -9.7017     0.0000     5.0000 </r>
       <r>    -9.5734     0.0000     5.0000 </r>
       <r>    -9.4452     0.0000     5.0000 </r>
       <r>    -9.3169     0.0000     5.0000 </r>
       <r>    -9.1886     0.0000     5.0000 </r>
       <r>    -9.0603     0.0000     5.0000 </r>
       <r>    -8.9320     0.0000     5.0000 </r>
       <r>    -8.8037     0.0000     5.0000 </r>
       <r>    -8.6755     0.0000     5.0000 </r>
       <r>    -8.5472     0.0000     5.0000 </r>
       <r>    -8.4189     0.0000     5.0000 </r>
       <r>    -8.2906     0.0000     5.0000 </r>
       <r>    -8.1623     0.0000     5.0000 </r>
       <r>    -8.0340     0.0000     5.0000 </r>
       <r>    -7.9058     0.0000     5.0000 </r>
       <r>    -7.7775     0.0000     5.0000 </r>
       <r>    -7.6492     0.0000     5.0000 </r>
       <r>    -7.5209     0.0000     5.0000 </r>
       <r>    -7.3926     0.0000     5.0000 </r>
       <r>    -7.2643     0.0000     5.0000 </r>
       <r>    -7.1361     0.0000     5.0000 </r>
       <r>    -7.0078     0.0000     5.0000 </r>
       <r>    -6.8795     0.0000     5.0000 </r>
       <r>    -6.7512    10.9807     6.4087 </r>
       <r>    -6.6229     0.0000     7.0000 </r>
       <r>    -6.4946     0.0000     7.0000 </r>
       <r>    -6.3663     0.0000     7.0000 </r>
       <r>    -6.2381     0.0000     7.0000 </r>
       <r>    -6.1098     0.0000     7.0000 </r>
       <r>    -5.9815     0.0000     7.0000 </r>
       <r>    -5.8532     0.0000     7.0000 </r>
       <r>    -5.7249     0.0000     7.0000 </r>
       <r>    -5.5966     0.0000     7.0000 </r>
       <r>    -5.4684     0.0000     7.0000 </r>
       <r>    -5.3401     0.0000     7.0000 </r>
       <r>    -5.2118     0.0000     7.0000 </r>
       <r>    -5.0835     0.0000     7.0000 </r>
       <r>    -4.9552     0.0000     7.0000 </r>
       <r>    -4.8269     0.0000     7.0000 </r>
       <r>    -4.6987     0.0000     7.0000 </r>
       <r>    -4.5704     0.0000     7.0000 </r>
       <r>    -4.4421     0.0000     7.0000 </r>
       <r>    -4.3138     0.0000     7.0000 </r>
       <r>    -4.1855     0.0000     7.0000 </r>
       <r>    -4.0572     0.0000     7.0000 </r>
       <r>    -3.9290     0.0000     7.0000 </r>
       <r>    -3.8007     0.0000     7.0000 </r>
       <r>    -3.6724     0.0000     7.0000 </r>
       <r>    -3.5441     0.0000     7.0000 </r>
       <r>    -3.4158     0.0000     7.0000 </r>
       <r>    -3.2875     0.0000     7.0000 </r>
       <r>    -3.1592     0.0000     7.0000 </r>
       <r>    -3.0310     0.0000     7.0000 </r>
       <r>    -2.9027     0.0000     7.0000 </r>
       <r>    -2.7744     0.0000     7.0000 </r>
       <r>    -2.6461     0.0000     7.0000 </r>
       <r>    -2.5178     0.0000     7.0000 </r>
       <r>    -2.3895     0.0000     7.0000 </r>
       <r>    -2.2613     0.0000     7.0000 </r>
       <r>    -2.1330     0.0000     7.0000 </r>
       <r>    -2.0047     0.0000     7.0000 </r>
       <r>    -1.8764     0.0000     7.0000 </r>
       <r>    -1.7481     0.0000     7.0000 </r>
       <r>    -1.6198     0.0000     7.0000 </r>
       <r>    -1.4916     0.0000     7.0000 </r>
       <r>    -1.3633     0.0000     7.0000 </r>
       <r>    -1.2350     0.0000     7.0000 </r>
       <r>    -1.1067     0.0000     7.0000 </r>
       <r>    -0.9784     0.0000     7.0000 </r>
       <r>    -0.8501     0.0000     7.0000 </r>
       <r>    -0.7219     0.0000     7.0000 </r>
       <r>    -0.5936     0.0000     7.0000 </r>
       <r>    -0.4653     0.0000     7.0000 </r>
       <r>    -0.3370     0.9744     7.1250 </r>
       <r>    -0.2087     0.0000     7.1250 </r>
       <r>    -0.0804     0.9140     7.2423 </r>
       <r>     0.0478     0.0033     7.2504 </r>
       <r>     0.1761     1.6912     7.5920 </r>
       <r>     0.3044     0.0000     7.6250 </r>
       <r>     0.4327     2.9232     8.0000 </r>
       <r>     0.5610     1.5733     8.3268 </r>
       <r>     0.6893     2.1315     8.6484 </r>
       <r>     0.8176     1.1051     8.8918 </r>
       <r>     0.9458     0.0000     9.1250 </r>
       <r>     1.0741     1.8705     9.4900 </r>
       <r>     1.2024     1.7794     9.8533 </r>
       <r>     1.3307     0.9744    10.1250 </r>
       <r>     1.4590     0.0000    10.1250 </r>
       <r>     1.5873     0.5420    10.1945 </r>
       <r>     1.7155     0.0000    10.2500 </r>
       <r>     1.8438     0.0000    10.2500 </r>
       <r>     1.9721     0.0000    10.2500 </r>
       <r>     2.1004     1.4111    10.6810 </r>
       <r>     2.2287     0.0000    10.8750 </r>
       <r>     2.3570     0.0000    10.8750 </r>
       <r>     2.4852     0.0000    10.8750 </r>
       <r>     2.6135     0.0000    10.8750 </r>
       <r>     2.7418     0.0000    11.0000 </r>
       <r>     2.8701     0.0000    11.0000 </r>
       <r>     2.9984     0.0000    11.0000 </r>
       <r>     3.1267     0.0000    11.0000 </r>
       <r>     3.2549     0.0000    11.0000 </r>
       <r>     3.3832     0.0000    11.0000 </r>
       <r>     3.5115     0.0000    11.0000 </r>
       <r>     3.6398     0.0000    11.0000 </r>
       <r>     3.7681     0.0000    11.0000 </r>
       <r>     3.8964     0.0000    11.0000 </r>
       <r>     4.0247     0.0000    11.0000 </r>
       <r>     4.1529     0.0000    11.0000 </r>
       <r>     4.2812     0.0000    11.0000 </r>
       <r>     4.4095     0.0000    11.0000 </r>
      </set>
      <set comment="spin 2">
       <r>   -34.0757     0.0000     0.0000 </r>
       <r>   -33.9474     0.0000     0.0000 </r>
       <r>   -33.8191     0.0000     0.0000 </r>
       <r>   -33.6908     0.0000     0.0000 </r>
       <r>   -33.5625     0.0000     0.0000 </r>
       <r>   -33.4343     0.0000     0.0000 </r>
       <r>   -33.3060     0.0000     0.0000 </r>
       <r>   -33.1777     0.0000     0.0000 </r>
       <r>   -33.0494     0.0000     0.0000 </r>
       <r>   -32.9211     0.0000     0.0000 </r>
       <r>   -32.7928     0.0000     0.0000 </r>
       <r>   -32.6646     0.0000     0.0000 </r>
       <r>   -32.5363     0.0000     0.0000 </r>
       <r>   -32.4080     0.0000     0.0000 </r>
       <r>   -32.2797     0.0000     0.0000 </r>
       <r>   -32.1514     0.0000     0.0000 </r>
       <r>   -32.0231     0.0000     0.0000 </r>
       <r>   -31.8948     0.0000     0.0000 </r>
       <r>   -31.7666     0.0000     0.0000 </r>
       <r>   -31.6383     0.0000     0.0000 </r>
       <r>   -31.5100     0.0000     0.0000 </r>
       <r>   -31.3817     0.0000     0.0000 </r>
       <r>   -31.2534     0.0000     0.0000 </r>
       <r>   -31.1251     0.0023     0.0003 </r>
       <r>   -30.9969     0.0000     1.0000 </r>
       <r>   -30.8686     0.0000     1.0000 </r>
       <r>   -30.7403     0.0000     1.0000 </r>
       <r>   -30.6120     0.0000     1.0000 </r>
       <r>   -30.4837     0.0000     1.0000 </r>
       <r>   -30.3554     0.0000     1.0000 </r>
       <r>   -30.2272     0.0000     1.0000 </r>
       <r>   -30.0989     0.0000     1.0000 </r>
       <r>   -29.9706     0.0000     1.0000 </r>
       <r>   -29.8423     0.0000     1.0000 </r>
       <r>   -29.7140     0.0000     1.0000 </r>
       <r>   -29.5857     0.0000     1.0000 </r>
       <r>   -29.4575     0.0000     1.0000 </r>
       <r>   -29.3292     0.0000     1.0000 </r>
       <r>   -29.2009     0.0000     1.0000 </r>
       <r>   -29.0726     0.0000     1.0000 </r>
       <r>   -28.9443     0.0000     1.0000 </r>
       <r>   -28.8160     0.0000     1.0000 </r>
       <r>   -28.6878     0.0000     1.0000 </r>
       <r>   -28.5595     0.0000     1.0000 </r>
       <r>   -28.4312     0.0000     1.0000 </r>
       <r>   -28.3029     0.0000     1.0000 </r>
       <r>   -28.1746     0.0000     1.0000 </r>
       <r>   -28.0463     0.0000     1.0000 </r>
       <r>   -27.9180     0.0000     1.0000 </r>
       <r>   -27.7898     0.0000     1.0000 </r>
       <r>   -27.6615     0.0000     1.0000 </r>
       <r>   -27.5332     0.0000     1.0000 </r>
       <r>   -27.4049     0.0000     1.0000 </r>
       <r>   -27.2766     0.0000     1.0000 </r>
       <r>   -27.1483     0.0000     1.0000 </r>
       <r>   -27.0201     0.0000     1.0000 </r>
       <r>   -26.8918     0.0000     1.0000 </r>
       <r>   -26.7635     0.0000     1.0000 </r>
       <r>   -26.6352     0.0000     1.0000 </r>
       <r>   -26.5069     0.0000     1.0000 </r>
       <r>   -26.3786     0.0000     1.0000 </r>
       <r>   -26.2504     0.0000     1.0000 </r>
       <r>   -26.1221     0.0000     1.0000 </r>
       <r>   -25.9938     0.0000     1.0000 </r>
       <r>   -25.8655     0.0000     1.0000 </r>
       <r>   -25.7372     0.0000     1.0000 </r>
       <r>   -25.6089     0.0000     1.0000 </r>
       <r>   -25.4807     0.0000     1.0000 </r>
       <r>   -25.3524     0.0000     1.0000 </r>
       <r>   -25.2241     0.0000     1.0000 </r>
       <r>   -25.0958     0.0000     1.0000 </r>
       <r>   -24.9675     0.0000     1.0000 </r>
       <r>   -24.8392     0.0000     1.0000 </r>
       <r>   -24.7109     0.0000     1.0000 </r>
       <r>   -24.5827     0.0000     1.0000 </r>
       <r>   -24.4544     0.0000     1.0000 </r>
       <r>   -24.3261     0.0000     1.0000 </r>
       <r>   -24.1978     0.0000     1.0000 </r>
       <r>   -24.0695     0.0000     1.0000 </r>
       <r>   -23.9412     0.0000     1.0000 </r>
       <r>   -23.8130     0.0000     1.0000 </r>
       <r>   -23.6847     0.0000     1.0000 </r>
       <r>   -23.5564     0.0000     1.0000 </r>
       <r>   -23.4281     0.0000     1.0000 </r>
       <r>   -23.2998     0.0000     1.0000 </r>
       <r>   -23.1715     0.0000     1.0000 </r>
       <r>   -23.0433     0.0000     1.0000 </r>
       <r>   -22.9150     0.0000     1.0000 </r>
       <r>   -22.7867     0.0000     1.0000 </r>
       <r>   -22.6584     0.0000     1.0000 </r>
       <r>   -22.5301     0.0000     1.0000 </r>
       <r>   -22.4018     0.0000     1.0000 </r>
       <r>   -22.2736     0.0000     1.0000 </r>
       <r>   -22.1453     0.0000     1.0000 </r>
       <r>   -22.0170     0.0000     1.0000 </r>
       <r>   -21.8887     0.0000     1.0000 </r>
       <r>   -21.7604     0.0000     1.0000 </r>
       <r>   -21.6321     0.0000     1.0000 </r>
       <r>   -21.5039     0.0000     1.0000 </r>
       <r>   -21.3756     0.0000     1.0000 </r>
       <r>   -21.2473     0.0000     1.0000 </r>
       <r>   -21.1190     0.0000     1.0000 </r>
       <r>   -20.9907     0.0000     1.0000 </r>
       <r>   -20.8624     0.0000     1.0000 </r>
       <r>   -20.7341     0.0000     1.0000 </r>
       <r>   -20.6059     0.0000     1.0000 </r>
       <r>   -20.4776     0.0000     1.0000 </r>
       <r>   -20.3493     0.0000     1.0000 </r>
       <r>   -20.2210     0.0000     1.0000 </r>
       <r>   -20.0927     0.0000     1.0000 </r>
       <r>   -19.9644     0.0000     1.0000 </r>
       <r>   -19.8362     0.0000     1.0000 </r>
       <r>   -19.7079     0.0000     1.0000 </r>
       <r>   -19.5796     0.0000     1.0000 </r>
       <r>   -19.4513     0.0000     1.0000 </r>
       <r>   -19.3230     0.0000     1.0000 </r>
       <r>   -19.1947     0.0000     1.0000 </r>
       <r>   -19.0665     0.0000     1.0000 </r>
       <r>   -18.9382     0.0000     1.0000 </r>
       <r>   -18.8099     0.0000     1.0000 </r>
       <r>   -18.6816     0.0000     1.0000 </r>
       <r>   -18.5533     0.0000     2.0000 </r>
       <r>   -18.4250     0.0000     2.0000 </r>
       <r>   -18.2968     0.0000     2.0000 </r>
       <r>   -18.1685     0.0000     2.0000 </r>
       <r>   -18.0402     0.0000     2.0000 </r>
       <r>   -17.9119     0.0000     2.0000 </r>
       <r>   -17.7836     0.0000     2.0000 </r>
       <r>   -17.6553     0.0000     2.0000 </r>
       <r>   -17.5270     0.0000     2.0000 </r>
       <r>   -17.3988     0.0000     2.0000 </r>
       <r>   -17.2705     0.0000     2.0000 </r>
       <r>   -17.1422     0.0000     2.0000 </r>
       <r>   -17.0139     0.0000     2.0000 </r>
       <r>   -16.8856     0.0000     2.0000 </r>
       <r>   -16.7573     0.0000     2.0000 </r>
       <r>   -16.6291     0.0000     2.0000 </r>
       <r>   -16.5008     0.0000     2.0000 </r>
       <r>   -16.3725     0.0000     2.0000 </r>
       <r>   -16.2442     0.0000     2.0000 </r>
       <r>   -16.1159     0.0000     2.0000 </r>
       <r>   -15.9876     0.0000     2.0000 </r>
       <r>   -15.8594     0.0000     2.0000 </r>
       <r>   -15.7311     0.0000     2.0000 </r>
       <r>   -15.6028     0.0000     2.0000 </r>
       <r>   -15.4745     0.0000     2.0000 </r>
       <r>   -15.3462     0.0000     2.0000 </r>
       <r>   -15.2179     0.0000     2.0000 </r>
       <r>   -15.0897     0.0000     2.0000 </r>
       <r>   -14.9614     0.0000     2.0000 </r>
       <r>   -14.8331     0.0000     2.0000 </r>
       <r>   -14.7048     0.0000     2.0000 </r>
       <r>   -14.5765     0.0000     2.0000 </r>
       <r>   -14.4482     0.0000     2.0000 </r>
       <r>   -14.3200     0.0000     2.0000 </r>
       <r>   -14.1917     0.0000     2.0000 </r>
       <r>   -14.0634     0.0000     2.0000 </r>
       <r>   -13.9351     0.0000     2.0000 </r>
       <r>   -13.8068     0.0000     2.0000 </r>
       <r>   -13.6785     0.0000     2.0000 </r>
       <r>   -13.5502     0.0000     2.0000 </r>
       <r>   -13.4220     0.0000     2.0000 </r>
       <r>   -13.2937     0.0000     2.0000 </r>
       <r>   -13.1654     0.0000     2.0000 </r>
       <r>   -13.0371     0.0000     2.0000 </r>
       <r>   -12.9088     0.0000     2.0000 </r>
       <r>   -12.7805     0.0000     2.0000 </r>
       <r>   -12.6523     0.0000     2.0000 </r>
       <r>   -12.5240     0.0000     2.0000 </r>
       <r>   -12.3957     0.0000     2.0000 </r>
       <r>   -12.2674     7.7820     2.9983 </r>
       <r>   -12.1391     0.0000     3.0000 </r>
       <r>   -12.0108     0.0000     3.0000 </r>
       <r>   -11.8826     0.0000     3.0000 </r>
       <r>   -11.7543     0.0000     3.0000 </r>
       <r>   -11.6260     0.0000     3.0000 </r>
       <r>   -11.4977     0.0000     3.0000 </r>
       <r>   -11.3694     0.0000     3.0000 </r>
       <r>   -11.2411     0.1840     3.0236 </r>
       <r>   -11.1129     0.0000     5.0000 </r>
       <r>   -10.9846     0.0000     5.0000 </r>
       <r>   -10.8563     0.0000     5.0000 </r>
       <r>   -10.7280     0.0000     5.0000 </r>
       <r>   -10.5997     0.0000     5.0000 </r>
       <r>   -10.4714     0.0000     5.0000 </r>
       <r>   -10.3431     0.0000     5.0000 </r>
       <r>   -10.2149     0.0000     5.0000 </r>
       <r>   -10.0866     0.0000     5.0000 </r>
       <r>    -9.9583     0.0000     5.0000 </r>
       <r>    -9.8300     0.0000     5.0000 </r>
       <r>    -9.7017     0.0000     5.0000 </r>
       <r>    -9.5734     0.0000     5.0000 </r>
       <r>    -9.4452     0.0000     5.0000 </r>
       <r>    -9.3169     0.0000     5.0000 </r>
       <r>    -9.1886     0.0000     5.0000 </r>
       <r>    -9.0603     0.0000     5.0000 </r>
       <r>    -8.9320     0.0000     5.0000 </r>
       <r>    -8.8037     0.0000     5.0000 </r>
       <r>    -8.6755     0.0000     5.0000 </r>
       <r>    -8.5472     0.0000     5.0000 </r>
       <r>    -8.4189     0.0000     5.0000 </r>
       <r>    -8.2906     0.0000     5.0000 </r>
       <r>    -8.1623     0.0000     5.0000 </r>
       <r>    -8.0340     0.0000     5.0000 </r>
       <r>    -7.9058     0.0000     5.0000 </r>
       <r>    -7.7775     0.0000     5.0000 </r>
       <r>    -7.6492     0.0000     5.0000 </r>
       <r>    -7.5209     0.0000     5.0000 </r>
       <r>    -7.3926     0.0000     5.0000 </r>
       <r>    -7.2643     0.0000     5.0000 </r>
       <r>    -7.1361     0.0000     5.0000 </r>
       <r>    -7.0078     0.0000     5.0000 </r>
       <r>    -6.8795     0.0000     5.0000 </r>
       <r>    -6.7512     0.0000     5.0000 </r>
       <r>    -6.6229     0.0000     5.0000 </r>
       <r>    -6.4946     0.0000     5.0000 </r>
       <r>    -6.3663     0.0000     5.0000 </r>
       <r>    -6.2381     0.0000     5.0000 </r>
       <r>    -6.1098     0.0000     5.0000 </r>
       <r>    -5.9815     0.0000     5.0000 </r>
       <r>    -5.8532     0.0000     5.0000 </r>
       <r>    -5.7249     0.0000     5.0000 </r>
       <r>    -5.5966     0.0000     5.0000 </r>
       <r>    -5.4684     0.0000     5.0000 </r>
       <r>    -5.3401     0.0000     5.0000 </r>
       <r>    -5.2118     0.0000     5.0000 </r>
       <r>    -5.0835     0.0000     5.0000 </r>
       <r>    -4.9552     0.0000     5.0000 </r>
       <r>    -4.8269     0.0000     5.0000 </r>
       <r>    -4.6987     0.0000     5.0000 </r>
       <r>    -4.5704     0.0000     5.0000 </r>
       <r>    -4.4421    15.5904     7.0000 </r>
       <r>    -4.3138     0.0000     7.0000 </r>
       <r>    -4.1855     0.0000     7.0000 </r>
       <r>    -4.0572     0.0000     7.0000 </r>
       <r>    -3.9290     0.0000     7.0000 </r>
       <r>    -3.8007     0.0000     7.0000 </r>
       <r>    -3.6724     0.0000     7.0000 </r>
       <r>    -3.5441     0.0000     7.0000 </r>
       <r>    -3.4158     0.0000     7.0000 </r>
       <r>    -3.2875     0.0000     7.0000 </r>
       <r>    -3.1592     0.0000     7.0000 </r>
       <r>    -3.0310     0.0000     7.0000 </r>
       <r>    -2.9027     0.0000     7.0000 </r>
       <r>    -2.7744     0.0000     7.0000 </r>
       <r>    -2.6461     0.0000     7.0000 </r>
       <r>    -2.5178     0.0000     7.0000 </r>
       <r>    -2.3895     0.0000     7.0000 </r>
       <r>    -2.2613     0.0000     7.0000 </r>
       <r>    -2.1330     0.0000     7.0000 </r>
       <r>    -2.0047     0.0000     7.0000 </r>
       <r>    -1.8764     0.0000     7.0000 </r>
       <r>    -1.7481     0.0000     7.0000 </r>
       <r>    -1.6198     0.0000     7.0000 </r>
       <r>    -1.4916     0.0000     7.0000 </r>
       <r>    -1.3633     0.0000     7.0000 </r>
       <r>    -1.2350     0.0000     7.0000 </r>
       <r>    -1.1067     0.0000     7.0000 </r>
       <r>    -0.9784     0.0000     7.0000 </r>
       <r>    -0.8501     0.0000     7.0000 </r>
       <r>    -0.7219     0.0000     7.0000 </r>
       <r>    -0.5936     0.0000     7.0000 </r>
       <r>    -0.4653     0.0000     7.0000 </r>
       <r>    -0.3370     0.0000     7.0000 </r>
       <r>    -0.2087     0.9744     7.1250 </r>
       <r>    -0.0804     0.0000     7.1250 </r>
       <r>     0.0478     0.1331     7.1421 </r>
       <r>     0.1761     0.0000     7.2500 </r>
       <r>     0.3044     0.9744     7.3750 </r>
       <r>     0.4327     0.9744     7.6250 </r>
       <r>     0.5610     1.9467     7.9997 </r>
       <r>     0.6893     0.9744     8.1250 </r>
       <r>     0.8176     2.0623     8.5146 </r>
       <r>     0.9458     0.9964     8.7528 </r>
       <r>     1.0741     0.9744     9.0000 </r>
       <r>     1.2024     1.9489     9.2500 </r>
       <r>     1.3307     2.9236     9.8751 </r>
       <r>     1.4590     0.0000    10.0000 </r>
       <r>     1.5873     0.0000    10.0000 </r>
       <r>     1.7155     1.8639    10.3641 </r>
       <r>     1.8438     0.0000    10.3750 </r>
       <r>     1.9721     0.0000    10.3750 </r>
       <r>     2.1004     0.0184    10.3774 </r>
       <r>     2.2287     2.9102    10.8733 </r>
       <r>     2.3570     0.0000    10.8750 </r>
       <r>     2.4852     0.7255    10.9681 </r>
       <r>     2.6135     0.0000    11.0000 </r>
       <r>     2.7418     0.0000    11.0000 </r>
       <r>     2.8701     0.0000    11.0000 </r>
       <r>     2.9984     0.0000    11.0000 </r>
       <r>     3.1267     0.0000    11.0000 </r>
       <r>     3.2549     0.0000    11.0000 </r>
       <r>     3.3832     0.0000    11.0000 </r>
       <r>     3.5115     0.0000    11.0000 </r>
       <r>     3.6398     0.0000    11.0000 </r>
       <r>     3.7681     0.0000    11.0000 </r>
       <r>     3.8964     0.0000    11.0000 </r>
       <r>     4.0247     0.0000    11.0000 </r>
       <r>     4.1529     0.0000    11.0000 </r>
       <r>     4.2812     0.0000    11.0000 </r>
       <r>     4.4095     0.0000    11.0000 </r>
      </set>
     </set>
    </array>
   </total>
  </dos>
 </calculation>
 <structure name="finalpos" >
  <crystal>
   <varray name="basis" >
    <v>       7.50000000       0.00000000       0.00000000 </v>
    <v>       0.00000000       8.00000000       0.00000000 </v>
    <v>       0.00000000       0.00000000       8.90000000 </v>
   </varray>
   <i name="volume">    534.00000000 </i>
   <varray name="rec_basis" >
    <v>       0.13333333       0.00000000       0.00000000 </v>
    <v>       0.00000000       0.12500000       0.00000000 </v>
    <v>       0.00000000       0.00000000       0.11235955 </v>
   </varray>
  </crystal>
  <varray name="positions" >
   <v>      -0.00000000       0.00000000      -0.00187890 </v>
   <v>       0.00000000       0.00000000       0.13671036 </v>
  </varray>
 </structure>
</modeling>
