 running    4 mpi-ranks, on    1 nodes
 distrk:  each k-point on    1 cores,    4 groups
 distr:  one band on    1 cores,    1 groups
 OpenACC runtime initialized ...    4 GPUs detected
 vasp.6.4.2 20Jul23 (build Nov 12 2023 22:16:35) complex                         
 POSCAR found type information on POSCAR GaO P 
 POSCAR found :  3 types and     119 ions
 scaLAPACK will be used selectively (only on CPU)
 LDA part: xc-table for Pade appr. of Perdew
 POSCAR, INCAR and KPOINTS ok, starting setup
 FFT: planning ... GRIDC
 FFT: planning ... GRID_SOFT
 FFT: planning ... GRID
 WAVECAR not read
 initial charge from wavefunction
 entering main loop
       N       E                     dE             d eps       ncg     rms          ort
DAV:   1    -0.205169340012E+05   -0.20517E+05   -0.54182E+05  5064   0.751E+03
DAV:   2    -0.664019558310E+05   -0.45885E+05   -0.44219E+05  5064   0.126E+03
DAV:   3    -0.721099932025E+05   -0.57080E+04   -0.51754E+04  5064   0.391E+02
DAV:   4    -0.730061926027E+05   -0.89620E+03   -0.81872E+03  5064   0.130E+02
DAV:   5    -0.405768041523E+05    0.32429E+05   -0.74815E+02  5064   0.613E+01
 gam= 0.000 g(H,U,f)=  0.887E+05 0.201E+05 0.773E-32 ort(H,U,f) = 0.000E+00 0.000E+00 0.000E+00
SDA:   6     0.405856804515E+05    0.81162E+05   -0.74815E+02  5064   0.109E+06 0.000E+00
 gam= 0.000 trial= 0.400  step= 0.689 mean= 0.400
 gam= 0.692 g(H,U,f)=  0.636E+05 0.115E+05 0.119E+03 ort(H,U,f) =-0.169E+05-0.637E+04-0.165E+03
CGA:   7     0.171454752030E+05   -0.23440E+05   -0.37494E+05  5064   0.753E+05-0.234E+05
 gam= 0.692 trial= 0.414  step= 0.301 mean= 0.414
 gam= 0.412 g(H,U,f)=  0.247E+05 0.601E+04 0.272E+03 ort(H,U,f) = 0.492E+04 0.286E+04-0.146E+02
CGA:   8     0.944928325489E+04   -0.76962E+04   -0.88815E+04  5064   0.310E+05 0.776E+04
 gam= 0.412 trial= 0.409  step= 0.243 mean= 0.409
 gam= 0.690 g(H,U,f)=  0.149E+05 0.642E+04 0.120E+03 ort(H,U,f) = 0.360E+04-0.103E+04-0.864E+02
CGA:   9     0.602429884668E+04   -0.34250E+04   -0.41564E+04  5064   0.214E+05 0.249E+04
 gam= 0.690 trial= 0.400  step= 0.261 mean= 0.400
 gam= 0.592 g(H,U,f)=  0.102E+05 0.242E+04 0.397E+02 ort(H,U,f) = 0.360E+04-0.924E+03-0.218E+01
CGA:  10     0.385631421058E+04   -0.21680E+04   -0.30114E+04  5064   0.127E+05 0.267E+04
 gam= 0.592 trial= 0.393  step= 0.282 mean= 0.393
 gam= 0.497 g(H,U,f)=  0.565E+04 0.642E+03 0.108E+01 ort(H,U,f) = 0.803E+03 0.535E+03-0.895E+00
CGA:  11     0.210132076413E+04   -0.17550E+04   -0.20081E+04  5064   0.629E+04 0.134E+04
 gam= 0.497 trial= 0.388  step= 0.374 mean= 0.388
 gam= 0.406 g(H,U,f)=  0.230E+04 0.256E+03 0.189E+00 ort(H,U,f) = 0.394E+03 0.368E+03 0.442E+00
CGA:  12     0.811796552867E+03   -0.12895E+04   -0.13014E+04  5064   0.255E+04 0.762E+03
 gam= 0.406 trial= 0.387  step= 0.518 mean= 0.387
 gam= 0.601 g(H,U,f)=  0.131E+04 0.221E+03 0.208E+01 ort(H,U,f) =-0.158E+03 0.272E+03 0.117E+01
CGA:  13     0.596706246088E+02   -0.75213E+03   -0.74062E+03  5064   0.153E+04 0.115E+03
 gam= 0.601 trial= 0.394  step= 0.559 mean= 0.394
 gam= 0.580 g(H,U,f)=  0.766E+03 0.124E+03 0.240E+00 ort(H,U,f) =-0.237E+03 0.118E+03-0.904E+00
CGA:  14    -0.381734800756E+03   -0.44141E+03   -0.44814E+03  5064   0.890E+03-0.120E+03
 gam= 0.580 trial= 0.402  step= 0.358 mean= 0.402
 gam= 0.793 g(H,U,f)=  0.438E+03 0.260E+03 0.791E+01 ort(H,U,f) = 0.121E+03-0.222E+03-0.980E+01
CGA:  15    -0.533902570552E+03   -0.15217E+03   -0.14686E+03  5064   0.705E+03-0.111E+03
 gam= 0.793 trial= 0.400  step= 0.266 mean= 0.400
 gam= 0.742 g(H,U,f)=  0.289E+03 0.230E+03 0.521E+01 ort(H,U,f) = 0.117E+03-0.113E+03-0.489E+00
CGA:  16    -0.614895129289E+03   -0.80993E+02   -0.81992E+02  5064   0.524E+03 0.391E+01
 gam= 0.742 trial= 0.393  step= 0.263 mean= 0.393
 gam= 0.556 g(H,U,f)=  0.202E+03 0.880E+02 0.893E+00 ort(H,U,f) = 0.211E+02-0.153E+02 0.876E-02
CGA:  17    -0.681523798608E+03   -0.66629E+02   -0.69315E+02  5064   0.291E+03 0.589E+01
 gam= 0.556 trial= 0.387  step= 0.335 mean= 0.387
 gam= 0.702 g(H,U,f)=  0.137E+03 0.661E+02 0.123E+01 ort(H,U,f) =-0.964E+00 0.138E+02-0.413E+00
CGA:  18    -0.730317987536E+03   -0.48794E+02   -0.49381E+02  5064   0.205E+03 0.124E+02
 gam= 0.702 trial= 0.384  step= 0.374 mean= 0.384
 gam= 0.726 g(H,U,f)=  0.105E+03 0.436E+02 0.335E+00 ort(H,U,f) =-0.348E+02 0.419E+02 0.101E+00
CGA:  19    -0.770203156990E+03   -0.39885E+02   -0.39925E+02  5064   0.149E+03 0.715E+01
 gam= 0.726 trial= 0.384  step= 0.386 mean= 0.384
 gam= 0.784 g(H,U,f)=  0.814E+02 0.348E+02 0.197E+00 ort(H,U,f) =-0.300E+02 0.331E+02-0.332E+00
CGA:  20    -0.799871730838E+03   -0.29669E+02   -0.29668E+02  5064   0.116E+03 0.273E+01
 gam= 0.784 trial= 0.384  step= 0.361 mean= 0.384
 gam= 0.731 g(H,U,f)=  0.590E+02 0.257E+02 0.405E+00 ort(H,U,f) =-0.216E+02 0.254E+02 0.393E+00
CGA:  21    -0.821220984624E+03   -0.21349E+02   -0.21386E+02  5064   0.851E+02 0.416E+01
 gam= 0.731 trial= 0.383  step= 0.329 mean= 0.383
 gam= 0.613 g(H,U,f)=  0.410E+02 0.112E+02 0.263E-02 ort(H,U,f) =-0.648E+01 0.105E+02-0.223E-01
CGA:  22    -0.835594542684E+03   -0.14374E+02   -0.14519E+02  5064   0.522E+02 0.404E+01
 gam= 0.613 trial= 0.380  step= 0.363 mean= 0.380
 gam= 0.694 g(H,U,f)=  0.232E+02 0.115E+02 0.146E+01 ort(H,U,f) = 0.226E+01 0.524E+00-0.136E+01
CGA:  23    -0.845503663658E+03   -0.99091E+01   -0.99126E+01  5064   0.362E+02 0.143E+01
 gam= 0.694 trial= 0.379  step= 0.348 mean= 0.379
 gam= 0.614 g(H,U,f)=  0.149E+02 0.712E+01 0.247E+00 ort(H,U,f) =-0.917E+00 0.243E+01 0.295E+00
CGA:  24    -0.851942310892E+03   -0.64386E+01   -0.64781E+01  5064   0.222E+02 0.181E+01
 gam= 0.614 trial= 0.377  step= 0.377 mean= 0.377
 gam= 0.694 g(H,U,f)=  0.106E+02 0.481E+01 0.120E-01 ort(H,U,f) =-0.895E+00 0.179E+01-0.632E-01
CGA:  25    -0.856342484626E+03   -0.44002E+01   -0.44004E+01  5064   0.154E+02 0.833E+00
 gam= 0.694 trial= 0.377  step= 0.405 mean= 0.377
 gam= 0.754 g(H,U,f)=  0.779E+01 0.374E+01 0.114E+00 ort(H,U,f) =-0.173E+01 0.214E+01-0.103E+00
CGA:  26    -0.859588528126E+03   -0.32460E+01   -0.32416E+01  5064   0.116E+02 0.316E+00
 gam= 0.754 trial= 0.379  step= 0.384 mean= 0.379
 gam= 0.676 g(H,U,f)=  0.566E+01 0.221E+01 0.761E-03 ort(H,U,f) =-0.200E+01 0.217E+01 0.985E-03
CGA:  27    -0.861874165115E+03   -0.22856E+01   -0.22851E+01  5064   0.787E+01 0.168E+00
 gam= 0.676 trial= 0.379  step= 0.386 mean= 0.379
 gam= 0.666 g(H,U,f)=  0.380E+01 0.144E+01 0.420E-02 ort(H,U,f) =-0.126E+01 0.133E+01-0.224E-02
CGA:  28    -0.863415371688E+03   -0.15412E+01   -0.15410E+01  5064   0.524E+01 0.646E-01
 gam= 0.666 trial= 0.379  step= 0.411 mean= 0.379
 gam= 0.685 g(H,U,f)=  0.271E+01 0.878E+00 0.216E-02 ort(H,U,f) =-0.575E+00 0.609E+00 0.136E-02
CGA:  29    -0.864501018844E+03   -0.10856E+01   -0.10853E+01  5064   0.359E+01 0.353E-01
 gam= 0.685 trial= 0.381  step= 0.412 mean= 0.381
 gam= 0.633 g(H,U,f)=  0.160E+01 0.674E+00 0.640E-02 ort(H,U,f) =-0.113E+00 0.143E+00-0.886E-02
CGA:  30    -0.865246570249E+03   -0.74555E+00   -0.74529E+00  5064   0.228E+01 0.217E-01
 gam= 0.633 trial= 0.383  step= 0.427 mean= 0.383
 gam= 0.668 g(H,U,f)=  0.101E+01 0.507E+00 0.705E-02 ort(H,U,f) =-0.135E+00 0.150E+00 0.777E-03
CGA:  31    -0.865735496667E+03   -0.48893E+00   -0.48856E+00  5064   0.152E+01 0.161E-01
 gam= 0.668 trial= 0.385  step= 0.443 mean= 0.385
 gam= 0.755 g(H,U,f)=  0.790E+00 0.358E+00 0.295E-03 ort(H,U,f) =-0.136E+00 0.149E+00-0.725E-04
CGA:  32    -0.866074832386E+03   -0.33934E+00   -0.33888E+00  5064   0.115E+01 0.130E-01
 gam= 0.755 trial= 0.388  step= 0.434 mean= 0.388
 gam= 0.744 g(H,U,f)=  0.578E+00 0.275E+00 0.888E-03 ort(H,U,f) =-0.121E+00 0.127E+00-0.366E-03
CGA:  33    -0.866326132478E+03   -0.25130E+00   -0.25114E+00  5064   0.854E+00 0.612E-02
 gam= 0.744 trial= 0.390  step= 0.404 mean= 0.390
 gam= 0.702 g(H,U,f)=  0.431E+00 0.168E+00 0.373E-03 ort(H,U,f) =-0.100E+00 0.103E+00 0.698E-04
CGA:  34    -0.866499408074E+03   -0.17328E+00   -0.17326E+00  5064   0.599E+00 0.265E-02
 gam= 0.702 trial= 0.391  step= 0.391 mean= 0.391
 gam= 0.681 g(H,U,f)=  0.284E+00 0.124E+00 0.240E-03 ort(H,U,f) =-0.490E-01 0.507E-01-0.280E-03
CGA:  35    -0.866617093738E+03   -0.11769E+00   -0.11769E+00  5064   0.408E+00 0.145E-02
 gam= 0.681 trial= 0.391  step= 0.416 mean= 0.391
 gam= 0.699 g(H,U,f)=  0.195E+00 0.903E-01 0.265E-03 ort(H,U,f) =-0.409E-01 0.423E-01-0.192E-03
CGA:  36    -0.866702365813E+03   -0.85272E-01   -0.85256E-01  5064   0.285E+00 0.124E-02
 gam= 0.699 trial= 0.392  step= 0.423 mean= 0.392
 gam= 0.000 g(H,U,f)=  0.128E+00 0.574E-01 0.268E-04 ort(H,U,f) =-0.307E-01 0.316E-01-0.282E-04
SDA:  37    -0.866762909091E+03   -0.60543E-01   -0.60529E-01  5064   0.186E+00 0.947E-03
 gam= 0.000 trial= 0.393  step= 0.970 mean= 0.393
 gam= 0.479 g(H,U,f)=  0.642E-01 0.247E-01 0.118E-03 ort(H,U,f) =-0.273E-01 0.274E-01-0.309E-04
CGA:  38    -0.866853065155E+03   -0.90156E-01   -0.90135E-01  5064   0.890E-01 0.793E-04
 gam= 0.479 trial= 0.422  step= 0.798 mean= 0.422
 gam= 0.316 g(H,U,f)=  0.229E-01 0.520E-02 0.104E-04 ort(H,U,f) =-0.145E-01 0.145E-01-0.608E-05
CGA:  39    -0.866888599004E+03   -0.35534E-01   -0.35536E-01  5064   0.281E-01-0.158E-04
 gam= 0.316 trial= 0.441  step= 0.685 mean= 0.441
 gam= 0.253 g(H,U,f)=  0.620E-02 0.900E-03 0.111E-04 ort(H,U,f) =-0.312E-02 0.309E-02-0.651E-05
CGA:  40    -0.866898218073E+03   -0.96191E-02   -0.96237E-02  5064   0.711E-02-0.314E-04
 gam= 0.253 trial= 0.453  step= 0.676 mean= 0.453
 gam= 0.248 g(H,U,f)=  0.161E-02 0.156E-03 0.262E-05 ort(H,U,f) =-0.579E-03 0.520E-03 0.135E-05
CGA:  41    -0.866900610670E+03   -0.23926E-02   -0.24003E-02  5064   0.176E-02-0.574E-04
 gam= 0.248 trial= 0.464  step= 0.656 mean= 0.464
 gam= 0.232 g(H,U,f)=  0.373E-03 0.362E-04 0.868E-06 ort(H,U,f) =-0.982E-04 0.807E-04 0.153E-05
CGA:  42    -0.866901182807E+03   -0.57214E-03   -0.57428E-03  5064   0.410E-03-0.159E-04
 gam= 0.232 trial= 0.474  step= 0.725 mean= 0.474
 gam= 0.358 g(H,U,f)=  0.131E-03 0.154E-04 0.670E-06 ort(H,U,f) =-0.449E-05 0.124E-04 0.567E-06
CGA:  43    -0.866901331257E+03   -0.14845E-03   -0.14726E-03  5064   0.147E-03 0.846E-05
 gam= 0.358 trial= 0.487  step= 0.670 mean= 0.487
 gam= 0.338 g(H,U,f)=  0.452E-04 0.412E-05 0.181E-06 ort(H,U,f) =-0.635E-06 0.515E-05 0.487E-06
CGA:  44    -0.866901381955E+03   -0.50698E-04   -0.50134E-04  5064   0.495E-04 0.500E-05
 gam= 0.338 trial= 0.496  step= 0.767 mean= 0.496
 gam= 0.462 g(H,U,f)=  0.211E-04 0.167E-05 0.114E-06 ort(H,U,f) =-0.132E-05 0.173E-05 0.228E-06
CGA:  45    -0.866901401689E+03   -0.19734E-04   -0.19637E-04  5064   0.229E-04 0.638E-06
 gam= 0.462 trial= 0.509  step= 0.808 mean= 0.509
 gam= 0.495 g(H,U,f)=  0.105E-04 0.754E-06 0.714E-07 ort(H,U,f) =-0.443E-06 0.498E-06 0.179E-06
CGA:  46    -0.866901411094E+03   -0.94052E-05   -0.93637E-05  5064   0.113E-04 0.234E-06
 gam= 0.495 trial= 0.524  step= 0.790 mean= 0.524
 final diagonalization
   1 F= -.86690141E+03 E0= -.86689830E+03  d E =-.621405E-02
 writing wavefunctions
Warning: ieee_invalid is signaling
Warning: ieee_divide_by_zero is signaling
Warning: ieee_underflow is signaling
Warning: ieee_inexact is signaling
FORTRAN STOP
Warning: ieee_invalid is signaling
Warning: ieee_divide_by_zero is signaling
Warning: ieee_underflow is signaling
Warning: ieee_inexact is signaling
FORTRAN STOP
Warning: ieee_invalid is signaling
Warning: ieee_divide_by_zero is signaling
Warning: ieee_underflow is signaling
Warning: ieee_inexact is signaling
FORTRAN STOP
Warning: ieee_invalid is signaling
Warning: ieee_divide_by_zero is signaling
Warning: ieee_underflow is signaling
Warning: ieee_inexact is signaling
FORTRAN STOP
