       N       E                     dE             d eps       ncg     rms          ort
DAV:   1    -0.205169340012E+05   -0.20517E+05   -0.54182E+05  5064   0.751E+03
DAV:   2    -0.664019558310E+05   -0.45885E+05   -0.44219E+05  5064   0.126E+03
DAV:   3    -0.721099932025E+05   -0.57080E+04   -0.51754E+04  5064   0.391E+02
DAV:   4    -0.730061926027E+05   -0.89620E+03   -0.81872E+03  5064   0.130E+02
DAV:   5    -0.405768041523E+05    0.32429E+05   -0.74815E+02  5064   0.613E+01
SDA:   6     0.405856804515E+05    0.81162E+05   -0.74815E+02  5064   0.109E+06 0.000E+00
CGA:   7     0.171454752030E+05   -0.23440E+05   -0.37494E+05  5064   0.753E+05-0.234E+05
CGA:   8     0.944928325489E+04   -0.76962E+04   -0.88815E+04  5064   0.310E+05 0.776E+04
CGA:   9     0.602429884668E+04   -0.34250E+04   -0.41564E+04  5064   0.214E+05 0.249E+04
CGA:  10     0.385631421058E+04   -0.21680E+04   -0.30114E+04  5064   0.127E+05 0.267E+04
CGA:  11     0.210132076413E+04   -0.17550E+04   -0.20081E+04  5064   0.629E+04 0.134E+04
CGA:  12     0.811796552867E+03   -0.12895E+04   -0.13014E+04  5064   0.255E+04 0.762E+03
CGA:  13     0.596706246088E+02   -0.75213E+03   -0.74062E+03  5064   0.153E+04 0.115E+03
CGA:  14    -0.381734800756E+03   -0.44141E+03   -0.44814E+03  5064   0.890E+03-0.120E+03
CGA:  15    -0.533902570552E+03   -0.15217E+03   -0.14686E+03  5064   0.705E+03-0.111E+03
CGA:  16    -0.614895129289E+03   -0.80993E+02   -0.81992E+02  5064   0.524E+03 0.391E+01
CGA:  17    -0.681523798608E+03   -0.66629E+02   -0.69315E+02  5064   0.291E+03 0.589E+01
CGA:  18    -0.730317987536E+03   -0.48794E+02   -0.49381E+02  5064   0.205E+03 0.124E+02
CGA:  19    -0.770203156990E+03   -0.39885E+02   -0.39925E+02  5064   0.149E+03 0.715E+01
CGA:  20    -0.799871730838E+03   -0.29669E+02   -0.29668E+02  5064   0.116E+03 0.273E+01
CGA:  21    -0.821220984624E+03   -0.21349E+02   -0.21386E+02  5064   0.851E+02 0.416E+01
CGA:  22    -0.835594542684E+03   -0.14374E+02   -0.14519E+02  5064   0.522E+02 0.404E+01
CGA:  23    -0.845503663658E+03   -0.99091E+01   -0.99126E+01  5064   0.362E+02 0.143E+01
CGA:  24    -0.851942310892E+03   -0.64386E+01   -0.64781E+01  5064   0.222E+02 0.181E+01
CGA:  25    -0.856342484626E+03   -0.44002E+01   -0.44004E+01  5064   0.154E+02 0.833E+00
CGA:  26    -0.859588528126E+03   -0.32460E+01   -0.32416E+01  5064   0.116E+02 0.316E+00
CGA:  27    -0.861874165115E+03   -0.22856E+01   -0.22851E+01  5064   0.787E+01 0.168E+00
CGA:  28    -0.863415371688E+03   -0.15412E+01   -0.15410E+01  5064   0.524E+01 0.646E-01
CGA:  29    -0.864501018844E+03   -0.10856E+01   -0.10853E+01  5064   0.359E+01 0.353E-01
CGA:  30    -0.865246570249E+03   -0.74555E+00   -0.74529E+00  5064   0.228E+01 0.217E-01
CGA:  31    -0.865735496667E+03   -0.48893E+00   -0.48856E+00  5064   0.152E+01 0.161E-01
CGA:  32    -0.866074832386E+03   -0.33934E+00   -0.33888E+00  5064   0.115E+01 0.130E-01
CGA:  33    -0.866326132478E+03   -0.25130E+00   -0.25114E+00  5064   0.854E+00 0.612E-02
CGA:  34    -0.866499408074E+03   -0.17328E+00   -0.17326E+00  5064   0.599E+00 0.265E-02
CGA:  35    -0.866617093738E+03   -0.11769E+00   -0.11769E+00  5064   0.408E+00 0.145E-02
CGA:  36    -0.866702365813E+03   -0.85272E-01   -0.85256E-01  5064   0.285E+00 0.124E-02
SDA:  37    -0.866762909091E+03   -0.60543E-01   -0.60529E-01  5064   0.186E+00 0.947E-03
CGA:  38    -0.866853065155E+03   -0.90156E-01   -0.90135E-01  5064   0.890E-01 0.793E-04
CGA:  39    -0.866888599004E+03   -0.35534E-01   -0.35536E-01  5064   0.281E-01-0.158E-04
CGA:  40    -0.866898218073E+03   -0.96191E-02   -0.96237E-02  5064   0.711E-02-0.314E-04
CGA:  41    -0.866900610670E+03   -0.23926E-02   -0.24003E-02  5064   0.176E-02-0.574E-04
CGA:  42    -0.866901182807E+03   -0.57214E-03   -0.57428E-03  5064   0.410E-03-0.159E-04
CGA:  43    -0.866901331257E+03   -0.14845E-03   -0.14726E-03  5064   0.147E-03 0.846E-05
CGA:  44    -0.866901381955E+03   -0.50698E-04   -0.50134E-04  5064   0.495E-04 0.500E-05
CGA:  45    -0.866901401689E+03   -0.19734E-04   -0.19637E-04  5064   0.229E-04 0.638E-06
CGA:  46    -0.866901411094E+03   -0.94052E-05   -0.93637E-05  5064   0.113E-04 0.234E-06
   1 F= -.86690141E+03 E0= -.86689830E+03  d E =-.621405E-02
