 vasp.6.4.2 20Jul23 (build Nov 12 2023 22:16:35) complex                         
 executed on              LinuxNV date 2025.03.12  19:34:48
 running    4 mpi-ranks, on    1 nodes
 distrk:  each k-point on    1 cores,    4 groups
 distr:  one band on NCORE=   1 cores,    1 groups
 OpenACC runtime initialized ...    4 GPUs detected


--------------------------------------------------------------------------------------------------------


 INCAR:
   PREC = Normal
   ENCUT = 450
   NELM = 500
   IBRION = -1
   ISPIN = 1
   NSW = 0
   ISIF = 2
   EDIFF = 1E-5
   EDIFFG = -5E-3
   ISTART = 0
   ICHARG = 0
   ISMEAR = 0
   SIGMA = 0.05
   LWAVE = .T.
   LCHARG = .T.
   LREAL = Auto
   LPLANE = .TRUE.
   NPAR = 1
   KPAR = 4
   NCORE = 1
   ALGO = All
   LHFCALC = .TRUE.
   HSE06 = .TRUE.
   HFSCREEN = 0.18
   TIME = 0.4
   AEXX = 0.35
   LMAXFOCK = 4
   PRECFOCK = Fast
   NELECT = 1056

 POTCAR:    PAW_PBE Ga_d 06Jul2010                
 POTCAR:     PAW_PBE O 08Apr2002                  
 POTCAR:    PAW_PBE P 06Sep2000                   
 POTCAR:    PAW_PBE Ga_d 06Jul2010                
   SHA256 =  a60ddf36e14f00ea098d9e3914b3745f1b7105e68786148f49ae384e44b4226c Ga_d/POTCAR           
   COPYR  = (c) Copyright 06Jul2010 Georg Kresse                                                    
   COPYR  = This file is part of the software VASP. Any use, copying, and all other rights are regul
   COPYR  = If you do not have a valid VASP license, you may not use, copy or distribute this file. 
   VRHFIN =Ga: s2p1                                                                                 
   LEXCH  = PE                                                                                      
   EATOM  =  2148.8298 eV,  157.9345 Ry                                                             
                                                                                                    
   TITEL  = PAW_PBE Ga_d 06Jul2010                                                                  
   LULTRA =        F    use ultrasoft PP ?                                                          
   IUNSCR =        1    unscreen: 0-lin 1-nonlin 2-no                                               
   RPACOR =    1.700    partial core radius                                                         
   POMASS =   69.723; ZVAL   =   13.000    mass and valenz                                          
   RCORE  =    2.300    outmost cutoff radius                                                       
   RWIGS  =    2.300; RWIGS  =    1.217    wigner-seitz radius (au A)                               
   ENMAX  =  282.691; ENMIN  =  212.018 eV                                                          
   ICORE  =        3    local potential                                                             
   LCOR   =        T    correct aug charges                                                         
   LPAW   =        T    paw PP                                                                      
   EAUG   =  490.690                                                                                
   DEXC   =    0.000                                                                                
   RMAX   =    2.341    core radius for proj-oper                                                   
   RAUG   =    1.300    factor for augmentation sphere                                              
   RDEP   =    2.413    radius for radial grids                                                     
   RDEPT  =    1.856    core radius for aug-charge                                                  
                                                                                                    
   Atomic configuration                                                                             
    9 entries                                                                                       
     n  l   j            E        occ.                                                              
     1  0  0.50    -10228.7831   2.0000                                                             
     2  0  0.50     -1262.1604   2.0000                                                             
     2  1  1.50     -1098.6333   6.0000                                                             
     3  0  0.50      -148.1110   2.0000                                                             
     3  1  1.50       -98.8436   6.0000                                                             
     3  2  2.50       -19.1549  10.0000                                                             
     4  0  0.50        -8.9483   2.0000                                                             
     4  1  0.50        -2.5791   1.0000                                                             
     4  3  2.50        -2.7416   0.0000                                                             
   Description                                                                                      
     l       E           TYP  RCUT    TYP  RCUT                                                     
     2    -19.1549037     23  2.300                                                                 
     2     -5.4423304     23  2.300                                                                 
     0     -8.9483111     23  2.300                                                                 
     0     68.0291300     23  2.300                                                                 
     1     -2.5790802     23  2.100                                                                 
     1     81.6349560     23  2.300                                                                 
     3      6.8029130     23  2.300                                                                 
  local pseudopotential read in
  partial core-charges read in
  partial kinetic energy density read in
  atomic valenz-charges read in
  non local Contribution for L=            2  read in
    real space projection operators read in
  non local Contribution for L=            2  read in
    real space projection operators read in
  non local Contribution for L=            0  read in
    real space projection operators read in
  non local Contribution for L=            0  read in
    real space projection operators read in
  non local Contribution for L=            1  read in
    real space projection operators read in
  non local Contribution for L=            1  read in
    real space projection operators read in
    PAW grid and wavefunctions read in
 
   number of l-projection  operators is LMAX  =            6
   number of lm-projection operators is LMMAX =           18
 
 POTCAR:     PAW_PBE O 08Apr2002                  
   SHA256 =  818f92134a0a090dccd8ba1447fa70422a3b330e708bb4f08108d8ae51209ddf O/POTCAR              
   COPYR  = (c) Copyright 08Apr2002 Georg Kresse                                                    
   COPYR  = This file is part of the software VASP. Any use, copying, and all other rights are regul
   COPYR  = If you do not have a valid VASP license, you may not use, copy or distribute this file. 
   VRHFIN =O: s2p4                                                                                  
   LEXCH  = PE                                                                                      
   EATOM  =   432.3788 eV,   31.7789 Ry                                                             
                                                                                                    
   TITEL  = PAW_PBE O 08Apr2002                                                                     
   LULTRA =        F    use ultrasoft PP ?                                                          
   IUNSCR =        1    unscreen: 0-lin 1-nonlin 2-no                                               
   RPACOR =    1.200    partial core radius                                                         
   POMASS =   16.000; ZVAL   =    6.000    mass and valenz                                          
   RCORE  =    1.520    outmost cutoff radius                                                       
   RWIGS  =    1.550; RWIGS  =    0.820    wigner-seitz radius (au A)                               
   ENMAX  =  400.000; ENMIN  =  300.000 eV                                                          
   ICORE  =        2    local potential                                                             
   LCOR   =        T    correct aug charges                                                         
   LPAW   =        T    paw PP                                                                      
   EAUG   =  605.392                                                                                
   DEXC   =    0.000                                                                                
   RMAX   =    1.553    core radius for proj-oper                                                   
   RAUG   =    1.300    factor for augmentation sphere                                              
   RDEP   =    1.550    radius for radial grids                                                     
   RDEPT  =    1.329    core radius for aug-charge                                                  
                                                                                                    
   Atomic configuration                                                                             
    4 entries                                                                                       
     n  l   j            E        occ.                                                              
     1  0  0.50      -514.6923   2.0000                                                             
     2  0  0.50       -23.9615   2.0000                                                             
     2  1  0.50        -9.0305   4.0000                                                             
     3  2  1.50        -9.5241   0.0000                                                             
   Description                                                                                      
     l       E           TYP  RCUT    TYP  RCUT                                                     
     0    -23.9615318     23  1.200                                                                 
     0     -9.5240782     23  1.200                                                                 
     1     -9.0304911     23  1.520                                                                 
     1      8.1634956     23  1.520                                                                 
     2     -9.5240782      7  1.500                                                                 
  local pseudopotential read in
  partial core-charges read in
  partial kinetic energy density read in
  kinetic energy density of atom read in
  atomic valenz-charges read in
  non local Contribution for L=            0  read in
    real space projection operators read in
  non local Contribution for L=            0  read in
    real space projection operators read in
  non local Contribution for L=            1  read in
    real space projection operators read in
  non local Contribution for L=            1  read in
    real space projection operators read in
    PAW grid and wavefunctions read in
 
   number of l-projection  operators is LMAX  =            4
   number of lm-projection operators is LMMAX =            8
 
 POTCAR:    PAW_PBE P 06Sep2000                   
   SHA256 =  df60c54a93efe35c9e85ae94c010c75e9f6960a95d5595d7cdba4096d109af88 P/POTCAR              
   COPYR  = (c) Copyright 06Sep2000 Georg Kresse                                                    
   COPYR  = This file is part of the software VASP. Any use, copying, and all other rights are regul
   COPYR  = If you do not have a valid VASP license, you may not use, copy or distribute this file. 
   VRHFIN =P : s2p3                                                                                 
   LEXCH  = PE                                                                                      
   EATOM  =   176.0430 eV,   12.9388 Ry                                                             
                                                                                                    
   TITEL  = PAW_PBE P 06Sep2000                                                                     
   LULTRA =        F    use ultrasoft PP ?                                                          
   IUNSCR =        1    unscreen: 0-lin 1-nonlin 2-no                                               
   RPACOR =    1.500    partial core radius                                                         
   POMASS =   30.974; ZVAL   =    5.000    mass and valenz                                          
   RCORE  =    1.900    outmost cutoff radius                                                       
   RWIGS  =    2.330; RWIGS  =    1.233    wigner-seitz radius (au A)                               
   ENMAX  =  255.040; ENMIN  =  191.280 eV                                                          
   ICORE  =        2    local potential                                                             
   LCOR   =        T    correct aug charges                                                         
   LPAW   =        T    paw PP                                                                      
   EAUG   =  342.924                                                                                
   DEXC   =    0.000                                                                                
   RMAX   =    1.935    core radius for proj-oper                                                   
   RAUG   =    1.300    factor for augmentation sphere                                              
   RDEP   =    1.931    radius for radial grids                                                     
   RDEPT  =    1.794    core radius for aug-charge                                                  
                                                                                                    
   Atomic configuration                                                                             
    6 entries                                                                                       
     n  l   j            E        occ.                                                              
     1  0  0.50     -2084.0982   2.0000                                                             
     2  0  0.50      -173.9859   2.0000                                                             
     2  1  1.50      -124.4865   6.0000                                                             
     3  0  0.50       -13.9692   2.0000                                                             
     3  1  0.50        -5.5067   3.0000                                                             
     3  2  1.50        -5.4423   0.0000                                                             
   Description                                                                                      
     l       E           TYP  RCUT    TYP  RCUT                                                     
     0    -13.9691527     23  1.900                                                                 
     0    -11.7794650     23  1.900                                                                 
     1     -5.5066937     23  1.900                                                                 
     1     -0.2556953     23  1.900                                                                 
     2     -5.4423304     23  1.900                                                                 
  local pseudopotential read in
  partial core-charges read in
  partial kinetic energy density read in
  atomic valenz-charges read in
  non local Contribution for L=            0  read in
    real space projection operators read in
  non local Contribution for L=            0  read in
    real space projection operators read in
  non local Contribution for L=            1  read in
    real space projection operators read in
  non local Contribution for L=            1  read in
    real space projection operators read in
    PAW grid and wavefunctions read in
 
   number of l-projection  operators is LMAX  =            4
   number of lm-projection operators is LMMAX =            8
 
 Optimization of the real space projectors (new method)

 maximal supplied QI-value         = 16.25
 optimisation between [QCUT,QGAM] = [ 10.73, 21.61] = [ 32.22,130.83] Ry 
 Optimized for a Real-space Cutoff    1.42 Angstroem

   l    n(q)    QCUT    max X(q) W(low)/X(q) W(high)/X(q)  e(spline) 
   2      8    10.726     7.143    0.22E-03    0.16E-03    0.73E-07
   2      8    10.726     5.586    0.40E-03    0.26E-03    0.10E-06
   0      9    10.726    12.382    0.25E-04    0.21E-05    0.37E-07
   0      9    10.726     6.622    0.42E-04    0.48E-05    0.77E-07
   1      9    10.726     7.935    0.27E-03    0.13E-04    0.16E-06
   1      9    10.726     2.425    0.23E-03    0.15E-04    0.14E-06
 Optimization of the real space projectors (new method)

 maximal supplied QI-value         = 24.76
 optimisation between [QCUT,QGAM] = [ 10.64, 21.54] = [ 31.73,129.89] Ry 
 Optimized for a Real-space Cutoff    1.23 Angstroem

   l    n(q)    QCUT    max X(q) W(low)/X(q) W(high)/X(q)  e(spline) 
   0      8    10.645    20.381    0.38E-03    0.60E-03    0.15E-06
   0      8    10.645    15.268    0.40E-03    0.65E-03    0.17E-06
   1      7    10.645     5.964    0.30E-03    0.63E-03    0.18E-06
   1      7    10.645     5.382    0.24E-03    0.53E-03    0.16E-06
 Optimization of the real space projectors (new method)

 maximal supplied QI-value         = 19.84
 optimisation between [QCUT,QGAM] = [ 10.71, 21.63] = [ 32.15,130.99] Ry 
 Optimized for a Real-space Cutoff    1.19 Angstroem

   l    n(q)    QCUT    max X(q) W(low)/X(q) W(high)/X(q)  e(spline) 
   0      8    10.715   160.924    0.37E-03    0.37E-04    0.63E-07
   0      8    10.715   130.086    0.37E-03    0.36E-04    0.63E-07
   1      7    10.715    74.434    0.19E-03    0.56E-03    0.65E-07
   1      7    10.715    49.120    0.19E-03    0.55E-03    0.63E-07
  PAW_PBE Ga_d 06Jul2010                :
 energy of atom  1       EATOM=-2148.8298
 kinetic energy error for atom=    0.0038 (will be added to EATOM!!)
   PAW_PBE O 08Apr2002                  :
 energy of atom  2       EATOM= -432.3788
 kinetic energy error for atom=    0.0389 (will be added to EATOM!!)
  PAW_PBE P 06Sep2000                   :
 energy of atom  3       EATOM= -176.0430
 kinetic energy error for atom=    0.0019 (will be added to EATOM!!)
 
 
 POSCAR: Ga48 O72
  positions in direct lattice
  velocities in cartesian coordinates
 exchange correlation table for  LEXCH =        8
   RHO(1)=    0.500       N(1)  =     2000
   RHO(2)=  100.500       N(2)  =     4000
 


--------------------------------------------------------------------------------------------------------


 ion  position               nearest neighbor table
   1  0.666  0.002  0.156-  66 1.91  60 1.95  84 1.98  78 1.98  82 2.02  64 2.02
   2  0.662  0.999  0.664-  83 1.90  79 1.93  85 1.95  67 1.97  61 2.07  65 2.11
   3  0.666  0.332  0.156-  68 1.91  60 1.95  86 1.98  78 1.98  80 2.02  62 2.02
   4  0.662  0.334  0.664-  81 1.90  79 1.93  87 1.95  69 1.97  61 2.07  63 2.11
   5  0.659  0.667  0.148-  80 1.94  82 1.94  62 1.95  64 1.95  88 1.96  70 2.05
   6  0.656  0.667  0.669-  81 1.88  83 1.88  89 1.95  63 2.03  65 2.03  71 2.05
   7  0.842  0.167  0.844-  90 1.93  73 1.97  75 1.97  61 2.02  67 2.06  69 2.06
   8  0.838  0.496  0.338-  74 1.91  68 1.93  91 1.96  76 1.99  70 2.09  62 2.14
   9  0.843  0.499  0.844-  92 1.94  75 1.95  77 1.97  69 2.00  63 2.03  71 2.08
  10  0.838  0.837  0.338-  72 1.91  66 1.93  93 1.96  76 1.99  70 2.09  64 2.14
  11  0.843  0.835  0.844-  94 1.94  73 1.95  77 1.97  67 2.00  65 2.03  71 2.08
  12  0.618  0.167  0.398-  60 1.81  79 1.85  54 1.91  56 1.91
  13  0.587  0.167  0.900-  78 1.83  55 1.87  57 1.87  61 1.87
  14  0.621  0.493  0.405-  81 1.85  62 1.88  56 1.90  58 1.94  74 2.09
  15  0.581  0.499  0.895-  80 1.81  59 1.85  57 1.85  63 1.85
  16  0.621  0.841  0.405-  83 1.85  64 1.88  54 1.90  58 1.94  72 2.09
  17  0.581  0.834  0.895-  82 1.81  59 1.85  55 1.85  65 1.85
  18  0.915  0.001  0.107-  66 1.82  73 1.85  48 1.86  52 1.88
  19  0.888  0.038  0.575-  72 2.00  53 2.04  67 2.10  49 2.11  21 2.35 119 2.89
  20  0.915  0.332  0.107-  68 1.82  75 1.85  48 1.86  50 1.88
  21  0.888  0.295  0.575-  74 2.00  51 2.04  69 2.10  49 2.11  19 2.35 119 2.89
  22  0.915  0.667  0.106-  77 1.85  70 1.86  50 1.86  52 1.86
  23  0.906  0.667  0.596-  76 1.89  51 1.91  53 1.91  71 1.93
  24  0.169  0.167  0.164-  48 1.95 113 1.98 115 1.98 101 2.04  95 2.09  97 2.09
  25  0.163  0.167  0.639-  49 1.78 114 1.95 116 1.95 102 1.96  96 2.33  98 2.33
  26  0.169  0.500  0.164-  50 1.95 115 1.96 117 1.97  99 2.04  97 2.04 103 2.05
  27  0.143  0.496  0.652-  51 1.95 116 1.97 118 1.98  98 2.00 100 2.09 104 2.16
  28  0.169  0.834  0.164-  52 1.95 113 1.96 117 1.97  99 2.04  95 2.04 105 2.05
  29  0.143  0.837  0.652-  53 1.95 114 1.97 118 1.98  96 2.00 100 2.09 106 2.16
  30  0.357  0.999  0.349- 107 1.95 111 1.95  54 1.95 105 2.07 101 2.07  95 2.11
  31  0.332  0.998  0.842-  96 1.93  55 1.93 112 1.96 108 1.97 106 2.07 102 2.08
  32  0.357  0.334  0.349- 107 1.95 109 1.95  56 1.95 103 2.07 101 2.07  97 2.11
  33  0.332  0.336  0.842-  98 1.93  57 1.93 110 1.96 108 1.97 104 2.07 102 2.08
  34  0.366  0.667  0.348-  58 1.94 109 1.95 111 1.95 103 2.07 105 2.07  99 2.21
  35  0.330  0.667  0.838-  59 1.95 110 1.96 112 1.96 104 2.01 106 2.01 100 2.03
  36  0.086  0.005  0.396- 114 1.90  93 1.90  95 1.93 119 2.19
  37  0.094  0.002  0.900-  90 1.85  96 1.86  94 1.87 113 1.88
  38  0.086  0.329  0.396- 116 1.90  91 1.90  97 1.93 119 2.19
  39  0.094  0.331  0.900-  90 1.85  98 1.86  92 1.87 115 1.88
  40  0.095  0.667  0.396-  91 1.84  93 1.84 118 1.85  99 1.88
  41  0.093  0.667  0.903- 117 1.86  92 1.86  94 1.86 100 1.88
  42  0.410  0.167  0.098-  84 1.86  86 1.86 108 1.87 101 1.89
  43  0.412  0.167  0.607- 107 1.85  85 1.86  87 1.86 102 1.91
  44  0.411  0.498  0.099-  88 1.84 110 1.85  86 1.85 103 1.87
  45  0.407  0.498  0.607- 109 1.84  89 1.86  87 1.86 104 1.86
  46  0.411  0.836  0.099-  88 1.84 112 1.85  84 1.85 105 1.87
  47  0.407  0.835  0.607- 111 1.84  89 1.86  85 1.86 106 1.86
  48  0.006  0.167  0.126-  18 1.86  20 1.86  24 1.95
  49  0.025  0.167  0.664-  25 1.78  19 2.11  21 2.11
  50  0.005  0.500  0.127-  22 1.86  20 1.88  26 1.95
  51  0.980  0.482  0.609-  23 1.91  27 1.95  21 2.04
  52  0.005  0.833  0.127-  22 1.86  18 1.88  28 1.95
  53  0.980  0.851  0.609-  23 1.91  29 1.95  19 2.04
  54  0.520  0.001  0.377-  16 1.90  12 1.91  30 1.95
  55  0.494  0.002  0.872-  17 1.85  13 1.87  31 1.93
  56  0.520  0.333  0.377-  14 1.90  12 1.91  32 1.95
  57  0.494  0.331  0.872-  15 1.85  13 1.87  33 1.93
  58  0.528  0.667  0.381-  34 1.94  14 1.94  16 1.94
  59  0.494  0.667  0.872-  15 1.85  17 1.85  35 1.95
  60  0.664  0.167  0.261-  12 1.81   1 1.95   3 1.95
  61  0.673  0.167  0.786-  13 1.87   7 2.02   2 2.07   4 2.07
  62  0.661  0.508  0.260-  14 1.88   5 1.95   3 2.02   8 2.14
  63  0.673  0.503  0.789-  15 1.85   6 2.03   9 2.03   4 2.11
  64  0.661  0.826  0.260-  16 1.88   5 1.95   1 2.02  10 2.14
  65  0.673  0.831  0.789-  17 1.85   6 2.03  11 2.03   2 2.11
  66  0.824  0.970  0.207-  18 1.82   1 1.91  10 1.93
  67  0.826  0.996  0.725-   2 1.97  11 2.00   7 2.06  19 2.10
  68  0.824  0.363  0.207-  20 1.82   3 1.91   8 1.93
  69  0.826  0.337  0.725-   4 1.97   9 2.00   7 2.06  21 2.10
  70  0.828  0.667  0.217-  22 1.86   5 2.05   8 2.09  10 2.09
  71  0.827  0.667  0.722-  23 1.93   6 2.05   9 2.08  11 2.08
  72  0.772  0.957  0.439-  10 1.91  19 2.00  16 2.09
  73  0.837  0.999  0.950-  18 1.85  11 1.95   7 1.97
  74  0.772  0.376  0.439-   8 1.91  21 2.00  14 2.09
  75  0.837  0.334  0.950-  20 1.85   9 1.95   7 1.97
  76  0.820  0.667  0.438-  23 1.89   8 1.99  10 1.99
  77  0.839  0.667  0.949-  22 1.85   9 1.97  11 1.97
  78  0.679  0.167  0.049-  13 1.83   1 1.98   3 1.98
  79  0.655  0.167  0.562-  12 1.85   2 1.93   4 1.93
  80  0.667  0.502  0.045-  15 1.81   5 1.94   3 2.02
  81  0.655  0.505  0.569-  14 1.85   6 1.88   4 1.90
  82  0.667  0.831  0.045-  17 1.81   5 1.94   1 2.02
  83  0.655  0.828  0.569-  16 1.85   6 1.88   2 1.90
  84  0.500  0.001  0.114-  46 1.85  42 1.86   1 1.98
  85  0.499  0.999  0.639-  43 1.86  47 1.86   2 1.95
  86  0.500  0.332  0.114-  44 1.85  42 1.86   3 1.98
  87  0.499  0.334  0.639-  43 1.86  45 1.86   4 1.95
  88  0.494  0.667  0.115-  44 1.84  46 1.84   5 1.96
  89  0.493  0.667  0.639-  45 1.86  47 1.86   6 1.95
  90  0.003  0.167  0.887-  37 1.85  39 1.85   7 1.93
  91  0.002  0.506  0.370-  40 1.84  38 1.90   8 1.96
  92  0.005  0.499  0.875-  41 1.86  39 1.87   9 1.94
  93  0.002  0.827  0.370-  40 1.84  36 1.90  10 1.96
  94  0.005  0.834  0.875-  41 1.86  37 1.87  11 1.94
  95  0.181  0.997  0.286-  36 1.93  28 2.04  24 2.09  30 2.11
  96  0.172  0.985  0.782-  37 1.86  31 1.93  29 2.00  25 2.33
  97  0.181  0.336  0.286-  38 1.93  26 2.04  24 2.09  32 2.11
  98  0.172  0.349  0.782-  39 1.86  33 1.93  27 2.00  25 2.33
  99  0.182  0.667  0.283-  40 1.88  26 2.04  28 2.04  34 2.21
 100  0.162  0.667  0.775-  41 1.88  35 2.03  27 2.09  29 2.09
 101  0.339  0.167  0.225-  42 1.89  24 2.04  30 2.07  32 2.07
 102  0.322  0.167  0.721-  43 1.91  25 1.96  31 2.08  33 2.08
 103  0.340  0.500  0.225-  44 1.87  26 2.05  34 2.07  32 2.07
 104  0.322  0.503  0.720-  45 1.86  35 2.01  33 2.07  27 2.16
 105  0.340  0.833  0.225-  46 1.87  28 2.05  34 2.07  30 2.07
 106  0.322  0.831  0.720-  47 1.86  35 2.01  31 2.07  29 2.16
 107  0.343  0.167  0.448-  43 1.85  30 1.95  32 1.95
 108  0.321  0.167  0.943-  42 1.87  31 1.97  33 1.97
 109  0.345  0.502  0.447-  45 1.84  34 1.95  32 1.95
 110  0.325  0.503  0.945-  44 1.85  33 1.96  35 1.96
 111  0.345  0.831  0.447-  47 1.84  34 1.95  30 1.95
 112  0.325  0.830  0.945-  46 1.85  31 1.96  35 1.96
 113  0.176  0.999  0.059-  37 1.88  28 1.96  24 1.98
 114  0.181  0.992  0.550-  36 1.90  25 1.95  29 1.97
 115  0.176  0.335  0.059-  39 1.88  26 1.96  24 1.98
 116  0.181  0.342  0.550-  38 1.90  25 1.95  27 1.97
 117  0.176  0.667  0.059-  41 1.86  26 1.97  28 1.97
 118  0.165  0.667  0.555-  40 1.85  27 1.98  29 1.98
 119  0.951  0.167  0.374-  36 2.19  38 2.19  19 2.89  21 2.89
 
  LATTYP: Found a simple monoclinic cell.
 ALAT       =    11.6348202465
 B/A-ratio  =     0.7858051831
 C/A-ratio  =     1.0554931797
 COS(beta)  =    -0.2379290539
  
  Lattice vectors:
  
 A1 = (   0.0000000000,  -2.7682617730, -11.3006977184)
 A2 = (  -9.1427020537,   0.0000000000,   0.0000000000)
 A3 = (   0.0000000000,  12.2804734172,   0.0000000000)


Analysis of symmetry for initial positions (statically):
=====================================================================
 Subroutine PRICEL returns:
 Original cell was already a primitive cell.
 

 Routine SETGRP: Setting up the symmetry group for a 
 simple monoclinic supercell.


 Subroutine GETGRP returns: Found  2 space group operations
 (whereof  1 operations were pure point group operations)
 out of a pool of  4 trial point group operations.


The static configuration has the point symmetry C_1 .
 The point group associated with its full space group is C_1h.


Analysis of symmetry for dynamics (positions and initial velocities):
=====================================================================
 Subroutine PRICEL returns:
 Original cell was already a primitive cell.
 

 Routine SETGRP: Setting up the symmetry group for a 
 simple monoclinic supercell.


 Subroutine GETGRP returns: Found  2 space group operations
 (whereof  1 operations were pure point group operations)
 out of a pool of  4 trial point group operations.


The dynamic configuration has the point symmetry C_1 .
 The point group associated with its full space group is C_1h.


 Subroutine INISYM returns: Found  2 space group operations
 (whereof  1 operations are pure point group operations),
 and found     1 'primitive' translations


----------------------------------------------------------------------------------------

                                     Primitive cell                                     

  volume of cell :    1268.8052

  direct lattice vectors                    reciprocal lattice vectors
     0.000000000 12.280473417  0.000000000     0.000000000  0.081430085 -0.019947423
     9.142702054  0.000000000  0.000000000     0.109376855 -0.000000000  0.000000000
     0.000000000 -2.768261773-11.300697718     0.000000000  0.000000000 -0.088490111

  length of vectors
    12.280473417  9.142702054 11.634820246     0.083837691  0.109376855  0.088490111

  position of ions in fractional coordinates (direct lattice)
     0.665718340  0.001541769  0.155558555
     0.662065882  0.999276187  0.663870971
     0.665718340  0.331791564  0.155558555
     0.662065882  0.334057147  0.663870971
     0.658683485  0.666666667  0.147960885
     0.655993099  0.666666667  0.668557761
     0.841575130  0.166666667  0.843682063
     0.837706369  0.496094089  0.338486704
     0.842609691  0.498513804  0.844484665
     0.837706369  0.837239244  0.338486704
     0.842609691  0.834819530  0.844484665
     0.618262517  0.166666667  0.398056105
     0.587481959  0.166666667  0.899791238
     0.621037605  0.492821659  0.405421238
     0.581007898  0.499187761  0.895294868
     0.621037605  0.840511675  0.405421238
     0.581007898  0.834145573  0.895294868
     0.914875915  0.001257728  0.106897668
     0.887961101  0.038156064  0.575062668
     0.914875915  0.332075605  0.106897668
     0.887961101  0.295177270  0.575062668
     0.914733634  0.666666667  0.106267948
     0.906211779  0.666666667  0.596431035
     0.168993748  0.166666667  0.164111537
     0.162804908  0.166666667  0.639133035
     0.168614235  0.499764079  0.164223444
     0.143093978  0.496450098  0.651765663
     0.168614235  0.833569254  0.164223444
     0.143093978  0.836883235  0.651765663
     0.357343437  0.999427490  0.348620450
     0.332235659  0.997588705  0.842112189
     0.357343437  0.333905844  0.348620450
     0.332235659  0.335744628  0.842112189
     0.366032235  0.666666667  0.348165857
     0.330374571  0.666666667  0.837658640
     0.085590804  0.004546174  0.395627204
     0.093955919  0.002384474  0.899957548
     0.085590804  0.328787160  0.395627204
     0.093955919  0.330948859  0.899957548
     0.095018579  0.666666667  0.395872536
     0.092961740  0.666666667  0.902946780
     0.410110746  0.166666667  0.098241235
     0.411776888  0.166666667  0.607311245
     0.410545888  0.497622354  0.098791903
     0.407126495  0.498007094  0.607166319
     0.410545888  0.835710979  0.098791903
     0.407126495  0.835326239  0.607166319
     0.005763024  0.166666667  0.125961361
     0.025278522  0.166666667  0.663643328
     0.004996115  0.500207671  0.127310156
     0.980323871  0.481899981  0.609236337
     0.004996115  0.833125662  0.127310156
     0.980323871  0.851433352  0.609236337
     0.520302558  0.000800684  0.376997693
     0.494051282  0.002223973  0.872178107
     0.520302558  0.332532650  0.376997693
     0.494051282  0.331109360  0.872178107
     0.528176367  0.666666667  0.380743108
     0.493500834  0.666666667  0.872174142
     0.663846529  0.166666667  0.260680307
     0.672650670  0.166666667  0.785882082
     0.661324706  0.507739854  0.259840102
     0.672542544  0.502569895  0.789463047
     0.661324706  0.825593479  0.259840102
     0.672542544  0.830763438  0.789463047
     0.823949191  0.970158924  0.206840018
     0.826149621  0.996378561  0.725449314
     0.823949191  0.363174409  0.206840018
     0.826149621  0.336954772  0.725449314
     0.828303655  0.666666667  0.217121759
     0.827293379  0.666666667  0.721876766
     0.772154750  0.956841675  0.439005582
     0.836502993  0.999481850  0.949754224
     0.772154750  0.376491658  0.439005582
     0.836502993  0.333851483  0.949754224
     0.819638556  0.666666667  0.438300468
     0.838789205  0.666666667  0.948757166
     0.679011563  0.166666667  0.049476444
     0.655444169  0.166666667  0.561628747
     0.666782998  0.501887959  0.045086404
     0.655226891  0.504946866  0.568867532
     0.666782998  0.831445374  0.045086404
     0.655226891  0.828386467  0.568867532
     0.500048969  0.000901539  0.114359828
     0.499255307  0.999132692  0.639424493
     0.500048969  0.332431794  0.114359828
     0.499255307  0.334200642  0.639424493
     0.494445209  0.666666667  0.114736064
     0.493045592  0.666666667  0.638985639
     0.003218512  0.166666667  0.887173379
     0.001871751  0.506004842  0.370201522
     0.004906816  0.499060293  0.875200214
     0.001871751  0.827328491  0.370201522
     0.004906816  0.834273040  0.875200214
     0.181413080  0.996947741  0.286429517
     0.171993159  0.984774766  0.781717998
     0.181413080  0.336385592  0.286429517
     0.171993159  0.348558568  0.781717998
     0.181752281  0.666666667  0.282913628
     0.161757213  0.666666667  0.774895296
     0.338788301  0.166666667  0.225179206
     0.322048660  0.166666667  0.720642988
     0.339859433  0.499889995  0.224792875
     0.322397024  0.502798421  0.720406110
     0.339859433  0.833443338  0.224792875
     0.322397024  0.830534912  0.720406110
     0.343459792  0.166666667  0.447535561
     0.321487646  0.166666667  0.943369310
     0.344700942  0.502370682  0.447208030
     0.325050296  0.503081640  0.944826774
     0.344700942  0.830962651  0.447208030
     0.325050296  0.830251694  0.944826774
     0.175694769  0.998669925  0.058858254
     0.180778041  0.991550382  0.550076175
     0.175694769  0.334663409  0.058858254
     0.180778041  0.341782952  0.550076175
     0.176166428  0.666666667  0.058826857
     0.165219504  0.666666667  0.555048754
     0.951205021  0.166666667  0.373880181

  ion indices of the primitive-cell ions
   primitive index   ion index
                 1           1
                 2           2
                 3           3
                 4           4
                 5           5
                 6           6
                 7           7
                 8           8
                 9           9
                10          10
                11          11
                12          12
                13          13
                14          14
                15          15
                16          16
                17          17
                18          18
                19          19
                20          20
                21          21
                22          22
                23          23
                24          24
                25          25
                26          26
                27          27
                28          28
                29          29
                30          30
                31          31
                32          32
                33          33
                34          34
                35          35
                36          36
                37          37
                38          38
                39          39
                40          40
                41          41
                42          42
                43          43
                44          44
                45          45
                46          46
                47          47
                48          48
                49          49
                50          50
                51          51
                52          52
                53          53
                54          54
                55          55
                56          56
                57          57
                58          58
                59          59
                60          60
                61          61
                62          62
                63          63
                64          64
                65          65
                66          66
                67          67
                68          68
                69          69
                70          70
                71          71
                72          72
                73          73
                74          74
                75          75
                76          76
                77          77
                78          78
                79          79
                80          80
                81          81
                82          82
                83          83
                84          84
                85          85
                86          86
                87          87
                88          88
                89          89
                90          90
                91          91
                92          92
                93          93
                94          94
                95          95
                96          96
                97          97
                98          98
                99          99
               100         100
               101         101
               102         102
               103         103
               104         104
               105         105
               106         106
               107         107
               108         108
               109         109
               110         110
               111         111
               112         112
               113         113
               114         114
               115         115
               116         116
               117         117
               118         118
               119         119

----------------------------------------------------------------------------------------

 
 
 KPOINTS: Automatic mesh                          

Automatic generation of k-mesh.
 Grid dimensions read from file:
 generate k-points for:    2    2    2

 Generating k-lattice:

  Cartesian coordinates                     Fractional coordinates (reciprocal lattice)
     0.000000000  0.040715043 -0.009973711     0.500000000  0.000000000  0.000000000
     0.054688428 -0.000000000  0.000000000     0.000000000  0.500000000  0.000000000
     0.000000000  0.000000000 -0.044245056     0.000000000  0.000000000  0.500000000

  Length of vectors
     0.041918846  0.054688428  0.044245056

  Shift w.r.t. Gamma in fractional coordinates (k-lattice)
     0.000000000  0.000000000  0.000000000

 
 Subroutine IBZKPT returns following result:
 ===========================================
 
 Found      8 irreducible k-points:
 
 Following reciprocal coordinates:
            Coordinates               Weight
  0.000000  0.000000  0.000000      1.000000
  0.500000  0.000000  0.000000      1.000000
  0.000000  0.500000  0.000000      1.000000
  0.500000  0.500000  0.000000      1.000000
  0.000000  0.000000  0.500000      1.000000
  0.500000  0.000000  0.500000      1.000000
  0.000000  0.500000  0.500000      1.000000
  0.500000  0.500000  0.500000      1.000000
 
 Following cartesian coordinates:
            Coordinates               Weight
  0.000000  0.000000 -0.000000      1.000000
  0.000000  0.040715 -0.009974      1.000000
  0.054688  0.000000 -0.000000      1.000000
  0.054688  0.040715 -0.009974      1.000000
  0.000000  0.000000 -0.044245      1.000000
  0.000000  0.040715 -0.054219      1.000000
  0.054688  0.000000 -0.044245      1.000000
  0.054688  0.040715 -0.054219      1.000000
 
 
 Subroutine IBZKPT_HF returns following result:
 ==============================================
 
 Found      8 k-points in 1st BZ
 the following      8 k-points will be used (e.g. in the exchange kernel)
 Following reciprocal coordinates:   # in IRBZ
  0.000000  0.000000  0.000000    0.12500000   1 t-inv F
  0.500000  0.000000  0.000000    0.12500000   2 t-inv F
  0.000000  0.500000  0.000000    0.12500000   3 t-inv F
  0.500000  0.500000  0.000000    0.12500000   4 t-inv F
  0.000000  0.000000  0.500000    0.12500000   5 t-inv F
  0.500000  0.000000  0.500000    0.12500000   6 t-inv F
  0.000000  0.500000  0.500000    0.12500000   7 t-inv F
  0.500000  0.500000  0.500000    0.12500000   8 t-inv F


--------------------------------------------------------------------------------------------------------




 Dimension of arrays:
   k-points           NKPTS =      8   k-points in BZ     NKDIM =      8   number of bands    NBANDS=    633
   number of dos      NEDOS =    301   number of ions     NIONS =    119
   non local maximal  LDIM  =      6   non local SUM 2l+1 LMDIM =     18
   total plane-waves  NPLWV = 184320
   max r-space proj   IRMAX =   1800   max aug-charges    IRDMAX=   5704
   dimension x,y,z NGX =    64 NGY =   48 NGZ =   60
   dimension x,y,z NGXF=   128 NGYF=   96 NGZF=  120
   support grid    NGXF=   128 NGYF=   96 NGZF=  120
   ions per type =              47  71   1
   NGX,Y,Z   is equivalent  to a cutoff of   8.66,  8.73,  8.57 a.u.
   NGXF,Y,Z  is equivalent  to a cutoff of  17.33, 17.46, 17.15 a.u.

 SYSTEM =  unknown system                          
 POSCAR =  Ga48 O72                                

 Startparameter for this run:
   NWRITE =      2    write-flag & timer
   PREC   = normal    normal or accurate (medium, high low for compatibility)
   ISTART =      0    job   : 0-new  1-cont  2-samecut
   ICHARG =      0    charge: 1-file 2-atom 10-const
   ISPIN  =      1    spin polarized calculation?
   LNONCOLLINEAR =      F non collinear calculations
   LSORBIT =      F    spin-orbit coupling
   INIWAV =      1    electr: 0-lowe 1-rand  2-diag
   LASPH  =      F    aspherical Exc in radial PAW
 Electronic Relaxation 1
   ENCUT  =  450.0 eV  33.07 Ry    5.75 a.u.  21.24 15.81 20.12*2*pi/ulx,y,z
   ENINI  =  450.0     initial cutoff
   ENAUG  =  605.4 eV  augmentation charge cutoff
   NELM   =    500;   NELMIN=  2; NELMDL= -5     # of ELM steps 
   EDIFF  = 0.1E-04   stopping-criterion for ELM
   LREAL  =      T    real-space projection
   NLSPLINE    = F    spline interpolate recip. space projectors
   LCOMPAT=      F    compatible to vasp.4.4
   GGA_COMPAT  = T    GGA compatible to vasp.4.4-vasp.4.6
   LMAXPAW     = -100 max onsite density
   LMAXMIX     =    2 max onsite mixed and CHGCAR
   VOSKOWN=      0    Vosko Wilk Nusair interpolation
   ROPT   =   -0.00050  -0.00050  -0.00050
 Ionic relaxation
   EDIFFG = -.5E-02   stopping-criterion for IOM
   NSW    =      0    number of steps for IOM
   NBLOCK =      1;   KBLOCK =      1    inner block; outer block 
   IBRION =     -1    ionic relax: 0-MD 1-quasi-New 2-CG
   NFREE  =      0    steps in history (QN), initial steepest desc. (CG)
   ISIF   =      2    stress and relaxation
   IWAVPR =     10    prediction:  0-non 1-charg 2-wave 3-comb
   ISYM   =      3    0-nonsym 1-usesym 2-fastsym
   LCORR  =      T    Harris-Foulkes like correction to forces

   POTIM  = 0.5000    time-step for ionic-motion
   TEIN   =    0.0    initial temperature
   TEBEG  =    0.0;   TEEND  =   0.0 temperature during run
   SMASS  =  -3.00    Nose mass-parameter (am)
   estimated Nose-frequenzy (Omega)   =  0.10E-29 period in steps = 0.13E+47 mass=  -0.345E-26a.u.
   SCALEE = 1.0000    scale energy and forces
   NPACO  =    256;   APACO  = 10.0  distance and # of slots for P.C.
   PSTRESS=    0.0 pullay stress

  Mass of Ions in am
   POMASS =  69.72 16.00 30.97
  Ionic Valenz
   ZVAL   =  13.00  6.00  5.00
  Atomic Wigner-Seitz radii
   RWIGS  =  -1.00 -1.00 -1.00
  virtual crystal weights 
   VCA    =   1.00  1.00  1.00
   NELECT =    1056.0000    total number of electrons
   NUPDOWN=      -1.0000    fix difference up-down

 DOS related values:
   EMIN   =  10.00;   EMAX   =-10.00  energy-range for DOS
   EFERMI =   0.00;   METHOD = LEGACY      
   ISMEAR =     0;   SIGMA  =   0.05  broadening in eV -4-tet -1-fermi 0-gaus

 Electronic relaxation 2 (details)
   IALGO  =     58    algorithm
   LDIAG  =      T    sub-space diagonalisation (order eigenvalues)
   LSUBROT=      F    optimize rotation matrix (better conditioning)
   TURBO    =      0    0=normal 1=particle mesh
   IRESTART =      0    0=no restart 2=restart with 2 vectors
   NREBOOT  =      0    no. of reboots
   NMIN     =      0    reboot dimension
   EREF     =   0.00    reference energy to select bands
   IMIX   =      4    mixing-type and parameters
     AMIX     =   0.40;   BMIX     =  1.00
     AMIX_MAG =   1.60;   BMIX_MAG =  1.00
     AMIN     =   0.10
     WC   =   100.;   INIMIX=   1;  MIXPRE=   1;  MAXMIX= -45

 Intra band minimization:
   WEIMIN = 0.0000     energy-eigenvalue tresh-hold
   EBREAK =  0.39E-08  absolut break condition
   DEPER  =   0.30     relativ break condition  

   TIME   =   0.40     timestep for ELM

  volume/ion in A,a.u.               =      10.66        71.95
  Fermi-wavevector in a.u.,A,eV,Ry     =   1.539919  2.910025 32.264175  2.371350
  Thomas-Fermi vector in A             =   2.646079
 
 Write flags
   LWAVE        =      T    write WAVECAR
   LDOWNSAMPLE  =      F    k-point downsampling of WAVECAR
   LCHARG       =      T    write CHGCAR
   LVTOT        =      F    write LOCPOT, total local potential
   LVHAR        =      F    write LOCPOT, Hartree potential only
   LELF         =      F    write electronic localiz. function (ELF)
   LORBIT       =      0    0 simple, 1 ext, 2 COOP (PROOUT), +10 PAW based schemes


 Dipole corrections
   LMONO  =      F    monopole corrections only (constant potential shift)
   LDIPOL =      F    correct potential (dipole corrections)
   IDIPOL =      0    1-x, 2-y, 3-z, 4-all directions 
   EPSILON=  1.0000000 bulk dielectric constant

 Exchange correlation treatment:
   GGA     =    --    GGA type
   LEXCH   =     8    internal setting for exchange type
   LIBXC   =     F    Libxc                    
   VOSKOWN =     0    Vosko Wilk Nusair interpolation
   EXXOEP  =     0    0=HF, 1=EXX-LHF (local Hartree Fock) 2=EXX OEP
   LHFCALC =     T    Hartree Fock is set to
   LSYMGRAD=     F    symmetrize gradient (conserves proper symmetry)
   PRECFOCK=fast      Normal, Fast or Accurate (Low or Medium for compatibility)
   LRHFCALC=     F    long range Hartree Fock
   LRSCOR  =     F    long range correlation only (use DFT for short range part)
   LTHOMAS =     F    Thomas Fermi screening in HF
   LMODELHF=     F    short range full HF, long range fraction AEXX
   FOCKCORR=     1    mode to apply convergence corrections
   LFOCKACE=     T    use Adeptively-Compressed-Exchange operator
   ENCUT4O =  -1.0   cutoff for four orbital integrals eV
   LMAXFOCK=     4    L truncation for augmentation on plane wave grid
   LMAXFOCKAE=  -1    L truncation for all-electron charge restoration on plane wave grid
   NMAXFOCKAE=   1    number of basis functions for all-electron charge restoration
   LFOCKAEDFT=     F  apply the AE augmentation even for DFT
   NKREDX  =     1    reduce k-point grid by
   NKREDY  =     1    reduce k-point grid by
   NKREDZ  =     1    reduce k-point grid by
   SHIFTRED=     F    shift reduced grid of Gamma
   HFKIDENT=     F    idential grid for each k-point
   ODDONLY =     F    use only odd q-grid points
   EVENONLY=     F    use only even q-grid points
   HFALPHA =   -1.0000 decay constant for conv. correction
   MCALPHA =    0.0000 extent of test-charge in conv. correction in multipole expansion
   AEXX    =    0.3500 exact exchange contribution
   HFSCREEN=    0.1800 screening length (either q_TF or 0.3 A-1)
   HFSCREENC=   0.1800 screening length for correlation (either q_TF or 0.3 A-1)
   HFRCUT  =    0.0000 spherical cutoff for potential kernel
   ALDAX   =    0.6500 LDA exchange part
   AGGAX   =    0.6500 GGA exchange part
   ALDAC   =    1.0000 LDA correlation
   AGGAC   =    1.0000 GGA correlation
   ENCUTFOCK=  -1.0 apply spherical cutoff to Coloumb kernel
   NBANDSGWLOW=     1    first orbital included in HF term
   NBLOCK_FOCK=    64    blocking factor in FOCK_ACC

 Linear response parameters
   LEPSILON=     F    determine dielectric tensor
   LRPA    =     F    only Hartree local field effects (RPA)
   LNABLA  =     F    use nabla operator in PAW spheres
   LVEL    =     F    velocity operator in full k-point grid
   CSHIFT  =0.1000    complex shift for real part using Kramers Kronig
   OMEGAMAX=  -1.0    maximum frequency
   DEG_THRESHOLD= 0.2000000E-02 threshold for treating states as degnerate
   RTIME   =   -0.100 relaxation time in fs
  (WPLASMAI=    0.000 imaginary part of plasma frequency in eV, 0.658/RTIME)
   DFIELD  = 0.0000000 0.0000000 0.0000000 field for delta impulse in time
 
  Optional k-point grid parameters
   LKPOINTS_OPT  =     F    use optional k-point grid
   KPOINTS_OPT_MODE=     1    mode for optional k-point grid
 
 Orbital magnetization related:
   ORBITALMAG=     F  switch on orbital magnetization
   LCHIMAG   =     F  perturbation theory with respect to B field
   DQ        =  0.001000  dq finite difference perturbation B field
   LLRAUG    =     F  two centre corrections for induced B field
   LBONE     =     F  B-component reconstruction in AE one-centre
   LVGVCALC  =     T  calculate vGv susceptibility
   LVGVAPPL  =     F  apply vGv susceptibility instead of pGv for G=0

 Random number generation:
   RANDOM_GENERATOR = DEFAULT
   PCG_SEED         = not used


--------------------------------------------------------------------------------------------------------


 Static calculation
 charge density and potential will be updated during run
 non-spin polarized calculation
 Conjugate gradient for all bands (Freysoldt, et al. PRB 79, 241103 (2009))
 preconditioned conjugated gradient                                        
 perform sub-space diagonalisation
    before iterative eigenvector-optimisation
 modified Broyden-mixing scheme, WC =      100.0
 initial mixing is a Kerker type mixing with AMIX =  0.4000 and BMIX =      1.0000
 Hartree-type preconditioning will be used
 using additional bands           105
 real space projection scheme for non local part
 use partial core corrections
 no Harris-corrections to forces 
 use gradient corrections 
 use of overlap-Matrix (Vanderbilt PP)
 Gauss-broadening in eV      SIGMA  =   0.05


--------------------------------------------------------------------------------------------------------


  energy-cutoff  :      450.00
  volume of cell :     1268.81
      direct lattice vectors                 reciprocal lattice vectors
     0.000000000 12.280473417  0.000000000     0.000000000  0.081430085 -0.019947423
     9.142702054  0.000000000  0.000000000     0.109376855 -0.000000000  0.000000000
     0.000000000 -2.768261773-11.300697718     0.000000000  0.000000000 -0.088490111

  length of vectors
    12.280473417  9.142702054 11.634820246     0.083837691  0.109376855  0.088490111


 
 k-points in units of 2pi/SCALE and weight: Automatic mesh                          
   0.00000000  0.00000000 -0.00000000       0.125
   0.00000000  0.04071504 -0.00997371       0.125
   0.05468843  0.00000000 -0.00000000       0.125
   0.05468843  0.04071504 -0.00997371       0.125
   0.00000000  0.00000000 -0.04424506       0.125
   0.00000000  0.04071504 -0.05421877       0.125
   0.05468843  0.00000000 -0.04424506       0.125
   0.05468843  0.04071504 -0.05421877       0.125
 
 k-points in reciprocal lattice and weights: Automatic mesh                          
   0.00000000  0.00000000  0.00000000       0.125
   0.50000000  0.00000000  0.00000000       0.125
   0.00000000  0.50000000  0.00000000       0.125
   0.50000000  0.50000000  0.00000000       0.125
   0.00000000  0.00000000  0.50000000       0.125
   0.50000000  0.00000000  0.50000000       0.125
   0.00000000  0.50000000  0.50000000       0.125
   0.50000000  0.50000000  0.50000000       0.125
 
 position of ions in fractional coordinates (direct lattice) 
   0.66571834  0.00154177  0.15555855
   0.66206588  0.99927619  0.66387097
   0.66571834  0.33179156  0.15555855
   0.66206588  0.33405715  0.66387097
   0.65868348  0.66666667  0.14796089
   0.65599310  0.66666667  0.66855776
   0.84157513  0.16666667  0.84368206
   0.83770637  0.49609409  0.33848670
   0.84260969  0.49851380  0.84448467
   0.83770637  0.83723924  0.33848670
   0.84260969  0.83481953  0.84448467
   0.61826252  0.16666667  0.39805611
   0.58748196  0.16666667  0.89979124
   0.62103761  0.49282166  0.40542124
   0.58100790  0.49918776  0.89529487
   0.62103761  0.84051167  0.40542124
   0.58100790  0.83414557  0.89529487
   0.91487592  0.00125773  0.10689767
   0.88796110  0.03815606  0.57506267
   0.91487592  0.33207561  0.10689767
   0.88796110  0.29517727  0.57506267
   0.91473363  0.66666667  0.10626795
   0.90621178  0.66666667  0.59643104
   0.16899375  0.16666667  0.16411154
   0.16280491  0.16666667  0.63913304
   0.16861424  0.49976408  0.16422344
   0.14309398  0.49645010  0.65176566
   0.16861424  0.83356925  0.16422344
   0.14309398  0.83688324  0.65176566
   0.35734344  0.99942749  0.34862045
   0.33223566  0.99758870  0.84211219
   0.35734344  0.33390584  0.34862045
   0.33223566  0.33574463  0.84211219
   0.36603224  0.66666667  0.34816586
   0.33037457  0.66666667  0.83765864
   0.08559080  0.00454617  0.39562720
   0.09395592  0.00238447  0.89995755
   0.08559080  0.32878716  0.39562720
   0.09395592  0.33094886  0.89995755
   0.09501858  0.66666667  0.39587254
   0.09296174  0.66666667  0.90294678
   0.41011075  0.16666667  0.09824123
   0.41177689  0.16666667  0.60731124
   0.41054589  0.49762235  0.09879190
   0.40712650  0.49800709  0.60716632
   0.41054589  0.83571098  0.09879190
   0.40712650  0.83532624  0.60716632
   0.00576302  0.16666667  0.12596136
   0.02527852  0.16666667  0.66364333
   0.00499611  0.50020767  0.12731016
   0.98032387  0.48189998  0.60923634
   0.00499611  0.83312566  0.12731016
   0.98032387  0.85143335  0.60923634
   0.52030256  0.00080068  0.37699769
   0.49405128  0.00222397  0.87217811
   0.52030256  0.33253265  0.37699769
   0.49405128  0.33110936  0.87217811
   0.52817637  0.66666667  0.38074311
   0.49350083  0.66666667  0.87217414
   0.66384653  0.16666667  0.26068031
   0.67265067  0.16666667  0.78588208
   0.66132471  0.50773985  0.25984010
   0.67254254  0.50256990  0.78946305
   0.66132471  0.82559348  0.25984010
   0.67254254  0.83076344  0.78946305
   0.82394919  0.97015892  0.20684002
   0.82614962  0.99637856  0.72544931
   0.82394919  0.36317441  0.20684002
   0.82614962  0.33695477  0.72544931
   0.82830365  0.66666667  0.21712176
   0.82729338  0.66666667  0.72187677
   0.77215475  0.95684167  0.43900558
   0.83650299  0.99948185  0.94975422
   0.77215475  0.37649166  0.43900558
   0.83650299  0.33385148  0.94975422
   0.81963856  0.66666667  0.43830047
   0.83878921  0.66666667  0.94875717
   0.67901156  0.16666667  0.04947644
   0.65544417  0.16666667  0.56162875
   0.66678300  0.50188796  0.04508640
   0.65522689  0.50494687  0.56886753
   0.66678300  0.83144537  0.04508640
   0.65522689  0.82838647  0.56886753
   0.50004897  0.00090154  0.11435983
   0.49925531  0.99913269  0.63942449
   0.50004897  0.33243179  0.11435983
   0.49925531  0.33420064  0.63942449
   0.49444521  0.66666667  0.11473606
   0.49304559  0.66666667  0.63898564
   0.00321851  0.16666667  0.88717338
   0.00187175  0.50600484  0.37020152
   0.00490682  0.49906029  0.87520021
   0.00187175  0.82732849  0.37020152
   0.00490682  0.83427304  0.87520021
   0.18141308  0.99694774  0.28642952
   0.17199316  0.98477477  0.78171800
   0.18141308  0.33638559  0.28642952
   0.17199316  0.34855857  0.78171800
   0.18175228  0.66666667  0.28291363
   0.16175721  0.66666667  0.77489530
   0.33878830  0.16666667  0.22517921
   0.32204866  0.16666667  0.72064299
   0.33985943  0.49989000  0.22479288
   0.32239702  0.50279842  0.72040611
   0.33985943  0.83344334  0.22479288
   0.32239702  0.83053491  0.72040611
   0.34345979  0.16666667  0.44753556
   0.32148765  0.16666667  0.94336931
   0.34470094  0.50237068  0.44720803
   0.32505030  0.50308164  0.94482677
   0.34470094  0.83096265  0.44720803
   0.32505030  0.83025169  0.94482677
   0.17569477  0.99866992  0.05885825
   0.18077804  0.99155038  0.55007618
   0.17569477  0.33466341  0.05885825
   0.18077804  0.34178295  0.55007618
   0.17616643  0.66666667  0.05882686
   0.16521950  0.66666667  0.55504875
   0.95120502  0.16666667  0.37388018
 
 position of ions in cartesian coordinates  (Angst):
   0.01409593  7.74470958 -1.75792020
   9.13608445  6.29271383 -7.50220517
   3.03347142  7.74470958 -1.75792020
   3.05418496  6.29271383 -7.50220517
   6.09513470  7.67935056 -1.67206124
   6.09513470  6.20516293 -7.55516917
   1.52378368  7.99940821 -9.53419597
   4.53564045  9.35041100 -3.82513592
   4.55776318  8.00989129 -9.54326593
   7.65462896  9.35041100 -3.82513592
   7.63250623  8.00989129 -9.54326593
   1.52378368  6.49063290 -4.49831172
   1.52378368  4.72369890-10.16826879
   4.50572159  6.50432369 -4.58154286
   4.56392496  4.65664149-10.11745667
   7.68454782  6.50432369 -4.58154286
   7.62634444  4.65664149-10.11745667
   0.01149903 10.93918863 -1.20801823
   0.34884952  9.31265870 -6.49860938
   3.03606832 10.93918863 -1.20801823
   2.69871783  9.31265870 -6.49860938
   6.09513470 10.93918458 -1.20090196
   6.09513470  9.47763243 -6.74008684
   1.52378368  1.62101953 -1.85457487
   1.52378368  0.23003379 -7.22264923
   4.56919407  1.61604915 -1.85583950
   4.53889533 -0.04699618 -7.36540675
   7.62107533  1.61604915 -1.85583950
   7.65137408 -0.04699618 -7.36540675
   9.13746776  3.42327391 -3.93965433
   9.12065630  1.74882420 -9.51645530
   3.05280164  3.42327391 -3.93965433
   3.06961310  1.74882420 -9.51645530
   6.09513470  3.53123490 -3.93451711
   6.09513470  1.73829775 -9.46612708
   0.04156431 -0.04410407 -4.47086344
   0.02180053 -1.33749491-10.17014821
   3.00600304 -0.04410407 -4.47086344
   3.02576682 -1.33749491-10.17014821
   6.09513470  0.07099433 -4.47363587
   6.09513470 -1.35797887-10.20392861
   1.52378368  4.76439666 -1.11019450
   1.52378368  3.37561863 -6.86304080
   4.54961292  4.76821602 -1.11641743
   4.55313048  3.31891079 -6.86140304
   7.64065648  4.76821602 -1.11641743
   7.63713892  3.31891079 -6.86140304
   1.52378368 -0.27792136 -1.42345127
   1.52378368 -1.52670624 -7.49963264
   4.57324970 -0.29107318 -1.43869358
   4.40586795 10.35231558 -6.88479568
   7.61701970 -0.29107318 -1.43869358
   7.78440146 10.35231558 -6.88479568
   0.00732041  5.34593343 -4.26033697
   0.02033312  3.65276632 -9.85622114
   3.04024694  5.34593343 -4.26033697
   3.02723423  3.65276632 -9.85622114
   6.09513470  5.43225924 -4.30266277
   6.09513470  3.64601754 -9.85617634
   1.52378368  7.43071832 -2.94586935
   1.52378368  6.08494135 -8.88101585
   4.64211421  7.40207505 -2.93637445
   4.59484682  6.07370046 -8.92148326
   7.54815520  7.40207505 -2.93637445
   7.59542259  6.07370046 -8.92148326
   8.86987399  9.54589882 -2.33743652
   9.10959232  8.13727485 -8.19808341
   3.32039542  9.54589882 -2.33743652
   3.08067709  8.13727485 -8.19808341
   6.09513470  9.57091115 -2.45362736
   6.09513470  8.16121049 -8.15771113
   8.74811835  8.26714352 -4.96106937
   9.13796476  7.64348446-10.73288539
   3.44215106  8.26714352 -4.96106937
   3.05230464  7.64348446-10.73288539
   6.09513470  8.85221907 -4.95310110
   6.09513470  7.67432034-10.72161794
   1.52378368  8.20161970 -0.55911834
   1.52378368  6.49442930 -6.34679670
   4.58861207  8.06359991 -0.50950783
   4.61657875  6.47172217 -6.42860002
   7.60165733  8.06359991 -0.50950783
   7.57369066  6.47172217 -6.42860002
   0.00824251  5.82426013 -1.29234585
   9.13477251  4.36099714 -7.22594291
   3.03932484  5.82426013 -1.29234585
   3.05549689  4.36099714 -7.22594291
   6.09513470  5.75440179 -1.29659757
   6.09513470  4.28595377 -7.22098355
   1.52378368 -2.41640330-10.02567818
   4.62625151 -1.00182873 -4.18353550
   4.56275957 -2.36252527 -9.89037306
   7.56401789 -1.00182873 -4.18353550
   7.62750983 -2.36252527 -9.89037306
   9.11479616  1.43492663 -3.23685339
   9.00350227 -0.05184263 -8.83395880
   3.07547324  1.43492663 -3.23685339
   3.18676713 -0.05184263 -8.83395880
   6.09513470  1.44882508 -3.19712139
   6.09513470 -0.15865788 -8.75685751
   1.52378368  3.53712574 -2.54468213
   1.52378368  1.95998157 -8.14376857
   4.57034529  3.55134921 -2.54031633
   4.59693616  1.96491538 -8.14109168
   7.61992412  3.55134921 -2.54031633
   7.59333325  1.96491538 -8.14109168
   1.52378368  2.97895326 -5.05746409
   1.52378368  1.33652729-10.66073141
   4.59302547  2.99510186 -5.05376276
   4.59952554  1.37624368-10.67720176
   7.59724394  2.99510186 -5.05376276
   7.59074387  1.37624368-10.67720176
   9.13054157  1.99467989 -0.66513934
   9.06544971  0.69728508 -6.21624458
   3.05972783  1.99467989 -0.66513934
   3.12481969  0.69728508 -6.21624458
   6.09513470  2.00055900 -0.66478453
   6.09513470  0.49245348 -6.27243819
   1.52378368 10.64624976 -4.22510691
 


--------------------------------------------------------------------------------------------------------


 k-point   1 :   0.0000 0.0000 0.0000  plane waves:   27533
 k-point   2 :   0.5000 0.0000 0.0000  plane waves:   27522
 k-point   3 :   0.0000 0.5000 0.0000  plane waves:   27488
 k-point   4 :   0.5000 0.5000 0.0000  plane waves:   27488
 k-point   5 :   0.0000 0.0000 0.5000  plane waves:   27482
 k-point   6 :   0.5000 0.0000 0.5000  plane waves:   27476
 k-point   7 :   0.0000 0.5000 0.5000  plane waves:   27468
 k-point   8 :   0.5000 0.5000 0.5000  plane waves:   27564

 maximum and minimum number of plane-waves per node :     27564    27468

 maximum number of plane-waves:     27564
 maximum index in each direction: 
   IXMAX=   21   IYMAX=   15   IZMAX=   20
   IXMIN=  -21   IYMIN=  -16   IZMIN=  -20


 serial   3D FFT for wavefunctions
 parallel 3D FFT for charge:
    minimum data exchange during FFTs selected (reduces bandwidth)


 FFT grid for exact exchange (Hartree Fock) 
  NGX = 48; NGY = 36; NGZ = 48

 
 Radii for the augmentation spheres in the non-local exchange
 for species   1 augmentation radius   1.392 (default was   1.031)
       energy cutoff for augmentation   1800.0
 for species   2 augmentation radius   0.974 (default was   0.722)
       energy cutoff for augmentation   1800.0
 for species   3 augmentation radius   1.294 (default was   0.959)
       energy cutoff for augmentation   1800.0
 Maximum index for augmentation-charges in exchange           753
  SETUP_FOCK is finished

 total amount of memory used by VASP MPI-rank0  7264219. kBytes
=======================================================================

   base      :      30000. kBytes
   nonlr-proj:      32507. kBytes
   fftplans  :      51012. kBytes
   grid      :     102973. kBytes
   one-center:       1850. kBytes
   HF        :        194. kBytes
   wavefun   :    7045683. kBytes
 
     INWAV:  cpu time      0.0001: real time      0.0001
 Broyden mixing: mesh for mixing (old mesh)
   NGX = 43   NGY = 31   NGZ = 41
  (NGX  =128   NGY  = 96   NGZ  =120)
  gives a total of  54653 points

 charge density for first step will be calculated from the start-wavefunctions


--------------------------------------------------------------------------------------------------------


 Maximum index for non-local projection operator          1724
 Maximum index for augmentation-charges          5355 (set IRDMAX)


--------------------------------------------------------------------------------------------------------


 initial charge from wavefunction
 First call to EWALD:  gamma=   0.164
 Maximum number of real-space cells 3x 3x 3
 Maximum number of reciprocal cells 3x 2x 3

    FEWALD:  cpu time      0.0723: real time      0.0723


--------------------------------------- Ionic step        1  -------------------------------------------




--------------------------------------- Iteration      1(   1)  ---------------------------------------


    POTLOK:  cpu time      0.0320: real time      0.0320
    SETDIJ:  cpu time      0.1182: real time      0.1182
    TRIAL :  cpu time      2.8719: real time      2.8779
    CORREC:  cpu time      0.0014: real time      0.0014
    --------------------------------------------
      LOOP:  cpu time      3.9300: real time      3.9357

 eigenvalue-minimisations  : 10592
 total energy-change (2. order) :-0.2051693E+05  (-0.5418234E+05)
 number of electron    1055.9999722 magnetization 
 augmentation part      119.6872609 magnetization 

 Free energy of the ion-electron system (eV)
  ---------------------------------------------------
  alpha Z        PSCENC =      5376.25786726
  Ewald energy   TEWEN  =    -86641.94408478
  -Hartree energ DENC   =     -2110.34263279
  -exchange      EXHF   =         0.00000000
  -V(xc)+E(xc)   XCENC  =      2816.11558227
  PAW double counting   =    342388.71346308  -373757.18428420
  entropy T*S    EENTRO =        -0.00309514
  eigenvalues    EBANDS =    -40047.89740053
  atomic energy  EATOM  =    131459.35058357
  ---------------------------------------------------
  free energy    TOTEN  =    -20516.93400125 eV

  energy without entropy =   -20516.93090611  energy(sigma->0) =   -20516.93245368
  exchange ACFDT corr.  =         0.00000000  see jH, gK, PRB 81, 115126


--------------------------------------------------------------------------------------------------------




--------------------------------------- Iteration      1(   2)  ---------------------------------------


    TRIAL :  cpu time      3.1572: real time      3.1568
    CORREC:  cpu time      0.0016: real time      0.0016
    --------------------------------------------
      LOOP:  cpu time      3.1590: real time      3.1591

 eigenvalue-minimisations  : 13312
 total energy-change (2. order) :-0.4588502E+05  (-0.4421868E+05)
 number of electron    1055.9999722 magnetization 
 augmentation part      119.6872609 magnetization 

 Free energy of the ion-electron system (eV)
  ---------------------------------------------------
  alpha Z        PSCENC =      5376.25786726
  Ewald energy   TEWEN  =    -86641.94408478
  -Hartree energ DENC   =     -2110.34263279
  -exchange      EXHF   =         0.00000000
  -V(xc)+E(xc)   XCENC  =      2816.11558227
  PAW double counting   =    342388.71346308  -373757.18428420
  entropy T*S    EENTRO =        -0.01532615
  eigenvalues    EBANDS =    -85932.90699930
  atomic energy  EATOM  =    131459.35058357
  ---------------------------------------------------
  free energy    TOTEN  =    -66401.95583103 eV

  energy without entropy =   -66401.94050488  energy(sigma->0) =   -66401.94816795
  exchange ACFDT corr.  =         0.00000000  see jH, gK, PRB 81, 115126


--------------------------------------------------------------------------------------------------------




--------------------------------------- Iteration      1(   3)  ---------------------------------------


    TRIAL :  cpu time      3.3728: real time      3.3724
    CORREC:  cpu time      0.0015: real time      0.0015
    --------------------------------------------
      LOOP:  cpu time      3.3745: real time      3.3745

 eigenvalue-minimisations  : 14813
 total energy-change (2. order) :-0.5708037E+04  (-0.5175353E+04)
 number of electron    1055.9999722 magnetization 
 augmentation part      119.6872609 magnetization 

 Free energy of the ion-electron system (eV)
  ---------------------------------------------------
  alpha Z        PSCENC =      5376.25786726
  Ewald energy   TEWEN  =    -86641.94408478
  -Hartree energ DENC   =     -2110.34263279
  -exchange      EXHF   =         0.00000000
  -V(xc)+E(xc)   XCENC  =      2816.11558227
  PAW double counting   =    342388.71346308  -373757.18428420
  entropy T*S    EENTRO =        -0.01526987
  eigenvalues    EBANDS =    -91640.94442704
  atomic energy  EATOM  =    131459.35058357
  ---------------------------------------------------
  free energy    TOTEN  =    -72109.99320249 eV

  energy without entropy =   -72109.97793262  energy(sigma->0) =   -72109.98556755
  exchange ACFDT corr.  =         0.00000000  see jH, gK, PRB 81, 115126


--------------------------------------------------------------------------------------------------------




--------------------------------------- Iteration      1(   4)  ---------------------------------------


    TRIAL :  cpu time      3.9717: real time      3.9711
    CORREC:  cpu time      0.0016: real time      0.0016
    --------------------------------------------
      LOOP:  cpu time      3.9734: real time      3.9732

 eigenvalue-minimisations  : 18736
 total energy-change (2. order) :-0.8961994E+03  (-0.8187202E+03)
 number of electron    1055.9999722 magnetization 
 augmentation part      119.6872609 magnetization 

 Free energy of the ion-electron system (eV)
  ---------------------------------------------------
  alpha Z        PSCENC =      5376.25786726
  Ewald energy   TEWEN  =    -86641.94408478
  -Hartree energ DENC   =     -2110.34263279
  -exchange      EXHF   =         0.00000000
  -V(xc)+E(xc)   XCENC  =      2816.11558227
  PAW double counting   =    342388.71346308  -373757.18428420
  entropy T*S    EENTRO =        -0.01048331
  eigenvalues    EBANDS =    -92537.14861382
  atomic energy  EATOM  =    131459.35058357
  ---------------------------------------------------
  free energy    TOTEN  =    -73006.19260271 eV

  energy without entropy =   -73006.18211940  energy(sigma->0) =   -73006.18736106
  exchange ACFDT corr.  =         0.00000000  see jH, gK, PRB 81, 115126


--------------------------------------------------------------------------------------------------------




--------------------------------------- Iteration      1(   5)  ---------------------------------------


    POTLOK:  cpu time      1.3256: real time      1.3254
    SETDIJ:  cpu time      0.4954: real time      0.4953
    TRIAL :  cpu time    232.5518: real time    232.5250
    CORREC:  cpu time      0.0007: real time      0.0007
    CHARGE:  cpu time      0.2071: real time      0.2071
    --------------------------------------------
      LOOP:  cpu time    234.5808: real time    234.5541

 eigenvalue-minimisations  : 17328
 total energy-change (2. order) : 0.3242939E+05  (-0.7481481E+02)
 number of electron    1055.9998619 magnetization 
 augmentation part      458.8806663 magnetization 

 Free energy of the ion-electron system (eV)
  ---------------------------------------------------
  alpha Z        PSCENC =      5376.25786726
  Ewald energy   TEWEN  =    -86641.94408478
  -Hartree energ DENC   =     -2110.34263279
  -exchange      EXHF   =      5311.24265500
  -V(xc)+E(xc)   XCENC  =      1867.14073434
  PAW double counting   =    343738.70696111  -345784.18432214
  entropy T*S    EENTRO =        -0.00000000
  eigenvalues    EBANDS =    -93793.03191382
  atomic energy  EATOM  =    131459.35058357
  ---------------------------------------------------
  free energy    TOTEN  =    -40576.80415226 eV

  energy without entropy =   -40576.80415226  energy(sigma->0) =   -40576.80415226
  exchange ACFDT corr.  =        -0.01805868  see jH, gK, PRB 81, 115126


--------------------------------------------------------------------------------------------------------




--------------------------------------- Iteration      1(   6)  ---------------------------------------


    POTLOK:  cpu time      1.4061: real time      1.4059
    SETDIJ:  cpu time      0.4457: real time      0.4456
    TRIAL :  cpu time    232.1366: real time    232.1047
    CORREC:  cpu time    235.1230: real time    235.0894
    CHARGE:  cpu time      0.2153: real time      0.2153
    --------------------------------------------
      LOOP:  cpu time    469.3269: real time    469.2614

 eigenvalue-minimisations  :     0
 total energy-change (2. order) : 0.8116248E+05  (-0.3749431E+05)
 number of electron    1055.9998815 magnetization 
 augmentation part      418.9777530 magnetization 

 Free energy of the ion-electron system (eV)
  ---------------------------------------------------
  alpha Z        PSCENC =      5376.25786726
  Ewald energy   TEWEN  =    -86641.94408478
  -Hartree energ DENC   =    -90246.57710672
  -exchange      EXHF   =      5398.45517191
  -V(xc)+E(xc)   XCENC  =      3637.20750348
  PAW double counting   =    158709.72371876  -184351.69862382
  entropy T*S    EENTRO =        -0.00169327
  eigenvalues    EBANDS =     97244.90542185
  atomic energy  EATOM  =    131459.35058357
  ---------------------------------------------------
  free energy    TOTEN  =     40585.68045151 eV

  energy without entropy =    40585.68214478  energy(sigma->0) =    40585.68129815
  exchange ACFDT corr.  =         0.00000000  see jH, gK, PRB 81, 115126


--------------------------------------------------------------------------------------------------------




--------------------------------------- Iteration      1(   7)  ---------------------------------------


    POTLOK:  cpu time      1.4761: real time      1.4759
    SETDIJ:  cpu time      0.4579: real time      0.4578
    TRIAL :  cpu time    232.5795: real time    232.5464
    CORREC:  cpu time    234.8398: real time    234.8058
    CHARGE:  cpu time      0.2052: real time      0.2052
    --------------------------------------------
      LOOP:  cpu time    469.5587: real time    469.4916

 eigenvalue-minimisations  :     0
 total energy-change (2. order) :-0.2344021E+05  (-0.8881538E+04)
 number of electron    1055.9998912 magnetization 
 augmentation part      399.1172946 magnetization 

 Free energy of the ion-electron system (eV)
  ---------------------------------------------------
  alpha Z        PSCENC =      5376.25786726
  Ewald energy   TEWEN  =    -86641.94408478
  -Hartree energ DENC   =    -37783.36025394
  -exchange      EXHF   =      3807.25156545
  -V(xc)+E(xc)   XCENC  =      2619.00029446
  PAW double counting   =    172859.99639522  -187149.26605125
  entropy T*S    EENTRO =        -0.02110583
  eigenvalues    EBANDS =     12598.19058026
  atomic energy  EATOM  =    131459.35058357
  ---------------------------------------------------
  free energy    TOTEN  =     17145.47520297 eV

  energy without entropy =    17145.49630880  energy(sigma->0) =    17145.48575589
  exchange ACFDT corr.  =      -139.64232372  see jH, gK, PRB 81, 115126


--------------------------------------------------------------------------------------------------------




--------------------------------------- Iteration      1(   8)  ---------------------------------------


    POTLOK:  cpu time      1.4764: real time      1.4762
    SETDIJ:  cpu time      0.4613: real time      0.4612
    TRIAL :  cpu time    232.8633: real time    232.8284
    CORREC:  cpu time    234.7751: real time    234.7438
    CHARGE:  cpu time      0.2096: real time      0.2096
    --------------------------------------------
      LOOP:  cpu time    469.7860: real time    469.7264

 eigenvalue-minimisations  :     0
 total energy-change (2. order) :-0.7696192E+04  (-0.4156384E+04)
 number of electron    1055.9998744 magnetization 
 augmentation part      423.5587081 magnetization 

 Free energy of the ion-electron system (eV)
  ---------------------------------------------------
  alpha Z        PSCENC =      5376.25786726
  Ewald energy   TEWEN  =    -86641.94408478
  -Hartree energ DENC   =    -27790.01701757
  -exchange      EXHF   =      3557.36633626
  -V(xc)+E(xc)   XCENC  =      2476.52556380
  PAW double counting   =    155768.07712635  -168830.12508756
  entropy T*S    EENTRO =        -0.02698891
  eigenvalues    EBANDS =     -5926.18692661
  atomic energy  EATOM  =    131459.35058357
  ---------------------------------------------------
  free energy    TOTEN  =      9449.28325489 eV

  energy without entropy =     9449.31024380  energy(sigma->0) =     9449.29674934
  exchange ACFDT corr.  =      -150.04775372  see jH, gK, PRB 81, 115126


--------------------------------------------------------------------------------------------------------




--------------------------------------- Iteration      1(   9)  ---------------------------------------


    POTLOK:  cpu time      1.4869: real time      1.4867
    SETDIJ:  cpu time      0.4766: real time      0.4766
    TRIAL :  cpu time    232.9234: real time    232.8920
    CORREC:  cpu time    234.3128: real time    234.2821
    CHARGE:  cpu time      0.2048: real time      0.2048
    --------------------------------------------
      LOOP:  cpu time    469.4047: real time    469.3426

 eigenvalue-minimisations  :     0
 total energy-change (2. order) :-0.3424984E+04  (-0.3011410E+04)
 number of electron    1055.9998736 magnetization 
 augmentation part      443.3564913 magnetization 

 Free energy of the ion-electron system (eV)
  ---------------------------------------------------
  alpha Z        PSCENC =      5376.25786726
  Ewald energy   TEWEN  =    -86641.94408478
  -Hartree energ DENC   =    -29849.99419286
  -exchange      EXHF   =      3634.11235154
  -V(xc)+E(xc)   XCENC  =      2535.19952827
  PAW double counting   =    142155.81236383  -157325.61196047
  entropy T*S    EENTRO =        -0.02251092
  eigenvalues    EBANDS =     -5318.85662077
  atomic energy  EATOM  =    131459.35058357
  ---------------------------------------------------
  free energy    TOTEN  =      6024.29884668 eV

  energy without entropy =     6024.32135761  energy(sigma->0) =     6024.31010215
  exchange ACFDT corr.  =       -95.62477058  see jH, gK, PRB 81, 115126


--------------------------------------------------------------------------------------------------------




--------------------------------------- Iteration      1(  10)  ---------------------------------------


    POTLOK:  cpu time      1.4864: real time      1.4862
    SETDIJ:  cpu time      0.4446: real time      0.4446
    TRIAL :  cpu time    232.8686: real time    232.8501
    CORREC:  cpu time    234.2663: real time    234.2382
    CHARGE:  cpu time      0.2133: real time      0.2132
    --------------------------------------------
      LOOP:  cpu time    469.2800: real time    469.2336

 eigenvalue-minimisations  :     0
 total energy-change (2. order) :-0.2167985E+04  (-0.2008060E+04)
 number of electron    1055.9998709 magnetization 
 augmentation part      448.3432729 magnetization 

 Free energy of the ion-electron system (eV)
  ---------------------------------------------------
  alpha Z        PSCENC =      5376.25786726
  Ewald energy   TEWEN  =    -86641.94408478
  -Hartree energ DENC   =    -32552.65575282
  -exchange      EXHF   =      3821.85375347
  -V(xc)+E(xc)   XCENC  =      2642.29573978
  PAW double counting   =    136806.75031658  -153325.51032630
  entropy T*S    EENTRO =        -0.01124909
  eigenvalues    EBANDS =     -3730.06137526
  atomic energy  EATOM  =    131459.35058357
  ---------------------------------------------------
  free energy    TOTEN  =      3856.31421058 eV

  energy without entropy =     3856.32545966  energy(sigma->0) =     3856.31983512
  exchange ACFDT corr.  =       -31.79735160  see jH, gK, PRB 81, 115126


--------------------------------------------------------------------------------------------------------




--------------------------------------- Iteration      1(  11)  ---------------------------------------


    POTLOK:  cpu time      1.4985: real time      1.4983
    SETDIJ:  cpu time      0.4671: real time      0.4670
    TRIAL :  cpu time    232.5093: real time    232.4836
    CORREC:  cpu time    234.3845: real time    234.3578
    CHARGE:  cpu time      0.2182: real time      0.2182
    --------------------------------------------
[...]
   -.247E-03 0.850E+02 -.110E+03   0.331E-10 -.845E+02 0.112E+03   0.000E+00 -.336E+00 -.219E+01
   0.242E+02 0.789E+02 0.486E+02   -.242E+02 -.783E+02 -.471E+02   0.411E-01 -.497E+00 -.141E+01
   0.121E+02 0.106E+03 -.133E+03   -.119E+02 -.106E+03 0.134E+03   -.143E+00 -.305E+00 -.110E+01
   -.242E+02 0.789E+02 0.486E+02   0.242E+02 -.783E+02 -.471E+02   -.411E-01 -.497E+00 -.141E+01
   -.121E+02 0.106E+03 -.133E+03   0.119E+02 -.106E+03 0.134E+03   0.143E+00 -.305E+00 -.110E+01
   -.736E-04 0.224E+02 0.870E+02   0.963E-11 -.152E+02 -.879E+02   0.000E+00 -.610E+01 0.878E+00
   0.672E-04 0.981E+02 0.257E+02   0.108E-10 -.112E+03 -.362E+02   0.000E+00 0.122E+02 0.867E+01
   0.238E+02 -.161E+02 0.326E+02   -.244E+02 0.230E+02 -.340E+02   0.525E+00 -.593E+01 0.123E+01
   0.665E+02 0.232E+02 -.226E+02   -.705E+02 -.246E+02 0.228E+02   0.308E+01 0.115E+01 -.934E-01
   -.238E+02 -.161E+02 0.326E+02   0.244E+02 0.230E+02 -.340E+02   -.525E+00 -.593E+01 0.123E+01
   -.665E+02 0.232E+02 -.226E+02   0.705E+02 -.246E+02 0.228E+02   -.308E+01 0.115E+01 -.934E-01
   -.143E+02 0.467E+02 -.262E+02   0.150E+02 -.520E+02 0.287E+02   -.571E+00 0.460E+01 -.212E+01
   -.216E+02 0.926E+01 -.977E+01   0.234E+02 -.146E+02 0.128E+02   -.161E+01 0.445E+01 -.257E+01
   0.143E+02 0.467E+02 -.262E+02   -.150E+02 -.520E+02 0.287E+02   0.571E+00 0.460E+01 -.212E+01
   0.216E+02 0.926E+01 -.977E+01   -.234E+02 -.146E+02 0.128E+02   0.161E+01 0.445E+01 -.257E+01
   0.127E-03 0.343E+02 -.122E+02   0.275E-10 -.362E+02 0.138E+02   0.000E+00 0.166E+01 -.140E+01
   0.181E-03 0.157E+02 -.799E+01   0.914E-12 -.225E+02 0.105E+02   0.000E+00 0.580E+01 -.215E+01
   0.102E-04 -.134E+03 0.945E+02   0.136E-10 0.142E+03 -.930E+02   0.000E+00 -.678E+01 -.138E+01
   -.779E-04 0.414E+02 0.570E+02   0.239E-10 -.407E+02 -.537E+02   0.000E+00 -.511E+00 -.272E+01
   0.242E+02 0.768E+02 0.191E+02   -.245E+02 -.782E+02 -.164E+02   0.278E+00 0.120E+01 -.233E+01
   0.128E+02 0.189E+02 0.645E+02   -.141E+02 -.156E+02 -.615E+02   0.116E+01 -.274E+01 -.256E+01
   -.242E+02 0.768E+02 0.191E+02   0.245E+02 -.782E+02 -.164E+02   -.278E+00 0.120E+01 -.233E+01
   -.128E+02 0.189E+02 0.645E+02   0.141E+02 -.156E+02 -.615E+02   -.116E+01 -.274E+01 -.256E+01
   -.165E+03 -.107E+03 0.954E+02   0.170E+03 0.106E+03 -.103E+03   -.409E+01 0.101E+01 0.608E+01
   0.166E+02 -.184E+03 -.807E+02   -.172E+02 0.193E+03 0.835E+02   0.510E+00 -.755E+01 -.250E+01
   0.165E+03 -.107E+03 0.954E+02   -.170E+03 0.106E+03 -.103E+03   0.409E+01 0.101E+01 0.608E+01
   -.166E+02 -.184E+03 -.807E+02   0.172E+02 0.193E+03 0.835E+02   -.510E+00 -.755E+01 -.250E+01
   0.146E-04 -.968E+02 -.670E+01   0.683E-11 0.935E+02 0.820E+00   0.000E+00 0.285E+01 0.503E+01
   0.144E-03 -.132E+03 -.642E+02   0.163E-10 0.133E+03 0.630E+02   0.000E+00 -.146E+01 0.892E+00
   -.166E+03 -.676E+02 0.358E+02   0.174E+03 0.621E+02 -.377E+02   -.676E+01 0.463E+01 0.176E+01
   -.882E+01 0.991E+02 0.888E+02   0.956E+01 -.110E+03 -.863E+02   -.648E+00 0.941E+01 -.211E+01
   0.166E+03 -.676E+02 0.358E+02   -.174E+03 0.621E+02 -.377E+02   0.676E+01 0.463E+01 0.176E+01
   0.882E+01 0.991E+02 0.888E+02   -.956E+01 -.110E+03 -.863E+02   0.648E+00 0.941E+01 -.211E+01
   0.193E-04 0.444E+02 0.889E+02   0.865E-11 -.545E+02 -.876E+02   0.000E+00 0.844E+01 -.893E+00
   0.234E-03 0.912E+02 0.678E+02   0.185E-10 -.102E+03 -.643E+02   0.000E+00 0.894E+01 -.301E+01
   -.134E-03 -.188E+03 0.596E+01   0.558E-11 0.203E+03 -.904E+01   0.000E+00 -.118E+02 0.255E+01
   -.273E-04 -.647E+02 -.858E+02   0.309E-10 0.672E+02 0.839E+02   0.000E+00 -.217E+01 0.168E+01
   0.298E+02 -.163E+03 -.373E+02   -.324E+02 0.176E+03 0.323E+02   0.224E+01 -.110E+02 0.417E+01
   -.122E+02 -.655E+02 -.742E+02   0.128E+02 0.696E+02 0.744E+02   -.524E+00 -.350E+01 -.200E+00
   -.298E+02 -.163E+03 -.373E+02   0.324E+02 0.176E+03 0.323E+02   -.224E+01 -.110E+02 0.417E+01
   0.122E+02 -.655E+02 -.742E+02   -.128E+02 0.696E+02 0.744E+02   0.524E+00 -.350E+01 -.200E+00
   -.166E+02 -.300E+02 0.320E+02   0.171E+02 0.383E+02 -.326E+02   -.440E+00 -.680E+01 0.553E+00
   -.237E+01 -.231E+01 -.667E+01   0.226E+01 0.818E+01 0.151E+01   0.736E-01 -.489E+01 0.433E+01
   0.166E+02 -.300E+02 0.320E+02   -.171E+02 0.383E+02 -.326E+02   0.440E+00 -.680E+01 0.553E+00
   0.237E+01 -.231E+01 -.667E+01   -.226E+01 0.818E+01 0.151E+01   -.736E-01 -.489E+01 0.433E+01
   0.150E-03 -.252E+01 0.324E+02   0.610E-11 0.101E+02 -.341E+02   0.000E+00 -.634E+01 0.146E+01
   0.179E-03 0.364E+01 -.178E+02   0.299E-10 0.220E+01 0.131E+02   0.000E+00 -.490E+01 0.388E+01
   0.117E-03 0.229E+02 -.529E+01   0.127E-10 -.297E+02 0.398E+01   0.000E+00 0.572E+01 0.109E+01
   0.672E+02 0.254E+02 0.132E+01   -.686E+02 -.312E+02 0.134E+01   0.123E+01 0.482E+01 -.220E+01
   0.716E+01 0.167E+02 -.431E+02   -.755E+01 -.222E+02 0.470E+02   0.309E+00 0.460E+01 -.327E+01
   -.672E+02 0.254E+02 0.132E+01   0.686E+02 -.312E+02 0.134E+01   -.123E+01 0.482E+01 -.220E+01
   -.716E+01 0.167E+02 -.431E+02   0.755E+01 -.222E+02 0.470E+02   -.309E+00 0.460E+01 -.327E+01
   -.235E+02 0.104E+03 0.960E+02   0.238E+02 -.101E+03 -.958E+02   -.255E+00 -.266E+01 -.129E+00
   -.296E+02 0.120E+03 -.289E+02   0.329E+02 -.121E+03 0.359E+02   -.276E+01 0.881E+00 -.597E+01
   0.235E+02 0.104E+03 0.960E+02   -.238E+02 -.101E+03 -.958E+02   0.255E+00 -.266E+01 -.129E+00
   0.296E+02 0.120E+03 -.289E+02   -.329E+02 -.121E+03 0.359E+02   0.276E+01 0.881E+00 -.597E+01
   0.495E-04 0.472E+02 0.896E+02   0.407E-11 -.408E+02 -.894E+02   0.000E+00 -.543E+01 -.510E-01
   0.126E-04 0.110E+03 -.202E+02   0.583E-11 -.111E+03 0.267E+02   0.000E+00 0.367E+00 -.562E+01
   0.166E-03 -.458E+02 -.582E+01   0.160E-10 0.453E+02 0.206E+01   0.000E+00 0.454E+00 0.308E+01
   -.132E-03 -.419E+02 -.517E+02   0.836E-11 0.440E+02 0.470E+02   0.000E+00 -.186E+01 0.398E+01
   0.361E+01 -.386E+02 -.518E+01   -.337E+01 0.367E+02 0.110E+01   -.200E+00 0.162E+01 0.337E+01
   0.330E+01 -.116E+02 -.928E+02   -.432E+01 0.650E+01 0.914E+02   0.879E+00 0.432E+01 0.120E+01
   -.361E+01 -.386E+02 -.518E+01   0.337E+01 0.367E+02 0.110E+01   0.200E+00 0.162E+01 0.337E+01
   -.330E+01 -.116E+02 -.928E+02   0.432E+01 0.650E+01 0.914E+02   -.879E+00 0.432E+01 0.120E+01
   0.139E-04 0.152E+03 0.304E+02   0.300E-10 -.163E+03 -.278E+02   0.000E+00 0.928E+01 -.208E+01
   -.127E-03 0.143E+03 0.670E+02   0.747E-11 -.155E+03 -.660E+02   0.000E+00 0.102E+02 -.721E+00
   -.501E+01 0.150E+03 0.325E+02   0.563E+01 -.161E+03 -.282E+02   -.516E+00 0.955E+01 -.358E+01
   -.376E+01 0.143E+03 0.737E+02   0.413E+01 -.155E+03 -.722E+02   -.301E+00 0.102E+02 -.126E+01
   0.501E+01 0.150E+03 0.325E+02   -.563E+01 -.161E+03 -.282E+02   0.516E+00 0.955E+01 -.358E+01
   0.376E+01 0.143E+03 0.737E+02   -.413E+01 -.155E+03 -.722E+02   0.301E+00 0.102E+02 -.126E+01
   -.539E+01 -.804E+02 -.458E+02   0.594E+01 0.912E+02 0.448E+02   -.481E+00 -.917E+01 0.896E+00
   0.712E+01 -.975E+02 -.123E+03   -.107E+02 0.113E+03 0.122E+03   0.305E+01 -.133E+02 0.240E+00
   0.539E+01 -.804E+02 -.458E+02   -.594E+01 0.912E+02 0.448E+02   0.481E+00 -.917E+01 0.896E+00
   -.712E+01 -.975E+02 -.123E+03   0.107E+02 0.113E+03 0.122E+03   -.305E+01 -.133E+02 0.240E+00
   0.274E-04 -.909E+02 -.468E+02   0.625E-11 0.102E+03 0.442E+02   0.000E+00 -.982E+01 0.226E+01
   0.972E-04 -.109E+03 -.774E+02   0.909E-12 0.120E+03 0.726E+02   0.000E+00 -.902E+01 0.407E+01
   -.364E-04 0.118E+03 -.397E+02   0.820E-11 -.120E+03 0.420E+02   0.000E+00 0.191E+01 -.226E+01
 -----------------------------------------------------------------------------------------------
   -.209E-02 -.471E+02 0.289E+01   -.105E-11 -.163E-11 0.355E-12   0.888E-15 0.452E+02 -.344E+01
 
 
 POSITION                                       TOTAL-FORCE (eV/Angst)
 -----------------------------------------------------------------------------------
      0.01410      7.74471     -1.75792         0.019979      0.101125     -0.074461
      9.13608      6.29271     -7.50221        -0.005744      0.037096      0.055170
      3.03347      7.74471     -1.75792        -0.019979      0.101125     -0.074461
      3.05418      6.29271     -7.50221         0.005744      0.037096      0.055170
      6.09513      7.67935     -1.67206         0.000000     -0.058416     -0.121109
      6.09513      6.20516     -7.55517         0.000000      0.071342      0.116742
      1.52378      7.99941     -9.53420         0.000000     -0.030697      0.024517
      4.53564      9.35041     -3.82514        -0.030931     -0.148110     -0.013732
      4.55776      8.00989     -9.54327        -0.045383     -0.016679      0.101933
      7.65463      9.35041     -3.82514         0.030931     -0.148110     -0.013732
      7.63251      8.00989     -9.54327         0.045383     -0.016679      0.101933
      1.52378      6.49063     -4.49831         0.000000     -0.144304      0.048551
      1.52378      4.72370    -10.16827         0.000000      0.015086      0.002275
      4.50572      6.50432     -4.58154        -0.127935      0.050802     -0.003578
      4.56392      4.65664    -10.11746        -0.018562      0.060871     -0.060716
      7.68455      6.50432     -4.58154         0.127935      0.050802     -0.003578
      7.62634      4.65664    -10.11746         0.018562      0.060871     -0.060716
      0.01150     10.93919     -1.20802        -0.085404     -0.070022      0.016996
      0.34885      9.31266     -6.49861        -0.062672     -0.013107     -0.114978
      3.03607     10.93919     -1.20802         0.085404     -0.070022      0.016996
      2.69872      9.31266     -6.49861         0.062672     -0.013107     -0.114978
      6.09513     10.93918     -1.20090         0.000000     -0.002505      0.006127
      6.09513      9.47763     -6.74009         0.000000      0.071259      0.015827
      1.52378      1.62102     -1.85457         0.000000      0.104907      0.063904
      1.52378      0.23003     -7.22265         0.000000     -0.165177     -0.057691
      4.56919      1.61605     -1.85584         0.005096      0.099788     -0.007431
      4.53890     -0.04700     -7.36541         0.011092     -0.012534      0.032924
      7.62108      1.61605     -1.85584        -0.005096      0.099788     -0.007431
      7.65137     -0.04700     -7.36541        -0.011092     -0.012534      0.032924
      9.13747      3.42327     -3.93965         0.000422     -0.063076     -0.025101
      9.12066      1.74882     -9.51646        -0.023708     -0.137909     -0.010567
      3.05280      3.42327     -3.93965        -0.000422     -0.063076     -0.025101
      3.06961      1.74882     -9.51646         0.023708     -0.137909     -0.010567
      6.09513      3.53123     -3.93452         0.000000     -0.063975     -0.056087
      6.09513      1.73830     -9.46613         0.000000     -0.070051      0.017693
      0.04156     -0.04410     -4.47086        -0.361524      0.156966     -0.114236
      0.02180     -1.33749    -10.17015        -0.047768     -0.036029      0.082485
      3.00600     -0.04410     -4.47086         0.361524      0.156966     -0.114236
      3.02577     -1.33749    -10.17015         0.047768     -0.036029      0.082485
      6.09513      0.07099     -4.47364         0.000000     -0.103017     -0.121374
      6.09513     -1.35798    -10.20393         0.000000     -0.022217      0.174597
      1.52378      4.76440     -1.11019         0.000000      0.054447      0.037037
      1.52378      3.37562     -6.86304         0.000000      0.060774     -0.013580
      4.54961      4.76822     -1.11642         0.028637      0.039451      0.023800
      4.55313      3.31891     -6.86140         0.021317      0.019916     -0.023309
      7.64066      4.76822     -1.11642        -0.028637      0.039451      0.023800
      7.63714      3.31891     -6.86140        -0.021317      0.019916     -0.023309
      1.52378     -0.27792     -1.42345         0.000000     -0.306006      0.078634
      1.52378     -1.52671     -7.49963         0.000000      0.622959      0.252749
      4.57325     -0.29107     -1.43869         0.034802     -0.277828      0.068343
      4.40587     10.35232     -6.88480        -0.180611      0.033350      0.081458
      7.61702     -0.29107     -1.43869        -0.034802     -0.277828      0.068343
      7.78440     10.35232     -6.88480         0.180611      0.033350      0.081458
      0.00732      5.34593     -4.26034        -0.005268      0.246639     -0.096319
      0.02033      3.65277     -9.85622        -0.103330      0.179165     -0.103591
      3.04025      5.34593     -4.26034         0.005268      0.246639     -0.096319
      3.02723      3.65277     -9.85622         0.103330      0.179165     -0.103591
      6.09513      5.43226     -4.30266         0.000000      0.120935     -0.072890
      6.09513      3.64602     -9.85618         0.000000      0.250787     -0.093204
      1.52378      7.43072     -2.94587         0.000000     -0.272599     -0.125057
      1.52378      6.08494     -8.88102         0.000000      0.078637     -0.073669
      4.64211      7.40208     -2.93637         0.000382      0.091018     -0.122332
      4.59485      6.07370     -8.92148         0.047731     -0.057367     -0.080285
      7.54816      7.40208     -2.93637        -0.000382      0.091018     -0.122332
      7.59542      6.07370     -8.92148        -0.047731     -0.057367     -0.080285
      8.86987      9.54590     -2.33744        -0.223158      0.000305      0.258600
      9.10959      8.13727     -8.19808         0.015167     -0.389303     -0.173075
      3.32040      9.54590     -2.33744         0.223158      0.000305      0.258600
      3.08068      8.13727     -8.19808        -0.015167     -0.389303     -0.173075
      6.09513      9.57091     -2.45363         0.000000      0.126338      0.245251
      6.09513      8.16121     -8.15771         0.000000     -0.248827     -0.129776
      8.74812      8.26714     -4.96107        -0.389405      0.104082      0.127807
      9.13796      7.64348    -10.73289        -0.036517      0.398276     -0.064849
      3.44215      8.26714     -4.96107         0.389405      0.104082      0.127807
      3.05230      7.64348    -10.73289         0.036517      0.398276     -0.064849
      6.09513      8.85222     -4.95310         0.000000      0.278527      0.158896
      6.09513      7.67432    -10.72162         0.000000      0.378256     -0.147909
      1.52378      8.20162     -0.55912         0.000000     -0.463609      0.059928
      1.52378      6.49443     -6.34680         0.000000     -0.136808      0.127042
      4.58861      8.06360     -0.50951         0.095189     -0.424899      0.111193
      4.61658      6.47172     -6.42860        -0.053024     -0.139571      0.019677
      7.60166      8.06360     -0.50951        -0.095189     -0.424899      0.111193
      7.57369      6.47172     -6.42860         0.053024     -0.139571      0.019677
      0.00824      5.82426     -1.29235        -0.026118     -0.152149      0.010916
      9.13477      4.36100     -7.22594        -0.009786     -0.154282      0.150445
      3.03932      5.82426     -1.29235         0.026118     -0.152149      0.010916
      3.05550      4.36100     -7.22594         0.009786     -0.154282      0.150445
      6.09513      5.75440     -1.29660         0.000000     -0.145704      0.070521
      6.09513      4.28595     -7.22098         0.000000     -0.161531      0.126243
      1.52378     -2.41640    -10.02568         0.000000      0.229979      0.023309
      4.62625     -1.00183     -4.18354         0.030090      0.140843     -0.046334
      4.56276     -2.36253     -9.89037        -0.002669      0.149425     -0.182291
      7.56402     -1.00183     -4.18354        -0.030090      0.140843     -0.046334
      7.62751     -2.36253     -9.89037         0.002669      0.149425     -0.182291
      9.11480      1.43493     -3.23685         0.010426     -0.100556      0.041822
      9.00350     -0.05184     -8.83396        -0.116970      0.051726     -0.250280
      3.07547      1.43493     -3.23685        -0.010426     -0.100556      0.041822
      3.18677     -0.05184     -8.83396         0.116970      0.051726     -0.250280
      6.09513      1.44883     -3.19712         0.000000     -0.204635      0.094489
      6.09513     -0.15866     -8.75686         0.000000      0.099790     -0.335041
      1.52378      3.53713     -2.54468         0.000000     -0.046461      0.030530
      1.52378      1.95998     -8.14377         0.000000     -0.157731      0.153692
      4.57035      3.55135     -2.54032        -0.000422      0.016065      0.039643
      4.59694      1.96492     -8.14109         0.033794      0.152263      0.029648
      7.61992      3.55135     -2.54032         0.000422      0.016065      0.039643
      7.59333      1.96492     -8.14109        -0.033794      0.152263      0.029648
      1.52378      2.97895     -5.05746         0.000000      0.413894     -0.017296
      1.52378      1.33653    -10.66073         0.000000      0.401262      0.031898
      4.59303      2.99510     -5.05376        -0.028249      0.445486     -0.086999
      4.59953      1.37624    -10.67720        -0.004568      0.429510      0.012837
      7.59724      2.99510     -5.05376         0.028249      0.445486     -0.086999
      7.59074      1.37624    -10.67720         0.004568      0.429510      0.012837
      9.13054      1.99468     -0.66514        -0.017606     -0.435035      0.048871
      9.06545      0.69729     -6.21624         0.193462     -0.569938     -0.021269
      3.05973      1.99468     -0.66514         0.017606     -0.435035      0.048871
      3.12482      0.69729     -6.21624        -0.193462     -0.569938     -0.021269
      6.09513      2.00056     -0.66478         0.000000     -0.466775      0.093455
      6.09513      0.49245     -6.27244         0.000000     -0.338166      0.147091
      1.52378     10.64625     -4.22511         0.000000      0.618483     -0.113984
 -----------------------------------------------------------------------------------
    total drift:                               -0.002093      0.003143      0.129906


--------------------------------------------------------------------------------------------------------



  FREE ENERGIE OF THE ION-ELECTRON SYSTEM (eV)
  ---------------------------------------------------
  free  energy   TOTEN  =      -866.90141109 eV

  energy  without entropy=     -866.89519704  energy(sigma->0) =     -866.89830407
 


--------------------------------------------------------------------------------------------------------


    POTLOK:  cpu time      1.9146: real time      1.9227


--------------------------------------------------------------------------------------------------------


 writing wavefunctions
     LOOP+:  cpu time  20286.2180: real time  20283.8441
    4ORBIT:  cpu time      0.0000: real time      0.0000

 total amount of memory used by VASP MPI-rank0  7507636. kBytes
=======================================================================

   base      :      30000. kBytes
   nonlr-proj:      46691. kBytes
   fftplans  :      51012. kBytes
   grid      :     102973. kBytes
   one-center:       1850. kBytes
   HF        :        194. kBytes
   wavefun   :    7045683. kBytes
   fock_wrk  :     229233. kBytes
 
  
  
 General timing and accounting informations for this job:
 ========================================================
  
                  Total CPU time used (sec):    20317.820
                            User time (sec):    20300.450
                          System time (sec):       17.370
                         Elapsed time (sec):    20317.004
  
                   Maximum memory used (kb):    13307904.
                   Average memory used (kb):          N/A
  
                          Minor page faults:      7386309
                          Major page faults:            4
                 Voluntary context switches:       371911
