<?xml version="1.0" encoding="ISO-8859-1"?>
<modeling>
 <generator>
  <i name="program" type="string">vasp </i>
  <i name="version" type="string">6.4.2  </i>
  <i name="subversion" type="string">20Jul23 (build Nov 12 2023 22:16:35) complex                          parallel </i>
  <i name="platform" type="string">LinuxNV </i>
  <i name="date" type="string">2025 03 12 </i>
  <i name="time" type="string">19:34:48 </i>
 </generator>
 <incar>
  <i type="int" name="ISTART">     0</i>
  <i type="string" name="PREC">Normal</i>
  <i type="string" name="ALGO">All</i>
  <i type="int" name="ISPIN">     1</i>
  <i type="int" name="ICHARG">     0</i>
  <i type="int" name="NELM">   500</i>
  <i type="int" name="IBRION">    -1</i>
  <i name="EDIFF">      0.00001000</i>
  <i name="EDIFFG">     -0.00500000</i>
  <i type="int" name="NSW">     0</i>
  <i type="int" name="ISIF">     2</i>
  <i name="ENCUT">    450.00000000</i>
  <i name="NELECT">   1056.00000000</i>
  <i type="string" name="LREAL">Auto</i>
  <i type="logical" name="LPLANE"> T  </i>
  <i name="TIME">      0.40000000</i>
  <i type="int" name="ISMEAR">     0</i>
  <i name="SIGMA">      0.05000000</i>
  <i type="logical" name="LWAVE"> T  </i>
  <i type="logical" name="LCHARG"> T  </i>
  <i name="HFSCREEN">      0.18000000</i>
  <i type="logical" name="LHFCALC"> T  </i>
  <i type="int" name="LMAXFOCK">     4</i>
  <i name="AEXX">      0.35000000</i>
  <i type="string" name="PRECFOCK">Fast</i>
 </incar>
 <primitive_cell>
  <structure name="primitive_cell" >
   <crystal>
    <varray name="basis" >
     <v>       0.00000000      12.28047342       0.00000000 </v>
     <v>       9.14270205       0.00000000       0.00000000 </v>
     <v>       0.00000000      -2.76826177     -11.30069772 </v>
    </varray>
    <i name="volume">   1268.80515525 </i>
    <varray name="rec_basis" >
     <v>       0.00000000       0.08143009      -0.01994742 </v>
     <v>       0.10937686      -0.00000000       0.00000000 </v>
     <v>       0.00000000       0.00000000      -0.08849011 </v>
    </varray>
   </crystal>
   <varray name="positions" >
    <v>       0.66571834       0.00154177       0.15555855 </v>
    <v>       0.66206588       0.99927619       0.66387097 </v>
    <v>       0.66571834       0.33179156       0.15555855 </v>
    <v>       0.66206588       0.33405715       0.66387097 </v>
    <v>       0.65868348       0.66666667       0.14796089 </v>
    <v>       0.65599310       0.66666667       0.66855776 </v>
    <v>       0.84157513       0.16666667       0.84368206 </v>
    <v>       0.83770637       0.49609409       0.33848670 </v>
    <v>       0.84260969       0.49851380       0.84448467 </v>
    <v>       0.83770637       0.83723924       0.33848670 </v>
    <v>       0.84260969       0.83481953       0.84448467 </v>
    <v>       0.61826252       0.16666667       0.39805611 </v>
    <v>       0.58748196       0.16666667       0.89979124 </v>
    <v>       0.62103761       0.49282166       0.40542124 </v>
    <v>       0.58100790       0.49918776       0.89529487 </v>
    <v>       0.62103761       0.84051167       0.40542124 </v>
    <v>       0.58100790       0.83414557       0.89529487 </v>
    <v>       0.91487592       0.00125773       0.10689767 </v>
    <v>       0.88796110       0.03815606       0.57506267 </v>
    <v>       0.91487592       0.33207561       0.10689767 </v>
    <v>       0.88796110       0.29517727       0.57506267 </v>
    <v>       0.91473363       0.66666667       0.10626795 </v>
    <v>       0.90621178       0.66666667       0.59643104 </v>
    <v>       0.16899375       0.16666667       0.16411154 </v>
    <v>       0.16280491       0.16666667       0.63913304 </v>
    <v>       0.16861424       0.49976408       0.16422344 </v>
    <v>       0.14309398       0.49645010       0.65176566 </v>
    <v>       0.16861424       0.83356925       0.16422344 </v>
    <v>       0.14309398       0.83688324       0.65176566 </v>
    <v>       0.35734344       0.99942749       0.34862045 </v>
    <v>       0.33223566       0.99758870       0.84211219 </v>
    <v>       0.35734344       0.33390584       0.34862045 </v>
    <v>       0.33223566       0.33574463       0.84211219 </v>
    <v>       0.36603224       0.66666667       0.34816586 </v>
    <v>       0.33037457       0.66666667       0.83765864 </v>
    <v>       0.08559080       0.00454617       0.39562720 </v>
    <v>       0.09395592       0.00238447       0.89995755 </v>
    <v>       0.08559080       0.32878716       0.39562720 </v>
    <v>       0.09395592       0.33094886       0.89995755 </v>
    <v>       0.09501858       0.66666667       0.39587254 </v>
    <v>       0.09296174       0.66666667       0.90294678 </v>
    <v>       0.41011075       0.16666667       0.09824123 </v>
    <v>       0.41177689       0.16666667       0.60731124 </v>
    <v>       0.41054589       0.49762235       0.09879190 </v>
    <v>       0.40712650       0.49800709       0.60716632 </v>
    <v>       0.41054589       0.83571098       0.09879190 </v>
    <v>       0.40712650       0.83532624       0.60716632 </v>
    <v>       0.00576302       0.16666667       0.12596136 </v>
    <v>       0.02527852       0.16666667       0.66364333 </v>
    <v>       0.00499611       0.50020767       0.12731016 </v>
    <v>       0.98032387       0.48189998       0.60923634 </v>
    <v>       0.00499611       0.83312566       0.12731016 </v>
    <v>       0.98032387       0.85143335       0.60923634 </v>
    <v>       0.52030256       0.00080068       0.37699769 </v>
    <v>       0.49405128       0.00222397       0.87217811 </v>
    <v>       0.52030256       0.33253265       0.37699769 </v>
    <v>       0.49405128       0.33110936       0.87217811 </v>
    <v>       0.52817637       0.66666667       0.38074311 </v>
    <v>       0.49350083       0.66666667       0.87217414 </v>
    <v>       0.66384653       0.16666667       0.26068031 </v>
    <v>       0.67265067       0.16666667       0.78588208 </v>
    <v>       0.66132471       0.50773985       0.25984010 </v>
    <v>       0.67254254       0.50256990       0.78946305 </v>
    <v>       0.66132471       0.82559348       0.25984010 </v>
    <v>       0.67254254       0.83076344       0.78946305 </v>
    <v>       0.82394919       0.97015892       0.20684002 </v>
    <v>       0.82614962       0.99637856       0.72544931 </v>
    <v>       0.82394919       0.36317441       0.20684002 </v>
    <v>       0.82614962       0.33695477       0.72544931 </v>
    <v>       0.82830365       0.66666667       0.21712176 </v>
    <v>       0.82729338       0.66666667       0.72187677 </v>
    <v>       0.77215475       0.95684167       0.43900558 </v>
    <v>       0.83650299       0.99948185       0.94975422 </v>
    <v>       0.77215475       0.37649166       0.43900558 </v>
    <v>       0.83650299       0.33385148       0.94975422 </v>
    <v>       0.81963856       0.66666667       0.43830047 </v>
    <v>       0.83878921       0.66666667       0.94875717 </v>
    <v>       0.67901156       0.16666667       0.04947644 </v>
    <v>       0.65544417       0.16666667       0.56162875 </v>
    <v>       0.66678300       0.50188796       0.04508640 </v>
    <v>       0.65522689       0.50494687       0.56886753 </v>
    <v>       0.66678300       0.83144537       0.04508640 </v>
    <v>       0.65522689       0.82838647       0.56886753 </v>
    <v>       0.50004897       0.00090154       0.11435983 </v>
    <v>       0.49925531       0.99913269       0.63942449 </v>
    <v>       0.50004897       0.33243179       0.11435983 </v>
    <v>       0.49925531       0.33420064       0.63942449 </v>
    <v>       0.49444521       0.66666667       0.11473606 </v>
    <v>       0.49304559       0.66666667       0.63898564 </v>
    <v>       0.00321851       0.16666667       0.88717338 </v>
    <v>       0.00187175       0.50600484       0.37020152 </v>
    <v>       0.00490682       0.49906029       0.87520021 </v>
    <v>       0.00187175       0.82732849       0.37020152 </v>
    <v>       0.00490682       0.83427304       0.87520021 </v>
    <v>       0.18141308       0.99694774       0.28642952 </v>
    <v>       0.17199316       0.98477477       0.78171800 </v>
    <v>       0.18141308       0.33638559       0.28642952 </v>
    <v>       0.17199316       0.34855857       0.78171800 </v>
    <v>       0.18175228       0.66666667       0.28291363 </v>
    <v>       0.16175721       0.66666667       0.77489530 </v>
    <v>       0.33878830       0.16666667       0.22517921 </v>
    <v>       0.32204866       0.16666667       0.72064299 </v>
    <v>       0.33985943       0.49989000       0.22479288 </v>
    <v>       0.32239702       0.50279842       0.72040611 </v>
    <v>       0.33985943       0.83344334       0.22479288 </v>
    <v>       0.32239702       0.83053491       0.72040611 </v>
    <v>       0.34345979       0.16666667       0.44753556 </v>
    <v>       0.32148765       0.16666667       0.94336931 </v>
    <v>       0.34470094       0.50237068       0.44720803 </v>
    <v>       0.32505030       0.50308164       0.94482677 </v>
    <v>       0.34470094       0.83096265       0.44720803 </v>
    <v>       0.32505030       0.83025169       0.94482677 </v>
    <v>       0.17569477       0.99866992       0.05885825 </v>
    <v>       0.18077804       0.99155038       0.55007618 </v>
    <v>       0.17569477       0.33466341       0.05885825 </v>
    <v>       0.18077804       0.34178295       0.55007618 </v>
    <v>       0.17616643       0.66666667       0.05882686 </v>
    <v>       0.16521950       0.66666667       0.55504875 </v>
    <v>       0.95120502       0.16666667       0.37388018 </v>
   </varray>
  </structure>
  <varray name="primitive_index" >
   <v type="int" >        1 </v>
   <v type="int" >        2 </v>
   <v type="int" >        3 </v>
   <v type="int" >        4 </v>
   <v type="int" >        5 </v>
   <v type="int" >        6 </v>
   <v type="int" >        7 </v>
   <v type="int" >        8 </v>
   <v type="int" >        9 </v>
   <v type="int" >       10 </v>
   <v type="int" >       11 </v>
   <v type="int" >       12 </v>
   <v type="int" >       13 </v>
   <v type="int" >       14 </v>
   <v type="int" >       15 </v>
   <v type="int" >       16 </v>
   <v type="int" >       17 </v>
   <v type="int" >       18 </v>
   <v type="int" >       19 </v>
   <v type="int" >       20 </v>
   <v type="int" >       21 </v>
   <v type="int" >       22 </v>
   <v type="int" >       23 </v>
   <v type="int" >       24 </v>
   <v type="int" >       25 </v>
   <v type="int" >       26 </v>
   <v type="int" >       27 </v>
   <v type="int" >       28 </v>
   <v type="int" >       29 </v>
   <v type="int" >       30 </v>
   <v type="int" >       31 </v>
   <v type="int" >       32 </v>
   <v type="int" >       33 </v>
   <v type="int" >       34 </v>
   <v type="int" >       35 </v>
   <v type="int" >       36 </v>
   <v type="int" >       37 </v>
   <v type="int" >       38 </v>
   <v type="int" >       39 </v>
   <v type="int" >       40 </v>
   <v type="int" >       41 </v>
   <v type="int" >       42 </v>
   <v type="int" >       43 </v>
   <v type="int" >       44 </v>
   <v type="int" >       45 </v>
   <v type="int" >       46 </v>
   <v type="int" >       47 </v>
   <v type="int" >       48 </v>
   <v type="int" >       49 </v>
   <v type="int" >       50 </v>
   <v type="int" >       51 </v>
   <v type="int" >       52 </v>
   <v type="int" >       53 </v>
   <v type="int" >       54 </v>
   <v type="int" >       55 </v>
   <v type="int" >       56 </v>
   <v type="int" >       57 </v>
   <v type="int" >       58 </v>
   <v type="int" >       59 </v>
   <v type="int" >       60 </v>
   <v type="int" >       61 </v>
   <v type="int" >       62 </v>
   <v type="int" >       63 </v>
   <v type="int" >       64 </v>
   <v type="int" >       65 </v>
   <v type="int" >       66 </v>
   <v type="int" >       67 </v>
   <v type="int" >       68 </v>
   <v type="int" >       69 </v>
   <v type="int" >       70 </v>
   <v type="int" >       71 </v>
   <v type="int" >       72 </v>
   <v type="int" >       73 </v>
   <v type="int" >       74 </v>
   <v type="int" >       75 </v>
   <v type="int" >       76 </v>
   <v type="int" >       77 </v>
   <v type="int" >       78 </v>
   <v type="int" >       79 </v>
   <v type="int" >       80 </v>
   <v type="int" >       81 </v>
   <v type="int" >       82 </v>
   <v type="int" >       83 </v>
   <v type="int" >       84 </v>
   <v type="int" >       85 </v>
   <v type="int" >       86 </v>
   <v type="int" >       87 </v>
   <v type="int" >       88 </v>
   <v type="int" >       89 </v>
   <v type="int" >       90 </v>
   <v type="int" >       91 </v>
   <v type="int" >       92 </v>
   <v type="int" >       93 </v>
   <v type="int" >       94 </v>
   <v type="int" >       95 </v>
   <v type="int" >       96 </v>
   <v type="int" >       97 </v>
   <v type="int" >       98 </v>
   <v type="int" >       99 </v>
   <v type="int" >      100 </v>
   <v type="int" >      101 </v>
   <v type="int" >      102 </v>
   <v type="int" >      103 </v>
   <v type="int" >      104 </v>
   <v type="int" >      105 </v>
   <v type="int" >      106 </v>
   <v type="int" >      107 </v>
   <v type="int" >      108 </v>
   <v type="int" >      109 </v>
   <v type="int" >      110 </v>
   <v type="int" >      111 </v>
   <v type="int" >      112 </v>
   <v type="int" >      113 </v>
   <v type="int" >      114 </v>
   <v type="int" >      115 </v>
   <v type="int" >      116 </v>
   <v type="int" >      117 </v>
   <v type="int" >      118 </v>
   <v type="int" >      119 </v>
  </varray>
 </primitive_cell>
 <kpoints>
  <generation param="Gamma">
   <v type="int" name="divisions">       2        2        2 </v>
   <v name="usershift">      0.00000000       0.00000000       0.00000000 </v>
   <v name="genvec1">      0.50000000       0.00000000       0.00000000 </v>
   <v name="genvec2">      0.00000000       0.50000000       0.00000000 </v>
   <v name="genvec3">      0.00000000       0.00000000       0.50000000 </v>
   <v name="shift">      0.00000000       0.00000000       0.00000000 </v>
  </generation>
  <varray name="kpointlist" >
   <v>       0.00000000       0.00000000       0.00000000 </v>
   <v>       0.50000000       0.00000000       0.00000000 </v>
   <v>       0.00000000       0.50000000       0.00000000 </v>
   <v>       0.50000000       0.50000000       0.00000000 </v>
   <v>       0.00000000       0.00000000       0.50000000 </v>
   <v>       0.50000000       0.00000000       0.50000000 </v>
   <v>       0.00000000       0.50000000       0.50000000 </v>
   <v>       0.50000000       0.50000000       0.50000000 </v>
  </varray>
  <varray name="weights" >
   <v>       0.12500000 </v>
   <v>       0.12500000 </v>
   <v>       0.12500000 </v>
   <v>       0.12500000 </v>
   <v>       0.12500000 </v>
   <v>       0.12500000 </v>
   <v>       0.12500000 </v>
   <v>       0.12500000 </v>
  </varray>
 </kpoints>
 <parameters>
  <separator name="general" >
   <i type="string" name="SYSTEM">unknown system</i>
   <i type="logical" name="LCOMPAT"> F  </i>
  </separator>
  <separator name="electronic" >
   <i type="string" name="PREC">normal</i>
   <i name="ENMAX">    450.00000000</i>
   <i name="ENAUG">    605.39200000</i>
   <i name="EDIFF">      0.00001000</i>
   <i type="int" name="IALGO">    58</i>
   <i type="int" name="IWAVPR">    10</i>
   <i type="int" name="NBANDS">   633</i>
   <i type="int" name="NBANDSLOW">    -1</i>
   <i type="int" name="NBANDSHIGH">    -1</i>
   <i name="NELECT">   1056.00000000</i>
   <i type="int" name="TURBO">     0</i>
   <i type="int" name="IRESTART">     0</i>
   <i type="int" name="NREBOOT">     0</i>
   <i type="int" name="NMIN">     0</i>
   <i name="EREF">      0.00000000</i>
   <separator name="electronic smearing" >
    <i type="int" name="ISMEAR">     0</i>
    <i name="SIGMA">      0.05000000</i>
    <i name="KSPACING">      0.50000000</i>
    <i type="logical" name="KGAMMA"> T  </i>
    <i type="logical" name="KBLOWUP"> T  </i>
   </separator>
   <separator name="electronic projectors" >
    <i type="logical" name="LREAL"> T  </i>
    <v name="ROPT">     -0.00050000     -0.00050000     -0.00050000</v>
    <i type="int" name="LMAXPAW">  -100</i>
    <i type="int" name="LMAXMIX">     2</i>
    <i type="logical" name="NLSPLINE"> F  </i>
   </separator>
   <separator name="electronic startup" >
    <i type="int" name="ISTART">     0</i>
    <i type="int" name="ICHARG">     0</i>
    <i type="int" name="INIWAV">     1</i>
   </separator>
   <separator name="electronic spin" >
    <i type="int" name="ISPIN">     1</i>
    <i type="logical" name="LNONCOLLINEAR"> F  </i>
    <v name="MAGMOM">      1.00000000      1.00000000      1.00000000      1.00000000      1.00000000      1.00000000      1.00000000      1.00000000      1.00000000      1.00000000      1.00000000      1.00000000      1.00000000      1.00000000      1.00000000      1.00000000      1.00000000      1.00000000      1.00000000      1.00000000
      1.00000000      1.00000000      1.00000000      1.00000000      1.00000000      1.00000000      1.00000000      1.00000000      1.00000000      1.00000000      1.00000000      1.00000000      1.00000000      1.00000000      1.00000000      1.00000000      1.00000000      1.00000000      1.00000000      1.00000000
      1.00000000      1.00000000      1.00000000      1.00000000      1.00000000      1.00000000      1.00000000      1.00000000      1.00000000      1.00000000      1.00000000      1.00000000      1.00000000      1.00000000      1.00000000      1.00000000      1.00000000      1.00000000      1.00000000      1.00000000
      1.00000000      1.00000000      1.00000000      1.00000000      1.00000000      1.00000000      1.00000000      1.00000000      1.00000000      1.00000000      1.00000000      1.00000000      1.00000000      1.00000000      1.00000000      1.00000000      1.00000000      1.00000000      1.00000000      1.00000000
      1.00000000      1.00000000      1.00000000      1.00000000      1.00000000      1.00000000      1.00000000      1.00000000      1.00000000      1.00000000      1.00000000      1.00000000      1.00000000      1.00000000      1.00000000      1.00000000      1.00000000      1.00000000      1.00000000      1.00000000
      1.00000000      1.00000000      1.00000000      1.00000000      1.00000000      1.00000000      1.00000000      1.00000000      1.00000000      1.00000000      1.00000000      1.00000000      1.00000000      1.00000000      1.00000000      1.00000000      1.00000000      1.00000000      1.00000000</v>
    <i name="NUPDOWN">     -1.00000000</i>
    <i type="logical" name="LSORBIT"> F  </i>
    <v name="SAXIS">      0.00000000      0.00000000      1.00000000</v>
    <i type="logical" name="LSPIRAL"> F  </i>
    <v name="QSPIRAL">      0.00000000      0.00000000      0.00000000</v>
    <i type="logical" name="LZEROZ"> F  </i>
   </separator>
   <separator name="electronic exchange-correlation" >
    <i type="logical" name="LASPH"> F  </i>
    <i type="logical" name="LMETAGGA"> F  </i>
   </separator>
   <separator name="electronic convergence" >
    <i type="int" name="NELM">   500</i>
    <i type="int" name="NELMDL">    -5</i>
    <i type="int" name="NELMIN">     2</i>
    <i name="ENINI">    450.00000000</i>
    <separator name="electronic convergence detail" >
     <i type="logical" name="LDIAG"> T  </i>
     <i type="logical" name="LSUBROT"> F  </i>
     <i name="WEIMIN">      0.00000000</i>
     <i name="EBREAK">      0.00000000</i>
     <i name="DEPER">      0.30000000</i>
     <i type="int" name="NRMM">     4</i>
     <i name="TIME">      0.40000000</i>
    </separator>
   </separator>
   <separator name="electronic mixer" >
    <i name="AMIX">      0.40000000</i>
    <i name="BMIX">      1.00000000</i>
    <i name="AMIN">      0.10000000</i>
    <i name="AMIX_MAG">      1.60000000</i>
    <i name="BMIX_MAG">      1.00000000</i>
    <separator name="electronic mixer details" >
     <i type="int" name="IMIX">     4</i>
     <i type="logical" name="MIXFIRST"> F  </i>
     <i type="int" name="MAXMIX">   -45</i>
     <i name="WC">    100.00000000</i>
     <i type="int" name="INIMIX">     1</i>
     <i type="int" name="MIXPRE">     1</i>
     <i type="int" name="MREMOVE">     5</i>
    </separator>
   </separator>
   <separator name="electronic dipolcorrection" >
    <i type="logical" name="LDIPOL"> F  </i>
    <i type="logical" name="LMONO"> F  </i>
    <i type="int" name="IDIPOL">     0</i>
    <i name="EPSILON">      1.00000000</i>
    <v name="DIPOL">   -100.00000000   -100.00000000   -100.00000000</v>
    <i name="EFIELD">      0.00000000</i>
   </separator>
  </separator>
  <separator name="grids" >
   <i type="int" name="NGX">    64</i>
   <i type="int" name="NGY">    48</i>
   <i type="int" name="NGZ">    60</i>
   <i type="int" name="NGXF">   128</i>
   <i type="int" name="NGYF">    96</i>
   <i type="int" name="NGZF">   120</i>
   <i type="logical" name="ADDGRID"> F  </i>
  </separator>
  <separator name="ionic" >
   <i type="int" name="NSW">     0</i>
   <i type="int" name="IBRION">    -1</i>
   <i type="int" name="MDALGO">     0</i>
   <i type="int" name="ISIF">     2</i>
   <i name="PSTRESS">      0.00000000</i>
   <i name="EDIFFG">     -0.00500000</i>
   <i type="int" name="NFREE">     0</i>
   <i name="POTIM">      0.50000000</i>
   <i name="SMASS">     -3.00000000</i>
   <i name="SCALEE">      1.00000000</i>
  </separator>
  <separator name="ionic md" >
   <i name="TEBEG">      0.00010000</i>
   <i name="TEEND">      0.00010000</i>
   <i type="int" name="NBLOCK">     1</i>
   <i type="int" name="KBLOCK">     1</i>
   <i type="int" name="NPACO">   256</i>
   <i name="APACO">     10.00000000</i>
  </separator>
  <separator name="symmetry" >
   <i type="int" name="ISYM">     3</i>
   <i name="SYMPREC">      0.00001000</i>
  </separator>
  <separator name="dos" >
   <i type="int" name="LORBIT">     0</i>
   <v name="RWIGS">     -1.00000000     -1.00000000     -1.00000000</v>
   <i type="int" name="NEDOS">   301</i>
   <i name="EMIN">     10.00000000</i>
   <i name="EMAX">    -10.00000000</i>
   <i name="EFERMI">      0.00000000</i>
  </separator>
  <separator name="writing" >
   <i type="int" name="NWRITE">     2</i>
   <i type="logical" name="LWAVE"> T  </i>
   <i type="logical" name="LDOWNSAMPLE"> F  </i>
   <i type="logical" name="LCHARG"> T  </i>
   <i type="logical" name="LPARD"> F  </i>
   <i type="logical" name="LVTOT"> F  </i>
   <i type="logical" name="LVHAR"> F  </i>
   <i type="logical" name="LELF"> F  </i>
   <i type="logical" name="LOPTICS"> F  </i>
   <v name="STM">      0.00000000      0.00000000      0.00000000      0.00000000      0.00000000      0.00000000      0.00000000</v>
  </separator>
  <separator name="performance" >
   <i type="int" name="NPAR">     1</i>
   <i type="int" name="NSIM">     4</i>
   <i type="int" name="NBLK">    -1</i>
   <i type="logical" name="LPLANE"> T  </i>
   <i type="logical" name="LSCALAPACK"> T  </i>
   <i type="logical" name="LSCAAWARE"> F  </i>
   <i type="logical" name="LSCALU"> F  </i>
   <i type="logical" name="LASYNC"> F  </i>
   <i type="logical" name="LORBITALREAL"> F  </i>
  </separator>
  <separator name="miscellaneous" >
   <i type="int" name="IDIOT">     3</i>
   <i type="int" name="PHON_NSTRUCT">    -1</i>
   <i type="logical" name="LMUSIC"> F  </i>
   <v name="POMASS">     69.72300000     16.00000000     30.97400000</v>
   <v name="DARWINR">      0.00000000      0.00000000      0.00000000</v>
   <v name="DARWINV">      1.00000000      1.00000000      1.00000000</v>
   <i type="logical" name="LCORR"> T  </i>
  </separator>
  <i type="logical" name="GGA_COMPAT"> T  </i>
  <i type="logical" name="LBERRY"> F  </i>
  <i type="int" name="ICORELEVEL">     0</i>
  <i type="logical" name="LDAU"> F  </i>
  <i type="int" name="I_CONSTRAINED_M">     0</i>
  <separator name="electronic exchange-correlation" >
   <i type="string" name="GGA">--</i>
   <i type="int" name="VOSKOWN">     0</i>
   <i type="logical" name="LHFCALC"> T  </i>
   <i type="string" name="PRECFOCK">fast</i>
   <i type="logical" name="LSYMGRAD"> F  </i>
   <i type="logical" name="LHFONE"> F  </i>
   <i type="logical" name="LRHFCALC"> F  </i>
   <i type="logical" name="LTHOMAS"> F  </i>
   <i type="logical" name="LMODELHF"> F  </i>
   <i type="logical" name="LFOCKACE"> T  </i>
   <i name="ENCUT4O">     -1.00000000</i>
   <i type="int" name="EXXOEP">     0</i>
   <i type="int" name="FOURORBIT">     0</i>
   <i name="AEXX">      0.35000000</i>
   <i name="HFALPHA">     -1.00000000</i>
   <i name="MCALPHA">      0.00000000</i>
   <i name="ALDAX">      0.65000000</i>
   <i name="AGGAX">      0.65000000</i>
   <i name="ALDAC">      1.00000000</i>
   <i name="AGGAC">      1.00000000</i>
   <i type="int" name="NKREDX">     1</i>
   <i type="int" name="NKREDY">     1</i>
   <i type="int" name="NKREDZ">     1</i>
   <i type="logical" name="SHIFTRED"> F  </i>
   <i type="logical" name="ODDONLY"> F  </i>
   <i type="logical" name="EVENONLY"> F  </i>
   <i type="int" name="LMAXFOCK">     4</i>
   <i type="int" name="NMAXFOCKAE">     1</i>
   <i type="logical" name="LFOCKAEDFT"> F  </i>
   <i name="HFSCREEN">      0.18000000</i>
   <i name="HFSCREENC">      0.18000000</i>
   <i type="int" name="NBANDSGWLOW">     1</i>
  </separator>
  <separator name="vdW DFT" >
   <i type="logical" name="LUSE_VDW"> F  </i>
   <i type="int" name="IVDW_NL">     1</i>
   <i type="logical" name="LSPIN_VDW"> F  </i>
   <i name="Zab_VDW">     -0.84910000</i>
   <i name="PARAM1">      0.12340000</i>
   <i name="PARAM2">      1.00000000</i>
   <i name="PARAM3">      0.00000000</i>
  </separator>
  <separator name="model GW" >
   <i type="int" name="MODEL_GW">     0</i>
   <i name="MODEL_EPS0">      6.39733692</i>
   <i name="MODEL_ALPHA">      1.00000000</i>
  </separator>
  <separator name="linear response parameters" >
   <i type="logical" name="LEPSILON"> F  </i>
   <i type="logical" name="LRPA"> F  </i>
   <i type="logical" name="LNABLA"> F  </i>
   <i type="logical" name="LVEL"> F  </i>
   <i name="CSHIFT">      0.10000000</i>
   <i name="OMEGAMAX">     -1.00000000</i>
   <i name="DEG_THRESHOLD">      0.00200000</i>
   <i name="RTIME">     -0.10000000</i>
   <i name="WPLASMAI">      0.00000000</i>
   <v name="DFIELD">      0.00000000      0.00000000      0.00000000</v>
   <v name="WPLASMA">      0.00000000      0.00000000      0.00000000      0.00000000      0.00000000      0.00000000      0.00000000      0.00000000      0.00000000</v>
  </separator>
  <separator name="orbital magnetization" >
   <i type="logical" name="NUCIND"> F  </i>
   <v name="MAGPOS">      0.00000000      0.00000000      0.00000000</v>
   <i type="logical" name="LNICSALL"> T  </i>
   <i type="logical" name="ORBITALMAG"> F  </i>
   <i type="logical" name="LMAGBLOCH"> F  </i>
   <i type="logical" name="LCHIMAG"> F  </i>
   <i type="logical" name="LGAUGE"> T  </i>
   <i type="int" name="MAGATOM">     0</i>
   <v name="MAGDIPOL">      0.00000000      0.00000000      0.00000000</v>
   <v name="AVECCONST">      0.00000000      0.00000000      0.00000000</v>
  </separator>
  <separator name="response functions" >
   <i type="logical" name="LALL_IN_ONE"> F  </i>
   <i type="int" name="IALL_IN_ONE">    -1</i>
   <i type="int" name="NBANDS_WAVE">    -1</i>
   <i type="logical" name="LFINITE_TEMPERATURE"> F  </i>
   <i type="logical" name="LADDER"> F  </i>
   <i type="logical" name="LRPAFORCE"> F  </i>
   <i type="logical" name="LFXC"> F  </i>
   <i type="logical" name="LHARTREE"> T  </i>
   <i type="int" name="IBSE">     0</i>
   <v type="int" name="KPOINT">    -1     0     0     0</v>
   <i type="logical" name="LTCTC"> F  </i>
   <i type="logical" name="LTCTE"> F  </i>
   <i type="logical" name="LTETE"> F  </i>
   <i type="logical" name="LTRIPLET"> F  </i>
   <i type="logical" name="LFXCEPS"> F  </i>
   <i type="logical" name="LFXHEG"> F  </i>
   <i type="int" name="NATURALO">     2</i>
   <i type="logical" name="LHOLEGF"> F  </i>
   <i type="logical" name="L2ORDER"> F  </i>
   <i type="logical" name="LDMP1"> F  </i>
   <i type="logical" name="LMP2LT"> F  </i>
   <i type="logical" name="LSMP2LT"> F  </i>
   <i type="logical" name="LGWLF"> F  </i>
   <i name="ENCUTGW">     -1.60000002</i>
   <i name="ENCUTGWSOFT">     -1.60000002</i>
   <i name="ENCUTLF">     -1.00000000</i>
   <i type="logical" name="LESF_SPLINES"> F  </i>
   <i type="int" name="LMAXMP2">    -1</i>
   <i name="SCISSOR">      0.00000000</i>
   <i type="int" name="NOMEGA">     0</i>
   <i type="int" name="NOMEGAR">     0</i>
   <i type="int" name="NBANDSGW">    -1</i>
   <i type="int" name="NBANDSO">    -1</i>
   <i type="int" name="NBANDSV">    -1</i>
   <i type="int" name="NELMGW">     1</i>
   <i type="int" name="NELMHF">     1</i>
   <i type="int" name="DIM">     3</i>
   <i type="int" name="IESPILON">     4</i>
   <i type="int" name="ANTIRES">     0</i>
   <i name="OMEGAMAX">    -30.00000000</i>
   <i name="OMEGAMIN">    -30.00000000</i>
   <i name="OMEGATL">   -200.00000000</i>
   <i type="int" name="OMEGAGRID">     0</i>
   <i name="CSHIFT">     -0.10000000</i>
   <i type="logical" name="LSELFENERGY"> F  </i>
   <i type="logical" name="LSPECTRAL"> F  </i>
   <i type="logical" name="LSPECTRALGW"> F  </i>
   <i type="logical" name="LSINGLES"> F  </i>
   <i type="logical" name="LFERMIGW"> F  </i>
   <i type="logical" name="ODDONLYGW"> F  </i>
   <i type="logical" name="EVENONLYGW"> F  </i>
   <i type="int" name="NKREDLFX">     1</i>
   <i type="int" name="NKREDLFY">     1</i>
   <i type="int" name="NKREDLFZ">     1</i>
   <i type="int" name="MAXMEM">  2800</i>
   <i type="int" name="TELESCOPE">     0</i>
   <i type="int" name="NTAUPAR">    -1</i>
   <i type="int" name="NOMEGAPAR">    -1</i>
   <i name="DAMP_NEWTON">      0.80000001</i>
   <i name="LAMBDA">      1.00000000</i>
  </separator>
  <separator name="External order field" >
   <i name="OFIELD_KAPPA">      0.00000000</i>
   <v name="OFIELD_K">      0.00000000      0.00000000      0.00000000</v>
   <i name="OFIELD_Q6_NEAR">      0.00000000</i>
   <i name="OFIELD_Q6_FAR">      0.00000000</i>
   <i name="OFIELD_A">      0.00000000</i>
  </separator>
  <separator name="optional k-points parameters" >
   <i type="int" name="KPOINTS_OPT_MODE">     1</i>
   <i type="logical" name="LKPOINTS_OPT"> F  </i>
  </separator>
 </parameters>
 <atominfo>
  <atoms>     119 </atoms>
  <types>       3 </types>
  <array name="atoms" >
   <dimension dim="1">ion</dimension>
   <field type="string">element</field>
   <field type="int">atomtype</field>
   <set>
    <rc><c>Ga</c><c>   1</c></rc>
    <rc><c>Ga</c><c>   1</c></rc>
    <rc><c>Ga</c><c>   1</c></rc>
    <rc><c>Ga</c><c>   1</c></rc>
    <rc><c>Ga</c><c>   1</c></rc>
    <rc><c>Ga</c><c>   1</c></rc>
    <rc><c>Ga</c><c>   1</c></rc>
    <rc><c>Ga</c><c>   1</c></rc>
    <rc><c>Ga</c><c>   1</c></rc>
    <rc><c>Ga</c><c>   1</c></rc>
    <rc><c>Ga</c><c>   1</c></rc>
    <rc><c>Ga</c><c>   1</c></rc>
    <rc><c>Ga</c><c>   1</c></rc>
    <rc><c>Ga</c><c>   1</c></rc>
    <rc><c>Ga</c><c>   1</c></rc>
    <rc><c>Ga</c><c>   1</c></rc>
    <rc><c>Ga</c><c>   1</c></rc>
    <rc><c>Ga</c><c>   1</c></rc>
    <rc><c>Ga</c><c>   1</c></rc>
    <rc><c>Ga</c><c>   1</c></rc>
    <rc><c>Ga</c><c>   1</c></rc>
    <rc><c>Ga</c><c>   1</c></rc>
    <rc><c>Ga</c><c>   1</c></rc>
    <rc><c>Ga</c><c>   1</c></rc>
    <rc><c>Ga</c><c>   1</c></rc>
    <rc><c>Ga</c><c>   1</c></rc>
    <rc><c>Ga</c><c>   1</c></rc>
    <rc><c>Ga</c><c>   1</c></rc>
    <rc><c>Ga</c><c>   1</c></rc>
    <rc><c>Ga</c><c>   1</c></rc>
    <rc><c>Ga</c><c>   1</c></rc>
    <rc><c>Ga</c><c>   1</c></rc>
    <rc><c>Ga</c><c>   1</c></rc>
    <rc><c>Ga</c><c>   1</c></rc>
    <rc><c>Ga</c><c>   1</c></rc>
    <rc><c>Ga</c><c>   1</c></rc>
    <rc><c>Ga</c><c>   1</c></rc>
    <rc><c>Ga</c><c>   1</c></rc>
    <rc><c>Ga</c><c>   1</c></rc>
    <rc><c>Ga</c><c>   1</c></rc>
    <rc><c>Ga</c><c>   1</c></rc>
    <rc><c>Ga</c><c>   1</c></rc>
    <rc><c>Ga</c><c>   1</c></rc>
    <rc><c>Ga</c><c>   1</c></rc>
    <rc><c>Ga</c><c>   1</c></rc>
    <rc><c>Ga</c><c>   1</c></rc>
    <rc><c>Ga</c><c>   1</c></rc>
    <rc><c>O </c><c>   2</c></rc>
    <rc><c>O </c><c>   2</c></rc>
    <rc><c>O </c><c>   2</c></rc>
    <rc><c>O </c><c>   2</c></rc>
    <rc><c>O </c><c>   2</c></rc>
    <rc><c>O </c><c>   2</c></rc>
    <rc><c>O </c><c>   2</c></rc>
    <rc><c>O </c><c>   2</c></rc>
    <rc><c>O </c><c>   2</c></rc>
    <rc><c>O </c><c>   2</c></rc>
    <rc><c>O </c><c>   2</c></rc>
    <rc><c>O </c><c>   2</c></rc>
    <rc><c>O </c><c>   2</c></rc>
    <rc><c>O </c><c>   2</c></rc>
    <rc><c>O </c><c>   2</c></rc>
    <rc><c>O </c><c>   2</c></rc>
    <rc><c>O </c><c>   2</c></rc>
    <rc><c>O </c><c>   2</c></rc>
    <rc><c>O </c><c>   2</c></rc>
    <rc><c>O </c><c>   2</c></rc>
    <rc><c>O </c><c>   2</c></rc>
    <rc><c>O </c><c>   2</c></rc>
    <rc><c>O </c><c>   2</c></rc>
    <rc><c>O </c><c>   2</c></rc>
    <rc><c>O </c><c>   2</c></rc>
    <rc><c>O </c><c>   2</c></rc>
    <rc><c>O </c><c>   2</c></rc>
    <rc><c>O </c><c>   2</c></rc>
    <rc><c>O </c><c>   2</c></rc>
    <rc><c>O </c><c>   2</c></rc>
    <rc><c>O </c><c>   2</c></rc>
    <rc><c>O </c><c>   2</c></rc>
    <rc><c>O </c><c>   2</c></rc>
    <rc><c>O </c><c>   2</c></rc>
    <rc><c>O </c><c>   2</c></rc>
    <rc><c>O </c><c>   2</c></rc>
    <rc><c>O </c><c>   2</c></rc>
    <rc><c>O </c><c>   2</c></rc>
    <rc><c>O </c><c>   2</c></rc>
    <rc><c>O </c><c>   2</c></rc>
    <rc><c>O </c><c>   2</c></rc>
    <rc><c>O </c><c>   2</c></rc>
    <rc><c>O </c><c>   2</c></rc>
    <rc><c>O </c><c>   2</c></rc>
    <rc><c>O </c><c>   2</c></rc>
    <rc><c>O </c><c>   2</c></rc>
    <rc><c>O </c><c>   2</c></rc>
    <rc><c>O </c><c>   2</c></rc>
    <rc><c>O </c><c>   2</c></rc>
    <rc><c>O </c><c>   2</c></rc>
    <rc><c>O </c><c>   2</c></rc>
    <rc><c>O </c><c>   2</c></rc>
    <rc><c>O </c><c>   2</c></rc>
    <rc><c>O </c><c>   2</c></rc>
    <rc><c>O </c><c>   2</c></rc>
    <rc><c>O </c><c>   2</c></rc>
    <rc><c>O </c><c>   2</c></rc>
    <rc><c>O </c><c>   2</c></rc>
    <rc><c>O </c><c>   2</c></rc>
    <rc><c>O </c><c>   2</c></rc>
    <rc><c>O </c><c>   2</c></rc>
    <rc><c>O </c><c>   2</c></rc>
    <rc><c>O </c><c>   2</c></rc>
    <rc><c>O </c><c>   2</c></rc>
    <rc><c>O </c><c>   2</c></rc>
    <rc><c>O </c><c>   2</c></rc>
    <rc><c>O </c><c>   2</c></rc>
    <rc><c>O </c><c>   2</c></rc>
    <rc><c>O </c><c>   2</c></rc>
    <rc><c>O </c><c>   2</c></rc>
    <rc><c>O </c><c>   2</c></rc>
    <rc><c>P </c><c>   3</c></rc>
   </set>
  </array>
  <array name="atomtypes" >
   <dimension dim="1">type</dimension>
   <field type="int">atomspertype</field>
   <field type="string">element</field>
   <field>mass</field>
   <field>valence</field>
   <field type="string">pseudopotential</field>
   <set>
    <rc><c>  47</c><c>Ga</c><c>     69.72300000</c><c>     13.00000000</c><c>  PAW_PBE Ga_d 06Jul2010                </c></rc>
    <rc><c>  71</c><c>O </c><c>     16.00000000</c><c>      6.00000000</c><c>   PAW_PBE O 08Apr2002                  </c></rc>
    <rc><c>   1</c><c>P </c><c>     30.97400000</c><c>      5.00000000</c><c>  PAW_PBE P 06Sep2000                   </c></rc>
   </set>
  </array>
 </atominfo>
 <structure name="initialpos" >
  <crystal>
   <varray name="basis" >
    <v>       0.00000000      12.28047342       0.00000000 </v>
    <v>       9.14270205       0.00000000       0.00000000 </v>
    <v>       0.00000000      -2.76826177     -11.30069772 </v>
   </varray>
   <i name="volume">   1268.80515525 </i>
   <varray name="rec_basis" >
    <v>       0.00000000       0.08143009      -0.01994742 </v>
    <v>       0.10937686      -0.00000000       0.00000000 </v>
    <v>       0.00000000       0.00000000      -0.08849011 </v>
   </varray>
  </crystal>
  <varray name="positions" >
   <v>       0.66571834       0.00154177       0.15555855 </v>
   <v>       0.66206588       0.99927619       0.66387097 </v>
   <v>       0.66571834       0.33179156       0.15555855 </v>
   <v>       0.66206588       0.33405715       0.66387097 </v>
   <v>       0.65868348       0.66666667       0.14796089 </v>
   <v>       0.65599310       0.66666667       0.66855776 </v>
   <v>       0.84157513       0.16666667       0.84368206 </v>
   <v>       0.83770637       0.49609409       0.33848670 </v>
   <v>       0.84260969       0.49851380       0.84448467 </v>
   <v>       0.83770637       0.83723924       0.33848670 </v>
   <v>       0.84260969       0.83481953       0.84448467 </v>
   <v>       0.61826252       0.16666667       0.39805611 </v>
   <v>       0.58748196       0.16666667       0.89979124 </v>
   <v>       0.62103761       0.49282166       0.40542124 </v>
   <v>       0.58100790       0.49918776       0.89529487 </v>
   <v>       0.62103761       0.84051167       0.40542124 </v>
   <v>       0.58100790       0.83414557       0.89529487 </v>
   <v>       0.91487592       0.00125773       0.10689767 </v>
   <v>       0.88796110       0.03815606       0.57506267 </v>
   <v>       0.91487592       0.33207561       0.10689767 </v>
   <v>       0.88796110       0.29517727       0.57506267 </v>
   <v>       0.91473363       0.66666667       0.10626795 </v>
   <v>       0.90621178       0.66666667       0.59643104 </v>
   <v>       0.16899375       0.16666667       0.16411154 </v>
   <v>       0.16280491       0.16666667       0.63913304 </v>
   <v>       0.16861424       0.49976408       0.16422344 </v>
   <v>       0.14309398       0.49645010       0.65176566 </v>
   <v>       0.16861424       0.83356925       0.16422344 </v>
   <v>       0.14309398       0.83688324       0.65176566 </v>
   <v>       0.35734344       0.99942749       0.34862045 </v>
   <v>       0.33223566       0.99758870       0.84211219 </v>
   <v>       0.35734344       0.33390584       0.34862045 </v>
   <v>       0.33223566       0.33574463       0.84211219 </v>
   <v>       0.36603224       0.66666667       0.34816586 </v>
   <v>       0.33037457       0.66666667       0.83765864 </v>
   <v>       0.08559080       0.00454617       0.39562720 </v>
   <v>       0.09395592       0.00238447       0.89995755 </v>
   <v>       0.08559080       0.32878716       0.39562720 </v>
   <v>       0.09395592       0.33094886       0.89995755 </v>
   <v>       0.09501858       0.66666667       0.39587254 </v>
   <v>       0.09296174       0.66666667       0.90294678 </v>
   <v>       0.41011075       0.16666667       0.09824123 </v>
   <v>       0.41177689       0.16666667       0.60731124 </v>
   <v>       0.41054589       0.49762235       0.09879190 </v>
   <v>       0.40712650       0.49800709       0.60716632 </v>
   <v>       0.41054589       0.83571098       0.09879190 </v>
   <v>       0.40712650       0.83532624       0.60716632 </v>
   <v>       0.00576302       0.16666667       0.12596136 </v>
   <v>       0.02527852       0.16666667       0.66364333 </v>
   <v>       0.00499611       0.50020767       0.12731016 </v>
   <v>       0.98032387       0.48189998       0.60923634 </v>
   <v>       0.00499611       0.83312566       0.12731016 </v>
   <v>       0.98032387       0.85143335       0.60923634 </v>
   <v>       0.52030256       0.00080068       0.37699769 </v>
   <v>       0.49405128       0.00222397       0.87217811 </v>
   <v>       0.52030256       0.33253265       0.37699769 </v>
   <v>       0.49405128       0.33110936       0.87217811 </v>
   <v>       0.52817637       0.66666667       0.38074311 </v>
   <v>       0.49350083       0.66666667       0.87217414 </v>
   <v>       0.66384653       0.16666667       0.26068031 </v>
   <v>       0.67265067       0.16666667       0.78588208 </v>
   <v>       0.66132471       0.50773985       0.25984010 </v>
   <v>       0.67254254       0.50256990       0.78946305 </v>
   <v>       0.66132471       0.82559348       0.25984010 </v>
   <v>       0.67254254       0.83076344       0.78946305 </v>
   <v>       0.82394919       0.97015892       0.20684002 </v>
   <v>       0.82614962       0.99637856       0.72544931 </v>
   <v>       0.82394919       0.36317441       0.20684002 </v>
   <v>       0.82614962       0.33695477       0.72544931 </v>
   <v>       0.82830365       0.66666667       0.21712176 </v>
   <v>       0.82729338       0.66666667       0.72187677 </v>
   <v>       0.77215475       0.95684167       0.43900558 </v>
   <v>       0.83650299       0.99948185       0.94975422 </v>
   <v>       0.77215475       0.37649166       0.43900558 </v>
   <v>       0.83650299       0.33385148       0.94975422 </v>
   <v>       0.81963856       0.66666667       0.43830047 </v>
   <v>       0.83878921       0.66666667       0.94875717 </v>
   <v>       0.67901156       0.16666667       0.04947644 </v>
   <v>       0.65544417       0.16666667       0.56162875 </v>
   <v>       0.66678300       0.50188796       0.04508640 </v>
   <v>       0.65522689       0.50494687       0.56886753 </v>
   <v>       0.66678300       0.83144537       0.04508640 </v>
   <v>       0.65522689       0.82838647       0.56886753 </v>
   <v>       0.50004897       0.00090154       0.11435983 </v>
   <v>       0.49925531       0.99913269       0.63942449 </v>
   <v>       0.50004897       0.33243179       0.11435983 </v>
   <v>       0.49925531       0.33420064       0.63942449 </v>
   <v>       0.49444521       0.66666667       0.11473606 </v>
   <v>       0.49304559       0.66666667       0.63898564 </v>
   <v>       0.00321851       0.16666667       0.88717338 </v>
   <v>       0.00187175       0.50600484       0.37020152 </v>
   <v>       0.00490682       0.49906029       0.87520021 </v>
   <v>       0.00187175       0.82732849       0.37020152 </v>
   <v>       0.00490682       0.83427304       0.87520021 </v>
   <v>       0.18141308       0.99694774       0.28642952 </v>
   <v>       0.17199316       0.98477477       0.78171800 </v>
   <v>       0.18141308       0.33638559       0.28642952 </v>
   <v>       0.17199316       0.34855857       0.78171800 </v>
   <v>       0.18175228       0.66666667       0.28291363 </v>
   <v>       0.16175721       0.66666667       0.77489530 </v>
   <v>       0.33878830       0.16666667       0.22517921 </v>
   <v>       0.32204866       0.16666667       0.72064299 </v>
   <v>       0.33985943       0.49989000       0.22479288 </v>
   <v>       0.32239702       0.50279842       0.72040611 </v>
   <v>       0.33985943       0.83344334       0.22479288 </v>
   <v>       0.32239702       0.83053491       0.72040611 </v>
   <v>       0.34345979       0.16666667       0.44753556 </v>
   <v>       0.32148765       0.16666667       0.94336931 </v>
   <v>       0.34470094       0.50237068       0.44720803 </v>
   <v>       0.32505030       0.50308164       0.94482677 </v>
   <v>       0.34470094       0.83096265       0.44720803 </v>
   <v>       0.32505030       0.83025169       0.94482677 </v>
   <v>       0.17569477       0.99866992       0.05885825 </v>
   <v>       0.18077804       0.99155038       0.55007618 </v>
   <v>       0.17569477       0.33466341       0.05885825 </v>
   <v>       0.18077804       0.34178295       0.55007618 </v>
   <v>       0.17616643       0.66666667       0.05882686 </v>
   <v>       0.16521950       0.66666667       0.55504875 </v>
   <v>       0.95120502       0.16666667       0.37388018 </v>
  </varray>
 </structure>
 <calculation>
  <scstep>
   <time name="total">    3.93    3.94</time>
   <energy>
    <i name="alphaZ">   5376.25786726 </i>
    <i name="ewald"> -86641.94408478 </i>
    <i name="hartreedc">  -2110.34263279 </i>
    <i name="XCdc">   2816.11558227 </i>
    <i name="pawpsdc"> 342388.71346308 </i>
    <i name="pawaedc">-373757.18428420 </i>
    <i name="eentropy">     -0.00309514 </i>
    <i name="bandstr"> -40047.89740053 </i>
    <i name="atom"> 131459.35058357 </i>
    <i name="e_fr_energy"> -20516.93400125 </i>
    <i name="e_wo_entrp"> -20516.93090611 </i>
    <i name="e_0_energy"> -20516.93245368 </i>
   </energy>
  </scstep>
  <scstep>
   <time name="total">    3.16    3.16</time>
   <energy>
    <i name="e_fr_energy"> -66401.95583103 </i>
    <i name="e_wo_entrp"> -66401.94050488 </i>
    <i name="e_0_energy"> -66401.94816795 </i>
   </energy>
  </scstep>
  <scstep>
   <time name="total">    3.37    3.37</time>
   <energy>
    <i name="e_fr_energy"> -72109.99320249 </i>
    <i name="e_wo_entrp"> -72109.97793262 </i>
    <i name="e_0_energy"> -72109.98556755 </i>
   </energy>
  </scstep>
  <scstep>
   <time name="total">    3.97    3.97</time>
   <energy>
    <i name="e_fr_energy"> -73006.19260271 </i>
    <i name="e_wo_entrp"> -73006.18211940 </i>
    <i name="e_0_energy"> -73006.18736106 </i>
   </energy>
  </scstep>
  <scstep>
   <time name="total">  234.58  234.55</time>
   <energy>
    <i name="e_fr_energy"> -40576.80415226 </i>
    <i name="e_wo_entrp"> -40576.80415226 </i>
    <i name="e_0_energy"> -40576.80415226 </i>
   </energy>
  </scstep>
  <scstep>
   <time name="total">  469.33  469.26</time>
   <energy>
    <i name="e_fr_energy">  40585.68045151 </i>
    <i name="e_wo_entrp">  40585.68214478 </i>
    <i name="e_0_energy">  40585.68129815 </i>
   </energy>
  </scstep>
  <scstep>
   <time name="total">  469.56  469.49</time>
   <energy>
    <i name="e_fr_energy">  17145.47520297 </i>
    <i name="e_wo_entrp">  17145.49630880 </i>
    <i name="e_0_energy">  17145.48575589 </i>
   </energy>
  </scstep>
  <scstep>
   <time name="total">  469.79  469.73</time>
   <energy>
    <i name="e_fr_energy">   9449.28325489 </i>
    <i name="e_wo_entrp">   9449.31024380 </i>
    <i name="e_0_energy">   9449.29674934 </i>
   </energy>
  </scstep>
  <scstep>
   <time name="total">  469.40  469.34</time>
   <energy>
    <i name="e_fr_energy">   6024.29884668 </i>
    <i name="e_wo_entrp">   6024.32135761 </i>
    <i name="e_0_energy">   6024.31010215 </i>
   </energy>
  </scstep>
  <scstep>
   <time name="total">  469.28  469.23</time>
   <energy>
    <i name="e_fr_energy">   3856.31421058 </i>
    <i name="e_wo_entrp">   3856.32545966 </i>
    <i name="e_0_energy">   3856.31983512 </i>
   </energy>
  </scstep>
  <scstep>
   <time name="total">  469.08  469.03</time>
   <energy>
    <i name="e_fr_energy">   2101.32076413 </i>
    <i name="e_wo_entrp">   2101.33071852 </i>
    <i name="e_0_energy">   2101.32574133 </i>
   </energy>
  </scstep>
  <scstep>
   <time name="total">  468.61  468.55</time>
   <energy>
    <i name="e_fr_energy">    811.79655287 </i>
    <i name="e_wo_entrp">    811.80688907 </i>
    <i name="e_0_energy">    811.80172097 </i>
   </energy>
  </scstep>
  <scstep>
   <time name="total">  468.75  468.69</time>
   <energy>
    <i name="e_fr_energy">     59.67062461 </i>
    <i name="e_wo_entrp">     59.67820545 </i>
    <i name="e_0_energy">     59.67441503 </i>
   </energy>
  </scstep>
  <scstep>
   <time name="total">  469.17  469.11</time>
   <energy>
    <i name="e_fr_energy">   -381.73480076 </i>
    <i name="e_wo_entrp">   -381.71139326 </i>
    <i name="e_0_energy">   -381.72309701 </i>
   </energy>
  </scstep>
  <scstep>
   <time name="total">  469.06  468.99</time>
   <energy>
    <i name="e_fr_energy">   -533.90257055 </i>
    <i name="e_wo_entrp">   -533.88830031 </i>
    <i name="e_0_energy">   -533.89543543 </i>
   </energy>
  </scstep>
  <scstep>
   <time name="total">  468.98  468.92</time>
   <energy>
    <i name="e_fr_energy">   -614.89512929 </i>
    <i name="e_wo_entrp">   -614.87630397 </i>
    <i name="e_0_energy">   -614.88571663 </i>
   </energy>
  </scstep>
  <scstep>
   <time name="total">  469.03  468.97</time>
   <energy>
    <i name="e_fr_energy">   -681.52379861 </i>
    <i name="e_wo_entrp">   -681.50954493 </i>
    <i name="e_0_energy">   -681.51667177 </i>
   </energy>
  </scstep>
  <scstep>
   <time name="total">  468.94  468.88</time>
   <energy>
    <i name="e_fr_energy">   -730.31798754 </i>
    <i name="e_wo_entrp">   -730.30431573 </i>
    <i name="e_0_energy">   -730.31115163 </i>
   </energy>
  </scstep>
  <scstep>
   <time name="total">  469.09  469.02</time>
   <energy>
    <i name="e_fr_energy">   -770.20315699 </i>
    <i name="e_wo_entrp">   -770.18515298 </i>
    <i name="e_0_energy">   -770.19415499 </i>
   </energy>
  </scstep>
  <scstep>
   <time name="total">  468.91  468.85</time>
   <energy>
    <i name="e_fr_energy">   -799.87173084 </i>
    <i name="e_wo_entrp">   -799.85713890 </i>
    <i name="e_0_energy">   -799.86443487 </i>
   </energy>
  </scstep>
  <scstep>
   <time name="total">  468.97  468.90</time>
   <energy>
    <i name="e_fr_energy">   -821.22098462 </i>
    <i name="e_wo_entrp">   -821.21269970 </i>
    <i name="e_0_energy">   -821.21684216 </i>
   </energy>
  </scstep>
  <scstep>
   <time name="total">  468.70  468.63</time>
   <energy>
    <i name="e_fr_energy">   -835.59454268 </i>
    <i name="e_wo_entrp">   -835.57619795 </i>
    <i name="e_0_energy">   -835.58537032 </i>
   </energy>
  </scstep>
  <scstep>
   <time name="total">  468.74  468.68</time>
   <energy>
    <i name="e_fr_energy">   -845.50366366 </i>
    <i name="e_wo_entrp">   -845.48769001 </i>
    <i name="e_0_energy">   -845.49567684 </i>
   </energy>
  </scstep>
  <scstep>
   <time name="total">  468.32  468.26</time>
   <energy>
    <i name="e_fr_energy">   -851.94231089 </i>
    <i name="e_wo_entrp">   -851.93267201 </i>
    <i name="e_0_energy">   -851.93749145 </i>
   </energy>
  </scstep>
  <scstep>
   <time name="total">  468.42  468.36</time>
   <energy>
    <i name="e_fr_energy">   -856.34248463 </i>
    <i name="e_wo_entrp">   -856.33296824 </i>
    <i name="e_0_energy">   -856.33772643 </i>
   </energy>
  </scstep>
  <scstep>
   <time name="total">  468.76  468.70</time>
   <energy>
    <i name="e_fr_energy">   -859.58852813 </i>
    <i name="e_wo_entrp">   -859.58076148 </i>
    <i name="e_0_energy">   -859.58464480 </i>
   </energy>
  </scstep>
  <scstep>
   <time name="total">  468.71  468.65</time>
   <energy>
    <i name="e_fr_energy">   -861.87416512 </i>
    <i name="e_wo_entrp">   -861.86742592 </i>
    <i name="e_0_energy">   -861.87079552 </i>
   </energy>
  </scstep>
  <scstep>
   <time name="total">  468.66  468.61</time>
   <energy>
    <i name="e_fr_energy">   -863.41537169 </i>
    <i name="e_wo_entrp">   -863.40874648 </i>
    <i name="e_0_energy">   -863.41205908 </i>
   </energy>
  </scstep>
  <scstep>
   <time name="total">  468.38  468.33</time>
   <energy>
    <i name="e_fr_energy">   -864.50101884 </i>
    <i name="e_wo_entrp">   -864.49371426 </i>
    <i name="e_0_energy">   -864.49736655 </i>
   </energy>
  </scstep>
  <scstep>
   <time name="total">  468.30  468.25</time>
   <energy>
    <i name="e_fr_energy">   -865.24657025 </i>
    <i name="e_wo_entrp">   -865.23943736 </i>
    <i name="e_0_energy">   -865.24300380 </i>
   </energy>
  </scstep>
  <scstep>
   <time name="total">  468.47  468.43</time>
   <energy>
    <i name="e_fr_energy">   -865.73549667 </i>
    <i name="e_wo_entrp">   -865.72939899 </i>
    <i name="e_0_energy">   -865.73244783 </i>
   </energy>
  </scstep>
  <scstep>
   <time name="total">  468.89  468.84</time>
   <energy>
    <i name="e_fr_energy">   -866.07483239 </i>
    <i name="e_wo_entrp">   -866.06946128 </i>
    <i name="e_0_energy">   -866.07214683 </i>
   </energy>
  </scstep>
  <scstep>
   <time name="total">  468.49  468.45</time>
   <energy>
    <i name="e_fr_energy">   -866.32613248 </i>
    <i name="e_wo_entrp">   -866.32098173 </i>
    <i name="e_0_energy">   -866.32355711 </i>
   </energy>
  </scstep>
  <scstep>
   <time name="total">  468.42  468.37</time>
   <energy>
    <i name="e_fr_energy">   -866.49940807 </i>
    <i name="e_wo_entrp">   -866.49401864 </i>
    <i name="e_0_energy">   -866.49671336 </i>
   </energy>
  </scstep>
  <scstep>
   <time name="total">  468.99  468.95</time>
   <energy>
    <i name="e_fr_energy">   -866.61709374 </i>
    <i name="e_wo_entrp">   -866.61139381 </i>
    <i name="e_0_energy">   -866.61424377 </i>
   </energy>
  </scstep>
  <scstep>
   <time name="total">  468.37  468.31</time>
   <energy>
    <i name="e_fr_energy">   -866.70236581 </i>
    <i name="e_wo_entrp">   -866.69659661 </i>
    <i name="e_0_energy">   -866.69948121 </i>
   </energy>
  </scstep>
  <scstep>
   <time name="total">  468.37  468.31</time>
   <energy>
    <i name="e_fr_energy">   -866.76290909 </i>
    <i name="e_wo_entrp">   -866.75730081 </i>
    <i name="e_0_energy">   -866.76010495 </i>
   </energy>
  </scstep>
  <scstep>
   <time name="total">  468.44  468.38</time>
   <energy>
    <i name="e_fr_energy">   -866.85306516 </i>
    <i name="e_wo_entrp">   -866.84714752 </i>
    <i name="e_0_energy">   -866.85010634 </i>
   </energy>
  </scstep>
  <scstep>
   <time name="total">  468.61  468.55</time>
   <energy>
    <i name="e_fr_energy">   -866.88859900 </i>
    <i name="e_wo_entrp">   -866.88255158 </i>
    <i name="e_0_energy">   -866.88557529 </i>
   </energy>
  </scstep>
  <scstep>
   <time name="total">  468.43  468.37</time>
   <energy>
    <i name="e_fr_energy">   -866.89821807 </i>
    <i name="e_wo_entrp">   -866.89217827 </i>
    <i name="e_0_energy">   -866.89519817 </i>
   </energy>
  </scstep>
  <scstep>
   <time name="total">  468.23  468.17</time>
   <energy>
    <i name="e_fr_energy">   -866.90061067 </i>
    <i name="e_wo_entrp">   -866.89452253 </i>
    <i name="e_0_energy">   -866.89756660 </i>
   </energy>
  </scstep>
  <scstep>
   <time name="total">  468.34  468.28</time>
   <energy>
    <i name="e_fr_energy">   -866.90118281 </i>
    <i name="e_wo_entrp">   -866.89504900 </i>
    <i name="e_0_energy">   -866.89811591 </i>
   </energy>
  </scstep>
  <scstep>
   <time name="total">  468.45  468.39</time>
   <energy>
    <i name="e_fr_energy">   -866.90133126 </i>
    <i name="e_wo_entrp">   -866.89517540 </i>
    <i name="e_0_energy">   -866.89825333 </i>
   </energy>
  </scstep>
  <scstep>
   <time name="total">  468.50  468.44</time>
   <energy>
    <i name="e_fr_energy">   -866.90138196 </i>
    <i name="e_wo_entrp">   -866.89520827 </i>
    <i name="e_0_energy">   -866.89829511 </i>
   </energy>
  </scstep>
  <scstep>
   <time name="total">  468.64  468.58</time>
   <energy>
    <i name="e_fr_energy">   -866.90140169 </i>
    <i name="e_wo_entrp">   -866.89520660 </i>
    <i name="e_0_energy">   -866.89830415 </i>
   </energy>
  </scstep>
  <scstep>
   <time name="total">  698.76  698.67</time>
   <energy>
    <i name="alphaZ">   5376.25786726 </i>
    <i name="ewald"> -86641.94408478 </i>
    <i name="hartreedc"> -33949.87162822 </i>
    <i name="XCdc">   2788.68544582 </i>
    <i name="pawpsdc"> 121821.49495839 </i>
    <i name="pawaedc">-137015.88826159 </i>
    <i name="eentropy">     -0.00621405 </i>
    <i name="bandstr">  -8994.99262837 </i>
    <i name="atom"> 131459.35058357 </i>
    <i name="e_fr_energy">   -866.90141109 </i>
    <i name="e_wo_entrp">   -866.89519704 </i>
    <i name="e_0_energy">   -866.89830407 </i>
   </energy>
  </scstep>
  <structure>
   <crystal>
    <varray name="basis" >
     <v>       0.00000000      12.28047342       0.00000000 </v>
     <v>       9.14270205       0.00000000       0.00000000 </v>
     <v>       0.00000000      -2.76826177     -11.30069772 </v>
    </varray>
    <i name="volume">   1268.80515525 </i>
    <varray name="rec_basis" >
     <v>       0.00000000       0.08143009      -0.01994742 </v>
     <v>       0.10937686      -0.00000000       0.00000000 </v>
     <v>       0.00000000       0.00000000      -0.08849011 </v>
    </varray>
   </crystal>
   <varray name="positions" >
    <v>       0.66571834       0.00154177       0.15555855 </v>
    <v>       0.66206588       0.99927619       0.66387097 </v>
    <v>       0.66571834       0.33179156       0.15555855 </v>
    <v>       0.66206588       0.33405715       0.66387097 </v>
    <v>       0.65868348       0.66666667       0.14796089 </v>
    <v>       0.65599310       0.66666667       0.66855776 </v>
    <v>       0.84157513       0.16666667       0.84368206 </v>
    <v>       0.83770637       0.49609409       0.33848670 </v>
    <v>       0.84260969       0.49851380       0.84448467 </v>
    <v>       0.83770637       0.83723924       0.33848670 </v>
    <v>       0.84260969       0.83481953       0.84448467 </v>
    <v>       0.61826252       0.16666667       0.39805611 </v>
    <v>       0.58748196       0.16666667       0.89979124 </v>
    <v>       0.62103761       0.49282166       0.40542124 </v>
    <v>       0.58100790       0.49918776       0.89529487 </v>
    <v>       0.62103761       0.84051167       0.40542124 </v>
    <v>       0.58100790       0.83414557       0.89529487 </v>
    <v>       0.91487592       0.00125773       0.10689767 </v>
    <v>       0.88796110       0.03815606       0.57506267 </v>
    <v>       0.91487592       0.33207561       0.10689767 </v>
    <v>       0.88796110       0.29517727       0.57506267 </v>
    <v>       0.91473363       0.66666667       0.10626795 </v>
    <v>       0.90621178       0.66666667       0.59643104 </v>
    <v>       0.16899375       0.16666667       0.16411154 </v>
    <v>       0.16280491       0.16666667       0.63913304 </v>
    <v>       0.16861424       0.49976408       0.16422344 </v>
    <v>       0.14309398       0.49645010       0.65176566 </v>
    <v>       0.16861424       0.83356925       0.16422344 </v>
    <v>       0.14309398       0.83688324       0.65176566 </v>
    <v>       0.35734344       0.99942749       0.34862045 </v>
    <v>       0.33223566       0.99758870       0.84211219 </v>
    <v>       0.35734344       0.33390584       0.34862045 </v>
    <v>       0.33223566       0.33574463       0.84211219 </v>
    <v>       0.36603224       0.66666667       0.34816586 </v>
    <v>       0.33037457       0.66666667       0.83765864 </v>
    <v>       0.08559080       0.00454617       0.39562720 </v>
    <v>       0.09395592       0.00238447       0.89995755 </v>
    <v>       0.08559080       0.32878716       0.39562720 </v>
    <v>       0.09395592       0.33094886       0.89995755 </v>
    <v>       0.09501858       0.66666667       0.39587254 </v>
    <v>       0.09296174       0.66666667       0.90294678 </v>
    <v>       0.41011075       0.16666667       0.09824123 </v>
    <v>       0.41177689       0.16666667       0.60731124 </v>
    <v>       0.41054589       0.49762235       0.09879190 </v>
    <v>       0.40712650       0.49800709       0.60716632 </v>
    <v>       0.41054589       0.83571098       0.09879190 </v>
    <v>       0.40712650       0.83532624       0.60716632 </v>
    <v>       0.00576302       0.16666667       0.12596136 </v>
    <v>       0.02527852       0.16666667       0.66364333 </v>
    <v>       0.00499611       0.50020767       0.12731016 </v>
    <v>       0.98032387       0.48189998       0.60923634 </v>
    <v>       0.00499611       0.83312566       0.12731016 </v>
    <v>       0.98032387       0.85143335       0.60923634 </v>
    <v>       0.52030256       0.00080068       0.37699769 </v>
    <v>       0.49405128       0.00222397       0.87217811 </v>
    <v>       0.52030256       0.33253265       0.37699769 </v>
    <v>       0.49405128       0.33110936       0.87217811 </v>
    <v>       0.52817637       0.66666667       0.38074311 </v>
    <v>       0.49350083       0.66666667       0.87217414 </v>
    <v>       0.66384653       0.16666667       0.26068031 </v>
    <v>       0.67265067       0.16666667       0.78588208 </v>
    <v>       0.66132471       0.50773985       0.25984010 </v>
    <v>       0.67254254       0.50256990       0.78946305 </v>
    <v>       0.66132471       0.82559348       0.25984010 </v>
    <v>       0.67254254       0.83076344       0.78946305 </v>
    <v>       0.82394919       0.97015892       0.20684002 </v>
    <v>       0.82614962       0.99637856       0.72544931 </v>
    <v>       0.82394919       0.36317441       0.20684002 </v>
    <v>       0.82614962       0.33695477       0.72544931 </v>
    <v>       0.82830365       0.66666667       0.21712176 </v>
    <v>       0.82729338       0.66666667       0.72187677 </v>
    <v>       0.77215475       0.95684167       0.43900558 </v>
    <v>       0.83650299       0.99948185       0.94975422 </v>
    <v>       0.77215475       0.37649166       0.43900558 </v>
    <v>       0.83650299       0.33385148       0.94975422 </v>
    <v>       0.81963856       0.66666667       0.43830047 </v>
    <v>       0.83878921       0.66666667       0.94875717 </v>
    <v>       0.67901156       0.16666667       0.04947644 </v>
    <v>       0.65544417       0.16666667       0.56162875 </v>
    <v>       0.66678300       0.50188796       0.04508640 </v>
    <v>       0.65522689       0.50494687       0.56886753 </v>
    <v>       0.66678300       0.83144537       0.04508640 </v>
    <v>       0.65522689       0.82838647       0.56886753 </v>
    <v>       0.50004897       0.00090154       0.11435983 </v>
    <v>       0.49925531       0.99913269       0.63942449 </v>
    <v>       0.50004897       0.33243179       0.11435983 </v>
    <v>       0.49925531       0.33420064       0.63942449 </v>
    <v>       0.49444521       0.66666667       0.11473606 </v>
    <v>       0.49304559       0.66666667       0.63898564 </v>
    <v>       0.00321851       0.16666667       0.88717338 </v>
    <v>       0.00187175       0.50600484       0.37020152 </v>
    <v>       0.00490682       0.49906029       0.87520021 </v>
    <v>       0.00187175       0.82732849       0.37020152 </v>
    <v>       0.00490682       0.83427304       0.87520021 </v>
    <v>       0.18141308       0.99694774       0.28642952 </v>
    <v>       0.17199316       0.98477477       0.78171800 </v>
    <v>       0.18141308       0.33638559       0.28642952 </v>
    <v>       0.17199316       0.34855857       0.78171800 </v>
    <v>       0.18175228       0.66666667       0.28291363 </v>
    <v>       0.16175721       0.66666667       0.77489530 </v>
    <v>       0.33878830       0.16666667       0.22517921 </v>
    <v>       0.32204866       0.16666667       0.72064299 </v>
    <v>       0.33985943       0.49989000       0.22479288 </v>
    <v>       0.32239702       0.50279842       0.72040611 </v>
    <v>       0.33985943       0.83344334       0.22479288 </v>
    <v>       0.32239702       0.83053491       0.72040611 </v>
    <v>       0.34345979       0.16666667       0.44753556 </v>
    <v>       0.32148765       0.16666667       0.94336931 </v>
    <v>       0.34470094       0.50237068       0.44720803 </v>
    <v>       0.32505030       0.50308164       0.94482677 </v>
    <v>       0.34470094       0.83096265       0.44720803 </v>
    <v>       0.32505030       0.83025169       0.94482677 </v>
    <v>       0.17569477       0.99866992       0.05885825 </v>
    <v>       0.18077804       0.99155038       0.55007618 </v>
    <v>       0.17569477       0.33466341       0.05885825 </v>
    <v>       0.18077804       0.34178295       0.55007618 </v>
    <v>       0.17616643       0.66666667       0.05882686 </v>
    <v>       0.16521950       0.66666667       0.55504875 </v>
    <v>       0.95120502       0.16666667       0.37388018 </v>
   </varray>
  </structure>
  <varray name="forces" >
   <v>       0.01997886       0.10112547      -0.07446120 </v>
   <v>      -0.00574446       0.03709634       0.05516953 </v>
   <v>      -0.01997886       0.10112547      -0.07446120 </v>
   <v>       0.00574446       0.03709634       0.05516953 </v>
   <v>       0.00000000      -0.05841609      -0.12110904 </v>
   <v>       0.00000000       0.07134166       0.11674171 </v>
   <v>       0.00000000      -0.03069711       0.02451750 </v>
   <v>      -0.03093143      -0.14810967      -0.01373226 </v>
   <v>      -0.04538291      -0.01667938       0.10193256 </v>
   <v>       0.03093143      -0.14810967      -0.01373226 </v>
   <v>       0.04538291      -0.01667938       0.10193256 </v>
   <v>       0.00000000      -0.14430398       0.04855109 </v>
   <v>       0.00000000       0.01508575       0.00227544 </v>
   <v>      -0.12793459       0.05080211      -0.00357773 </v>
   <v>      -0.01856207       0.06087125      -0.06071631 </v>
   <v>       0.12793459       0.05080211      -0.00357773 </v>
   <v>       0.01856207       0.06087125      -0.06071631 </v>
   <v>      -0.08540416      -0.07002208       0.01699606 </v>
   <v>      -0.06267210      -0.01310663      -0.11497764 </v>
   <v>       0.08540416      -0.07002208       0.01699606 </v>
   <v>       0.06267210      -0.01310663      -0.11497764 </v>
   <v>       0.00000000      -0.00250521       0.00612710 </v>
   <v>       0.00000000       0.07125898       0.01582684 </v>
   <v>       0.00000000       0.10490700       0.06390406 </v>
   <v>       0.00000000      -0.16517665      -0.05769143 </v>
   <v>       0.00509641       0.09978754      -0.00743080 </v>
   <v>       0.01109182      -0.01253370       0.03292374 </v>
   <v>      -0.00509641       0.09978754      -0.00743080 </v>
   <v>      -0.01109182      -0.01253370       0.03292374 </v>
   <v>       0.00042241      -0.06307567      -0.02510121 </v>
   <v>      -0.02370836      -0.13790936      -0.01056660 </v>
   <v>      -0.00042241      -0.06307567      -0.02510121 </v>
   <v>       0.02370836      -0.13790936      -0.01056660 </v>
   <v>       0.00000000      -0.06397536      -0.05608718 </v>
   <v>       0.00000000      -0.07005057       0.01769284 </v>
   <v>      -0.36152437       0.15696564      -0.11423636 </v>
   <v>      -0.04776753      -0.03602905       0.08248543 </v>
   <v>       0.36152437       0.15696564      -0.11423636 </v>
   <v>       0.04776753      -0.03602905       0.08248543 </v>
   <v>       0.00000000      -0.10301724      -0.12137353 </v>
   <v>       0.00000000      -0.02221717       0.17459664 </v>
   <v>       0.00000000       0.05444675       0.03703701 </v>
   <v>       0.00000000       0.06077445      -0.01357983 </v>
   <v>       0.02863691       0.03945099       0.02379982 </v>
   <v>       0.02131688       0.01991629      -0.02330897 </v>
   <v>      -0.02863691       0.03945099       0.02379982 </v>
   <v>      -0.02131688       0.01991629      -0.02330897 </v>
   <v>       0.00000000      -0.30600557       0.07863373 </v>
   <v>       0.00000000       0.62295893       0.25274940 </v>
   <v>       0.03480202      -0.27782815       0.06834252 </v>
   <v>      -0.18061127       0.03335013       0.08145839 </v>
   <v>      -0.03480202      -0.27782815       0.06834252 </v>
   <v>       0.18061127       0.03335013       0.08145839 </v>
   <v>      -0.00526830       0.24663920      -0.09631945 </v>
   <v>      -0.10332976       0.17916524      -0.10359087 </v>
   <v>       0.00526830       0.24663920      -0.09631945 </v>
   <v>       0.10332976       0.17916524      -0.10359087 </v>
   <v>       0.00000000       0.12093549      -0.07288972 </v>
   <v>       0.00000000       0.25078687      -0.09320445 </v>
   <v>       0.00000000      -0.27259876      -0.12505669 </v>
   <v>       0.00000000       0.07863721      -0.07366922 </v>
   <v>       0.00038212       0.09101773      -0.12233165 </v>
   <v>       0.04773114      -0.05736699      -0.08028510 </v>
   <v>      -0.00038212       0.09101773      -0.12233165 </v>
   <v>      -0.04773114      -0.05736699      -0.08028510 </v>
   <v>      -0.22315814       0.00030459       0.25860042 </v>
   <v>       0.01516674      -0.38930263      -0.17307536 </v>
   <v>       0.22315814       0.00030459       0.25860042 </v>
   <v>      -0.01516674      -0.38930263      -0.17307536 </v>
   <v>       0.00000000       0.12633780       0.24525062 </v>
   <v>       0.00000000      -0.24882704      -0.12977601 </v>
   <v>      -0.38940477       0.10408232       0.12780691 </v>
   <v>      -0.03651652       0.39827565      -0.06484918 </v>
   <v>       0.38940477       0.10408232       0.12780691 </v>
   <v>       0.03651652       0.39827565      -0.06484918 </v>
   <v>       0.00000000       0.27852745       0.15889594 </v>
   <v>       0.00000000       0.37825579      -0.14790900 </v>
   <v>       0.00000000      -0.46360902       0.05992824 </v>
   <v>       0.00000000      -0.13680796       0.12704233 </v>
   <v>       0.09518884      -0.42489918       0.11119317 </v>
   <v>      -0.05302445      -0.13957108       0.01967724 </v>
   <v>      -0.09518884      -0.42489918       0.11119317 </v>
   <v>       0.05302445      -0.13957108       0.01967724 </v>
   <v>      -0.02611758      -0.15214865       0.01091628 </v>
   <v>      -0.00978629      -0.15428235       0.15044475 </v>
   <v>       0.02611758      -0.15214865       0.01091628 </v>
   <v>       0.00978629      -0.15428235       0.15044475 </v>
   <v>       0.00000000      -0.14570367       0.07052148 </v>
   <v>       0.00000000      -0.16153089       0.12624286 </v>
   <v>       0.00000000       0.22997906       0.02330898 </v>
   <v>       0.03009033       0.14084256      -0.04633431 </v>
   <v>      -0.00266931       0.14942467      -0.18229079 </v>
   <v>      -0.03009033       0.14084256      -0.04633431 </v>
   <v>       0.00266931       0.14942467      -0.18229079 </v>
   <v>       0.01042644      -0.10055609       0.04182172 </v>
   <v>      -0.11696978       0.05172610      -0.25028023 </v>
   <v>      -0.01042644      -0.10055609       0.04182172 </v>
   <v>       0.11696978       0.05172610      -0.25028023 </v>
   <v>       0.00000000      -0.20463548       0.09448937 </v>
   <v>       0.00000000       0.09978996      -0.33504051 </v>
   <v>       0.00000000      -0.04646087       0.03053046 </v>
   <v>       0.00000000      -0.15773124       0.15369152 </v>
   <v>      -0.00042193       0.01606543       0.03964281 </v>
   <v>       0.03379405       0.15226299       0.02964758 </v>
   <v>       0.00042193       0.01606543       0.03964281 </v>
   <v>      -0.03379405       0.15226299       0.02964758 </v>
   <v>       0.00000000       0.41389391      -0.01729599 </v>
   <v>       0.00000000       0.40126218       0.03189814 </v>
   <v>      -0.02824914       0.44548577      -0.08699889 </v>
   <v>      -0.00456835       0.42951048       0.01283690 </v>
   <v>       0.02824914       0.44548577      -0.08699889 </v>
   <v>       0.00456835       0.42951048       0.01283690 </v>
   <v>      -0.01760630      -0.43503542       0.04887142 </v>
   <v>       0.19346222      -0.56993809      -0.02126854 </v>
   <v>       0.01760630      -0.43503542       0.04887142 </v>
   <v>      -0.19346222      -0.56993809      -0.02126854 </v>
   <v>       0.00000000      -0.46677512       0.09345532 </v>
   <v>       0.00000000      -0.33816573       0.14709055 </v>
   <v>       0.00000000       0.61848284      -0.11398416 </v>
  </varray>
  <varray name="stress" >
   <v>     198.03159373       0.00000000       0.00000000 </v>
   <v>       0.00000000     204.35959924       9.13962910 </v>
   <v>       0.00000000       9.13962908     239.16336149 </v>
  </varray>
  <energy>
   <i name="e_fr_energy">   -866.90141109 </i>
   <i name="e_wo_entrp">   -866.89519704 </i>
   <i name="e_0_energy">   -866.89830407 </i>
  </energy>
  <time name="totalsc">20286.2220283.84</time>
  <eigenvalues>
   <array>
    <dimension dim="1">band</dimension>
    <dimension dim="2">kpoint</dimension>
    <dimension dim="3">spin</dimension>
    <field>eigene</field>
    <field>occ</field>
    <set>
     <set comment="spin 1">
      <set comment="kpoint 1">
       <r>  -19.2303    1.0000 </r>
       <r>  -18.9254    1.0000 </r>
       <r>  -18.8857    1.0000 </r>
       <r>  -18.7130    1.0000 </r>
       <r>  -18.6299    1.0000 </r>
       <r>  -18.5464    1.0000 </r>
       <r>  -18.5434    1.0000 </r>
       <r>  -18.3903    1.0000 </r>
       <r>  -18.3402    1.0000 </r>
       <r>  -18.3355    1.0000 </r>
       <r>  -18.3060    1.0000 </r>
       <r>  -18.3014    1.0000 </r>
       <r>  -18.2860    1.0000 </r>
       <r>  -18.1839    1.0000 </r>
       <r>  -18.1803    1.0000 </r>
       <r>  -18.1333    1.0000 </r>
       <r>  -18.1155    1.0000 </r>
       <r>  -18.0965    1.0000 </r>
       <r>  -18.0675    1.0000 </r>
       <r>  -18.0167    1.0000 </r>
       <r>  -18.0107    1.0000 </r>
       <r>  -18.0015    1.0000 </r>
       <r>  -17.9358    1.0000 </r>
       <r>  -17.9203    1.0000 </r>
       <r>  -17.9086    1.0000 </r>
       <r>  -17.8945    1.0000 </r>
       <r>  -17.8650    1.0000 </r>
       <r>  -17.8208    1.0000 </r>
       <r>  -17.7817    1.0000 </r>
       <r>  -17.7737    1.0000 </r>
       <r>  -17.7297    1.0000 </r>
       <r>  -17.7005    1.0000 </r>
       <r>  -17.6953    1.0000 </r>
       <r>  -17.6796    1.0000 </r>
       <r>  -17.6509    1.0000 </r>
       <r>  -17.6493    1.0000 </r>
       <r>  -17.6217    1.0000 </r>
       <r>  -17.6142    1.0000 </r>
       <r>  -17.6070    1.0000 </r>
       <r>  -17.5838    1.0000 </r>
       <r>  -17.5654    1.0000 </r>
       <r>  -17.5465    1.0000 </r>
       <r>  -17.5359    1.0000 </r>
       <r>  -17.5177    1.0000 </r>
       <r>  -17.5115    1.0000 </r>
       <r>  -17.4781    1.0000 </r>
       <r>  -17.4700    1.0000 </r>
       <r>  -17.4536    1.0000 </r>
       <r>  -17.4362    1.0000 </r>
       <r>  -17.3915    1.0000 </r>
       <r>  -17.3814    1.0000 </r>
       <r>  -17.3665    1.0000 </r>
       <r>  -17.3597    1.0000 </r>
       <r>  -17.3398    1.0000 </r>
       <r>  -17.3396    1.0000 </r>
       <r>  -17.3055    1.0000 </r>
       <r>  -17.3049    1.0000 </r>
       <r>  -17.2957    1.0000 </r>
       <r>  -17.2646    1.0000 </r>
       <r>  -17.2583    1.0000 </r>
       <r>  -17.2370    1.0000 </r>
       <r>  -17.2058    1.0000 </r>
       <r>  -17.1557    1.0000 </r>
       <r>  -17.0849    1.0000 </r>
       <r>  -17.0830    1.0000 </r>
       <r>  -16.9871    1.0000 </r>
       <r>  -16.8749    1.0000 </r>
       <r>  -16.8092    1.0000 </r>
       <r>  -16.2180    1.0000 </r>
       <r>  -16.1901    1.0000 </r>
       <r>  -15.8061    1.0000 </r>
       <r>  -13.6952    1.0000 </r>
       <r>  -13.6690    1.0000 </r>
       <r>  -13.6610    1.0000 </r>
       <r>  -13.6517    1.0000 </r>
       <r>  -13.6240    1.0000 </r>
       <r>  -13.6197    1.0000 </r>
       <r>  -13.6166    1.0000 </r>
       <r>  -13.6093    1.0000 </r>
       <r>  -13.6047    1.0000 </r>
       <r>  -13.6019    1.0000 </r>
       <r>  -13.5804    1.0000 </r>
       <r>  -13.5753    1.0000 </r>
       <r>  -13.5748    1.0000 </r>
       <r>  -13.5677    1.0000 </r>
       <r>  -13.5652    1.0000 </r>
       <r>  -13.5636    1.0000 </r>
       <r>  -13.5593    1.0000 </r>
       <r>  -13.5589    1.0000 </r>
       <r>  -13.5515    1.0000 </r>
       <r>  -13.5500    1.0000 </r>
       <r>  -13.5459    1.0000 </r>
       <r>  -13.5427    1.0000 </r>
       <r>  -13.5396    1.0000 </r>
       <r>  -13.5386    1.0000 </r>
       <r>  -13.5319    1.0000 </r>
       <r>  -13.5298    1.0000 </r>
       <r>  -13.5284    1.0000 </r>
       <r>  -13.5283    1.0000 </r>
       <r>  -13.5246    1.0000 </r>
       <r>  -13.5059    1.0000 </r>
       <r>  -13.5000    1.0000 </r>
       <r>  -13.4987    1.0000 </r>
       <r>  -13.4913    1.0000 </r>
       <r>  -13.4907    1.0000 </r>
       <r>  -13.4857    1.0000 </r>
       <r>  -13.4857    1.0000 </r>
       <r>  -13.4785    1.0000 </r>
       <r>  -13.4751    1.0000 </r>
       <r>  -13.4660    1.0000 </r>
       <r>  -13.4619    1.0000 </r>
       <r>  -13.4608    1.0000 </r>
       <r>  -13.4435    1.0000 </r>
       <r>  -13.4425    1.0000 </r>
       <r>  -13.4356    1.0000 </r>
       <r>  -13.4337    1.0000 </r>
       <r>  -13.4325    1.0000 </r>
       <r>  -13.4286    1.0000 </r>
       <r>  -13.4257    1.0000 </r>
       <r>  -13.4235    1.0000 </r>
       <r>  -13.4209    1.0000 </r>
       <r>  -13.4186    1.0000 </r>
       <r>  -13.4141    1.0000 </r>
       <r>  -13.4113    1.0000 </r>
       <r>  -13.4095    1.0000 </r>
       <r>  -13.4094    1.0000 </r>
       <r>  -13.4016    1.0000 </r>
       <r>  -13.3983    1.0000 </r>
       <r>  -13.3942    1.0000 </r>
       <r>  -13.3920    1.0000 </r>
       <r>  -13.3887    1.0000 </r>
       <r>  -13.3874    1.0000 </r>
       <r>  -13.3846    1.0000 </r>
       <r>  -13.3843    1.0000 </r>
       <r>  -13.3802    1.0000 </r>
       <r>  -13.3784    1.0000 </r>
       <r>  -13.3724    1.0000 </r>
       <r>  -13.3700    1.0000 </r>
       <r>  -13.3700    1.0000 </r>
       <r>  -13.3661    1.0000 </r>
       <r>  -13.3630    1.0000 </r>
       <r>  -13.3592    1.0000 </r>
       <r>  -13.3525    1.0000 </r>
       <r>  -13.3477    1.0000 </r>
       <r>  -13.3456    1.0000 </r>
       <r>  -13.3438    1.0000 </r>
       <r>  -13.3371    1.0000 </r>
       <r>  -13.3343    1.0000 </r>
       <r>  -13.3295    1.0000 </r>
       <r>  -13.3223    1.0000 </r>
       <r>  -13.3164    1.0000 </r>
       <r>  -13.3156    1.0000 </r>
       <r>  -13.3108    1.0000 </r>
       <r>  -13.3063    1.0000 </r>
       <r>  -13.3015    1.0000 </r>
       <r>  -13.2992    1.0000 </r>
       <r>  -13.2988    1.0000 </r>
       <r>  -13.2971    1.0000 </r>
       <r>  -13.2943    1.0000 </r>
       <r>  -13.2897    1.0000 </r>
       <r>  -13.2877    1.0000 </r>
       <r>  -13.2808    1.0000 </r>
       <r>  -13.2773    1.0000 </r>
       <r>  -13.2749    1.0000 </r>
       <r>  -13.2744    1.0000 </r>
       <r>  -13.2744    1.0000 </r>
       <r>  -13.2718    1.0000 </r>
       <r>  -13.2687    1.0000 </r>
       <r>  -13.2674    1.0000 </r>
       <r>  -13.2662    1.0000 </r>
       <r>  -13.2643    1.0000 </r>
       <r>  -13.2629    1.0000 </r>
       <r>  -13.2598    1.0000 </r>
       <r>  -13.2562    1.0000 </r>
       <r>  -13.2520    1.0000 </r>
       <r>  -13.2506    1.0000 </r>
       <r>  -13.2474    1.0000 </r>
       <r>  -13.2431    1.0000 </r>
       <r>  -13.2425    1.0000 </r>
       <r>  -13.2409    1.0000 </r>
       <r>  -13.2355    1.0000 </r>
       <r>  -13.2268    1.0000 </r>
       <r>  -13.2222    1.0000 </r>
       <r>  -13.2201    1.0000 </r>
       <r>  -13.2126    1.0000 </r>
       <r>  -13.2092    1.0000 </r>
       <r>  -13.2065    1.0000 </r>
       <r>  -13.2052    1.0000 </r>
       <r>  -13.1975    1.0000 </r>
       <r>  -13.1920    1.0000 </r>
       <r>  -13.1914    1.0000 </r>
       <r>  -13.1860    1.0000 </r>
       <r>  -13.1829    1.0000 </r>
       <r>  -13.1794    1.0000 </r>
       <r>  -13.1748    1.0000 </r>
       <r>  -13.1688    1.0000 </r>
       <r>  -13.1667    1.0000 </r>
       <r>  -13.1664    1.0000 </r>
       <r>  -13.1657    1.0000 </r>
       <r>  -13.1551    1.0000 </r>
       <r>  -13.1505    1.0000 </r>
       <r>  -13.1496    1.0000 </r>
       <r>  -13.1450    1.0000 </r>
       <r>  -13.1418    1.0000 </r>
       <r>  -13.1352    1.0000 </r>
       <r>  -13.1334    1.0000 </r>
       <r>  -13.1302    1.0000 </r>
       <r>  -13.1266    1.0000 </r>
       <r>  -13.1219    1.0000 </r>
       <r>  -13.1143    1.0000 </r>
       <r>  -13.1133    1.0000 </r>
       <r>  -13.1078    1.0000 </r>
       <r>  -13.1052    1.0000 </r>
       <r>  -13.0901    1.0000 </r>
       <r>  -13.0869    1.0000 </r>
       <r>  -13.0844    1.0000 </r>
       <r>  -13.0789    1.0000 </r>
       <r>  -13.0771    1.0000 </r>
       <r>  -13.0722    1.0000 </r>
       <r>  -13.0636    1.0000 </r>
       <r>  -13.0551    1.0000 </r>
       <r>  -13.0465    1.0000 </r>
       <r>  -13.0456    1.0000 </r>
       <r>  -13.0336    1.0000 </r>
       <r>  -13.0243    1.0000 </r>
       <r>  -13.0091    1.0000 </r>
       <r>  -13.0079    1.0000 </r>
       <r>  -12.9979    1.0000 </r>
[...]
       <r>   -12.9130   305.5998   482.6127 </r>
       <r>   -12.7797   309.1937   523.8520 </r>
       <r>   -12.6463   145.3882   543.2434 </r>
       <r>   -12.5129   102.0988   556.8611 </r>
       <r>   -12.3795   107.5575   571.2068 </r>
       <r>   -12.2462    78.2293   581.6408 </r>
       <r>   -12.1128    55.0764   588.9867 </r>
       <r>   -11.9794    65.1496   597.6761 </r>
       <r>   -11.8460    49.5572   604.2859 </r>
       <r>   -11.7127    28.8039   608.1277 </r>
       <r>   -11.5793    26.7772   611.6992 </r>
       <r>   -11.4459     2.2555   612.0000 </r>
       <r>   -11.3125     0.0000   612.0000 </r>
       <r>   -11.1791     0.0000   612.0000 </r>
       <r>   -11.0458     0.0000   612.0000 </r>
       <r>   -10.9124     0.0000   612.0000 </r>
       <r>   -10.7790     0.0000   612.0000 </r>
       <r>   -10.6456     0.0000   612.0000 </r>
       <r>   -10.5123     0.0000   612.0000 </r>
       <r>   -10.3789     0.0000   612.0000 </r>
       <r>   -10.2455     0.0000   612.0000 </r>
       <r>   -10.1121     0.0000   612.0000 </r>
       <r>    -9.9788     0.0000   612.0000 </r>
       <r>    -9.8454     0.0000   612.0000 </r>
       <r>    -9.7120     0.0000   612.0000 </r>
       <r>    -9.5786     0.0000   612.0000 </r>
       <r>    -9.4452     0.0000   612.0000 </r>
       <r>    -9.3119     0.0000   612.0000 </r>
       <r>    -9.1785     0.0000   612.0000 </r>
       <r>    -9.0451     0.0000   612.0000 </r>
       <r>    -8.9117     0.0000   612.0000 </r>
       <r>    -8.7784     0.0000   612.0000 </r>
       <r>    -8.6450     0.0000   612.0000 </r>
       <r>    -8.5116     0.0000   612.0000 </r>
       <r>    -8.3782     0.0000   612.0000 </r>
       <r>    -8.2449     0.0000   612.0000 </r>
       <r>    -8.1115     0.0000   612.0000 </r>
       <r>    -7.9781     0.0000   612.0000 </r>
       <r>    -7.8447     0.0000   612.0000 </r>
       <r>    -7.7113     0.0000   612.0000 </r>
       <r>    -7.5780     0.0000   612.0000 </r>
       <r>    -7.4446     0.0000   612.0000 </r>
       <r>    -7.3112     0.0000   612.0000 </r>
       <r>    -7.1778     0.0000   612.0000 </r>
       <r>    -7.0445     0.0000   612.0000 </r>
       <r>    -6.9111     0.0000   612.0000 </r>
       <r>    -6.7777     0.0001   612.0000 </r>
       <r>    -6.6443     2.4082   612.3212 </r>
       <r>    -6.5110    11.9709   613.9178 </r>
       <r>    -6.3776     0.6159   614.0000 </r>
       <r>    -6.2442     0.0000   614.0000 </r>
       <r>    -6.1108     0.0000   614.0000 </r>
       <r>    -5.9774     0.0000   614.0000 </r>
       <r>    -5.8441     0.0000   614.0000 </r>
       <r>    -5.7107     0.0005   614.0001 </r>
       <r>    -5.5773     1.9432   614.2593 </r>
       <r>    -5.4439     4.6227   614.8758 </r>
       <r>    -5.3106    18.0032   617.2770 </r>
       <r>    -5.1772    24.7582   620.5792 </r>
       <r>    -5.0438    26.0114   624.0485 </r>
       <r>    -4.9104    32.4232   628.3730 </r>
       <r>    -4.7771    37.4876   633.3730 </r>
       <r>    -4.6437    41.9691   638.9707 </r>
       <r>    -4.5103    44.7078   644.9337 </r>
       <r>    -4.3769    46.3840   651.1203 </r>
       <r>    -4.2435    43.3888   656.9074 </r>
       <r>    -4.1102    41.0562   662.3833 </r>
       <r>    -3.9768    40.9917   667.8507 </r>
       <r>    -3.8434    37.0065   672.7865 </r>
       <r>    -3.7100    23.6681   675.9433 </r>
       <r>    -3.5767    34.3909   680.5302 </r>
       <r>    -3.4433    33.7897   685.0370 </r>
       <r>    -3.3099    33.0684   689.4476 </r>
       <r>    -3.1765    41.2111   694.9442 </r>
       <r>    -3.0432    40.6620   700.3676 </r>
       <r>    -2.9098    28.4515   704.1623 </r>
       <r>    -2.7764    42.5241   709.8341 </r>
       <r>    -2.6430    33.5819   714.3131 </r>
       <r>    -2.5096    41.4439   719.8408 </r>
       <r>    -2.3763    41.9550   725.4366 </r>
       <r>    -2.2429    48.0468   731.8450 </r>
       <r>    -2.1095    54.1990   739.0739 </r>
       <r>    -1.9761    55.3207   746.4524 </r>
       <r>    -1.8428    57.0601   754.0629 </r>
       <r>    -1.7094    56.3188   761.5745 </r>
       <r>    -1.5760    57.9793   769.3076 </r>
       <r>    -1.4426    57.2181   776.9392 </r>
       <r>    -1.3092    57.0747   784.5516 </r>
       <r>    -1.1759    60.7110   792.6491 </r>
       <r>    -1.0425    62.5513   800.9920 </r>
       <r>    -0.9091    60.4298   809.0519 </r>
       <r>    -0.7757    65.1172   817.7371 </r>
       <r>    -0.6424    61.2794   825.9104 </r>
       <r>    -0.5090    57.4635   833.5747 </r>
       <r>    -0.3756    64.4423   842.1698 </r>
       <r>    -0.2422    72.0286   851.7767 </r>
       <r>    -0.1089    68.7627   860.9481 </r>
       <r>     0.0245    72.1603   870.5726 </r>
       <r>     0.1579    74.6904   880.5346 </r>
       <r>     0.2913    77.8553   890.9187 </r>
       <r>     0.4247    84.7089   902.2169 </r>
       <r>     0.5580    84.4154   913.4760 </r>
       <r>     0.6914    89.9893   925.4785 </r>
       <r>     0.8248    86.1434   936.9681 </r>
       <r>     0.9582   102.3586   950.6203 </r>
       <r>     1.0915   100.9556   964.0855 </r>
       <r>     1.2249   115.7693   979.5265 </r>
       <r>     1.3583   109.1518   994.0848 </r>
       <r>     1.4917    85.9987  1005.5550 </r>
       <r>     1.6250    63.5624  1014.0328 </r>
       <r>     1.7584    60.4998  1022.1021 </r>
       <r>     1.8918    54.8029  1029.4115 </r>
       <r>     2.0252    18.7424  1031.9113 </r>
       <r>     2.1586     7.5110  1032.9131 </r>
       <r>     2.2919    24.0926  1036.1265 </r>
       <r>     2.4253    16.7108  1038.3554 </r>
       <r>     2.5587    11.9570  1039.9502 </r>
       <r>     2.6921     0.3737  1040.0000 </r>
       <r>     2.8254     0.0000  1040.0000 </r>
       <r>     2.9588     0.0000  1040.0000 </r>
       <r>     3.0922     0.0097  1040.0013 </r>
       <r>     3.2256     5.6455  1040.7543 </r>
       <r>     3.3589     1.9103  1041.0091 </r>
       <r>     3.4923    10.4722  1042.4058 </r>
       <r>     3.6257    11.9132  1043.9948 </r>
       <r>     3.7591     0.0393  1044.0000 </r>
       <r>     3.8925     0.0000  1044.0000 </r>
       <r>     4.0258     0.0000  1044.0000 </r>
       <r>     4.1592     0.0000  1044.0000 </r>
       <r>     4.2926     0.0000  1044.0000 </r>
       <r>     4.4260     0.0000  1044.0000 </r>
       <r>     4.5593     0.0000  1044.0000 </r>
       <r>     4.6927     0.0020  1044.0003 </r>
       <r>     4.8261     3.0870  1044.4120 </r>
       <r>     4.9595    11.3433  1045.9249 </r>
       <r>     5.0928     0.5627  1046.0000 </r>
       <r>     5.2262     0.0000  1046.0000 </r>
       <r>     5.3596     0.0000  1046.0000 </r>
       <r>     5.4930     0.0000  1046.0000 </r>
       <r>     5.6264     0.0002  1046.0000 </r>
       <r>     5.7597     0.9913  1046.1322 </r>
       <r>     5.8931     0.8828  1046.2500 </r>
       <r>     6.0265     0.0002  1046.2500 </r>
       <r>     6.1599     0.8909  1046.3688 </r>
       <r>     6.2932     5.0550  1047.0431 </r>
       <r>     6.4266     6.8101  1047.9514 </r>
       <r>     6.5600     0.3646  1048.0000 </r>
       <r>     6.6934     0.0136  1048.0018 </r>
       <r>     6.8267     2.4185  1048.3244 </r>
       <r>     6.9601     1.7784  1048.5616 </r>
       <r>     7.0935     1.4108  1048.7497 </r>
       <r>     7.2269     0.0060  1048.7506 </r>
       <r>     7.3603     1.7166  1048.9795 </r>
       <r>     7.4936     4.8496  1049.6263 </r>
       <r>     7.6270     2.5694  1049.9690 </r>
       <r>     7.7604     2.1246  1050.2524 </r>
       <r>     7.8938     3.4986  1050.7190 </r>
       <r>     8.0271     0.8780  1050.8361 </r>
       <r>     8.1605     6.5351  1051.7078 </r>
       <r>     8.2939     4.0037  1052.2418 </r>
       <r>     8.4273     5.2329  1052.9397 </r>
       <r>     8.5606     5.1297  1053.6239 </r>
       <r>     8.6940     3.8719  1054.1403 </r>
       <r>     8.8274     8.1283  1055.2245 </r>
       <r>     8.9608     6.7306  1056.1222 </r>
       <r>     9.0942     5.6019  1056.8693 </r>
       <r>     9.2275     5.4319  1057.5938 </r>
       <r>     9.3609     4.4135  1058.1825 </r>
       <r>     9.4943    10.2903  1059.5550 </r>
       <r>     9.6277    16.7089  1061.7836 </r>
       <r>     9.7610    14.0142  1063.6527 </r>
       <r>     9.8944    14.4389  1065.5786 </r>
       <r>    10.0278    11.1252  1067.0624 </r>
       <r>    10.1612    12.2093  1068.6908 </r>
       <r>    10.2945    29.2259  1072.5889 </r>
       <r>    10.4279    32.0477  1076.8633 </r>
       <r>    10.5613    30.4735  1080.9278 </r>
       <r>    10.6947    36.0550  1085.7367 </r>
       <r>    10.8281    27.0056  1089.3386 </r>
       <r>    10.9614    26.6343  1092.8910 </r>
       <r>    11.0948    27.2935  1096.5314 </r>
       <r>    11.2282    31.6781  1100.7565 </r>
       <r>    11.3616    22.7952  1103.7969 </r>
       <r>    11.4949    29.8701  1107.7808 </r>
       <r>    11.6283    38.0296  1112.8531 </r>
       <r>    11.7617    37.0666  1117.7969 </r>
       <r>    11.8951    30.4519  1121.8585 </r>
       <r>    12.0285    29.4245  1125.7831 </r>
       <r>    12.1618    36.3299  1130.6287 </r>
       <r>    12.2952    30.4576  1134.6910 </r>
       <r>    12.4286    33.9832  1139.2236 </r>
       <r>    12.5620    35.2840  1143.9297 </r>
       <r>    12.6953    35.8504  1148.7113 </r>
       <r>    12.8287    30.9680  1152.8417 </r>
       <r>    12.9621    38.8215  1158.0196 </r>
       <r>    13.0955    35.4456  1162.7472 </r>
       <r>    13.2288    32.3448  1167.0613 </r>
       <r>    13.3622    37.6063  1172.0771 </r>
       <r>    13.4956    32.3933  1176.3976 </r>
       <r>    13.6290    26.5263  1179.9356 </r>
       <r>    13.7624    32.6422  1184.2893 </r>
       <r>    13.8957    34.4597  1188.8854 </r>
       <r>    14.0291    13.0667  1190.6282 </r>
       <r>    14.1625     9.7792  1191.9326 </r>
       <r>    14.2959    14.7766  1193.9034 </r>
       <r>    14.4292    28.4015  1197.6915 </r>
       <r>    14.5626    40.9555  1203.1541 </r>
       <r>    14.6960    46.6603  1209.3775 </r>
       <r>    14.8294    49.7521  1216.0133 </r>
       <r>    14.9627    35.0418  1220.6870 </r>
       <r>    15.0961    32.7877  1225.0601 </r>
       <r>    15.2295    33.3999  1229.5149 </r>
       <r>    15.3629    32.7176  1233.8787 </r>
       <r>    15.4963    21.0506  1236.6864 </r>
       <r>    15.6296    32.5200  1241.0238 </r>
       <r>    15.7630    23.5030  1244.1585 </r>
       <r>    15.8964    23.8970  1247.3458 </r>
       <r>    16.0298    29.2688  1251.2496 </r>
       <r>    16.1631    22.8524  1254.2976 </r>
       <r>    16.2965    18.1940  1256.7243 </r>
       <r>    16.4299    14.6371  1258.6765 </r>
       <r>    16.5633    15.6762  1260.7674 </r>
       <r>    16.6966    19.4195  1263.3575 </r>
       <r>    16.8300     5.7012  1264.1179 </r>
       <r>    16.9634     8.0931  1265.1973 </r>
       <r>    17.0968     3.0584  1265.6052 </r>
       <r>    17.2302     2.9443  1265.9979 </r>
       <r>    17.3635     0.0154  1266.0000 </r>
       <r>    17.4969     0.0000  1266.0000 </r>
       <r>    17.6303     0.0000  1266.0000 </r>
       <r>    17.7637     0.0000  1266.0000 </r>
       <r>    17.8970     0.0000  1266.0000 </r>
       <r>    18.0304     0.0000  1266.0000 </r>
       <r>    18.1638     0.0000  1266.0000 </r>
       <r>    18.2972     0.0000  1266.0000 </r>
       <r>    18.4305     0.0000  1266.0000 </r>
       <r>    18.5639     0.0000  1266.0000 </r>
       <r>    18.6973     0.0000  1266.0000 </r>
       <r>    18.8307     0.0000  1266.0000 </r>
       <r>    18.9641     0.0000  1266.0000 </r>
      </set>
     </set>
    </array>
   </total>
  </dos>
 </calculation>
 <structure name="finalpos" >
  <crystal>
   <varray name="basis" >
    <v>       0.00000000      12.28047342       0.00000000 </v>
    <v>       9.14270205       0.00000000       0.00000000 </v>
    <v>       0.00000000      -2.76826177     -11.30069772 </v>
   </varray>
   <i name="volume">   1268.80515525 </i>
   <varray name="rec_basis" >
    <v>       0.00000000       0.08143009      -0.01994742 </v>
    <v>       0.10937686      -0.00000000       0.00000000 </v>
    <v>       0.00000000       0.00000000      -0.08849011 </v>
   </varray>
  </crystal>
  <varray name="positions" >
   <v>       0.66571834       0.00154177       0.15555855 </v>
   <v>       0.66206588       0.99927619       0.66387097 </v>
   <v>       0.66571834       0.33179156       0.15555855 </v>
   <v>       0.66206588       0.33405715       0.66387097 </v>
   <v>       0.65868348       0.66666667       0.14796089 </v>
   <v>       0.65599310       0.66666667       0.66855776 </v>
   <v>       0.84157513       0.16666667       0.84368206 </v>
   <v>       0.83770637       0.49609409       0.33848670 </v>
   <v>       0.84260969       0.49851380       0.84448467 </v>
   <v>       0.83770637       0.83723924       0.33848670 </v>
   <v>       0.84260969       0.83481953       0.84448467 </v>
   <v>       0.61826252       0.16666667       0.39805611 </v>
   <v>       0.58748196       0.16666667       0.89979124 </v>
   <v>       0.62103761       0.49282166       0.40542124 </v>
   <v>       0.58100790       0.49918776       0.89529487 </v>
   <v>       0.62103761       0.84051167       0.40542124 </v>
   <v>       0.58100790       0.83414557       0.89529487 </v>
   <v>       0.91487592       0.00125773       0.10689767 </v>
   <v>       0.88796110       0.03815606       0.57506267 </v>
   <v>       0.91487592       0.33207561       0.10689767 </v>
   <v>       0.88796110       0.29517727       0.57506267 </v>
   <v>       0.91473363       0.66666667       0.10626795 </v>
   <v>       0.90621178       0.66666667       0.59643104 </v>
   <v>       0.16899375       0.16666667       0.16411154 </v>
   <v>       0.16280491       0.16666667       0.63913304 </v>
   <v>       0.16861424       0.49976408       0.16422344 </v>
   <v>       0.14309398       0.49645010       0.65176566 </v>
   <v>       0.16861424       0.83356925       0.16422344 </v>
   <v>       0.14309398       0.83688324       0.65176566 </v>
   <v>       0.35734344       0.99942749       0.34862045 </v>
   <v>       0.33223566       0.99758870       0.84211219 </v>
   <v>       0.35734344       0.33390584       0.34862045 </v>
   <v>       0.33223566       0.33574463       0.84211219 </v>
   <v>       0.36603224       0.66666667       0.34816586 </v>
   <v>       0.33037457       0.66666667       0.83765864 </v>
   <v>       0.08559080       0.00454617       0.39562720 </v>
   <v>       0.09395592       0.00238447       0.89995755 </v>
   <v>       0.08559080       0.32878716       0.39562720 </v>
   <v>       0.09395592       0.33094886       0.89995755 </v>
   <v>       0.09501858       0.66666667       0.39587254 </v>
   <v>       0.09296174       0.66666667       0.90294678 </v>
   <v>       0.41011075       0.16666667       0.09824123 </v>
   <v>       0.41177689       0.16666667       0.60731124 </v>
   <v>       0.41054589       0.49762235       0.09879190 </v>
   <v>       0.40712650       0.49800709       0.60716632 </v>
   <v>       0.41054589       0.83571098       0.09879190 </v>
   <v>       0.40712650       0.83532624       0.60716632 </v>
   <v>       0.00576302       0.16666667       0.12596136 </v>
   <v>       0.02527852       0.16666667       0.66364333 </v>
   <v>       0.00499611       0.50020767       0.12731016 </v>
   <v>       0.98032387       0.48189998       0.60923634 </v>
   <v>       0.00499611       0.83312566       0.12731016 </v>
   <v>       0.98032387       0.85143335       0.60923634 </v>
   <v>       0.52030256       0.00080068       0.37699769 </v>
   <v>       0.49405128       0.00222397       0.87217811 </v>
   <v>       0.52030256       0.33253265       0.37699769 </v>
   <v>       0.49405128       0.33110936       0.87217811 </v>
   <v>       0.52817637       0.66666667       0.38074311 </v>
   <v>       0.49350083       0.66666667       0.87217414 </v>
   <v>       0.66384653       0.16666667       0.26068031 </v>
   <v>       0.67265067       0.16666667       0.78588208 </v>
   <v>       0.66132471       0.50773985       0.25984010 </v>
   <v>       0.67254254       0.50256990       0.78946305 </v>
   <v>       0.66132471       0.82559348       0.25984010 </v>
   <v>       0.67254254       0.83076344       0.78946305 </v>
   <v>       0.82394919       0.97015892       0.20684002 </v>
   <v>       0.82614962       0.99637856       0.72544931 </v>
   <v>       0.82394919       0.36317441       0.20684002 </v>
   <v>       0.82614962       0.33695477       0.72544931 </v>
   <v>       0.82830365       0.66666667       0.21712176 </v>
   <v>       0.82729338       0.66666667       0.72187677 </v>
   <v>       0.77215475       0.95684167       0.43900558 </v>
   <v>       0.83650299       0.99948185       0.94975422 </v>
   <v>       0.77215475       0.37649166       0.43900558 </v>
   <v>       0.83650299       0.33385148       0.94975422 </v>
   <v>       0.81963856       0.66666667       0.43830047 </v>
   <v>       0.83878921       0.66666667       0.94875717 </v>
   <v>       0.67901156       0.16666667       0.04947644 </v>
   <v>       0.65544417       0.16666667       0.56162875 </v>
   <v>       0.66678300       0.50188796       0.04508640 </v>
   <v>       0.65522689       0.50494687       0.56886753 </v>
   <v>       0.66678300       0.83144537       0.04508640 </v>
   <v>       0.65522689       0.82838647       0.56886753 </v>
   <v>       0.50004897       0.00090154       0.11435983 </v>
   <v>       0.49925531       0.99913269       0.63942449 </v>
   <v>       0.50004897       0.33243179       0.11435983 </v>
   <v>       0.49925531       0.33420064       0.63942449 </v>
   <v>       0.49444521       0.66666667       0.11473606 </v>
   <v>       0.49304559       0.66666667       0.63898564 </v>
   <v>       0.00321851       0.16666667       0.88717338 </v>
   <v>       0.00187175       0.50600484       0.37020152 </v>
   <v>       0.00490682       0.49906029       0.87520021 </v>
   <v>       0.00187175       0.82732849       0.37020152 </v>
   <v>       0.00490682       0.83427304       0.87520021 </v>
   <v>       0.18141308       0.99694774       0.28642952 </v>
   <v>       0.17199316       0.98477477       0.78171800 </v>
   <v>       0.18141308       0.33638559       0.28642952 </v>
   <v>       0.17199316       0.34855857       0.78171800 </v>
   <v>       0.18175228       0.66666667       0.28291363 </v>
   <v>       0.16175721       0.66666667       0.77489530 </v>
   <v>       0.33878830       0.16666667       0.22517921 </v>
   <v>       0.32204866       0.16666667       0.72064299 </v>
   <v>       0.33985943       0.49989000       0.22479288 </v>
   <v>       0.32239702       0.50279842       0.72040611 </v>
   <v>       0.33985943       0.83344334       0.22479288 </v>
   <v>       0.32239702       0.83053491       0.72040611 </v>
   <v>       0.34345979       0.16666667       0.44753556 </v>
   <v>       0.32148765       0.16666667       0.94336931 </v>
   <v>       0.34470094       0.50237068       0.44720803 </v>
   <v>       0.32505030       0.50308164       0.94482677 </v>
   <v>       0.34470094       0.83096265       0.44720803 </v>
   <v>       0.32505030       0.83025169       0.94482677 </v>
   <v>       0.17569477       0.99866992       0.05885825 </v>
   <v>       0.18077804       0.99155038       0.55007618 </v>
   <v>       0.17569477       0.33466341       0.05885825 </v>
   <v>       0.18077804       0.34178295       0.55007618 </v>
   <v>       0.17616643       0.66666667       0.05882686 </v>
   <v>       0.16521950       0.66666667       0.55504875 </v>
   <v>       0.95120502       0.16666667       0.37388018 </v>
  </varray>
 </structure>
</modeling>
