 running    4 mpi-ranks, on    1 nodes
 distrk:  each k-point on    1 cores,    4 groups
 distr:  one band on    1 cores,    1 groups
 OpenACC runtime initialized ...    4 GPUs detected
 vasp.6.4.2 20Jul23 (build Nov 12 2023 22:16:35) complex                         
 POSCAR found type information on POSCAR GaO P 
 POSCAR found :  3 types and     119 ions
 scaLAPACK will be used selectively (only on CPU)
 LDA part: xc-table for Pade appr. of Perdew
 POSCAR, INCAR and KPOINTS ok, starting setup
 FFT: planning ... GRIDC
 FFT: planning ... GRID_SOFT
 FFT: planning ... GRID
 WAVECAR not read
 initial charge from wavefunction
 entering main loop
       N       E                     dE             d eps       ncg     rms          ort
DAV:   1    -0.213837556865E+05   -0.21384E+05   -0.54464E+05  5000   0.752E+03
DAV:   2    -0.657905951139E+05   -0.44407E+05   -0.42916E+05  5000   0.123E+03
DAV:   3    -0.707482790850E+05   -0.49577E+04   -0.45061E+04  5000   0.373E+02
DAV:   4    -0.714689713326E+05   -0.72069E+03   -0.64274E+03  5000   0.118E+02
DAV:   5    -0.390609646811E+05    0.32408E+05   -0.71904E+02  5000   0.596E+01
 gam= 0.000 g(H,U,f)=  0.798E+05 0.119E+05 0.248E+01 ort(H,U,f) = 0.000E+00 0.000E+00 0.000E+00
SDA:   6     0.324973385964E+05    0.71558E+05   -0.71904E+02  5000   0.917E+05 0.000E+00
 gam= 0.000 trial= 0.400  step= 0.509 mean= 0.400
 gam= 0.959 g(H,U,f)=  0.496E+05 0.291E+05 0.925E+04 ort(H,U,f) =-0.114E+05-0.947E+04 0.124E+03
CGA:   7     0.135252948245E+05   -0.18972E+05   -0.23309E+05  5000   0.879E+05-0.208E+05
 gam= 0.959 trial= 0.405  step= 0.226 mean= 0.405
 gam= 0.496 g(H,U,f)=  0.316E+05 0.119E+05 0.894E+02 ort(H,U,f) = 0.643E+04 0.857E+04 0.364E+02
CGA:   8     0.927454629097E+04   -0.42507E+04   -0.76888E+04  5000   0.436E+05 0.150E+05
 gam= 0.496 trial= 0.396  step= 0.192 mean= 0.396
 gam= 0.930 g(H,U,f)=  0.250E+05 0.151E+05 0.466E+03 ort(H,U,f) = 0.377E+04-0.943E+04-0.419E+03
CGA:   9     0.714748726742E+04   -0.21271E+04   -0.48965E+04  5000   0.406E+05-0.607E+04
 gam= 0.930 trial= 0.386  step= 0.203 mean= 0.386
 gam= 0.721 g(H,U,f)=  0.207E+05 0.827E+04 0.283E+03 ort(H,U,f) = 0.647E+04-0.156E+01 0.199E+03
CGA:  10     0.547015118115E+04   -0.16773E+04   -0.35350E+04  5000   0.293E+05 0.667E+04
 gam= 0.721 trial= 0.377  step= 0.218 mean= 0.377
 gam= 0.339 g(H,U,f)=  0.915E+04 0.768E+03 0.627E+00 ort(H,U,f) = 0.415E+04 0.616E+03-0.153E+02
CGA:  11     0.318626654728E+04   -0.22839E+04   -0.37075E+04  5000   0.992E+04 0.475E+04
 gam= 0.339 trial= 0.369  step= 0.269 mean= 0.369
 gam= 0.643 g(H,U,f)=  0.582E+04 0.551E+03 0.104E+01 ort(H,U,f) = 0.105E+04 0.844E+02-0.617E+00
CGA:  12     0.183628563295E+04   -0.13500E+04   -0.15483E+04  5000   0.638E+04 0.113E+04
 gam= 0.643 trial= 0.364  step= 0.345 mean= 0.364
 gam= 0.407 g(H,U,f)=  0.238E+04 0.221E+03 0.322E+00 ort(H,U,f) = 0.522E+03 0.320E+03 0.500E+00
CGA:  13     0.627086330310E+03   -0.12092E+04   -0.12258E+04  5000   0.260E+04 0.842E+03
 gam= 0.407 trial= 0.363  step= 0.483 mean= 0.363
 gam= 0.500 g(H,U,f)=  0.110E+04 0.200E+03 0.169E+01 ort(H,U,f) = 0.396E+02 0.263E+03 0.200E+01
CGA:  14    -0.111503208166E+03   -0.73859E+03   -0.70953E+03  5000   0.130E+04 0.305E+03
 gam= 0.500 trial= 0.369  step= 0.591 mean= 0.369
 gam= 0.591 g(H,U,f)=  0.661E+03 0.106E+03 0.264E+00 ort(H,U,f) =-0.215E+03 0.247E+03 0.105E+00
CGA:  15    -0.546705777889E+03   -0.43520E+03   -0.42832E+03  5000   0.768E+03 0.326E+02
 gam= 0.591 trial= 0.380  step= 0.527 mean= 0.380
 gam= 0.540 g(H,U,f)=  0.337E+03 0.716E+02 0.607E+01 ort(H,U,f) =-0.389E+02-0.443E+01 0.176E+01
CGA:  16    -0.751074522845E+03   -0.20437E+03   -0.20754E+03  5000   0.414E+03-0.416E+02
 gam= 0.540 trial= 0.388  step= 0.436 mean= 0.388
 gam= 0.575 g(H,U,f)=  0.181E+03 0.565E+02 0.996E+00 ort(H,U,f) = 0.297E+02-0.297E+02 0.244E+00
CGA:  17    -0.836546829076E+03   -0.85472E+02   -0.85378E+02  5000   0.238E+03 0.271E+00
 gam= 0.575 trial= 0.390  step= 0.455 mean= 0.390
 gam= 0.545 g(H,U,f)=  0.937E+02 0.363E+02 0.674E-02 ort(H,U,f) = 0.626E+01 0.653E+00-0.584E-01
CGA:  18    -0.891223666296E+03   -0.54677E+02   -0.54308E+02  5000   0.130E+03 0.686E+01
 gam= 0.545 trial= 0.393  step= 0.488 mean= 0.393
 gam= 0.573 g(H,U,f)=  0.541E+02 0.204E+02 0.533E-03 ort(H,U,f) =-0.984E+01 0.140E+02-0.489E-02
CGA:  19    -0.924100011657E+03   -0.32876E+02   -0.32625E+02  5000   0.745E+02 0.415E+01
 gam= 0.573 trial= 0.398  step= 0.550 mean= 0.398
 gam= 0.638 g(H,U,f)=  0.361E+02 0.114E+02 0.434E-04 ort(H,U,f) =-0.108E+02 0.132E+02-0.206E-03
CGA:  20    -0.945436758011E+03   -0.21337E+02   -0.21136E+02  5000   0.475E+02 0.240E+01
 gam= 0.638 trial= 0.406  step= 0.545 mean= 0.406
 gam= 0.567 g(H,U,f)=  0.212E+02 0.572E+01 0.784E-02 ort(H,U,f) =-0.739E+01 0.849E+01 0.203E-02
CGA:  21    -0.958891548632E+03   -0.13455E+02   -0.13374E+02  5000   0.270E+02 0.111E+01
 gam= 0.567 trial= 0.413  step= 0.539 mean= 0.413
 gam= 0.580 g(H,U,f)=  0.128E+02 0.284E+01 0.366E-01 ort(H,U,f) =-0.299E+01 0.351E+01 0.530E-01
CGA:  22    -0.966368749998E+03   -0.74772E+01   -0.74388E+01  5000   0.156E+02 0.572E+00
 gam= 0.580 trial= 0.419  step= 0.533 mean= 0.419
 gam= 0.546 g(H,U,f)=  0.661E+01 0.175E+01 0.172E+00 ort(H,U,f) =-0.337E+00 0.589E+00-0.276E+00
CGA:  23    -0.970614141797E+03   -0.42454E+01   -0.42560E+01  5000   0.854E+01-0.241E-01
 gam= 0.546 trial= 0.425  step= 0.523 mean= 0.425
 gam= 0.561 g(H,U,f)=  0.360E+01 0.113E+01 0.620E-01 ort(H,U,f) =-0.214E+00 0.325E+00 0.994E-02
CGA:  24    -0.972848369490E+03   -0.22342E+01   -0.22272E+01  5000   0.479E+01 0.121E+00
 gam= 0.561 trial= 0.429  step= 0.537 mean= 0.429
 gam= 0.622 g(H,U,f)=  0.220E+01 0.754E+00 0.248E-01 ort(H,U,f) =-0.245E+00 0.335E+00-0.247E-01
CGA:  25    -0.974155386279E+03   -0.13070E+01   -0.13026E+01  5000   0.298E+01 0.654E-01
 gam= 0.622 trial= 0.435  step= 0.527 mean= 0.435
 gam= 0.586 g(H,U,f)=  0.130E+01 0.440E+00 0.559E-02 ort(H,U,f) =-0.373E+00 0.380E+00 0.276E-02
CGA:  26    -0.974951164374E+03   -0.79578E+00   -0.79530E+00  5000   0.175E+01 0.884E-02
 gam= 0.586 trial= 0.439  step= 0.525 mean= 0.439
 gam= 0.562 g(H,U,f)=  0.748E+00 0.230E+00 0.349E-02 ort(H,U,f) =-0.253E+00 0.258E+00-0.184E-02
CGA:  27    -0.975410894918E+03   -0.45973E+00   -0.45954E+00  5000   0.982E+00 0.359E-02
 gam= 0.562 trial= 0.444  step= 0.577 mean= 0.444
 gam= 0.597 g(H,U,f)=  0.467E+00 0.116E+00 0.330E-02 ort(H,U,f) =-0.123E+00 0.120E+00 0.188E-02
CGA:  28    -0.975694448800E+03   -0.28355E+00   -0.28368E+00  5000   0.586E+00-0.819E-03
 gam= 0.597 trial= 0.450  step= 0.584 mean= 0.450
 gam= 0.514 g(H,U,f)=  0.241E+00 0.610E-01 0.162E-04 ort(H,U,f) =-0.291E-01 0.310E-01 0.120E-03
CGA:  29    -0.975865553525E+03   -0.17110E+00   -0.17096E+00  5000   0.302E+00 0.196E-02
 gam= 0.514 trial= 0.457  step= 0.607 mean= 0.457
 gam= 0.585 g(H,U,f)=  0.135E+00 0.410E-01 0.897E-04 ort(H,U,f) =-0.106E-01 0.114E-01-0.241E-03
CGA:  30    -0.975957478511E+03   -0.91925E-01   -0.91877E-01  5000   0.177E+00 0.594E-03
 gam= 0.585 trial= 0.465  step= 0.640 mean= 0.465
 gam= 0.638 g(H,U,f)=  0.864E-01 0.262E-01 0.948E-05 ort(H,U,f) =-0.959E-02 0.970E-02-0.174E-05
CGA:  31    -0.976014087685E+03   -0.56609E-01   -0.56599E-01  5000   0.113E+00 0.107E-03
 gam= 0.638 trial= 0.473  step= 0.569 mean= 0.473
 gam= 0.583 g(H,U,f)=  0.487E-01 0.169E-01 0.541E-04 ort(H,U,f) =-0.929E-02 0.935E-02 0.409E-04
CGA:  32    -0.976046154586E+03   -0.32067E-01   -0.32062E-01  5000   0.657E-01 0.102E-03
 gam= 0.583 trial= 0.478  step= 0.578 mean= 0.478
 gam= 0.644 g(H,U,f)=  0.324E-01 0.984E-02 0.183E-04 ort(H,U,f) =-0.760E-02 0.773E-02 0.501E-04
CGA:  33    -0.976065164889E+03   -0.19010E-01   -0.19001E-01  5000   0.423E-01 0.184E-03
 gam= 0.644 trial= 0.483  step= 0.556 mean= 0.483
 gam= 0.542 g(H,U,f)=  0.174E-01 0.546E-02 0.131E-04 ort(H,U,f) =-0.428E-02 0.446E-02-0.258E-04
CGA:  34    -0.976076954558E+03   -0.11790E-01   -0.11784E-01  5000   0.229E-01 0.147E-03
 gam= 0.542 trial= 0.487  step= 0.580 mean= 0.487
 gam= 0.587 g(H,U,f)=  0.105E-01 0.295E-02 0.204E-04 ort(H,U,f) =-0.216E-02 0.224E-02-0.156E-04
CGA:  35    -0.976083619349E+03   -0.66648E-02   -0.66617E-02  5000   0.134E-01 0.661E-04
 gam= 0.587 trial= 0.491  step= 0.626 mean= 0.491
 gam= 0.606 g(H,U,f)=  0.649E-02 0.166E-02 0.450E-05 ort(H,U,f) =-0.719E-03 0.733E-03 0.342E-06
CGA:  36    -0.976087841981E+03   -0.42226E-02   -0.42217E-02  5000   0.815E-02 0.144E-04
 gam= 0.606 trial= 0.498  step= 0.577 mean= 0.498
 gam= 0.000 g(H,U,f)=  0.376E-02 0.106E-02 0.155E-05 ort(H,U,f) =-0.343E-03 0.338E-03-0.607E-06
SDA:  37    -0.976090194444E+03   -0.23525E-02   -0.23527E-02  5000   0.482E-02-0.626E-05
 gam= 0.000 trial= 0.502  step= 0.939 mean= 0.502
 gam= 0.466 g(H,U,f)=  0.180E-02 0.442E-03 0.747E-05 ort(H,U,f) =-0.604E-03 0.593E-03 0.585E-06
CGA:  38    -0.976092454407E+03   -0.22600E-02   -0.22622E-02  5000   0.225E-02-0.101E-04
 gam= 0.466 trial= 0.524  step= 0.756 mean= 0.524
 gam= 0.296 g(H,U,f)=  0.557E-03 0.107E-03 0.804E-06 ort(H,U,f) =-0.361E-03 0.349E-03 0.252E-05
CGA:  39    -0.976093300385E+03   -0.84598E-03   -0.84713E-03  5000   0.665E-03-0.992E-05
 gam= 0.296 trial= 0.535  step= 0.713 mean= 0.535
 gam= 0.392 g(H,U,f)=  0.240E-03 0.204E-04 0.780E-07 ort(H,U,f) =-0.885E-04 0.802E-04-0.197E-06
CGA:  40    -0.976093535507E+03   -0.23512E-03   -0.23587E-03  5000   0.261E-03-0.846E-05
 gam= 0.392 trial= 0.544  step= 0.656 mean= 0.544
 gam= 0.293 g(H,U,f)=  0.729E-04 0.363E-05 0.165E-07 ort(H,U,f) =-0.145E-04 0.129E-04 0.763E-07
CGA:  41    -0.976093619908E+03   -0.84401E-04   -0.84486E-04  5000   0.765E-04-0.152E-05
 gam= 0.293 trial= 0.550  step= 0.603 mean= 0.550
 gam= 0.285 g(H,U,f)=  0.213E-04 0.414E-06 0.853E-07 ort(H,U,f) =-0.427E-06 0.557E-06 0.668E-07
CGA:  42    -0.976093642836E+03   -0.22928E-04   -0.22922E-04  5000   0.218E-04 0.197E-06
 gam= 0.285 trial= 0.553  step= 0.615 mean= 0.553
 gam= 0.353 g(H,U,f)=  0.738E-05 0.300E-06 0.199E-07 ort(H,U,f) =-0.289E-06-0.231E-06 0.500E-07
CGA:  43    -0.976093649537E+03   -0.67003E-05   -0.67146E-05  5000   0.770E-05-0.470E-06
 gam= 0.353 trial= 0.556  step= 0.694 mean= 0.556
 final diagonalization
   1 F= -.97609365E+03 E0= -.97609178E+03  d E =-.373740E-02
 writing wavefunctions
Warning: ieee_invalid is signaling
Warning: ieee_divide_by_zero is signaling
Warning: ieee_underflow is signaling
Warning: ieee_inexact is signaling
FORTRAN STOP
Warning: ieee_invalid is signaling
Warning: ieee_divide_by_zero is signaling
Warning: ieee_underflow is signaling
Warning: ieee_inexact is signaling
FORTRAN STOP
Warning: ieee_invalid is signaling
Warning: ieee_divide_by_zero is signaling
Warning: ieee_underflow is signaling
Warning: ieee_inexact is signaling
FORTRAN STOP
Warning: ieee_invalid is signaling
Warning: ieee_divide_by_zero is signaling
Warning: ieee_underflow is signaling
Warning: ieee_inexact is signaling
FORTRAN STOP
