       N       E                     dE             d eps       ncg     rms          ort
DAV:   1    -0.213837556865E+05   -0.21384E+05   -0.54464E+05  5000   0.752E+03
DAV:   2    -0.657905951139E+05   -0.44407E+05   -0.42916E+05  5000   0.123E+03
DAV:   3    -0.707482790850E+05   -0.49577E+04   -0.45061E+04  5000   0.373E+02
DAV:   4    -0.714689713326E+05   -0.72069E+03   -0.64274E+03  5000   0.118E+02
DAV:   5    -0.390609646811E+05    0.32408E+05   -0.71904E+02  5000   0.596E+01
SDA:   6     0.324973385964E+05    0.71558E+05   -0.71904E+02  5000   0.917E+05 0.000E+00
CGA:   7     0.135252948245E+05   -0.18972E+05   -0.23309E+05  5000   0.879E+05-0.208E+05
CGA:   8     0.927454629097E+04   -0.42507E+04   -0.76888E+04  5000   0.436E+05 0.150E+05
CGA:   9     0.714748726742E+04   -0.21271E+04   -0.48965E+04  5000   0.406E+05-0.607E+04
CGA:  10     0.547015118115E+04   -0.16773E+04   -0.35350E+04  5000   0.293E+05 0.667E+04
CGA:  11     0.318626654728E+04   -0.22839E+04   -0.37075E+04  5000   0.992E+04 0.475E+04
CGA:  12     0.183628563295E+04   -0.13500E+04   -0.15483E+04  5000   0.638E+04 0.113E+04
CGA:  13     0.627086330310E+03   -0.12092E+04   -0.12258E+04  5000   0.260E+04 0.842E+03
CGA:  14    -0.111503208166E+03   -0.73859E+03   -0.70953E+03  5000   0.130E+04 0.305E+03
CGA:  15    -0.546705777889E+03   -0.43520E+03   -0.42832E+03  5000   0.768E+03 0.326E+02
CGA:  16    -0.751074522845E+03   -0.20437E+03   -0.20754E+03  5000   0.414E+03-0.416E+02
CGA:  17    -0.836546829076E+03   -0.85472E+02   -0.85378E+02  5000   0.238E+03 0.271E+00
CGA:  18    -0.891223666296E+03   -0.54677E+02   -0.54308E+02  5000   0.130E+03 0.686E+01
CGA:  19    -0.924100011657E+03   -0.32876E+02   -0.32625E+02  5000   0.745E+02 0.415E+01
CGA:  20    -0.945436758011E+03   -0.21337E+02   -0.21136E+02  5000   0.475E+02 0.240E+01
CGA:  21    -0.958891548632E+03   -0.13455E+02   -0.13374E+02  5000   0.270E+02 0.111E+01
CGA:  22    -0.966368749998E+03   -0.74772E+01   -0.74388E+01  5000   0.156E+02 0.572E+00
CGA:  23    -0.970614141797E+03   -0.42454E+01   -0.42560E+01  5000   0.854E+01-0.241E-01
CGA:  24    -0.972848369490E+03   -0.22342E+01   -0.22272E+01  5000   0.479E+01 0.121E+00
CGA:  25    -0.974155386279E+03   -0.13070E+01   -0.13026E+01  5000   0.298E+01 0.654E-01
CGA:  26    -0.974951164374E+03   -0.79578E+00   -0.79530E+00  5000   0.175E+01 0.884E-02
CGA:  27    -0.975410894918E+03   -0.45973E+00   -0.45954E+00  5000   0.982E+00 0.359E-02
CGA:  28    -0.975694448800E+03   -0.28355E+00   -0.28368E+00  5000   0.586E+00-0.819E-03
CGA:  29    -0.975865553525E+03   -0.17110E+00   -0.17096E+00  5000   0.302E+00 0.196E-02
CGA:  30    -0.975957478511E+03   -0.91925E-01   -0.91877E-01  5000   0.177E+00 0.594E-03
CGA:  31    -0.976014087685E+03   -0.56609E-01   -0.56599E-01  5000   0.113E+00 0.107E-03
CGA:  32    -0.976046154586E+03   -0.32067E-01   -0.32062E-01  5000   0.657E-01 0.102E-03
CGA:  33    -0.976065164889E+03   -0.19010E-01   -0.19001E-01  5000   0.423E-01 0.184E-03
CGA:  34    -0.976076954558E+03   -0.11790E-01   -0.11784E-01  5000   0.229E-01 0.147E-03
CGA:  35    -0.976083619349E+03   -0.66648E-02   -0.66617E-02  5000   0.134E-01 0.661E-04
CGA:  36    -0.976087841981E+03   -0.42226E-02   -0.42217E-02  5000   0.815E-02 0.144E-04
SDA:  37    -0.976090194444E+03   -0.23525E-02   -0.23527E-02  5000   0.482E-02-0.626E-05
CGA:  38    -0.976092454407E+03   -0.22600E-02   -0.22622E-02  5000   0.225E-02-0.101E-04
CGA:  39    -0.976093300385E+03   -0.84598E-03   -0.84713E-03  5000   0.665E-03-0.992E-05
CGA:  40    -0.976093535507E+03   -0.23512E-03   -0.23587E-03  5000   0.261E-03-0.846E-05
CGA:  41    -0.976093619908E+03   -0.84401E-04   -0.84486E-04  5000   0.765E-04-0.152E-05
CGA:  42    -0.976093642836E+03   -0.22928E-04   -0.22922E-04  5000   0.218E-04 0.197E-06
CGA:  43    -0.976093649537E+03   -0.67003E-05   -0.67146E-05  5000   0.770E-05-0.470E-06
   1 F= -.97609365E+03 E0= -.97609178E+03  d E =-.373740E-02
