 running    4 mpi-ranks, on    1 nodes
 distrk:  each k-point on    1 cores,    4 groups
 distr:  one band on    1 cores,    1 groups
 OpenACC runtime initialized ...    4 GPUs detected
 vasp.6.4.2 20Jul23 (build Nov 12 2023 22:16:35) complex                         
 POSCAR found type information on POSCAR GaO 
 POSCAR found :  2 types and     119 ions
 scaLAPACK will be used selectively (only on CPU)
 LDA part: xc-table for Pade appr. of Perdew
 POSCAR, INCAR and KPOINTS ok, starting setup
 FFT: planning ... GRIDC
 FFT: planning ... GRID_SOFT
 FFT: planning ... GRID
 WAVECAR not read
 initial charge from wavefunction
 entering main loop
       N       E                     dE             d eps       ncg     rms          ort
DAV:   1    -0.182083574447E+05   -0.18208E+05   -0.54531E+05  5000   0.751E+03
DAV:   2    -0.624907461101E+05   -0.44282E+05   -0.42793E+05  5000   0.122E+03
DAV:   3    -0.675314749242E+05   -0.50407E+04   -0.45396E+04  5000   0.373E+02
DAV:   4    -0.682847627092E+05   -0.75329E+03   -0.66020E+03  5000   0.120E+02
DAV:   5    -0.388232980294E+05    0.29461E+05   -0.74248E+02  5000   0.570E+01
 gam= 0.000 g(H,U,f)=  0.784E+05 0.984E+04 0.542E+01 ort(H,U,f) = 0.000E+00 0.000E+00 0.000E+00
SDA:   6     0.283660400857E+05    0.67189E+05   -0.74248E+02  5000   0.883E+05 0.000E+00
 gam= 0.000 trial= 0.400  step= 0.421 mean= 0.400
 gam= 0.706 g(H,U,f)=  0.372E+05 0.238E+05 0.129E+04 ort(H,U,f) =-0.749E+04-0.177E+05-0.222E+04
CGA:   7     0.104927441564E+05   -0.17873E+05   -0.18600E+05  5000   0.623E+05-0.274E+05
 gam= 0.706 trial= 0.401  step= 0.243 mean= 0.401
 gam= 0.388 g(H,U,f)=  0.162E+05 0.774E+04 0.234E+03 ort(H,U,f) = 0.113E+04 0.497E+04 0.311E+03
CGA:   8     0.531308110256E+04   -0.51797E+04   -0.52177E+04  5000   0.242E+05 0.642E+04
 gam= 0.388 trial= 0.393  step= 0.192 mean= 0.393
 gam= 0.542 g(H,U,f)=  0.112E+05 0.192E+04 0.479E+02 ort(H,U,f) = 0.238E+04 0.254E+03 0.296E+02
CGA:   9     0.332598613084E+04   -0.19871E+04   -0.25608E+04  5000   0.131E+05 0.266E+04
 gam= 0.542 trial= 0.383  step= 0.238 mean= 0.383
 gam= 1.030 g(H,U,f)=  0.761E+04 0.549E+04 0.408E+03 ort(H,U,f) = 0.202E+04 0.373E+03 0.351E+02
CGA:  10     0.219017695452E+04   -0.11358E+04   -0.17361E+04  5000   0.135E+05 0.243E+04
 gam= 1.030 trial= 0.376  step= 0.214 mean= 0.376
 gam= 0.394 g(H,U,f)=  0.479E+04 0.529E+03 0.761E+01 ort(H,U,f) = 0.812E+03 0.603E+03 0.205E+02
CGA:  11     0.117846738437E+04   -0.10117E+04   -0.17171E+04  5000   0.533E+04 0.144E+04
 gam= 0.394 trial= 0.368  step= 0.319 mean= 0.368
 gam= 0.474 g(H,U,f)=  0.221E+04 0.309E+03 0.563E+01 ort(H,U,f) = 0.589E+03 0.128E+03-0.327E+01
CGA:  12     0.283588528706E+03   -0.89488E+03   -0.93943E+03  5000   0.252E+04 0.714E+03
 gam= 0.474 trial= 0.365  step= 0.404 mean= 0.365
 gam= 0.442 g(H,U,f)=  0.996E+03 0.112E+03 0.666E+01 ort(H,U,f) = 0.562E+02 0.179E+03 0.592E+01
CGA:  13    -0.303614445192E+03   -0.58720E+03   -0.57798E+03  5000   0.111E+04 0.241E+03
 gam= 0.442 trial= 0.367  step= 0.501 mean= 0.367
 gam= 0.563 g(H,U,f)=  0.531E+03 0.942E+02 0.226E+01 ort(H,U,f) =-0.432E+02 0.876E+02-0.208E+01
CGA:  14    -0.614579422749E+03   -0.31096E+03   -0.30611E+03  5000   0.628E+03 0.424E+02
 gam= 0.563 trial= 0.374  step= 0.476 mean= 0.374
 gam= 0.538 g(H,U,f)=  0.303E+03 0.344E+02 0.487E+00 ort(H,U,f) =-0.746E+02 0.681E+02 0.843E+00
CGA:  15    -0.769771466563E+03   -0.15519E+03   -0.15511E+03  5000   0.338E+03-0.567E+01
 gam= 0.538 trial= 0.379  step= 0.510 mean= 0.379
 gam= 0.501 g(H,U,f)=  0.152E+03 0.162E+02 0.525E+00 ort(H,U,f) =-0.206E+02 0.118E+02 0.948E+00
CGA:  16    -0.854407885788E+03   -0.84636E+02   -0.85228E+02  5000   0.169E+03-0.786E+01
 gam= 0.501 trial= 0.386  step= 0.480 mean= 0.386
 gam= 0.495 g(H,U,f)=  0.727E+02 0.110E+02 0.459E-01 ort(H,U,f) =-0.667E+01 0.159E+01-0.539E-01
CGA:  17    -0.893709572037E+03   -0.39302E+02   -0.39663E+02  5000   0.838E+02-0.514E+01
 gam= 0.495 trial= 0.390  step= 0.505 mean= 0.390
 gam= 0.587 g(H,U,f)=  0.397E+02 0.935E+01 0.108E+00 ort(H,U,f) =-0.301E+01 0.105E+01-0.491E-01
CGA:  18    -0.914050299161E+03   -0.20341E+02   -0.20493E+02  5000   0.492E+02-0.201E+01
 gam= 0.587 trial= 0.396  step= 0.481 mean= 0.396
 gam= 0.515 g(H,U,f)=  0.200E+02 0.523E+01 0.378E-01 ort(H,U,f) =-0.432E+01 0.438E+01-0.215E-01
CGA:  19    -0.925590699763E+03   -0.11540E+02   -0.11536E+02  5000   0.253E+02 0.401E-01
 gam= 0.515 trial= 0.400  step= 0.484 mean= 0.400
 gam= 0.914 g(H,U,f)=  0.129E+02 0.763E+01 0.265E+01 ort(H,U,f) =-0.265E+01 0.160E+01-0.103E+01
CGA:  20    -0.931599833464E+03   -0.60091E+01   -0.61317E+01  5000   0.231E+02-0.208E+01
 gam= 0.914 trial= 0.405  step= 0.152 mean= 0.405
 gam= 0.633 g(H,U,f)=  0.966E+01 0.405E+01 0.933E+00 ort(H,U,f) = 0.386E+01 0.785E+00-0.207E+01
CGA:  21    -0.933572646854E+03   -0.19728E+01   -0.16114E+01  5000   0.146E+02 0.258E+01
 gam= 0.633 trial= 0.392  step= 0.269 mean= 0.392
 gam= 1.450 g(H,U,f)=  0.541E+01 0.141E+02 0.170E+01 ort(H,U,f) = 0.259E+01-0.263E+01-0.716E+00
CGA:  22    -0.935811376794E+03   -0.22387E+01   -0.21850E+01  5000   0.212E+02-0.758E+00
 gam= 1.450 trial= 0.386  step= 0.130 mean= 0.386
 gam= 0.395 g(H,U,f)=  0.420E+01 0.386E+01 0.329E+00 ort(H,U,f) =-0.222E+01 0.185E+01 0.537E+00
CGA:  23    -0.937232030621E+03   -0.14207E+01   -0.13077E+01  5000   0.839E+01 0.166E+00
 gam= 0.395 trial= 0.373  step= 0.192 mean= 0.373
 gam= 1.117 g(H,U,f)=  0.360E+01 0.556E+01 0.216E+00 ort(H,U,f) = 0.502E-01-0.642E+00 0.524E-01
CGA:  24    -0.937929200512E+03   -0.69717E+00   -0.81272E+00  5000   0.938E+01-0.540E+00
 gam= 1.117 trial= 0.364  step= 0.141 mean= 0.364
 gam= 0.617 g(H,U,f)=  0.295E+01 0.267E+01 0.164E+00 ort(H,U,f) = 0.717E-01-0.595E-01-0.259E+00
CGA:  25    -0.938526799863E+03   -0.59760E+00   -0.62001E+00  5000   0.578E+01-0.247E+00
 gam= 0.617 trial= 0.353  step= 0.182 mean= 0.353
 gam= 0.814 g(H,U,f)=  0.231E+01 0.225E+01 0.150E+00 ort(H,U,f) = 0.600E+00-0.620E+00-0.177E-02
CGA:  26    -0.939042184658E+03   -0.51538E+00   -0.51354E+00  5000   0.471E+01-0.227E-01
 gam= 0.814 trial= 0.344  step= 0.192 mean= 0.344
 gam= 0.894 g(H,U,f)=  0.175E+01 0.229E+01 0.172E+00 ort(H,U,f) = 0.468E+00-0.333E+00-0.165E+00
CGA:  27    -0.939491379162E+03   -0.44919E+00   -0.44907E+00  5000   0.421E+01-0.308E-01
 gam= 0.894 trial= 0.337  step= 0.154 mean= 0.337
 gam= 0.618 g(H,U,f)=  0.148E+01 0.102E+01 0.974E-01 ort(H,U,f) = 0.192E+00-0.341E+00-0.397E-01
CGA:  28    -0.939784201685E+03   -0.29282E+00   -0.32186E+00  5000   0.260E+01-0.189E+00
 gam= 0.618 trial= 0.327  step= 0.196 mean= 0.327
 gam= 0.929 g(H,U,f)=  0.116E+01 0.116E+01 0.959E-01 ort(H,U,f) = 0.240E+00-0.166E+00-0.761E-01
CGA:  29    -0.940024484021E+03   -0.24028E+00   -0.24403E+00  5000   0.242E+01-0.187E-02
 gam= 0.929 trial= 0.321  step= 0.175 mean= 0.321
 gam= 0.723 g(H,U,f)=  0.844E+00 0.796E+00 0.107E+00 ort(H,U,f) = 0.981E-02 0.265E-01-0.167E-01
CGA:  30    -0.940237963398E+03   -0.21348E+00   -0.21087E+00  5000   0.175E+01 0.196E-01
 gam= 0.723 trial= 0.314  step= 0.173 mean= 0.314
 gam= 0.803 g(H,U,f)=  0.616E+00 0.766E+00 0.220E-01 ort(H,U,f) =-0.178E-01 0.332E-01-0.243E-01
CGA:  31    -0.940387884508E+03   -0.14992E+00   -0.15247E+00  5000   0.140E+01-0.893E-02
 gam= 0.803 trial= 0.307  step= 0.196 mean= 0.307
 gam= 0.572 g(H,U,f)=  0.438E+00 0.337E+00 0.286E-01 ort(H,U,f) =-0.149E+00 0.156E+00-0.866E-02
CGA:  32    -0.940520596779E+03   -0.13271E+00   -0.13677E+00  5000   0.803E+00-0.239E-02
 gam= 0.572 trial= 0.301  step= 0.193 mean= 0.301
 gam= 0.936 g(H,U,f)=  0.331E+00 0.396E+00 0.251E-01 ort(H,U,f) = 0.462E-01-0.426E-01-0.596E-02
CGA:  33    -0.940597052835E+03   -0.76456E-01   -0.77210E-01  5000   0.752E+00-0.232E-02
 gam= 0.936 trial= 0.296  step= 0.285 mean= 0.296
 gam= 0.642 g(H,U,f)=  0.234E+00 0.214E+00 0.341E-01 ort(H,U,f) =-0.927E-01 0.790E-01 0.134E-01
CGA:  34    -0.940703854041E+03   -0.10680E+00   -0.10680E+00  5000   0.483E+00-0.264E-03
 gam= 0.642 trial= 0.295  step= 0.185 mean= 0.295
 gam= 0.648 g(H,U,f)=  0.186E+00 0.124E+00 0.254E-02 ort(H,U,f) = 0.227E-01-0.133E-01-0.119E-01
CGA:  35    -0.940746599703E+03   -0.42746E-01   -0.44699E-01  5000   0.313E+00-0.250E-02
 gam= 0.648 trial= 0.290  step= 0.379 mean= 0.290
 gam= 0.738 g(H,U,f)=  0.119E+00 0.107E+00 0.488E-02 ort(H,U,f) = 0.620E-02 0.318E-02-0.796E-02
CGA:  36    -0.940805528790E+03   -0.58929E-01   -0.58849E-01  5000   0.231E+00 0.142E-02
 gam= 0.738 trial= 0.294  step= 0.235 mean= 0.294
 gam= 0.000 g(H,U,f)=  0.915E-01 0.648E-01 0.342E-02 ort(H,U,f) = 0.272E-01-0.264E-01-0.256E-03
SDA:  37    -0.940832648565E+03   -0.27120E-01   -0.27176E-01  5000   0.160E+00 0.576E-03
 gam= 0.000 trial= 0.291  step= 0.341 mean= 0.291
 gam= 1.161 g(H,U,f)=  0.526E-01 0.125E+00 0.809E-02 ort(H,U,f) = 0.493E-01-0.433E-01-0.355E-02
CGA:  38    -0.940860015769E+03   -0.27367E-01   -0.27272E-01  5000   0.185E+00 0.246E-02
 gam= 1.161 trial= 0.294  step= 0.412 mean= 0.294
 gam= 0.276 g(H,U,f)=  0.276E-01 0.224E-01 0.121E-02 ort(H,U,f) =-0.721E-02 0.617E-02-0.387E-04
CGA:  39    -0.940898749883E+03   -0.38734E-01   -0.38817E-01  5000   0.511E-01-0.108E-02
 gam= 0.276 trial= 0.300  step= 0.620 mean= 0.300
 gam= 0.823 g(H,U,f)=  0.117E-01 0.294E-01 0.102E-02 ort(H,U,f) = 0.156E-02-0.225E-02-0.356E-03
CGA:  40    -0.940914331974E+03   -0.15582E-01   -0.15747E-01  5000   0.421E-01-0.104E-02
 gam= 0.823 trial= 0.316  step= 0.340 mean= 0.316
 gam= 0.407 g(H,U,f)=  0.704E-02 0.101E-01 0.170E-04 ort(H,U,f) =-0.497E-03 0.136E-04 0.105E-03
CGA:  41    -0.940921341494E+03   -0.70095E-02   -0.70184E-02  5000   0.171E-01-0.379E-03
 gam= 0.407 trial= 0.317  step= 0.518 mean= 0.317
 gam= 1.250 g(H,U,f)=  0.426E-02 0.171E-01 0.281E-05 ort(H,U,f) = 0.423E-03-0.297E-03 0.105E-04
CGA:  42    -0.940925749522E+03   -0.44080E-02   -0.43937E-02  5000   0.214E-01 0.136E-03
 gam= 1.250 trial= 0.327  step= 0.349 mean= 0.327
 gam= 0.433 g(H,U,f)=  0.411E-02 0.514E-02 0.295E-04 ort(H,U,f) =-0.331E-02 0.332E-02-0.602E-04
CGA:  43    -0.940929518857E+03   -0.37693E-02   -0.37707E-02  5000   0.928E-02-0.439E-04
 gam= 0.433 trial= 0.328  step= 1.450 mean= 0.328
 gam= 3.014 g(H,U,f)=  0.926E-02 0.180E-01 0.764E-03 ort(H,U,f) =-0.421E-02 0.298E-02 0.216E-04
CGA:  44    -0.940935721500E+03   -0.62026E-02   -0.67144E-02  5000   0.280E-01-0.121E-02
 gam= 3.014 trial= 0.384  step= 0.347 mean= 0.384
 gam= 0.705 g(H,U,f)=  0.128E-01 0.685E-02 0.850E-04 ort(H,U,f) =-0.112E-01 0.130E-01-0.200E-03
CGA:  45    -0.940939869536E+03   -0.41480E-02   -0.42209E-02  5000   0.197E-01 0.159E-02
 gam= 0.705 trial= 0.382  step= 1.034 mean= 0.382
 gam= 2.329 g(H,U,f)=  0.208E-01 0.237E-01 0.140E-02 ort(H,U,f) =-0.987E-02 0.894E-03 0.161E-03
CGA:  46    -0.940948262858E+03   -0.83933E-02   -0.10769E-01  5000   0.459E-01-0.882E-02
 gam= 2.329 trial= 0.415  step= 0.232 mean= 0.415
 gam= 1.022 g(H,U,f)=  0.264E-01 0.199E-01 0.698E-03 ort(H,U,f) =-0.986E-02 0.925E-02 0.881E-03
CGA:  47    -0.940951184537E+03   -0.29217E-02   -0.29503E-02  5000   0.469E-01 0.272E-03
 gam= 1.022 trial= 0.406  step= 0.288 mean= 0.406
 gam= 0.472 g(H,U,f)=  0.148E-01 0.726E-02 0.546E-04 ort(H,U,f) =-0.382E-02 0.525E-02-0.148E-03
CGA:  48    -0.940957497302E+03   -0.63128E-02   -0.68047E-02  5000   0.221E-01 0.128E-02
 gam= 0.472 trial= 0.400  step= 0.432 mean= 0.400
 gam= 0.729 g(H,U,f)=  0.113E-01 0.469E-02 0.188E-03 ort(H,U,f) =-0.308E-02 0.289E-02 0.183E-03
CGA:  49    -0.940962411880E+03   -0.49146E-02   -0.49153E-02  5000   0.161E-01-0.641E-05
 gam= 0.729 trial= 0.401  step= 0.557 mean= 0.401
 gam= 1.159 g(H,U,f)=  0.966E-02 0.898E-02 0.527E-04 ort(H,U,f) =-0.315E-03-0.283E-03 0.167E-03
CGA:  50    -0.940966856397E+03   -0.44445E-02   -0.44881E-02  5000   0.187E-01-0.430E-03
 gam= 1.159 trial= 0.409  step= 0.384 mean= 0.409
 gam= 0.588 g(H,U,f)=  0.757E-02 0.342E-02 0.748E-05 ort(H,U,f) =-0.164E-02 0.192E-02 0.544E-04
CGA:  51    -0.940970345423E+03   -0.34890E-02   -0.34975E-02  5000   0.110E-01 0.328E-03
 gam= 0.588 trial= 0.408  step= 0.569 mean= 0.408
 gam= 1.003 g(H,U,f)=  0.645E-02 0.454E-02 0.373E-04 ort(H,U,f) =-0.165E-02 0.153E-02 0.319E-04
CGA:  52    -0.940973518446E+03   -0.31730E-02   -0.31818E-02  5000   0.110E-01-0.875E-04
 gam= 1.003 trial= 0.416  step= 0.419 mean= 0.416
 gam= 0.890 g(H,U,f)=  0.552E-02 0.427E-02 0.159E-04 ort(H,U,f) =-0.146E-02 0.147E-02-0.573E-04
CGA:  53    -0.940975810764E+03   -0.22923E-02   -0.22925E-02  5000   0.981E-02-0.510E-04
 gam= 0.890 trial= 0.416  step= 0.460 mean= 0.416
 gam= 0.772 g(H,U,f)=  0.508E-02 0.249E-02 0.132E-04 ort(H,U,f) =-0.268E-02 0.256E-02 0.460E-04
CGA:  54    -0.940978056607E+03   -0.22458E-02   -0.22484E-02  5000   0.758E-02-0.680E-04
 gam= 0.772 trial= 0.418  step= 0.449 mean= 0.418
 gam= 0.907 g(H,U,f)=  0.371E-02 0.315E-02 0.219E-04 ort(H,U,f) =-0.125E-02 0.125E-02-0.132E-04
CGA:  55    -0.940979744393E+03   -0.16878E-02   -0.16885E-02  5000   0.687E-02-0.205E-04
 gam= 0.907 trial= 0.420  step= 0.404 mean= 0.420
 gam= 0.685 g(H,U,f)=  0.287E-02 0.181E-02 0.362E-04 ort(H,U,f) =-0.136E-02 0.147E-02-0.646E-04
CGA:  56    -0.940981128328E+03   -0.13839E-02   -0.13845E-02  5000   0.471E-02 0.381E-04
 gam= 0.685 trial= 0.419  step= 0.511 mean= 0.419
 gam= 0.940 g(H,U,f)=  0.243E-02 0.198E-02 0.125E-04 ort(H,U,f) =-0.680E-03 0.601E-03 0.365E-05
CGA:  57    -0.940982332832E+03   -0.12045E-02   -0.12097E-02  5000   0.443E-02-0.747E-04
 gam= 0.940 trial= 0.424  step= 0.420 mean= 0.424
 gam= 0.737 g(H,U,f)=  0.202E-02 0.123E-02 0.198E-04 ort(H,U,f) =-0.427E-03 0.457E-03-0.130E-04
CGA:  58    -0.940983247953E+03   -0.91512E-03   -0.91517E-03  5000   0.326E-02 0.170E-04
 gam= 0.737 trial= 0.423  step= 0.522 mean= 0.423
 gam= 0.926 g(H,U,f)=  0.176E-02 0.120E-02 0.611E-04 ort(H,U,f) =-0.387E-03 0.420E-03 0.132E-04
CGA:  59    -0.940984106004E+03   -0.85805E-03   -0.85484E-03  5000   0.302E-02 0.466E-04
 gam= 0.926 trial= 0.428  step= 0.399 mean= 0.428
 gam= 0.898 g(H,U,f)=  0.156E-02 0.114E-02 0.155E-04 ort(H,U,f) =-0.104E-03 0.151E-03-0.403E-04
CGA:  60    -0.940984717048E+03   -0.61104E-03   -0.61118E-03  5000   0.271E-02 0.671E-05
 gam= 0.898 trial= 0.427  step= 0.457 mean= 0.427
 gam= 0.717 g(H,U,f)=  0.125E-02 0.686E-03 0.482E-05 ort(H,U,f) =-0.402E-03 0.425E-03-0.326E-05
CGA:  61    -0.940985338603E+03   -0.62156E-03   -0.62113E-03  5000   0.194E-02 0.192E-04
 gam= 0.717 trial= 0.428  step= 0.514 mean= 0.428
 gam= 1.105 g(H,U,f)=  0.113E-02 0.982E-03 0.402E-04 ort(H,U,f) =-0.238E-03 0.228E-03 0.244E-04
CGA:  62    -0.940985842462E+03   -0.50386E-03   -0.50313E-03  5000   0.215E-02 0.138E-04
 gam= 1.105 trial= 0.433  step= 0.387 mean= 0.433
 gam= 0.688 g(H,U,f)=  0.963E-03 0.514E-03 0.255E-05 ort(H,U,f) =-0.389E-03 0.400E-03-0.722E-05
CGA:  63    -0.940986261560E+03   -0.41910E-03   -0.41906E-03  5000   0.148E-02 0.375E-05
 gam= 0.688 trial= 0.430  step= 0.533 mean= 0.430
 gam= 0.962 g(H,U,f)=  0.801E-03 0.619E-03 0.255E-05 ort(H,U,f) =-0.256E-03 0.265E-03-0.376E-05
CGA:  64    -0.940986656544E+03   -0.39498E-03   -0.39477E-03  5000   0.142E-02 0.548E-05
 gam= 0.962 trial= 0.436  step= 0.400 mean= 0.436
 gam= 0.750 g(H,U,f)=  0.710E-03 0.352E-03 0.398E-05 ort(H,U,f) =-0.176E-03 0.180E-03 0.790E-05
CGA:  65    -0.940986941990E+03   -0.28545E-03   -0.28579E-03  5000   0.107E-02 0.118E-04
 gam= 0.750 trial= 0.434  step= 0.512 mean= 0.434
 gam= 0.808 g(H,U,f)=  0.528E-03 0.332E-03 0.108E-05 ort(H,U,f) =-0.122E-03 0.132E-03-0.498E-05
CGA:  66    -0.940987217610E+03   -0.27562E-03   -0.27543E-03  5000   0.861E-03 0.509E-05
 gam= 0.808 trial= 0.438  step= 0.440 mean= 0.438
 gam= 0.968 g(H,U,f)=  0.454E-03 0.377E-03 0.286E-05 ort(H,U,f) =-0.432E-04 0.470E-04-0.745E-05
CGA:  67    -0.940987407836E+03   -0.19023E-03   -0.19023E-03  5000   0.834E-03-0.367E-05
 gam= 0.968 trial= 0.438  step= 0.440 mean= 0.438
 gam= 0.000 g(H,U,f)=  0.401E-03 0.180E-03 0.265E-05 ort(H,U,f) =-0.132E-03 0.137E-03-0.403E-05
SDA:  68    -0.940987590647E+03   -0.18281E-03   -0.18281E-03  5000   0.584E-03 0.731E-06
 gam= 0.000 trial= 0.438  step= 0.719 mean= 0.438
 gam= 1.420 g(H,U,f)=  0.210E-03 0.618E-03 0.165E-05 ort(H,U,f) = 0.118E-04-0.141E-04-0.675E-06
CGA:  69    -0.940987800184E+03   -0.20954E-03   -0.20995E-03  5000   0.829E-03-0.299E-05
 gam= 1.420 trial= 0.452  step= 0.332 mean= 0.452
 gam= 0.614 g(H,U,f)=  0.302E-03 0.205E-03 0.314E-05 ort(H,U,f) =-0.859E-04 0.810E-04 0.206E-05
CGA:  70    -0.940987937207E+03   -0.13702E-03   -0.13684E-03  5000   0.510E-03-0.278E-05
 gam= 0.614 trial= 0.446  step= 0.794 mean= 0.446
 gam= 0.758 g(H,U,f)=  0.216E-03 0.170E-03 0.411E-06 ort(H,U,f) =-0.118E-03 0.116E-03-0.985E-06
CGA:  71    -0.940988138452E+03   -0.20124E-03   -0.20169E-03  5000   0.386E-03-0.265E-05
 gam= 0.758 trial= 0.463  step= 0.400 mean= 0.463
 gam= 0.869 g(H,U,f)=  0.122E-03 0.210E-03 0.240E-05 ort(H,U,f) = 0.107E-04-0.142E-04 0.128E-05
CGA:  72    -0.940988215404E+03   -0.76953E-04   -0.76834E-04  5000   0.335E-03-0.214E-05
 gam= 0.869 trial= 0.460  step= 0.496 mean= 0.460
 gam= 0.497 g(H,U,f)=  0.108E-03 0.574E-04 0.905E-06 ort(H,U,f) =-0.693E-04 0.724E-04-0.239E-05
CGA:  73    -0.940988298184E+03   -0.82780E-04   -0.82747E-04  5000   0.167E-03 0.679E-06
 gam= 0.497 trial= 0.462  step= 0.607 mean= 0.462
 gam= 1.095 g(H,U,f)=  0.692E-04 0.109E-03 0.462E-05 ort(H,U,f) =-0.805E-05 0.724E-05 0.520E-06
CGA:  74    -0.940988348864E+03   -0.50680E-04   -0.50714E-04  5000   0.183E-03-0.294E-06
 gam= 1.095 trial= 0.469  step= 0.464 mean= 0.469
 gam= 0.509 g(H,U,f)=  0.645E-04 0.281E-04 0.214E-06 ort(H,U,f) =-0.307E-04 0.320E-04-0.747E-06
CGA:  75    -0.940988391093E+03   -0.42229E-04   -0.42232E-04  5000   0.928E-04 0.553E-06
 gam= 0.509 trial= 0.469  step= 0.643 mean= 0.469
 gam= 0.744 g(H,U,f)=  0.451E-04 0.235E-04 0.489E-06 ort(H,U,f) =-0.161E-04 0.165E-04-0.301E-06
CGA:  76    -0.940988421062E+03   -0.29968E-04   -0.29963E-04  5000   0.691E-04 0.444E-07
 gam= 0.744 trial= 0.478  step= 0.409 mean= 0.478
 gam= 0.834 g(H,U,f)=  0.235E-04 0.331E-04 0.970E-06 ort(H,U,f) = 0.262E-05-0.266E-05-0.566E-07
CGA:  77    -0.940988435219E+03   -0.14158E-04   -0.14151E-04  5000   0.576E-04-0.924E-07
 gam= 0.834 trial= 0.474  step= 0.359 mean= 0.474
 gam= 0.412 g(H,U,f)=  0.187E-04 0.481E-05 0.248E-06 ort(H,U,f) =-0.558E-05 0.610E-05-0.445E-06
CGA:  78    -0.940988445532E+03   -0.10312E-04   -0.10321E-04  5000   0.238E-04 0.769E-07
 gam= 0.412 trial= 0.469  step= 0.678 mean= 0.469
 gam= 0.511 g(H,U,f)=  0.102E-04 0.189E-05 0.940E-08 ort(H,U,f) =-0.285E-05 0.311E-05-0.110E-07
CGA:  79    -0.940988453628E+03   -0.80960E-05   -0.80702E-05  5000   0.121E-04 0.246E-06
 gam= 0.511 trial= 0.479  step= 0.633 mean= 0.479
 final diagonalization
   1 F= -.94098845E+03 E0= -.94097593E+03  d E =-.250406E-01
 writing wavefunctions
Warning: ieee_invalid is signaling
Warning: ieee_divide_by_zero is signaling
Warning: ieee_underflow is signaling
Warning: ieee_inexact is signaling
FORTRAN STOP
Warning: ieee_invalid is signaling
Warning: ieee_divide_by_zero is signaling
Warning: ieee_underflow is signaling
Warning: ieee_inexact is signaling
FORTRAN STOP
Warning: ieee_invalid is signaling
Warning: ieee_divide_by_zero is signaling
Warning: ieee_underflow is signaling
Warning: ieee_inexact is signaling
FORTRAN STOP
Warning: ieee_invalid is signaling
Warning: ieee_divide_by_zero is signaling
Warning: ieee_underflow is signaling
Warning: ieee_inexact is signaling
FORTRAN STOP
