       N       E                     dE             d eps       ncg     rms          ort
DAV:   1    -0.182083574447E+05   -0.18208E+05   -0.54531E+05  5000   0.751E+03
DAV:   2    -0.624907461101E+05   -0.44282E+05   -0.42793E+05  5000   0.122E+03
DAV:   3    -0.675314749242E+05   -0.50407E+04   -0.45396E+04  5000   0.373E+02
DAV:   4    -0.682847627092E+05   -0.75329E+03   -0.66020E+03  5000   0.120E+02
DAV:   5    -0.388232980294E+05    0.29461E+05   -0.74248E+02  5000   0.570E+01
SDA:   6     0.283660400857E+05    0.67189E+05   -0.74248E+02  5000   0.883E+05 0.000E+00
CGA:   7     0.104927441564E+05   -0.17873E+05   -0.18600E+05  5000   0.623E+05-0.274E+05
CGA:   8     0.531308110256E+04   -0.51797E+04   -0.52177E+04  5000   0.242E+05 0.642E+04
CGA:   9     0.332598613084E+04   -0.19871E+04   -0.25608E+04  5000   0.131E+05 0.266E+04
CGA:  10     0.219017695452E+04   -0.11358E+04   -0.17361E+04  5000   0.135E+05 0.243E+04
CGA:  11     0.117846738437E+04   -0.10117E+04   -0.17171E+04  5000   0.533E+04 0.144E+04
CGA:  12     0.283588528706E+03   -0.89488E+03   -0.93943E+03  5000   0.252E+04 0.714E+03
CGA:  13    -0.303614445192E+03   -0.58720E+03   -0.57798E+03  5000   0.111E+04 0.241E+03
CGA:  14    -0.614579422749E+03   -0.31096E+03   -0.30611E+03  5000   0.628E+03 0.424E+02
CGA:  15    -0.769771466563E+03   -0.15519E+03   -0.15511E+03  5000   0.338E+03-0.567E+01
CGA:  16    -0.854407885788E+03   -0.84636E+02   -0.85228E+02  5000   0.169E+03-0.786E+01
CGA:  17    -0.893709572037E+03   -0.39302E+02   -0.39663E+02  5000   0.838E+02-0.514E+01
CGA:  18    -0.914050299161E+03   -0.20341E+02   -0.20493E+02  5000   0.492E+02-0.201E+01
CGA:  19    -0.925590699763E+03   -0.11540E+02   -0.11536E+02  5000   0.253E+02 0.401E-01
CGA:  20    -0.931599833464E+03   -0.60091E+01   -0.61317E+01  5000   0.231E+02-0.208E+01
CGA:  21    -0.933572646854E+03   -0.19728E+01   -0.16114E+01  5000   0.146E+02 0.258E+01
CGA:  22    -0.935811376794E+03   -0.22387E+01   -0.21850E+01  5000   0.212E+02-0.758E+00
CGA:  23    -0.937232030621E+03   -0.14207E+01   -0.13077E+01  5000   0.839E+01 0.166E+00
CGA:  24    -0.937929200512E+03   -0.69717E+00   -0.81272E+00  5000   0.938E+01-0.540E+00
CGA:  25    -0.938526799863E+03   -0.59760E+00   -0.62001E+00  5000   0.578E+01-0.247E+00
CGA:  26    -0.939042184658E+03   -0.51538E+00   -0.51354E+00  5000   0.471E+01-0.227E-01
CGA:  27    -0.939491379162E+03   -0.44919E+00   -0.44907E+00  5000   0.421E+01-0.308E-01
CGA:  28    -0.939784201685E+03   -0.29282E+00   -0.32186E+00  5000   0.260E+01-0.189E+00
CGA:  29    -0.940024484021E+03   -0.24028E+00   -0.24403E+00  5000   0.242E+01-0.187E-02
CGA:  30    -0.940237963398E+03   -0.21348E+00   -0.21087E+00  5000   0.175E+01 0.196E-01
CGA:  31    -0.940387884508E+03   -0.14992E+00   -0.15247E+00  5000   0.140E+01-0.893E-02
CGA:  32    -0.940520596779E+03   -0.13271E+00   -0.13677E+00  5000   0.803E+00-0.239E-02
CGA:  33    -0.940597052835E+03   -0.76456E-01   -0.77210E-01  5000   0.752E+00-0.232E-02
CGA:  34    -0.940703854041E+03   -0.10680E+00   -0.10680E+00  5000   0.483E+00-0.264E-03
CGA:  35    -0.940746599703E+03   -0.42746E-01   -0.44699E-01  5000   0.313E+00-0.250E-02
CGA:  36    -0.940805528790E+03   -0.58929E-01   -0.58849E-01  5000   0.231E+00 0.142E-02
SDA:  37    -0.940832648565E+03   -0.27120E-01   -0.27176E-01  5000   0.160E+00 0.576E-03
CGA:  38    -0.940860015769E+03   -0.27367E-01   -0.27272E-01  5000   0.185E+00 0.246E-02
CGA:  39    -0.940898749883E+03   -0.38734E-01   -0.38817E-01  5000   0.511E-01-0.108E-02
CGA:  40    -0.940914331974E+03   -0.15582E-01   -0.15747E-01  5000   0.421E-01-0.104E-02
CGA:  41    -0.940921341494E+03   -0.70095E-02   -0.70184E-02  5000   0.171E-01-0.379E-03
CGA:  42    -0.940925749522E+03   -0.44080E-02   -0.43937E-02  5000   0.214E-01 0.136E-03
CGA:  43    -0.940929518857E+03   -0.37693E-02   -0.37707E-02  5000   0.928E-02-0.439E-04
CGA:  44    -0.940935721500E+03   -0.62026E-02   -0.67144E-02  5000   0.280E-01-0.121E-02
CGA:  45    -0.940939869536E+03   -0.41480E-02   -0.42209E-02  5000   0.197E-01 0.159E-02
CGA:  46    -0.940948262858E+03   -0.83933E-02   -0.10769E-01  5000   0.459E-01-0.882E-02
CGA:  47    -0.940951184537E+03   -0.29217E-02   -0.29503E-02  5000   0.469E-01 0.272E-03
CGA:  48    -0.940957497302E+03   -0.63128E-02   -0.68047E-02  5000   0.221E-01 0.128E-02
CGA:  49    -0.940962411880E+03   -0.49146E-02   -0.49153E-02  5000   0.161E-01-0.641E-05
CGA:  50    -0.940966856397E+03   -0.44445E-02   -0.44881E-02  5000   0.187E-01-0.430E-03
CGA:  51    -0.940970345423E+03   -0.34890E-02   -0.34975E-02  5000   0.110E-01 0.328E-03
CGA:  52    -0.940973518446E+03   -0.31730E-02   -0.31818E-02  5000   0.110E-01-0.875E-04
CGA:  53    -0.940975810764E+03   -0.22923E-02   -0.22925E-02  5000   0.981E-02-0.510E-04
CGA:  54    -0.940978056607E+03   -0.22458E-02   -0.22484E-02  5000   0.758E-02-0.680E-04
CGA:  55    -0.940979744393E+03   -0.16878E-02   -0.16885E-02  5000   0.687E-02-0.205E-04
CGA:  56    -0.940981128328E+03   -0.13839E-02   -0.13845E-02  5000   0.471E-02 0.381E-04
CGA:  57    -0.940982332832E+03   -0.12045E-02   -0.12097E-02  5000   0.443E-02-0.747E-04
CGA:  58    -0.940983247953E+03   -0.91512E-03   -0.91517E-03  5000   0.326E-02 0.170E-04
CGA:  59    -0.940984106004E+03   -0.85805E-03   -0.85484E-03  5000   0.302E-02 0.466E-04
CGA:  60    -0.940984717048E+03   -0.61104E-03   -0.61118E-03  5000   0.271E-02 0.671E-05
CGA:  61    -0.940985338603E+03   -0.62156E-03   -0.62113E-03  5000   0.194E-02 0.192E-04
CGA:  62    -0.940985842462E+03   -0.50386E-03   -0.50313E-03  5000   0.215E-02 0.138E-04
CGA:  63    -0.940986261560E+03   -0.41910E-03   -0.41906E-03  5000   0.148E-02 0.375E-05
CGA:  64    -0.940986656544E+03   -0.39498E-03   -0.39477E-03  5000   0.142E-02 0.548E-05
CGA:  65    -0.940986941990E+03   -0.28545E-03   -0.28579E-03  5000   0.107E-02 0.118E-04
CGA:  66    -0.940987217610E+03   -0.27562E-03   -0.27543E-03  5000   0.861E-03 0.509E-05
CGA:  67    -0.940987407836E+03   -0.19023E-03   -0.19023E-03  5000   0.834E-03-0.367E-05
SDA:  68    -0.940987590647E+03   -0.18281E-03   -0.18281E-03  5000   0.584E-03 0.731E-06
CGA:  69    -0.940987800184E+03   -0.20954E-03   -0.20995E-03  5000   0.829E-03-0.299E-05
CGA:  70    -0.940987937207E+03   -0.13702E-03   -0.13684E-03  5000   0.510E-03-0.278E-05
CGA:  71    -0.940988138452E+03   -0.20124E-03   -0.20169E-03  5000   0.386E-03-0.265E-05
CGA:  72    -0.940988215404E+03   -0.76953E-04   -0.76834E-04  5000   0.335E-03-0.214E-05
CGA:  73    -0.940988298184E+03   -0.82780E-04   -0.82747E-04  5000   0.167E-03 0.679E-06
CGA:  74    -0.940988348864E+03   -0.50680E-04   -0.50714E-04  5000   0.183E-03-0.294E-06
CGA:  75    -0.940988391093E+03   -0.42229E-04   -0.42232E-04  5000   0.928E-04 0.553E-06
CGA:  76    -0.940988421062E+03   -0.29968E-04   -0.29963E-04  5000   0.691E-04 0.444E-07
CGA:  77    -0.940988435219E+03   -0.14158E-04   -0.14151E-04  5000   0.576E-04-0.924E-07
CGA:  78    -0.940988445532E+03   -0.10312E-04   -0.10321E-04  5000   0.238E-04 0.769E-07
CGA:  79    -0.940988453628E+03   -0.80960E-05   -0.80702E-05  5000   0.121E-04 0.246E-06
   1 F= -.94098845E+03 E0= -.94097593E+03  d E =-.250406E-01
