 vasp.6.4.2 20Jul23 (build Nov 12 2023 22:16:35) complex                         
 executed on              LinuxNV date 2025.03.21  13:26:23
 running    4 mpi-ranks, on    1 nodes
 distrk:  each k-point on    1 cores,    4 groups
 distr:  one band on NCORE=   1 cores,    1 groups
 OpenACC runtime initialized ...    4 GPUs detected


--------------------------------------------------------------------------------------------------------


 INCAR:
   PREC = Normal
   ENCUT = 450
   NELM = 500
   IBRION = -1
   ISPIN = 1
   NSW = 0
   ISIF = 2
   EDIFF = 1E-5
   EDIFFG = -5E-3
   ISTART = 0
   ICHARG = 0
   ISMEAR = 0
   SIGMA = 0.05
   LWAVE = .T.
   LCHARG = .T.
   LREAL = Auto
   LPLANE = .TRUE.
   NPAR = 1
   KPAR = 4
   NCORE = 1
   ALGO = All
   LHFCALC = .TRUE.
   HSE06 = .TRUE.
   HFSCREEN = 0.2
   TIME = 0.4
   AEXX = 0.32
   LMAXFOCK = 4
   PRECFOCK = Fast

 POTCAR:    PAW_PBE Ga_d 06Jul2010                
 POTCAR:    PAW_PBE O 08Apr2002                   
 POTCAR:    PAW_PBE Ga_d 06Jul2010                
   SHA256 =  a60ddf36e14f00ea098d9e3914b3745f1b7105e68786148f49ae384e44b4226c Ga_d/POTCAR           
   COPYR  = (c) Copyright 06Jul2010 Georg Kresse                                                    
   COPYR  = This file is part of the software VASP. Any use, copying, and all other rights are regul
   COPYR  = If you do not have a valid VASP license, you may not use, copy or distribute this file. 
   VRHFIN =Ga: s2p1                                                                                 
   LEXCH  = PE                                                                                      
   EATOM  =  2148.8298 eV,  157.9345 Ry                                                             
                                                                                                    
   TITEL  = PAW_PBE Ga_d 06Jul2010                                                                  
   LULTRA =        F    use ultrasoft PP ?                                                          
   IUNSCR =        1    unscreen: 0-lin 1-nonlin 2-no                                               
   RPACOR =    1.700    partial core radius                                                         
   POMASS =   69.723; ZVAL   =   13.000    mass and valenz                                          
   RCORE  =    2.300    outmost cutoff radius                                                       
   RWIGS  =    2.300; RWIGS  =    1.217    wigner-seitz radius (au A)                               
   ENMAX  =  282.691; ENMIN  =  212.018 eV                                                          
   ICORE  =        3    local potential                                                             
   LCOR   =        T    correct aug charges                                                         
   LPAW   =        T    paw PP                                                                      
   EAUG   =  490.690                                                                                
   DEXC   =    0.000                                                                                
   RMAX   =    2.341    core radius for proj-oper                                                   
   RAUG   =    1.300    factor for augmentation sphere                                              
   RDEP   =    2.413    radius for radial grids                                                     
   RDEPT  =    1.856    core radius for aug-charge                                                  
                                                                                                    
   Atomic configuration                                                                             
    9 entries                                                                                       
     n  l   j            E        occ.                                                              
     1  0  0.50    -10228.7831   2.0000                                                             
     2  0  0.50     -1262.1604   2.0000                                                             
     2  1  1.50     -1098.6333   6.0000                                                             
     3  0  0.50      -148.1110   2.0000                                                             
     3  1  1.50       -98.8436   6.0000                                                             
     3  2  2.50       -19.1549  10.0000                                                             
     4  0  0.50        -8.9483   2.0000                                                             
     4  1  0.50        -2.5791   1.0000                                                             
     4  3  2.50        -2.7416   0.0000                                                             
   Description                                                                                      
     l       E           TYP  RCUT    TYP  RCUT                                                     
     2    -19.1549037     23  2.300                                                                 
     2     -5.4423304     23  2.300                                                                 
     0     -8.9483111     23  2.300                                                                 
     0     68.0291300     23  2.300                                                                 
     1     -2.5790802     23  2.100                                                                 
     1     81.6349560     23  2.300                                                                 
     3      6.8029130     23  2.300                                                                 
  local pseudopotential read in
  partial core-charges read in
  partial kinetic energy density read in
  atomic valenz-charges read in
  non local Contribution for L=            2  read in
    real space projection operators read in
  non local Contribution for L=            2  read in
    real space projection operators read in
  non local Contribution for L=            0  read in
    real space projection operators read in
  non local Contribution for L=            0  read in
    real space projection operators read in
  non local Contribution for L=            1  read in
    real space projection operators read in
  non local Contribution for L=            1  read in
    real space projection operators read in
    PAW grid and wavefunctions read in
 
   number of l-projection  operators is LMAX  =            6
   number of lm-projection operators is LMMAX =           18
 
 POTCAR:    PAW_PBE O 08Apr2002                   
   SHA256 =  818f92134a0a090dccd8ba1447fa70422a3b330e708bb4f08108d8ae51209ddf O/POTCAR              
   COPYR  = (c) Copyright 08Apr2002 Georg Kresse                                                    
   COPYR  = This file is part of the software VASP. Any use, copying, and all other rights are regul
   COPYR  = If you do not have a valid VASP license, you may not use, copy or distribute this file. 
   VRHFIN =O: s2p4                                                                                  
   LEXCH  = PE                                                                                      
   EATOM  =   432.3788 eV,   31.7789 Ry                                                             
                                                                                                    
   TITEL  = PAW_PBE O 08Apr2002                                                                     
   LULTRA =        F    use ultrasoft PP ?                                                          
   IUNSCR =        1    unscreen: 0-lin 1-nonlin 2-no                                               
   RPACOR =    1.200    partial core radius                                                         
   POMASS =   16.000; ZVAL   =    6.000    mass and valenz                                          
   RCORE  =    1.520    outmost cutoff radius                                                       
   RWIGS  =    1.550; RWIGS  =    0.820    wigner-seitz radius (au A)                               
   ENMAX  =  400.000; ENMIN  =  300.000 eV                                                          
   ICORE  =        2    local potential                                                             
   LCOR   =        T    correct aug charges                                                         
   LPAW   =        T    paw PP                                                                      
   EAUG   =  605.392                                                                                
   DEXC   =    0.000                                                                                
   RMAX   =    1.553    core radius for proj-oper                                                   
   RAUG   =    1.300    factor for augmentation sphere                                              
   RDEP   =    1.550    radius for radial grids                                                     
   RDEPT  =    1.329    core radius for aug-charge                                                  
                                                                                                    
   Atomic configuration                                                                             
    4 entries                                                                                       
     n  l   j            E        occ.                                                              
     1  0  0.50      -514.6923   2.0000                                                             
     2  0  0.50       -23.9615   2.0000                                                             
     2  1  0.50        -9.0305   4.0000                                                             
     3  2  1.50        -9.5241   0.0000                                                             
   Description                                                                                      
     l       E           TYP  RCUT    TYP  RCUT                                                     
     0    -23.9615318     23  1.200                                                                 
     0     -9.5240782     23  1.200                                                                 
     1     -9.0304911     23  1.520                                                                 
     1      8.1634956     23  1.520                                                                 
     2     -9.5240782      7  1.500                                                                 
  local pseudopotential read in
  partial core-charges read in
  partial kinetic energy density read in
  kinetic energy density of atom read in
  atomic valenz-charges read in
  non local Contribution for L=            0  read in
    real space projection operators read in
  non local Contribution for L=            0  read in
    real space projection operators read in
  non local Contribution for L=            1  read in
    real space projection operators read in
  non local Contribution for L=            1  read in
    real space projection operators read in
    PAW grid and wavefunctions read in
 
   number of l-projection  operators is LMAX  =            4
   number of lm-projection operators is LMMAX =            8
 
 Optimization of the real space projectors (new method)

 maximal supplied QI-value         = 16.25
 optimisation between [QCUT,QGAM] = [ 10.73, 21.61] = [ 32.22,130.83] Ry 
 Optimized for a Real-space Cutoff    1.42 Angstroem

   l    n(q)    QCUT    max X(q) W(low)/X(q) W(high)/X(q)  e(spline) 
   2      8    10.726     7.143    0.22E-03    0.16E-03    0.73E-07
   2      8    10.726     5.586    0.40E-03    0.26E-03    0.10E-06
   0      9    10.726    12.382    0.25E-04    0.21E-05    0.37E-07
   0      9    10.726     6.622    0.42E-04    0.48E-05    0.77E-07
   1      9    10.726     7.935    0.27E-03    0.13E-04    0.16E-06
   1      9    10.726     2.425    0.23E-03    0.15E-04    0.14E-06
 Optimization of the real space projectors (new method)

 maximal supplied QI-value         = 24.76
 optimisation between [QCUT,QGAM] = [ 10.64, 21.54] = [ 31.73,129.89] Ry 
 Optimized for a Real-space Cutoff    1.23 Angstroem

   l    n(q)    QCUT    max X(q) W(low)/X(q) W(high)/X(q)  e(spline) 
   0      8    10.645    20.381    0.38E-03    0.60E-03    0.15E-06
   0      8    10.645    15.268    0.40E-03    0.65E-03    0.17E-06
   1      7    10.645     5.964    0.30E-03    0.63E-03    0.18E-06
   1      7    10.645     5.382    0.24E-03    0.53E-03    0.16E-06
  PAW_PBE Ga_d 06Jul2010                :
 energy of atom  1       EATOM=-2148.8298
 kinetic energy error for atom=    0.0038 (will be added to EATOM!!)
  PAW_PBE O 08Apr2002                   :
 energy of atom  2       EATOM= -432.3788
 kinetic energy error for atom=    0.0389 (will be added to EATOM!!)
 
 
 POSCAR: Ga48 O72
  positions in direct lattice
  velocities in cartesian coordinates
 exchange correlation table for  LEXCH =        8
   RHO(1)=    0.500       N(1)  =     2000
   RHO(2)=  100.500       N(2)  =     4000
 


--------------------------------------------------------------------------------------------------------


 ion  position               nearest neighbor table
   1  0.659  1.000  0.157-  84 1.94  78 1.96  82 1.96  66 2.01  64 2.07  60 2.07
   2  0.660  0.000  0.657-  85 1.94  79 1.95  83 1.95  67 2.02  65 2.08  61 2.09
   3  0.659  0.333  0.157-  86 1.94  80 1.96  78 1.96  68 2.00  62 2.08  60 2.08
   4  0.660  0.333  0.657-  87 1.94  81 1.95  79 1.95  69 2.02  63 2.08  61 2.08
   5  0.659  0.667  0.157-  88 1.94  80 1.96  82 1.96  70 2.01  64 2.07  62 2.07
   6  0.660  0.667  0.657-  89 1.94  81 1.95  83 1.95  71 2.02  65 2.08  63 2.09
   7  0.843  0.168  0.344-  90 1.90  74 1.96  72 1.97  60 2.04  68 2.07  66 2.10
   8  0.841  0.167  0.844-  91 1.94  73 1.95  75 1.96  61 2.02  69 2.08  67 2.08
   9  0.843  0.499  0.344-  92 1.90  74 1.96  76 1.97  62 2.04  68 2.07  70 2.10
  10  0.841  0.499  0.844-  93 1.94  77 1.95  75 1.96  63 2.02  69 2.08  71 2.08
  11  0.844  0.833  0.343-  94 1.94  72 1.96  76 1.96  64 2.05  66 2.07  70 2.07
  12  0.842  0.833  0.843-  95 1.94  73 1.95  77 1.95  65 2.02  67 2.07  71 2.07
  13  0.590  0.168  0.397-  54 1.85  56 1.85  79 1.85  60 1.88
  14  0.590  0.167  0.897-  78 1.84  57 1.85  55 1.85  61 1.88
  15  0.590  0.499  0.397-  58 1.85  56 1.85  81 1.85  62 1.88
  16  0.590  0.500  0.897-  80 1.84  57 1.85  59 1.85  63 1.88
  17  0.593  0.833  0.398-  83 1.84  54 1.85  58 1.85  64 1.87
  18  0.590  0.833  0.897-  82 1.84  55 1.85  59 1.85  65 1.87
  19  0.908  0.999  0.102-  73 1.84  52 1.84  48 1.85  66 1.86
  20  0.908  0.999  0.602-  72 1.84  53 1.84  49 1.85  67 1.87
  21  0.911  0.333  0.107-  50 1.85  48 1.85  68 1.86  75 1.86
  22  0.909  0.333  0.600-  74 1.84  51 1.84  49 1.84  69 1.89
  23  0.908  0.668  0.102-  77 1.84  52 1.84  50 1.85  70 1.86
  24  0.908  0.667  0.602-  76 1.84  53 1.84  51 1.85  71 1.87
  25  0.161  0.168  0.161-  48 1.96  98 1.97 114 1.98 116 1.99 102 2.03  96 2.06
  26  0.158  0.168  0.651- 117 1.91 115 1.94  49 1.95 103 2.04  99 2.11  97 2.12
  27  0.161  0.498  0.161-  50 1.96  98 1.97 118 1.98 116 1.99 104 2.03 100 2.06
  28  0.158  0.498  0.651- 117 1.91 119 1.94  51 1.95 105 2.04  99 2.11 101 2.12
  29  0.159  0.833  0.158-  52 1.95 114 1.96 118 1.96 106 2.02  96 2.06 100 2.06
  30  0.158  0.833  0.655-  53 1.94 115 1.95 119 1.95 107 2.03  97 2.09 101 2.09
  31  0.342  0.999  0.343-  54 1.95 108 1.95 112 1.95  96 2.02 102 2.05 106 2.07
  32  0.339  1.000  0.842-  55 1.95 109 1.96 113 1.96  97 2.01 107 2.08 103 2.08
  33  0.335  0.333  0.346- 110 1.94 108 1.94  98 1.95  56 1.99 104 2.13 102 2.13
  34  0.339  0.333  0.843-  57 1.95 111 1.96 109 1.96  99 2.01 105 2.07 103 2.07
  35  0.342  0.667  0.343-  58 1.95 110 1.95 112 1.95 100 2.02 104 2.05 106 2.07
  36  0.339  0.667  0.842-  59 1.95 111 1.96 113 1.96 101 2.01 107 2.08 105 2.08
  37  0.089  0.008  0.396-  90 1.82 115 1.85  96 1.88  94 1.88
  38  0.092  1.000  0.898- 114 1.84  95 1.85  91 1.85  97 1.87
  39  0.090  0.333  0.897- 116 1.84  93 1.85  91 1.85  99 1.86
  40  0.089  0.658  0.396-  92 1.82 119 1.85 100 1.88  94 1.88
  41  0.092  0.667  0.898- 118 1.84  95 1.85  93 1.85 101 1.87
  42  0.409  0.166  0.102- 109 1.84  86 1.85  84 1.85 102 1.86
  43  0.410  0.167  0.603- 108 1.83  87 1.85  85 1.85 103 1.87
  44  0.409  0.500  0.102- 111 1.84  86 1.85  88 1.85 104 1.86
  45  0.410  0.500  0.603- 110 1.83  87 1.85  89 1.85 105 1.87
  46  0.409  0.833  0.102- 113 1.84  84 1.85  88 1.85 106 1.87
  47  0.410  0.833  0.603- 112 1.83  85 1.85  89 1.85 107 1.87
  48  0.997  0.165  0.131-  21 1.85  19 1.85  25 1.96
  49  0.995  0.166  0.626-  22 1.84  20 1.85  26 1.95
  50  0.997  0.502  0.131-  21 1.85  23 1.85  27 1.96
  51  0.995  0.500  0.626-  22 1.84  24 1.85  28 1.95
  52  0.996  0.833  0.128-  19 1.84  23 1.84  29 1.95
  53  0.996  0.833  0.628-  20 1.84  24 1.84  30 1.94
  54  0.505  0.999  0.373-  17 1.85  13 1.85  31 1.95
  55  0.502  1.000  0.872-  14 1.85  18 1.85  32 1.95
  56  0.501  0.333  0.373-  15 1.85  13 1.85  33 1.99
  57  0.502  0.333  0.872-  16 1.85  14 1.85  34 1.95
  58  0.505  0.667  0.373-  17 1.85  15 1.85  35 1.95
  59  0.502  0.667  0.872-  16 1.85  18 1.85  36 1.95
  60  0.672  0.166  0.280-  13 1.88   7 2.04   1 2.07   3 2.08
  61  0.673  0.167  0.782-  14 1.88   8 2.02   4 2.08   2 2.09
  62  0.672  0.500  0.280-  15 1.88   9 2.04   5 2.07   3 2.08
  63  0.673  0.499  0.782-  16 1.88  10 2.02   4 2.08   6 2.09
  64  0.673  0.833  0.280-  17 1.87  11 2.05   1 2.07   5 2.07
  65  0.673  0.833  0.781-  18 1.87  12 2.02   2 2.08   6 2.08
  66  0.827  0.999  0.218-  19 1.86   1 2.01  11 2.07   7 2.10
  67  0.828  0.000  0.720-  20 1.87   2 2.02  12 2.07   8 2.08
  68  0.825  0.333  0.219-  21 1.86   3 2.00   9 2.07   7 2.07
  69  0.828  0.333  0.720-  22 1.89   4 2.02  10 2.08   8 2.08
  70  0.827  0.668  0.218-  23 1.86   5 2.01  11 2.07   9 2.10
  71  0.828  0.666  0.720-  24 1.87   6 2.02  12 2.07  10 2.08
  72  0.831  0.999  0.446-  20 1.84  11 1.96   7 1.97
  73  0.833  0.000  0.946-  19 1.84   8 1.95  12 1.95
  74  0.827  0.333  0.446-  22 1.84   9 1.96   7 1.96
  75  0.836  0.333  0.949-  21 1.86  10 1.96   8 1.96
  76  0.831  0.667  0.446-  24 1.84  11 1.96   9 1.97
  77  0.833  0.667  0.946-  23 1.84  10 1.95  12 1.95
  78  0.667  0.166  0.054-  14 1.84   3 1.96   1 1.96
  79  0.668  0.167  0.554-  13 1.85   4 1.95   2 1.95
  80  0.667  0.500  0.054-  16 1.84   3 1.96   5 1.96
  81  0.668  0.500  0.554-  15 1.85   4 1.95   6 1.95
  82  0.667  0.833  0.054-  18 1.84   1 1.96   5 1.96
  83  0.669  0.833  0.555-  17 1.84   2 1.95   6 1.95
  84  0.497  1.000  0.126-  46 1.85  42 1.85   1 1.94
  85  0.498  1.000  0.629-  43 1.85  47 1.85   2 1.94
  86  0.496  0.333  0.127-  44 1.85  42 1.85   3 1.94
  87  0.498  0.333  0.629-  45 1.85  43 1.85   4 1.94
  88  0.497  0.667  0.126-  46 1.85  44 1.85   5 1.94
  89  0.498  0.667  0.629-  45 1.85  47 1.85   6 1.94
  90  0.001  0.171  0.370-  37 1.82   7 1.90
  91  0.003  0.166  0.873-  39 1.85  38 1.85   8 1.94
  92  0.001  0.495  0.370-  40 1.82   9 1.90
  93  0.003  0.501  0.873-  39 1.85  41 1.85  10 1.94
  94  0.006  0.833  0.373-  37 1.88  40 1.88  11 1.94
  95  0.004  0.833  0.873-  38 1.85  41 1.85  12 1.94
  96  0.174  0.999  0.281-  37 1.88  31 2.02  25 2.06  29 2.06
  97  0.172  0.001  0.779-  38 1.87  32 2.01  30 2.09  26 2.12
  98  0.175  0.333  0.273-  33 1.95  27 1.97  25 1.97
  99  0.172  0.333  0.781-  39 1.86  34 2.01  28 2.11  26 2.11
 100  0.174  0.667  0.281-  40 1.88  35 2.02  27 2.06  29 2.06
 101  0.172  0.666  0.779-  41 1.87  36 2.01  30 2.09  28 2.12
 102  0.330  0.163  0.220-  42 1.86  25 2.03  31 2.05  33 2.13
 103  0.327  0.167  0.719-  43 1.87  26 2.04  34 2.07  32 2.08
 104  0.330  0.503  0.220-  44 1.86  27 2.03  35 2.05  33 2.13
 105  0.327  0.499  0.719-  45 1.87  28 2.04  34 2.07  36 2.08
 106  0.328  0.833  0.219-  46 1.87  29 2.02  31 2.07  35 2.07
 107  0.327  0.833  0.719-  47 1.87  30 2.03  32 2.08  36 2.08
 108  0.335  0.165  0.447-  43 1.83  33 1.94  31 1.95
 109  0.332  0.166  0.946-  42 1.84  34 1.96  32 1.96
 110  0.335  0.502  0.447-  45 1.83  33 1.94  35 1.95
 111  0.332  0.500  0.946-  44 1.84  34 1.96  36 1.96
 112  0.335  0.833  0.446-  47 1.83  31 1.95  35 1.95
 113  0.331  0.833  0.945-  46 1.84  32 1.96  36 1.96
 114  0.167  0.001  0.055-  38 1.84  29 1.96  25 1.98
 115  0.167  1.000  0.553-  37 1.85  26 1.94  30 1.95
 116  0.169  0.333  0.053-  39 1.84  27 1.99  25 1.99
 117  0.169  0.333  0.554-  28 1.91  26 1.91
 118  0.167  0.665  0.055-  41 1.84  29 1.96  27 1.98
 119  0.167  0.667  0.553-  40 1.85  28 1.94  30 1.95
 
  LATTYP: Found a simple monoclinic cell.
 ALAT       =    11.6348202465
 B/A-ratio  =     0.7858051831
 C/A-ratio  =     1.0554931797
 COS(beta)  =    -0.2379290539
  
  Lattice vectors:
  
 A1 = (   0.0000000000,  -2.7682617730, -11.3006977184)
 A2 = (  -9.1427020537,   0.0000000000,   0.0000000000)
 A3 = (   0.0000000000,  12.2804734172,   0.0000000000)


Analysis of symmetry for initial positions (statically):
=====================================================================
 Subroutine PRICEL returns:
 Original cell was already a primitive cell.
 

 Routine SETGRP: Setting up the symmetry group for a 
 simple monoclinic supercell.


 Subroutine GETGRP returns: Found  2 space group operations
 (whereof  1 operations were pure point group operations)
 out of a pool of  4 trial point group operations.


The static configuration has the point symmetry C_1 .
 The point group associated with its full space group is C_1h.


Analysis of symmetry for dynamics (positions and initial velocities):
=====================================================================
 Subroutine PRICEL returns:
 Original cell was already a primitive cell.
 

 Routine SETGRP: Setting up the symmetry group for a 
 simple monoclinic supercell.


 Subroutine GETGRP returns: Found  2 space group operations
 (whereof  1 operations were pure point group operations)
 out of a pool of  4 trial point group operations.


The dynamic configuration has the point symmetry C_1 .
 The point group associated with its full space group is C_1h.


 Subroutine INISYM returns: Found  2 space group operations
 (whereof  1 operations are pure point group operations),
 and found     1 'primitive' translations


----------------------------------------------------------------------------------------

                                     Primitive cell                                     

  volume of cell :    1268.8052

  direct lattice vectors                    reciprocal lattice vectors
     0.000000000 12.280473417  0.000000000     0.000000000  0.081430085 -0.019947423
     9.142702054  0.000000000  0.000000000     0.109376855 -0.000000000  0.000000000
     0.000000000 -2.768261773-11.300697718     0.000000000  0.000000000 -0.088490111

  length of vectors
    12.280473417  9.142702054 11.634820246     0.083837691  0.109376855  0.088490111

  position of ions in fractional coordinates (direct lattice)
     0.659058964  0.999831068  0.157225928
     0.659680727  0.000099421  0.657116989
     0.658625543  0.333333333  0.156748973
     0.660175734  0.333333333  0.656795690
     0.659058964  0.666835598  0.157225928
     0.659680727  0.666567246  0.657116989
     0.842664215  0.167927798  0.343542507
     0.841095731  0.167264341  0.844284383
     0.842664215  0.498738869  0.343542507
     0.841095731  0.499402326  0.844284383
     0.843822739  0.833333333  0.342823017
     0.841702356  0.833333333  0.843490512
     0.590148936  0.167823219  0.397080583
     0.589953478  0.166637251  0.897395369
     0.590148936  0.498843447  0.397080583
     0.589953478  0.500029415  0.897395369
     0.592869629  0.833333333  0.397817735
     0.590232246  0.833333333  0.897151385
     0.908303067  0.998927560  0.102479825
     0.908055864  0.999458419  0.602096057
     0.910959677  0.333333333  0.107450472
     0.908956018  0.333333333  0.600120015
     0.908303067  0.667739106  0.102479825
     0.908055864  0.667208248  0.602096057
     0.160730091  0.168210723  0.161455235
     0.157981809  0.168209169  0.651185503
     0.160730091  0.498455943  0.161455235
     0.157981809  0.498457497  0.651185503
     0.159366809  0.833333333  0.158310397
     0.157951097  0.833333333  0.654531649
     0.342011419  0.999484328  0.343339608
     0.339108857  0.999934782  0.842276831
     0.334732058  0.333333333  0.346486042
     0.339074990  0.333333333  0.842692883
     0.342011419  0.667182339  0.343339608
     0.339108857  0.666731884  0.842276831
     0.089268322  0.008347203  0.395924465
     0.092339810  0.999933739  0.898130681
     0.090475740  0.333333333  0.896811281
     0.089268322  0.658319463  0.395924465
     0.092339810  0.666732928  0.898130681
     0.409063151  0.166329097  0.102424119
     0.410446252  0.166647350  0.603371574
     0.409063151  0.500337570  0.102424119
     0.410446252  0.500019317  0.603371574
     0.408610595  0.833333333  0.101872945
     0.409606235  0.833333333  0.602672702
     0.996506095  0.165052442  0.131357547
     0.995423226  0.166220035  0.626290443
     0.996506095  0.501614225  0.131357547
     0.995423226  0.500446631  0.626290443
     0.996396478  0.833333333  0.127517239
     0.995660721  0.833333333  0.627790282
     0.504927843  0.999345346  0.373020739
     0.502321441  0.999924953  0.871938260
     0.501218461  0.333333333  0.372675414
     0.502358690  0.333333333  0.872461881
     0.504927843  0.667321321  0.373020739
     0.502321441  0.666741714  0.871938260
     0.672475332  0.166379850  0.280445730
     0.673213760  0.167360498  0.781581204
     0.672475332  0.500286816  0.280445730
     0.673213760  0.499306169  0.781581204
     0.673433769  0.833333333  0.280326970
     0.673061390  0.833333333  0.781131267
     0.826532608  0.998813837  0.218496662
     0.827554373  0.000231279  0.720024413
     0.824975673  0.333333333  0.218819094
     0.828487311  0.333333333  0.719771765
     0.826532608  0.667852829  0.218496662
     0.827554373  0.666435388  0.720024413
     0.831204212  0.999345494  0.445602399
     0.832542199  0.000002564  0.945991965
     0.827377692  0.333333333  0.445797396
     0.835979357  0.333333333  0.948825788
     0.831204212  0.667321173  0.445602399
     0.832542199  0.666664102  0.945991965
     0.667039230  0.166480319  0.053731225
     0.667578855  0.166586858  0.554215298
     0.667039230  0.500186348  0.053731225
     0.667578855  0.500079809  0.554215298
     0.667294074  0.833333333  0.053521829
     0.669108557  0.833333333  0.554840841
     0.496563589  0.999518229  0.126208309
     0.497574262  0.999652264  0.628980475
     0.496238704  0.333333333  0.126645471
     0.497731649  0.333333333  0.628847589
     0.496563589  0.667148437  0.126208309
     0.497574262  0.667014403  0.628980475
     0.001127670  0.171378204  0.369588825
     0.003464048  0.166082343  0.872940912
     0.001127670  0.495288463  0.369588825
     0.003464048  0.500584323  0.872940912
     0.005869968  0.833333333  0.373288187
     0.004252181  0.833333333  0.873219963
     0.173677864  0.999259821  0.281252106
     0.171875768  0.000582808  0.779271627
     0.174885640  0.333333333  0.273061669
     0.171871820  0.333333333  0.780647960
     0.173677864  0.667406846  0.281252106
     0.171875768  0.666083859  0.779271627
     0.329987185  0.163483051  0.220312981
     0.327445397  0.167262535  0.719037818
     0.329987185  0.503183616  0.220312981
     0.327445397  0.499404132  0.719037818
     0.328065084  0.833333333  0.219396031
     0.326689656  0.833333333  0.718574068
     0.334909691  0.164548726  0.447223001
     0.331844859  0.166423688  0.945668430
     0.334909691  0.502117941  0.447223001
     0.331844859  0.500242979  0.945668430
     0.334601199  0.833333333  0.446142230
     0.330749161  0.833333333  0.945352068
     0.166722549  0.001178627  0.055485993
     0.166991002  0.999721739  0.552828782
     0.168508025  0.333333333  0.052614903
     0.168721373  0.333333333  0.553911791
     0.166722549  0.665488040  0.055485993
     0.166991002  0.666944927  0.552828782

  ion indices of the primitive-cell ions
   primitive index   ion index
                 1           1
                 2           2
                 3           3
                 4           4
                 5           5
                 6           6
                 7           7
                 8           8
                 9           9
                10          10
                11          11
                12          12
                13          13
                14          14
                15          15
                16          16
                17          17
                18          18
                19          19
                20          20
                21          21
                22          22
                23          23
                24          24
                25          25
                26          26
                27          27
                28          28
                29          29
                30          30
                31          31
                32          32
                33          33
                34          34
                35          35
                36          36
                37          37
                38          38
                39          39
                40          40
                41          41
                42          42
                43          43
                44          44
                45          45
                46          46
                47          47
                48          48
                49          49
                50          50
                51          51
                52          52
                53          53
                54          54
                55          55
                56          56
                57          57
                58          58
                59          59
                60          60
                61          61
                62          62
                63          63
                64          64
                65          65
                66          66
                67          67
                68          68
                69          69
                70          70
                71          71
                72          72
                73          73
                74          74
                75          75
                76          76
                77          77
                78          78
                79          79
                80          80
                81          81
                82          82
                83          83
                84          84
                85          85
                86          86
                87          87
                88          88
                89          89
                90          90
                91          91
                92          92
                93          93
                94          94
                95          95
                96          96
                97          97
                98          98
                99          99
               100         100
               101         101
               102         102
               103         103
               104         104
               105         105
               106         106
               107         107
               108         108
               109         109
               110         110
               111         111
               112         112
               113         113
               114         114
               115         115
               116         116
               117         117
               118         118
               119         119

----------------------------------------------------------------------------------------

 
 
 KPOINTS: Automatic mesh                          

Automatic generation of k-mesh.
 Grid dimensions read from file:
 generate k-points for:    2    2    2

 Generating k-lattice:

  Cartesian coordinates                     Fractional coordinates (reciprocal lattice)
     0.000000000  0.040715043 -0.009973711     0.500000000  0.000000000  0.000000000
     0.054688428 -0.000000000  0.000000000     0.000000000  0.500000000  0.000000000
     0.000000000  0.000000000 -0.044245056     0.000000000  0.000000000  0.500000000

  Length of vectors
     0.041918846  0.054688428  0.044245056

  Shift w.r.t. Gamma in fractional coordinates (k-lattice)
     0.000000000  0.000000000  0.000000000

 
 Subroutine IBZKPT returns following result:
 ===========================================
 
 Found      8 irreducible k-points:
 
 Following reciprocal coordinates:
            Coordinates               Weight
  0.000000  0.000000  0.000000      1.000000
  0.500000  0.000000  0.000000      1.000000
  0.000000  0.500000  0.000000      1.000000
  0.500000  0.500000  0.000000      1.000000
  0.000000  0.000000  0.500000      1.000000
  0.500000  0.000000  0.500000      1.000000
  0.000000  0.500000  0.500000      1.000000
  0.500000  0.500000  0.500000      1.000000
 
 Following cartesian coordinates:
            Coordinates               Weight
  0.000000  0.000000 -0.000000      1.000000
  0.000000  0.040715 -0.009974      1.000000
  0.054688  0.000000 -0.000000      1.000000
  0.054688  0.040715 -0.009974      1.000000
  0.000000  0.000000 -0.044245      1.000000
  0.000000  0.040715 -0.054219      1.000000
  0.054688  0.000000 -0.044245      1.000000
  0.054688  0.040715 -0.054219      1.000000
 
 
 Subroutine IBZKPT_HF returns following result:
 ==============================================
 
 Found      8 k-points in 1st BZ
 the following      8 k-points will be used (e.g. in the exchange kernel)
 Following reciprocal coordinates:   # in IRBZ
  0.000000  0.000000  0.000000    0.12500000   1 t-inv F
  0.500000  0.000000  0.000000    0.12500000   2 t-inv F
  0.000000  0.500000  0.000000    0.12500000   3 t-inv F
  0.500000  0.500000  0.000000    0.12500000   4 t-inv F
  0.000000  0.000000  0.500000    0.12500000   5 t-inv F
  0.500000  0.000000  0.500000    0.12500000   6 t-inv F
  0.000000  0.500000  0.500000    0.12500000   7 t-inv F
  0.500000  0.500000  0.500000    0.12500000   8 t-inv F


--------------------------------------------------------------------------------------------------------




 Dimension of arrays:
   k-points           NKPTS =      8   k-points in BZ     NKDIM =      8   number of bands    NBANDS=    625
   number of dos      NEDOS =    301   number of ions     NIONS =    119
   non local maximal  LDIM  =      6   non local SUM 2l+1 LMDIM =     18
   total plane-waves  NPLWV = 184320
   max r-space proj   IRMAX =   1800   max aug-charges    IRDMAX=   5704
   dimension x,y,z NGX =    64 NGY =   48 NGZ =   60
   dimension x,y,z NGXF=   128 NGYF=   96 NGZF=  120
   support grid    NGXF=   128 NGYF=   96 NGZF=  120
   ions per type =              47  72
   NGX,Y,Z   is equivalent  to a cutoff of   8.66,  8.73,  8.57 a.u.
   NGXF,Y,Z  is equivalent  to a cutoff of  17.33, 17.46, 17.15 a.u.

 SYSTEM =  unknown system                          
 POSCAR =  Ga48 O72                                

 Startparameter for this run:
   NWRITE =      2    write-flag & timer
   PREC   = normal    normal or accurate (medium, high low for compatibility)
   ISTART =      0    job   : 0-new  1-cont  2-samecut
   ICHARG =      0    charge: 1-file 2-atom 10-const
   ISPIN  =      1    spin polarized calculation?
   LNONCOLLINEAR =      F non collinear calculations
   LSORBIT =      F    spin-orbit coupling
   INIWAV =      1    electr: 0-lowe 1-rand  2-diag
   LASPH  =      F    aspherical Exc in radial PAW
 Electronic Relaxation 1
   ENCUT  =  450.0 eV  33.07 Ry    5.75 a.u.  21.24 15.81 20.12*2*pi/ulx,y,z
   ENINI  =  450.0     initial cutoff
   ENAUG  =  605.4 eV  augmentation charge cutoff
   NELM   =    500;   NELMIN=  2; NELMDL= -5     # of ELM steps 
   EDIFF  = 0.1E-04   stopping-criterion for ELM
   LREAL  =      T    real-space projection
   NLSPLINE    = F    spline interpolate recip. space projectors
   LCOMPAT=      F    compatible to vasp.4.4
   GGA_COMPAT  = T    GGA compatible to vasp.4.4-vasp.4.6
   LMAXPAW     = -100 max onsite density
   LMAXMIX     =    2 max onsite mixed and CHGCAR
   VOSKOWN=      0    Vosko Wilk Nusair interpolation
   ROPT   =   -0.00050  -0.00050
 Ionic relaxation
   EDIFFG = -.5E-02   stopping-criterion for IOM
   NSW    =      0    number of steps for IOM
   NBLOCK =      1;   KBLOCK =      1    inner block; outer block 
   IBRION =     -1    ionic relax: 0-MD 1-quasi-New 2-CG
   NFREE  =      0    steps in history (QN), initial steepest desc. (CG)
   ISIF   =      2    stress and relaxation
   IWAVPR =     10    prediction:  0-non 1-charg 2-wave 3-comb
   ISYM   =      3    0-nonsym 1-usesym 2-fastsym
   LCORR  =      T    Harris-Foulkes like correction to forces

   POTIM  = 0.5000    time-step for ionic-motion
   TEIN   =    0.0    initial temperature
   TEBEG  =    0.0;   TEEND  =   0.0 temperature during run
   SMASS  =  -3.00    Nose mass-parameter (am)
   estimated Nose-frequenzy (Omega)   =  0.10E-29 period in steps = 0.13E+47 mass=  -0.345E-26a.u.
   SCALEE = 1.0000    scale energy and forces
   NPACO  =    256;   APACO  = 10.0  distance and # of slots for P.C.
   PSTRESS=    0.0 pullay stress

  Mass of Ions in am
   POMASS =  69.72 16.00
  Ionic Valenz
   ZVAL   =  13.00  6.00
  Atomic Wigner-Seitz radii
   RWIGS  =  -1.00 -1.00
  virtual crystal weights 
   VCA    =   1.00  1.00
   NELECT =    1043.0000    total number of electrons
   NUPDOWN=      -1.0000    fix difference up-down

 DOS related values:
   EMIN   =  10.00;   EMAX   =-10.00  energy-range for DOS
   EFERMI =   0.00;   METHOD = LEGACY      
   ISMEAR =     0;   SIGMA  =   0.05  broadening in eV -4-tet -1-fermi 0-gaus

 Electronic relaxation 2 (details)
   IALGO  =     58    algorithm
   LDIAG  =      T    sub-space diagonalisation (order eigenvalues)
   LSUBROT=      F    optimize rotation matrix (better conditioning)
   TURBO    =      0    0=normal 1=particle mesh
   IRESTART =      0    0=no restart 2=restart with 2 vectors
   NREBOOT  =      0    no. of reboots
   NMIN     =      0    reboot dimension
   EREF     =   0.00    reference energy to select bands
   IMIX   =      4    mixing-type and parameters
     AMIX     =   0.40;   BMIX     =  1.00
     AMIX_MAG =   1.60;   BMIX_MAG =  1.00
     AMIN     =   0.10
     WC   =   100.;   INIMIX=   1;  MIXPRE=   1;  MAXMIX= -45

 Intra band minimization:
   WEIMIN = 0.0000     energy-eigenvalue tresh-hold
   EBREAK =  0.40E-08  absolut break condition
   DEPER  =   0.30     relativ break condition  

   TIME   =   0.40     timestep for ELM

  volume/ion in A,a.u.               =      10.66        71.95
  Fermi-wavevector in a.u.,A,eV,Ry     =   1.533574  2.898034 31.998834  2.351848
  Thomas-Fermi vector in A             =   2.640622
 
 Write flags
   LWAVE        =      T    write WAVECAR
   LDOWNSAMPLE  =      F    k-point downsampling of WAVECAR
   LCHARG       =      T    write CHGCAR
   LVTOT        =      F    write LOCPOT, total local potential
   LVHAR        =      F    write LOCPOT, Hartree potential only
   LELF         =      F    write electronic localiz. function (ELF)
   LORBIT       =      0    0 simple, 1 ext, 2 COOP (PROOUT), +10 PAW based schemes


 Dipole corrections
   LMONO  =      F    monopole corrections only (constant potential shift)
   LDIPOL =      F    correct potential (dipole corrections)
   IDIPOL =      0    1-x, 2-y, 3-z, 4-all directions 
   EPSILON=  1.0000000 bulk dielectric constant

 Exchange correlation treatment:
   GGA     =    --    GGA type
   LEXCH   =     8    internal setting for exchange type
   LIBXC   =     F    Libxc                    
   VOSKOWN =     0    Vosko Wilk Nusair interpolation
   EXXOEP  =     0    0=HF, 1=EXX-LHF (local Hartree Fock) 2=EXX OEP
   LHFCALC =     T    Hartree Fock is set to
   LSYMGRAD=     F    symmetrize gradient (conserves proper symmetry)
   PRECFOCK=fast      Normal, Fast or Accurate (Low or Medium for compatibility)
   LRHFCALC=     F    long range Hartree Fock
   LRSCOR  =     F    long range correlation only (use DFT for short range part)
   LTHOMAS =     F    Thomas Fermi screening in HF
   LMODELHF=     F    short range full HF, long range fraction AEXX
   FOCKCORR=     1    mode to apply convergence corrections
   LFOCKACE=     T    use Adeptively-Compressed-Exchange operator
   ENCUT4O =  -1.0   cutoff for four orbital integrals eV
   LMAXFOCK=     4    L truncation for augmentation on plane wave grid
   LMAXFOCKAE=  -1    L truncation for all-electron charge restoration on plane wave grid
   NMAXFOCKAE=   1    number of basis functions for all-electron charge restoration
   LFOCKAEDFT=     F  apply the AE augmentation even for DFT
   NKREDX  =     1    reduce k-point grid by
   NKREDY  =     1    reduce k-point grid by
   NKREDZ  =     1    reduce k-point grid by
   SHIFTRED=     F    shift reduced grid of Gamma
   HFKIDENT=     F    idential grid for each k-point
   ODDONLY =     F    use only odd q-grid points
   EVENONLY=     F    use only even q-grid points
   HFALPHA =   -1.0000 decay constant for conv. correction
   MCALPHA =    0.0000 extent of test-charge in conv. correction in multipole expansion
   AEXX    =    0.3200 exact exchange contribution
   HFSCREEN=    0.2000 screening length (either q_TF or 0.3 A-1)
   HFSCREENC=   0.2000 screening length for correlation (either q_TF or 0.3 A-1)
   HFRCUT  =    0.0000 spherical cutoff for potential kernel
   ALDAX   =    0.6800 LDA exchange part
   AGGAX   =    0.6800 GGA exchange part
   ALDAC   =    1.0000 LDA correlation
   AGGAC   =    1.0000 GGA correlation
   ENCUTFOCK=  -1.0 apply spherical cutoff to Coloumb kernel
   NBANDSGWLOW=     1    first orbital included in HF term
   NBLOCK_FOCK=    64    blocking factor in FOCK_ACC

 Linear response parameters
   LEPSILON=     F    determine dielectric tensor
   LRPA    =     F    only Hartree local field effects (RPA)
   LNABLA  =     F    use nabla operator in PAW spheres
   LVEL    =     F    velocity operator in full k-point grid
   CSHIFT  =0.1000    complex shift for real part using Kramers Kronig
   OMEGAMAX=  -1.0    maximum frequency
   DEG_THRESHOLD= 0.2000000E-02 threshold for treating states as degnerate
   RTIME   =   -0.100 relaxation time in fs
  (WPLASMAI=    0.000 imaginary part of plasma frequency in eV, 0.658/RTIME)
   DFIELD  = 0.0000000 0.0000000 0.0000000 field for delta impulse in time
 
  Optional k-point grid parameters
   LKPOINTS_OPT  =     F    use optional k-point grid
   KPOINTS_OPT_MODE=     1    mode for optional k-point grid
 
 Orbital magnetization related:
   ORBITALMAG=     F  switch on orbital magnetization
   LCHIMAG   =     F  perturbation theory with respect to B field
   DQ        =  0.001000  dq finite difference perturbation B field
   LLRAUG    =     F  two centre corrections for induced B field
   LBONE     =     F  B-component reconstruction in AE one-centre
   LVGVCALC  =     T  calculate vGv susceptibility
   LVGVAPPL  =     F  apply vGv susceptibility instead of pGv for G=0

 Random number generation:
   RANDOM_GENERATOR = DEFAULT
   PCG_SEED         = not used


--------------------------------------------------------------------------------------------------------


 Static calculation
 charge density and potential will be updated during run
 non-spin polarized calculation
 Conjugate gradient for all bands (Freysoldt, et al. PRB 79, 241103 (2009))
 preconditioned conjugated gradient                                        
 perform sub-space diagonalisation
    before iterative eigenvector-optimisation
 modified Broyden-mixing scheme, WC =      100.0
 initial mixing is a Kerker type mixing with AMIX =  0.4000 and BMIX =      1.0000
 Hartree-type preconditioning will be used
 using additional bands           103
 real space projection scheme for non local part
 use partial core corrections
 no Harris-corrections to forces 
 use gradient corrections 
 use of overlap-Matrix (Vanderbilt PP)
 Gauss-broadening in eV      SIGMA  =   0.05


--------------------------------------------------------------------------------------------------------


  energy-cutoff  :      450.00
  volume of cell :     1268.81
      direct lattice vectors                 reciprocal lattice vectors
     0.000000000 12.280473417  0.000000000     0.000000000  0.081430085 -0.019947423
     9.142702054  0.000000000  0.000000000     0.109376855 -0.000000000  0.000000000
     0.000000000 -2.768261773-11.300697718     0.000000000  0.000000000 -0.088490111

  length of vectors
    12.280473417  9.142702054 11.634820246     0.083837691  0.109376855  0.088490111


 
 k-points in units of 2pi/SCALE and weight: Automatic mesh                          
   0.00000000  0.00000000 -0.00000000       0.125
   0.00000000  0.04071504 -0.00997371       0.125
   0.05468843  0.00000000 -0.00000000       0.125
   0.05468843  0.04071504 -0.00997371       0.125
   0.00000000  0.00000000 -0.04424506       0.125
   0.00000000  0.04071504 -0.05421877       0.125
   0.05468843  0.00000000 -0.04424506       0.125
   0.05468843  0.04071504 -0.05421877       0.125
 
 k-points in reciprocal lattice and weights: Automatic mesh                          
   0.00000000  0.00000000  0.00000000       0.125
   0.50000000  0.00000000  0.00000000       0.125
   0.00000000  0.50000000  0.00000000       0.125
   0.50000000  0.50000000  0.00000000       0.125
   0.00000000  0.00000000  0.50000000       0.125
   0.50000000  0.00000000  0.50000000       0.125
   0.00000000  0.50000000  0.50000000       0.125
   0.50000000  0.50000000  0.50000000       0.125
 
 position of ions in fractional coordinates (direct lattice) 
   0.65905896  0.99983107  0.15722593
   0.65968073  0.00009942  0.65711699
   0.65862554  0.33333333  0.15674897
   0.66017573  0.33333333  0.65679569
   0.65905896  0.66683560  0.15722593
   0.65968073  0.66656725  0.65711699
   0.84266422  0.16792780  0.34354251
   0.84109573  0.16726434  0.84428438
   0.84266422  0.49873887  0.34354251
   0.84109573  0.49940233  0.84428438
   0.84382274  0.83333333  0.34282302
   0.84170236  0.83333333  0.84349051
   0.59014894  0.16782322  0.39708058
   0.58995348  0.16663725  0.89739537
   0.59014894  0.49884345  0.39708058
   0.58995348  0.50002942  0.89739537
   0.59286963  0.83333333  0.39781774
   0.59023225  0.83333333  0.89715139
   0.90830307  0.99892756  0.10247983
   0.90805586  0.99945842  0.60209606
   0.91095968  0.33333333  0.10745047
   0.90895602  0.33333333  0.60012002
   0.90830307  0.66773911  0.10247983
   0.90805586  0.66720825  0.60209606
   0.16073009  0.16821072  0.16145524
   0.15798181  0.16820917  0.65118550
   0.16073009  0.49845594  0.16145524
   0.15798181  0.49845750  0.65118550
   0.15936681  0.83333333  0.15831040
   0.15795110  0.83333333  0.65453165
   0.34201142  0.99948433  0.34333961
   0.33910886  0.99993478  0.84227683
   0.33473206  0.33333333  0.34648604
   0.33907499  0.33333333  0.84269288
   0.34201142  0.66718234  0.34333961
   0.33910886  0.66673188  0.84227683
   0.08926832  0.00834720  0.39592446
   0.09233981  0.99993374  0.89813068
   0.09047574  0.33333333  0.89681128
   0.08926832  0.65831946  0.39592446
   0.09233981  0.66673293  0.89813068
   0.40906315  0.16632910  0.10242412
   0.41044625  0.16664735  0.60337157
   0.40906315  0.50033757  0.10242412
   0.41044625  0.50001932  0.60337157
   0.40861060  0.83333333  0.10187295
   0.40960623  0.83333333  0.60267270
   0.99650609  0.16505244  0.13135755
   0.99542323  0.16622004  0.62629044
   0.99650609  0.50161422  0.13135755
   0.99542323  0.50044663  0.62629044
   0.99639648  0.83333333  0.12751724
   0.99566072  0.83333333  0.62779028
   0.50492784  0.99934535  0.37302074
   0.50232144  0.99992495  0.87193826
   0.50121846  0.33333333  0.37267541
   0.50235869  0.33333333  0.87246188
   0.50492784  0.66732132  0.37302074
   0.50232144  0.66674171  0.87193826
   0.67247533  0.16637985  0.28044573
   0.67321376  0.16736050  0.78158120
   0.67247533  0.50028682  0.28044573
   0.67321376  0.49930617  0.78158120
   0.67343377  0.83333333  0.28032697
   0.67306139  0.83333333  0.78113127
   0.82653261  0.99881384  0.21849666
   0.82755437  0.00023128  0.72002441
   0.82497567  0.33333333  0.21881909
   0.82848731  0.33333333  0.71977177
   0.82653261  0.66785283  0.21849666
   0.82755437  0.66643539  0.72002441
   0.83120421  0.99934549  0.44560240
   0.83254220  0.00000256  0.94599196
   0.82737769  0.33333333  0.44579740
   0.83597936  0.33333333  0.94882579
   0.83120421  0.66732117  0.44560240
   0.83254220  0.66666410  0.94599196
   0.66703923  0.16648032  0.05373123
   0.66757886  0.16658686  0.55421530
   0.66703923  0.50018635  0.05373123
   0.66757886  0.50007981  0.55421530
   0.66729407  0.83333333  0.05352183
   0.66910856  0.83333333  0.55484084
   0.49656359  0.99951823  0.12620831
   0.49757426  0.99965226  0.62898047
   0.49623870  0.33333333  0.12664547
   0.49773165  0.33333333  0.62884759
   0.49656359  0.66714844  0.12620831
   0.49757426  0.66701440  0.62898047
   0.00112767  0.17137820  0.36958883
   0.00346405  0.16608234  0.87294091
   0.00112767  0.49528846  0.36958883
   0.00346405  0.50058432  0.87294091
   0.00586997  0.83333333  0.37328819
   0.00425218  0.83333333  0.87321996
   0.17367786  0.99925982  0.28125211
   0.17187577  0.00058281  0.77927163
   0.17488564  0.33333333  0.27306167
   0.17187182  0.33333333  0.78064796
   0.17367786  0.66740685  0.28125211
   0.17187577  0.66608386  0.77927163
   0.32998718  0.16348305  0.22031298
   0.32744540  0.16726253  0.71903782
   0.32998718  0.50318362  0.22031298
   0.32744540  0.49940413  0.71903782
   0.32806508  0.83333333  0.21939603
   0.32668966  0.83333333  0.71857407
   0.33490969  0.16454873  0.44722300
   0.33184486  0.16642369  0.94566843
   0.33490969  0.50211794  0.44722300
   0.33184486  0.50024298  0.94566843
   0.33460120  0.83333333  0.44614223
   0.33074916  0.83333333  0.94535207
   0.16672255  0.00117863  0.05548599
   0.16699100  0.99972174  0.55282878
   0.16850803  0.33333333  0.05261490
   0.16872137  0.33333333  0.55391179
   0.16672255  0.66548804  0.05548599
   0.16699100  0.66694493  0.55282878
 
 position of ions in cartesian coordinates  (Angst):
   9.14115756  7.65831356 -1.77676269
   0.00090897  6.28211979 -7.42588046
   3.04756735  7.65431128 -1.77137276
   3.04756735  6.28908815 -7.42224955
   6.09667919  7.65831356 -1.77676269
   6.09422573  6.28211979 -7.42588046
   1.53531382  9.39729991 -3.88227002
   1.52924803  7.99185359 -9.54100260
   4.55982088  9.39729991 -3.88227002
   4.56588667  7.99185359 -9.54100260
   7.61891838  9.41351886 -3.87413929
   7.61891838  8.00150087 -9.53203130
   1.53435769  6.14808533 -4.48728763
   1.52351474  4.76068271-10.14119380
   4.56077701  6.14808533 -4.48728763
   4.57161996  4.76068271-10.14119380
   7.61891838  6.17945610 -4.49561797
   7.61891838  4.76478152-10.13843661
   9.13289706 10.87070069 -1.15809353
   9.13775054  9.48459640 -6.80410554
   3.04756735 10.88956506 -1.21426530
   3.04756735  9.50112092 -6.78177489
   6.10493970 10.87070069 -1.15809353
   6.10008622  9.48459640 -6.80410554
   1.53790052  1.52689125 -1.82455681
   1.53788632  0.13743947 -7.35885053
   4.55723418  1.52689125 -1.82455681
   4.55724838  0.13743947 -7.35885053
   7.61891838  1.51885524 -1.78901794
   7.61891838  0.12779930 -7.39666431
   9.13798742  3.24960822 -3.87997712
   9.14210579  1.83277455 -9.51831586
   3.04756735  3.15150408 -3.91553403
   3.04756735  1.83120691 -9.52301754
   6.09984934  3.24960822 -3.87997712
   6.09573097  1.83277455 -9.51831586
   0.07631599  0.00023470 -4.47422270
   9.14209625 -1.35228425-10.14950334
   3.04756735 -1.37152347-10.13459319
   6.01881871  0.00023470 -4.47422270
   6.09574051 -1.35228425-10.14950334
   1.52069737  4.73995238 -1.15746401
   1.52360707  3.37018382 -6.81851977
   4.57443733  4.73995238 -1.15746401
   4.57152763  3.37018382 -6.81851977
   7.61891838  4.73592057 -1.15123536
   7.61891838  3.36180268 -6.81062202
   1.50902530 11.87393453 -1.48443194
   1.51970026 10.49053257 -7.07751898
   4.58610940 11.87393453 -1.48443194
   4.57543444 10.49053257 -7.07751898
   7.61891838 11.88321936 -1.44103377
   7.61891838 10.48929718 -7.09446820
   9.13671675  5.16813391 -4.21539461
   9.14201592  3.75499175 -9.85351070
   3.04756735  5.12353688 -4.21149220
   3.04756735  3.75399966 -9.85942799
   6.10112001  5.16813391 -4.21539461
   6.09582083  3.75499175 -9.85351070
   1.52116140  7.48196824 -3.16923242
   1.53012717  6.10376232 -8.83241293
   4.57397330  7.48196824 -3.16923242
   4.56500754  6.10376232 -8.83241293
   7.61891838  7.49406706 -3.16789035
   7.61891838  6.10313668 -8.82732833
   9.13185732  9.54535576 -2.46916473
   0.00211452  8.16954343 -8.13677824
   3.04756735  9.52534328 -2.47280844
   3.04756735  8.18169974 -8.13392314
   6.10597943  9.54535576 -2.46916473
   6.09302019  8.16954343 -8.13677824
   9.13671810  8.97403714 -5.03561801
   0.00002344  7.60525895-10.69036924
   3.04756735  8.92650586 -5.03782162
   3.04756735  7.63962411-10.72239342
   6.10111866  8.97403714 -5.03561801
   6.09511126  7.60525895-10.69036924
   1.52207996  8.04281543 -0.60720033
   1.52305401  6.66397136 -6.26301956
   4.57305475  8.04281543 -0.60720033
   4.57208070  6.66397136 -6.26301956
   7.61891838  8.04652470 -0.60483401
   7.61891838  6.68102516 -6.27008862
   9.13829737  5.74865831 -1.42624195
   9.13952281  4.36926490 -7.10791822
   3.04756735  5.74345839 -1.43118219
   3.04756735  4.37156555 -7.10641651
   6.09953939  5.74865831 -1.42624195
   6.09831395  4.36926490 -7.10791822
   1.56685986 -1.00927030 -4.17661160
   1.51844138 -2.37398881 -9.86484138
   4.52827485 -1.00927030 -4.17661160
   4.57669332 -2.37398881 -9.86484138
   7.61891838 -0.96127343 -4.21841696
   7.61891838 -2.36508265 -9.86799485
   9.13593482  1.35426694 -3.17834503
   0.00532844 -0.04651206 -8.80631310
   3.04756735  1.39177227 -3.08578738
   3.04756735 -0.05037059 -8.82186662
   6.10190194  1.35426694 -3.17834503
   6.08980626 -0.04651206 -8.80631310
   1.49467683  3.44251485 -2.48969040
   1.52923152  2.03069959 -8.12562903
   4.60045788  3.44251485 -2.48969040
   4.56590318  2.03069959 -8.12562903
   7.61891838  3.42144889 -2.47932822
   7.61891838  2.02270252 -8.12038834
   1.50441997  2.87481922 -5.05393195
   1.52156219  1.45735420-10.68671307
   4.59071473  2.87481922 -5.05393195
   4.57357251  1.45735420-10.68671307
   7.61891838  2.87402265 -5.04171848
   7.61891838  1.44477429-10.68313796
   0.01077584  1.89383208 -0.62703043
   9.14015800  0.52035378 -6.24735096
   3.04756735  1.92370650 -0.59458511
   3.04756735  0.53860550 -6.25958971
   6.08435887  1.89383208 -0.62703043
   6.09767876  0.52035378 -6.24735096
 


--------------------------------------------------------------------------------------------------------


 k-point   1 :   0.0000 0.0000 0.0000  plane waves:   27533
 k-point   2 :   0.5000 0.0000 0.0000  plane waves:   27522
 k-point   3 :   0.0000 0.5000 0.0000  plane waves:   27488
 k-point   4 :   0.5000 0.5000 0.0000  plane waves:   27488
 k-point   5 :   0.0000 0.0000 0.5000  plane waves:   27482
 k-point   6 :   0.5000 0.0000 0.5000  plane waves:   27476
 k-point   7 :   0.0000 0.5000 0.5000  plane waves:   27468
 k-point   8 :   0.5000 0.5000 0.5000  plane waves:   27564

 maximum and minimum number of plane-waves per node :     27564    27468

 maximum number of plane-waves:     27564
 maximum index in each direction: 
   IXMAX=   21   IYMAX=   15   IZMAX=   20
   IXMIN=  -21   IYMIN=  -16   IZMIN=  -20


 serial   3D FFT for wavefunctions
 parallel 3D FFT for charge:
    minimum data exchange during FFTs selected (reduces bandwidth)


 FFT grid for exact exchange (Hartree Fock) 
  NGX = 48; NGY = 36; NGZ = 48

 
 Radii for the augmentation spheres in the non-local exchange
 for species   1 augmentation radius   1.392 (default was   1.031)
       energy cutoff for augmentation   1800.0
 for species   2 augmentation radius   0.974 (default was   0.722)
       energy cutoff for augmentation   1800.0
 Maximum index for augmentation-charges in exchange           752
  SETUP_FOCK is finished

 total amount of memory used by VASP MPI-rank0  7163099. kBytes
=======================================================================

   base      :      30000. kBytes
   nonlr-proj:      32488. kBytes
   fftplans  :      51012. kBytes
   grid      :      90980. kBytes
   one-center:       1850. kBytes
   HF        :        129. kBytes
   wavefun   :    6956640. kBytes
 
     INWAV:  cpu time      0.0001: real time      0.0001
 Broyden mixing: mesh for mixing (old mesh)
   NGX = 43   NGY = 31   NGZ = 41
  (NGX  =128   NGY  = 96   NGZ  =120)
  gives a total of  54653 points

 charge density for first step will be calculated from the start-wavefunctions


--------------------------------------------------------------------------------------------------------


 Maximum index for non-local projection operator          1719
 Maximum index for augmentation-charges          5363 (set IRDMAX)


--------------------------------------------------------------------------------------------------------


 initial charge from wavefunction
 First call to EWALD:  gamma=   0.164
 Maximum number of real-space cells 3x 3x 3
 Maximum number of reciprocal cells 3x 2x 3

    FEWALD:  cpu time      0.0728: real time      0.0727


--------------------------------------- Ionic step        1  -------------------------------------------




--------------------------------------- Iteration      1(   1)  ---------------------------------------


    POTLOK:  cpu time      0.0333: real time      0.0333
    SETDIJ:  cpu time      0.1356: real time      0.1356
    TRIAL :  cpu time      2.8526: real time      2.8583
    CORREC:  cpu time      0.0015: real time      0.0015
    --------------------------------------------
      LOOP:  cpu time      3.9471: real time      3.9522

 eigenvalue-minimisations  : 10480
 total energy-change (2. order) :-0.1820836E+05  (-0.5453124E+05)
 number of electron    1042.9999440 magnetization 
 augmentation part      118.8743089 magnetization 

 Free energy of the ion-electron system (eV)
  ---------------------------------------------------
  alpha Z        PSCENC =      5383.97153279
  Ewald energy   TEWEN  =    -86585.10516480
  -Hartree energ DENC   =     -2068.69572640
  -exchange      EXHF   =         0.00000000
  -V(xc)+E(xc)   XCENC  =      2766.19660149
  PAW double counting   =     54209.96527043   -82833.42324267
  entropy T*S    EENTRO =        -0.00765182
  eigenvalues    EBANDS =    -40835.93631509
  atomic energy  EATOM  =    131754.67725141
  ---------------------------------------------------
  free energy    TOTEN  =    -18208.35744466 eV

  energy without entropy =   -18208.34979284  energy(sigma->0) =   -18208.35361875
  exchange ACFDT corr.  =         0.00000000  see jH, gK, PRB 81, 115126


--------------------------------------------------------------------------------------------------------




--------------------------------------- Iteration      1(   2)  ---------------------------------------


    TRIAL :  cpu time      3.1359: real time      3.1352
    CORREC:  cpu time      0.0015: real time      0.0015
    --------------------------------------------
      LOOP:  cpu time      3.1376: real time      3.1378

 eigenvalue-minimisations  : 13352
 total energy-change (2. order) :-0.4428239E+05  (-0.4279325E+05)
 number of electron    1042.9999440 magnetization 
 augmentation part      118.8743089 magnetization 

 Free energy of the ion-electron system (eV)
  ---------------------------------------------------
  alpha Z        PSCENC =      5383.97153279
  Ewald energy   TEWEN  =    -86585.10516480
  -Hartree energ DENC   =     -2068.69572640
  -exchange      EXHF   =         0.00000000
  -V(xc)+E(xc)   XCENC  =      2766.19660149
  PAW double counting   =     54209.96527043   -82833.42324267
  entropy T*S    EENTRO =        -0.01211020
  eigenvalues    EBANDS =    -85118.32052215
  atomic energy  EATOM  =    131754.67725141
  ---------------------------------------------------
  free energy    TOTEN  =    -62490.74611010 eV

  energy without entropy =   -62490.73399990  energy(sigma->0) =   -62490.74005500
  exchange ACFDT corr.  =         0.00000000  see jH, gK, PRB 81, 115126


--------------------------------------------------------------------------------------------------------




--------------------------------------- Iteration      1(   3)  ---------------------------------------


    TRIAL :  cpu time      3.3186: real time      3.3179
    CORREC:  cpu time      0.0016: real time      0.0016
    --------------------------------------------
      LOOP:  cpu time      3.3205: real time      3.3201

 eigenvalue-minimisations  : 14415
 total energy-change (2. order) :-0.5040729E+04  (-0.4539635E+04)
 number of electron    1042.9999440 magnetization 
 augmentation part      118.8743089 magnetization 

 Free energy of the ion-electron system (eV)
  ---------------------------------------------------
  alpha Z        PSCENC =      5383.97153279
  Ewald energy   TEWEN  =    -86585.10516480
  -Hartree energ DENC   =     -2068.69572640
  -exchange      EXHF   =         0.00000000
  -V(xc)+E(xc)   XCENC  =      2766.19660149
  PAW double counting   =     54209.96527043   -82833.42324267
  entropy T*S    EENTRO =        -0.02873255
  eigenvalues    EBANDS =    -90159.03271393
  atomic energy  EATOM  =    131754.67725141
  ---------------------------------------------------
  free energy    TOTEN  =    -67531.47492423 eV

  energy without entropy =   -67531.44619168  energy(sigma->0) =   -67531.46055796
  exchange ACFDT corr.  =         0.00000000  see jH, gK, PRB 81, 115126


--------------------------------------------------------------------------------------------------------




--------------------------------------- Iteration      1(   4)  ---------------------------------------


    TRIAL :  cpu time      3.8794: real time      3.8785
    CORREC:  cpu time      0.0016: real time      0.0016
    --------------------------------------------
      LOOP:  cpu time      3.8811: real time      3.8806

 eigenvalue-minimisations  : 18376
 total energy-change (2. order) :-0.7532878E+03  (-0.6602016E+03)
 number of electron    1042.9999440 magnetization 
 augmentation part      118.8743089 magnetization 

 Free energy of the ion-electron system (eV)
  ---------------------------------------------------
  alpha Z        PSCENC =      5383.97153279
  Ewald energy   TEWEN  =    -86585.10516480
  -Hartree energ DENC   =     -2068.69572640
  -exchange      EXHF   =         0.00000000
  -V(xc)+E(xc)   XCENC  =      2766.19660149
  PAW double counting   =     54209.96527043   -82833.42324267
  entropy T*S    EENTRO =        -0.04632542
  eigenvalues    EBANDS =    -90912.30290605
  atomic energy  EATOM  =    131754.67725141
  ---------------------------------------------------
  free energy    TOTEN  =    -68284.76270922 eV

  energy without entropy =   -68284.71638381  energy(sigma->0) =   -68284.73954652
  exchange ACFDT corr.  =         0.00000000  see jH, gK, PRB 81, 115126


--------------------------------------------------------------------------------------------------------




--------------------------------------- Iteration      1(   5)  ---------------------------------------


    POTLOK:  cpu time      1.3790: real time      1.3787
    SETDIJ:  cpu time      0.4230: real time      0.4229
    TRIAL :  cpu time    228.4404: real time    228.3996
    CORREC:  cpu time      0.0016: real time      0.0016
    CHARGE:  cpu time      0.2037: real time      0.2036
    --------------------------------------------
      LOOP:  cpu time    230.4478: real time    230.4070

 eigenvalue-minimisations  : 18760
 total energy-change (2. order) : 0.2946146E+05  (-0.7424815E+02)
 number of electron    1042.9998088 magnetization 
 augmentation part      476.6629444 magnetization 

 Free energy of the ion-electron system (eV)
  ---------------------------------------------------
  alpha Z        PSCENC =      5383.97153279
  Ewald energy   TEWEN  =    -86585.10516480
  -Hartree energ DENC   =     -2068.69572640
  -exchange      EXHF   =      4711.25072631
  -V(xc)+E(xc)   XCENC  =      1912.72317441
  PAW double counting   =     54800.84572050   -56800.13191054
  entropy T*S    EENTRO =        -0.02536184
  eigenvalues    EBANDS =    -91932.80827121
  atomic energy  EATOM  =    131754.67725141
  ---------------------------------------------------
  free energy    TOTEN  =    -38823.29802937 eV

  energy without entropy =   -38823.27266753  energy(sigma->0) =   -38823.28534845
  exchange ACFDT corr.  =        -1.01020476  see jH, gK, PRB 81, 115126


--------------------------------------------------------------------------------------------------------




--------------------------------------- Iteration      1(   6)  ---------------------------------------


    POTLOK:  cpu time      1.4226: real time      1.4224
    SETDIJ:  cpu time      0.4172: real time      0.4171
    TRIAL :  cpu time    227.5156: real time    227.4777
    CORREC:  cpu time    230.6001: real time    230.5628
    CHARGE:  cpu time      0.2141: real time      0.2140
    --------------------------------------------
      LOOP:  cpu time    460.1699: real time    460.0963

 eigenvalue-minimisations  :     0
 total energy-change (2. order) : 0.6718934E+05  (-0.1860004E+05)
 number of electron    1042.9998215 magnetization 
 augmentation part      456.4628619 magnetization 

 Free energy of the ion-electron system (eV)
  ---------------------------------------------------
  alpha Z        PSCENC =      5383.97153279
  Ewald energy   TEWEN  =    -86585.10516480
  -Hartree energ DENC   =    -76761.72228932
  -exchange      EXHF   =      4803.73264895
  -V(xc)+E(xc)   XCENC  =      3734.00432502
  PAW double counting   =    148500.25703260  -173155.76022862
  entropy T*S    EENTRO =        -0.01757775
  eigenvalues    EBANDS =     70692.01033947
  atomic energy  EATOM  =    131754.67725141
  ---------------------------------------------------
  free energy    TOTEN  =     28366.04008566 eV

  energy without entropy =    28366.05766341  energy(sigma->0) =    28366.04887454
  exchange ACFDT corr.  =        -0.60287724  see jH, gK, PRB 81, 115126


--------------------------------------------------------------------------------------------------------




--------------------------------------- Iteration      1(   7)  ---------------------------------------


    POTLOK:  cpu time      1.4886: real time      1.4884
    SETDIJ:  cpu time      0.4460: real time      0.4459
    TRIAL :  cpu time    228.0183: real time    227.9793
    CORREC:  cpu time    230.4408: real time    230.4117
    CHARGE:  cpu time      0.2028: real time      0.2027
    --------------------------------------------
      LOOP:  cpu time    460.5974: real time    460.5292

 eigenvalue-minimisations  :     0
 total energy-change (2. order) :-0.1787330E+05  (-0.5217716E+04)
 number of electron    1042.9998543 magnetization 
 augmentation part      423.5955368 magnetization 

 Free energy of the ion-electron system (eV)
  ---------------------------------------------------
  alpha Z        PSCENC =      5383.97153279
  Ewald energy   TEWEN  =    -86585.10516480
  -Hartree energ DENC   =    -42053.46899263
  -exchange      EXHF   =      3740.63008722
  -V(xc)+E(xc)   XCENC  =      2909.72958868
  PAW double counting   =    147802.56270658  -165558.78887385
  entropy T*S    EENTRO =        -0.02669676
  eigenvalues    EBANDS =     13098.55359871
  atomic energy  EATOM  =    131754.67725141
  ---------------------------------------------------
  free energy    TOTEN  =     10492.74415637 eV

  energy without entropy =    10492.77085314  energy(sigma->0) =    10492.75750475
  exchange ACFDT corr.  =      -168.44288870  see jH, gK, PRB 81, 115126


--------------------------------------------------------------------------------------------------------




--------------------------------------- Iteration      1(   8)  ---------------------------------------


    POTLOK:  cpu time      1.4709: real time      1.4711
    SETDIJ:  cpu time      0.4744: real time      0.4743
    TRIAL :  cpu time    228.7082: real time    228.6688
    CORREC:  cpu time    230.5135: real time    230.4772
    CHARGE:  cpu time      0.2194: real time      0.2194
    --------------------------------------------
      LOOP:  cpu time    461.3887: real time    461.3134

 eigenvalue-minimisations  :     0
 total energy-change (2. order) :-0.5179663E+04  (-0.2560842E+04)
 number of electron    1042.9998475 magnetization 
 augmentation part      427.2205177 magnetization 

 Free energy of the ion-electron system (eV)
  ---------------------------------------------------
  alpha Z        PSCENC =      5383.97153279
  Ewald energy   TEWEN  =    -86585.10516480
  -Hartree energ DENC   =    -30993.71084772
  -exchange      EXHF   =      3415.06708259
  -V(xc)+E(xc)   XCENC  =      2679.64857991
  PAW double counting   =    141186.60885275  -155412.54543179
  entropy T*S    EENTRO =        -0.03384196
  eigenvalues    EBANDS =     -6115.50405582
  atomic energy  EATOM  =    131754.67725141
  ---------------------------------------------------
  free energy    TOTEN  =      5313.08110256 eV

  energy without entropy =     5313.11494452  energy(sigma->0) =     5313.09802354
  exchange ACFDT corr.  =      -130.56300845  see jH, gK, PRB 81, 115126


--------------------------------------------------------------------------------------------------------




--------------------------------------- Iteration      1(   9)  ---------------------------------------


    POTLOK:  cpu time      1.5188: real time      1.5186
    SETDIJ:  cpu time      0.4302: real time      0.4301
    TRIAL :  cpu time    228.6790: real time    228.6398
    CORREC:  cpu time    229.5043: real time    229.4621
    CHARGE:  cpu time      0.2110: real time      0.2109
    --------------------------------------------
      LOOP:  cpu time    460.3441: real time    460.2626

 eigenvalue-minimisations  :     0
 total energy-change (2. order) :-0.1987095E+04  (-0.1736053E+04)
 number of electron    1042.9998393 magnetization 
 augmentation part      445.7204156 magnetization 

 Free energy of the ion-electron system (eV)
  ---------------------------------------------------
  alpha Z        PSCENC =      5383.97153279
  Ewald energy   TEWEN  =    -86585.10516480
  -Hartree energ DENC   =    -30082.64786397
  -exchange      EXHF   =      3401.05801039
  -V(xc)+E(xc)   XCENC  =      2668.42075849
  PAW double counting   =    133741.43264754  -148009.90855627
  entropy T*S    EENTRO =        -0.03287516
  eigenvalues    EBANDS =     -8945.87864278
  atomic energy  EATOM  =    131754.67725141
  ---------------------------------------------------
  free energy    TOTEN  =      3325.98613084 eV

  energy without entropy =     3326.01900600  energy(sigma->0) =     3326.00256842
  exchange ACFDT corr.  =       -94.25912386  see jH, gK, PRB 81, 115126


--------------------------------------------------------------------------------------------------------




--------------------------------------- Iteration      1(  10)  ---------------------------------------


    POTLOK:  cpu time      1.4518: real time      1.4516
    SETDIJ:  cpu time      0.5084: real time      0.5083
    TRIAL :  cpu time    228.5781: real time    228.5357
    CORREC:  cpu time    229.4868: real time    229.4438
    CHARGE:  cpu time      0.2065: real time      0.2064
    --------------------------------------------
      LOOP:  cpu time    460.2333: real time    460.1482

 eigenvalue-minimisations  :     0
 total energy-change (2. order) :-0.1135809E+04  (-0.1717137E+04)
 number of electron    1042.9998325 magnetization 
 augmentation part      459.7430860 magnetization 

 Free energy of the ion-electron system (eV)
  ---------------------------------------------------
  alpha Z        PSCENC =      5383.97153279
  Ewald energy   TEWEN  =    -86585.10516480
  -Hartree energ DENC   =    -32543.72224811
  -exchange      EXHF   =      3529.54367564
  -V(xc)+E(xc)   XCENC  =      2758.26318044
  PAW double counting   =    129943.80364120  -145346.80369221
  entropy T*S    EENTRO =        -0.01271377
  eigenvalues    EBANDS =     -6704.41834667
  atomic energy  EATOM  =    131754.67725141
  ---------------------------------------------------
  free energy    TOTEN  =      2190.17695452 eV

  energy without entropy =     2190.18966828  energy(sigma->0) =     2190.18331140
  exchange ACFDT corr.  =       -42.78123361  see jH, gK, PRB 81, 115126


--------------------------------------------------------------------------------------------------------




--------------------------------------- Iteration      1(  11)  ---------------------------------------


    POTLOK:  cpu time      1.5270: real time      1.5267
    SETDIJ:  cpu time      0.4142: real time      0.4141
    TRIAL :  cpu time    227.8034: real time    227.7602
    CORREC:  cpu time    229.5119: real time    229.4685
    CHARGE:  cpu time      0.2058: real time      0.2057
    --------------------------------------------
      LOOP:  cpu time    459.4639: real time    459.3796

 eigenvalue-minimisations  :     0
 total energy-change (2. order) :-0.1011710E+04  (-0.9394310E+03)
 number of electron    1042.9998296 magnetization 
 augmentation part      458.7791077 magnetization 

 Free energy of the ion-electron system (eV)
  ---------------------------------------------------
  alpha Z        PSCENC =      5383.97153279
  Ewald energy   TEWEN  =    -86585.10516480
  -Hartree energ DENC   =    -34169.61605199
  -exchange      EXHF   =      3670.85039551
  -V(xc)+E(xc)   XCENC  =      2849.35663241
  PAW double counting   =    129878.19274044  -146020.34542915
  entropy T*S    EENTRO =        -0.01689486
  eigenvalues    EBANDS =     -5583.50180848
  atomic energy  EATOM  =    131754.67725141
  ---------------------------------------------------
  free energy    TOTEN  =      1178.46738437 eV

  energy without entropy =     1178.48427923  energy(sigma->0) =     1178.47583180
  exchange ACFDT corr.  =        -0.56440311  see jH, gK, PRB 81, 115126


--------------------------------------------------------------------------------------------------------




--------------------------------------- Iteration      1(  12)  ---------------------------------------


    POTLOK:  cpu time      1.4672: real time      1.4669
    SETDIJ:  cpu time      0.4862: real time      0.4861
    TRIAL :  cpu time    227.5563: real time    227.5115
    CORREC:  cpu time    229.5584: real time    229.5121
    CHARGE:  cpu time      0.2076: real time      0.2075
    --------------------------------------------
      LOOP:  cpu time    459.2758: real time    459.1846

 eigenvalue-minimisations  :     0
 total energy-change (2. order) :-0.8948789E+03  (-0.5779823E+03)
 number of electron    1042.9998281 magnetization 
 augmentation part      452.1505609 magnetization 

 Free energy of the ion-electron system (eV)
  ---------------------------------------------------
  alpha Z        PSCENC =      5383.97153279
  Ewald energy   TEWEN  =    -86585.10516480
  -Hartree energ DENC   =    -34119.02227856
  -exchange      EXHF   =      3766.38299462
  -V(xc)+E(xc)   XCENC  =      2878.98488079
  PAW double counting   =    128086.64365358  -143923.94552068
  entropy T*S    EENTRO =        -0.00690584
  eigenvalues    EBANDS =     -6958.98192557
  atomic energy  EATOM  =    131754.67725141
  ---------------------------------------------------
  free energy    TOTEN  =       283.58852871 eV

  energy without entropy =      283.59543455  energy(sigma->0) =      283.59198163
  exchange ACFDT corr.  =        -0.84511123  see jH, gK, PRB 81, 115126


--------------------------------------------------------------------------------------------------------




--------------------------------------- Iteration      1(  13)  ---------------------------------------


    POTLOK:  cpu time      1.5323: real time      1.5325
    SETDIJ:  cpu time      0.4137: real time      0.4136
    TRIAL :  cpu time    227.8948: real time    227.8557
    CORREC:  cpu time    229.6688: real time    229.6290
    CHARGE:  cpu time      0.2180: real time      0.2180
    --------------------------------------------
      LOOP:  cpu time    459.7278: real time    459.6493

 eigenvalue-minimisations  :     0
 total energy-change (2. order) :-0.5872030E+03  (-0.3061080E+03)
 number of electron    1042.9998294 magnetization 
 augmentation part      449.3101795 magnetization 

 Free energy of the ion-electron system (eV)
  ---------------------------------------------------
  alpha Z        PSCENC =      5383.97153279
  Ewald energy   TEWEN  =    -86585.10516480
  -Hartree energ DENC   =    -33705.53964137
  -exchange      EXHF   =      3804.75262451
  -V(xc)+E(xc)   XCENC  =      2875.19500776
  PAW double counting   =    125933.59184806  -141054.88617020
  entropy T*S    EENTRO =        -0.00969597
  eigenvalues    EBANDS =     -8710.26482751
  atomic energy  EATOM  =    131754.67725141
  ---------------------------------------------------
  free energy    TOTEN  =      -303.61444519 eV

  energy without entropy =     -303.60474922  energy(sigma->0) =     -303.60959721
  exchange ACFDT corr.  =        -0.16434611  see jH, gK, PRB 81, 115126


--------------------------------------------------------------------------------------------------------




--------------------------------------- Iteration      1(  14)  ---------------------------------------


    POTLOK:  cpu time      1.4750: real time      1.4748
    SETDIJ:  cpu time      0.4941: real time      0.4940
    TRIAL :  cpu time    227.1575: real time    227.1177
    CORREC:  cpu time    229.4141: real time    229.3745
    CHARGE:  cpu time      0.2176: real time      0.2175
    --------------------------------------------
      LOOP:  cpu time    458.7586: real time    458.6791

 eigenvalue-minimisations  :     0
 total energy-change (2. order) :-0.3109650E+03  (-0.1551123E+03)
 number of electron    1042.9998315 magnetization 
 augmentation part      451.5254179 magnetization 

 Free energy of the ion-electron system (eV)
  ---------------------------------------------------
  alpha Z        PSCENC =      5383.97153279
  Ewald energy   TEWEN  =    -86585.10516480
  -Hartree energ DENC   =    -33737.58955132
  -exchange      EXHF   =      3809.42910288
  -V(xc)+E(xc)   XCENC  =      2873.85423675
  PAW double counting   =    121947.98947327  -136946.56190011
  entropy T*S    EENTRO =        -0.00790725
  eigenvalues    EBANDS =     -9115.23470764
  atomic energy  EATOM  =    131754.67725141
  ---------------------------------------------------
  free energy    TOTEN  =      -614.57942275 eV

  energy without entropy =     -614.57151550  energy(sigma->0) =     -614.57546912
  exchange ACFDT corr.  =        -0.26183593  see jH, gK, PRB 81, 115126


--------------------------------------------------------------------------------------------------------




[...]
   -.264E+02 0.125E+03 -.796E+02   0.263E+02 -.123E+03 0.821E+02   0.992E-01 -.215E+01 -.230E+01
   0.165E+02 0.800E+02 -.201E+02   -.164E+02 -.780E+02 0.210E+02   -.137E+00 -.172E+01 -.892E+00
   0.265E+02 0.125E+03 -.795E+02   -.263E+02 -.123E+03 0.821E+02   -.992E-01 -.215E+01 -.230E+01
   -.419E-02 0.710E+02 -.267E+02   -.372E-10 -.688E+02 0.280E+02   0.000E+00 -.197E+01 -.127E+01
   -.122E-01 0.951E+02 -.582E+02   -.589E-10 -.928E+02 0.605E+02   0.000E+00 -.194E+01 -.208E+01
   -.283E+02 -.361E+02 0.731E+02   0.279E+02 0.442E+02 -.776E+02   0.374E+00 -.699E+01 0.375E+01
   -.267E+02 -.591E+02 -.287E+02   0.263E+02 0.663E+02 0.243E+02   0.357E+00 -.607E+01 0.392E+01
   0.283E+02 -.361E+02 0.731E+02   -.279E+02 0.442E+02 -.776E+02   -.374E+00 -.699E+01 0.375E+01
   0.267E+02 -.591E+02 -.288E+02   -.263E+02 0.663E+02 0.243E+02   -.357E+00 -.607E+01 0.392E+01
   -.864E-02 -.320E+02 0.362E+02   -.537E-11 0.401E+02 -.399E+02   0.000E+00 -.697E+01 0.317E+01
   0.219E-01 -.382E+02 0.412E+00   -.318E-10 0.456E+02 -.489E+01   0.000E+00 -.634E+01 0.389E+01
   -.447E+01 0.291E+02 -.126E+02   0.434E+01 -.366E+02 0.163E+02   0.110E+00 0.644E+01 -.318E+01
   -.202E+01 0.251E+02 -.184E+02   0.193E+01 -.325E+02 0.222E+02   0.808E-01 0.638E+01 -.322E+01
   0.661E-02 0.520E+02 -.191E+02   -.132E-10 -.617E+02 0.234E+02   0.000E+00 0.834E+01 -.378E+01
   0.158E-02 0.258E+02 -.191E+02   -.384E-10 -.333E+02 0.228E+02   0.000E+00 0.647E+01 -.314E+01
   0.447E+01 0.291E+02 -.126E+02   -.434E+01 -.366E+02 0.163E+02   -.110E+00 0.644E+01 -.318E+01
   0.201E+01 0.251E+02 -.184E+02   -.193E+01 -.325E+02 0.222E+02   -.808E-01 0.638E+01 -.322E+01
   -.439E+01 0.436E+02 0.488E+02   0.436E+01 -.412E+02 -.447E+02   0.284E-01 -.200E+01 -.361E+01
   -.395E+01 0.607E+02 0.389E+02   0.393E+01 -.589E+02 -.341E+02   0.128E-01 -.153E+01 -.407E+01
   0.439E+01 0.435E+02 0.488E+02   -.436E+01 -.412E+02 -.447E+02   -.284E-01 -.200E+01 -.361E+01
   0.394E+01 0.607E+02 0.389E+02   -.393E+01 -.589E+02 -.341E+02   -.128E-01 -.153E+01 -.407E+01
   0.430E-02 0.501E+02 0.463E+02   -.186E-10 -.475E+02 -.420E+02   0.000E+00 -.220E+01 -.369E+01
   0.873E-02 0.615E+02 0.391E+02   -.106E-10 -.595E+02 -.345E+02   0.000E+00 -.180E+01 -.393E+01
   -.208E+02 -.888E+02 -.134E+02   0.212E+02 0.863E+02 0.849E+01   -.234E+00 0.226E+01 0.413E+01
   -.872E+01 -.828E+02 -.391E+02   0.901E+01 0.810E+02 0.340E+02   -.236E+00 0.161E+01 0.439E+01
   -.459E-02 -.120E+03 0.275E+01   -.131E-10 0.117E+03 -.730E+01   0.000E+00 0.242E+01 0.380E+01
   -.187E-01 -.917E+02 -.455E+02   -.237E-10 0.905E+02 0.412E+02   0.000E+00 0.105E+01 0.376E+01
   0.209E+02 -.888E+02 -.134E+02   -.212E+02 0.863E+02 0.849E+01   0.234E+00 0.226E+01 0.413E+01
   0.874E+01 -.828E+02 -.391E+02   -.901E+01 0.810E+02 0.340E+02   0.236E+00 0.161E+01 0.439E+01
   -.183E+02 0.888E+02 0.539E+02   0.184E+02 -.102E+03 -.497E+02   -.193E-01 0.115E+02 -.355E+01
   -.765E+01 0.109E+03 0.709E+02   0.760E+01 -.121E+03 -.670E+02   0.421E-01 0.109E+02 -.338E+01
   -.214E-01 0.551E+02 0.520E+02   -.150E-10 -.697E+02 -.480E+02   0.000E+00 0.127E+02 -.333E+01
   0.881E-03 0.992E+02 0.830E+02   -.215E-10 -.111E+03 -.803E+02   0.000E+00 0.996E+01 -.236E+01
   0.183E+02 0.887E+02 0.539E+02   -.184E+02 -.102E+03 -.497E+02   0.193E-01 0.115E+02 -.355E+01
   0.765E+01 0.109E+03 0.709E+02   -.760E+01 -.121E+03 -.670E+02   -.421E-01 0.109E+02 -.338E+01
   -.473E+01 -.133E+03 -.535E+02   0.471E+01 0.146E+03 0.498E+02   0.142E-01 -.107E+02 0.313E+01
   -.247E+01 -.127E+03 -.714E+02   0.230E+01 0.139E+03 0.685E+02   0.146E+00 -.105E+02 0.245E+01
   0.473E+01 -.133E+03 -.535E+02   -.471E+01 0.146E+03 0.498E+02   -.142E-01 -.107E+02 0.313E+01
   0.247E+01 -.127E+03 -.714E+02   -.230E+01 0.139E+03 0.685E+02   -.146E+00 -.105E+02 0.245E+01
   0.153E-02 -.126E+03 -.570E+02   -.289E-10 0.139E+03 0.533E+02   0.000E+00 -.106E+02 0.311E+01
   0.520E-02 -.124E+03 -.683E+02   -.247E-11 0.136E+03 0.649E+02   0.000E+00 -.106E+02 0.293E+01
   -.315E+01 -.122E+02 0.158E+02   0.317E+01 0.195E+02 -.192E+02   -.195E-01 -.633E+01 0.290E+01
   -.395E+01 -.404E+00 0.513E+01   0.378E+01 0.746E+01 -.916E+01   0.162E+00 -.611E+01 0.348E+01
   0.192E-02 -.633E+01 0.204E+02   -.139E-10 0.135E+02 -.240E+02   0.000E+00 -.616E+01 0.309E+01
   0.778E-02 0.580E+01 -.181E+00   -.350E-10 0.163E+01 -.383E+01   0.000E+00 -.644E+01 0.346E+01
   0.314E+01 -.122E+02 0.158E+02   -.317E+01 0.195E+02 -.192E+02   0.195E-01 -.633E+01 0.290E+01
   0.394E+01 -.409E+00 0.513E+01   -.378E+01 0.746E+01 -.916E+01   -.162E+00 -.611E+01 0.348E+01
   -.233E+03 -.155E+03 0.396E+02   0.254E+03 0.161E+03 -.385E+02   -.179E+02 -.530E+01 -.101E+01
   -.395E+01 0.680E+01 -.113E+02   0.350E+01 -.140E+02 0.149E+02   0.404E+00 0.623E+01 -.311E+01
   0.233E+03 -.155E+03 0.397E+02   -.254E+03 0.161E+03 -.385E+02   0.179E+02 -.530E+01 -.101E+01
   0.394E+01 0.679E+01 -.113E+02   -.350E+01 -.140E+02 0.149E+02   -.404E+00 0.623E+01 -.311E+01
   0.216E-01 -.257E+02 0.425E+01   -.282E-10 0.221E+02 -.191E+01   0.000E+00 0.309E+01 -.203E+01
   0.436E-02 0.929E+01 -.131E+02   -.362E-10 -.164E+02 0.167E+02   0.000E+00 0.613E+01 -.309E+01
   -.324E+02 0.959E+02 0.748E+02   0.315E+02 -.937E+02 -.709E+02   0.921E+00 -.196E+01 -.341E+01
   -.169E+02 0.735E+02 0.769E+01   0.176E+02 -.722E+02 -.193E+01   -.560E+00 -.114E+01 -.491E+01
   -.629E-02 0.276E+03 0.248E+03   -.265E-10 -.291E+03 -.258E+03   0.000E+00 0.129E+02 0.914E+01
   -.289E-01 0.720E+02 -.911E+01   -.167E-10 -.701E+02 0.145E+02   0.000E+00 -.153E+01 -.441E+01
   0.324E+02 0.959E+02 0.748E+02   -.315E+02 -.937E+02 -.709E+02   -.921E+00 -.196E+01 -.341E+01
   0.170E+02 0.735E+02 0.768E+01   -.176E+02 -.722E+02 -.193E+01   0.560E+00 -.114E+01 -.491E+01
   -.234E+02 -.334E+02 -.151E+02   0.244E+02 0.318E+02 0.950E+01   -.870E+00 0.128E+01 0.484E+01
   -.101E+02 -.339E+02 -.707E+02   0.986E+01 0.317E+02 0.658E+02   0.300E+00 0.179E+01 0.436E+01
   0.234E+02 -.334E+02 -.152E+02   -.244E+02 0.318E+02 0.950E+01   0.870E+00 0.128E+01 0.484E+01
   0.101E+02 -.339E+02 -.707E+02   -.986E+01 0.317E+02 0.658E+02   -.300E+00 0.179E+01 0.436E+01
   -.819E-02 -.444E+02 -.309E+02   -.220E-10 0.425E+02 0.262E+02   0.000E+00 0.165E+01 0.403E+01
   -.588E-02 -.477E+02 -.575E+02   -.241E-10 0.456E+02 0.529E+02   0.000E+00 0.175E+01 0.399E+01
   -.302E+02 0.192E+03 0.482E+02   0.294E+02 -.204E+03 -.446E+02   0.754E+00 0.103E+02 -.304E+01
   -.414E+01 0.133E+03 0.594E+02   0.410E+01 -.145E+03 -.563E+02   0.515E-01 0.105E+02 -.263E+01
   0.302E+02 0.192E+03 0.482E+02   -.294E+02 -.204E+03 -.446E+02   -.754E+00 0.103E+02 -.304E+01
   0.414E+01 0.133E+03 0.594E+02   -.410E+01 -.145E+03 -.563E+02   -.515E-01 0.105E+02 -.263E+01
   -.143E-01 0.153E+03 0.586E+02   -.299E-10 -.165E+03 -.549E+02   0.000E+00 0.106E+02 -.319E+01
   -.387E-03 0.131E+03 0.603E+02   -.266E-10 -.143E+03 -.571E+02   0.000E+00 0.107E+02 -.281E+01
   -.158E+02 -.102E+03 -.473E+02   0.165E+02 0.113E+03 0.432E+02   -.542E+00 -.100E+02 0.357E+01
   -.330E+02 -.110E+03 -.105E+03   0.317E+02 0.123E+03 0.102E+03   0.133E+01 -.112E+02 0.220E+01
   0.826E-02 -.978E+02 -.333E+02   -.233E-10 0.111E+03 0.285E+02   0.000E+00 -.111E+02 0.397E+01
   0.112E+00 -.420E+02 -.352E+03   -.102E-10 0.515E+02 0.371E+03   0.000E+00 -.803E+01 -.167E+02
   0.158E+02 -.102E+03 -.473E+02   -.165E+02 0.113E+03 0.432E+02   0.542E+00 -.100E+02 0.357E+01
   0.330E+02 -.110E+03 -.105E+03   -.317E+02 0.123E+03 0.102E+03   -.133E+01 -.112E+02 0.220E+01
 -----------------------------------------------------------------------------------------------
   0.543E+00 0.712E+01 -.786E+01   -.355E-12 -.142E-13 0.639E-12   -.111E-14 -.592E+01 0.678E+01
 
 
 POSITION                                       TOTAL-FORCE (eV/Angst)
 -----------------------------------------------------------------------------------
      9.14116      7.65831     -1.77676         0.017460     -0.046940      0.089627
      0.00091      6.28212     -7.42588        -0.003128      0.048019      0.026225
      3.04757      7.65431     -1.77137        -0.000000     -0.046955      0.094712
      3.04757      6.28909     -7.42225        -0.000000      0.059237      0.024593
      6.09668      7.65831     -1.77676        -0.017460     -0.046940      0.089627
      6.09423      6.28212     -7.42588         0.003128      0.048019      0.026225
      1.53531      9.39730     -3.88227         0.070745     -0.766548      0.104423
      1.52925      7.99185     -9.54100         0.003424     -0.049513     -0.040179
      4.55982      9.39730     -3.88227        -0.070745     -0.766548      0.104423
      4.56589      7.99185     -9.54100        -0.003424     -0.049513     -0.040179
      7.61892      9.41352     -3.87414        -0.000000     -0.173125      0.011187
      7.61892      8.00150     -9.53203        -0.000000     -0.073821     -0.033740
      1.53436      6.14809     -4.48729         0.004367     -0.101750     -0.014638
      1.52351      4.76068    -10.14119         0.002356     -0.023244     -0.008174
      4.56078      6.14809     -4.48729        -0.004367     -0.101750     -0.014638
      4.57162      4.76068    -10.14119        -0.002356     -0.023244     -0.008174
      7.61892      6.17946     -4.49562        -0.000000     -0.102253     -0.014087
      7.61892      4.76478    -10.13844        -0.000000     -0.034306      0.012983
      9.13290     10.87070     -1.15809        -0.072737      0.077755      0.144223
      9.13775      9.48460     -6.80411        -0.045424     -0.044186     -0.150494
      3.04757     10.88957     -1.21427        -0.000000      0.007792      0.182865
      3.04757      9.50112     -6.78177        -0.000000     -0.134944     -0.150092
      6.10494     10.87070     -1.15809         0.072737      0.077755      0.144223
      6.10009      9.48460     -6.80411         0.045424     -0.044186     -0.150494
      1.53790      1.52689     -1.82456        -0.250782      0.092872      0.234795
      1.53789      0.13744     -7.35885        -0.597086     -0.126887     -0.395008
      4.55723      1.52689     -1.82456         0.250782      0.092872      0.234795
      4.55725      0.13744     -7.35885         0.597086     -0.126887     -0.395008
      7.61892      1.51886     -1.78902        -0.000000      0.061288      0.136613
      7.61892      0.12780     -7.39666        -0.000000      0.039285     -0.097433
      9.13799      3.24961     -3.87998        -0.032697      0.047480     -0.095017
      9.14211      1.83277     -9.51832        -0.074205     -0.035263     -0.131037
      3.04757      3.15150     -3.91553        -0.000000      0.308031     -0.215499
      3.04757      1.83121     -9.52302        -0.000000      0.063964     -0.211502
      6.09985      3.24961     -3.87998         0.032697      0.047480     -0.095017
      6.09573      1.83277     -9.51832         0.074205     -0.035263     -0.131037
      0.07632      0.00023     -4.47422        -0.550456      0.493293     -0.084537
      9.14210     -1.35228    -10.14950         0.014143     -0.110476     -0.030199
      3.04757     -1.37152    -10.13459        -0.000000     -0.243139      0.000465
      6.01882      0.00023     -4.47422         0.550456      0.493293     -0.084537
      6.09574     -1.35228    -10.14950        -0.014143     -0.110476     -0.030199
      1.52070      4.73995     -1.15746         0.007891      0.118147      0.021147
      1.52361      3.37018     -6.81852        -0.056308      0.216976      0.064283
      4.57444      4.73995     -1.15746        -0.007891      0.118147      0.021147
      4.57153      3.37018     -6.81852         0.056308      0.216976      0.064283
      7.61892      4.73592     -1.15124        -0.000000      0.063839      0.004049
      7.61892      3.36180     -6.81062        -0.000000      0.097875      0.014744
      1.50903     11.87393     -1.48443         0.045112     -0.192258     -0.023173
      1.51970     10.49053     -7.07752         0.075562     -0.007978      0.247895
      4.58611     11.87393     -1.48443        -0.045112     -0.192258     -0.023173
      4.57543     10.49053     -7.07752        -0.075562     -0.007978      0.247895
      7.61892     11.88322     -1.44103        -0.000000     -0.221974      0.093851
      7.61892     10.48930     -7.09447        -0.000000     -0.149275      0.175723
      9.13672      5.16813     -4.21539         0.004723      0.175996     -0.110398
      9.14202      3.75499     -9.85351         0.013097      0.149445     -0.102837
      3.04757      5.12354     -4.21149        -0.000000      0.249860     -0.141871
      3.04757      3.75400     -9.85943        -0.000000      0.150829     -0.090504
      6.10112      5.16813     -4.21539        -0.004723      0.175996     -0.110398
      6.09582      3.75499     -9.85351        -0.013097      0.149445     -0.102837
      1.52116      7.48197     -3.16923        -0.001125      0.039595     -0.107473
      1.53013      6.10376     -8.83241         0.000347     -0.019149     -0.109523
      4.57397      7.48197     -3.16923         0.001125      0.039595     -0.107473
      4.56501      6.10376     -8.83241        -0.000347     -0.019149     -0.109523
      7.61892      7.49407     -3.16789        -0.000000      0.029105     -0.099685
      7.61892      6.10314     -8.82733        -0.000000     -0.025466     -0.108748
      9.13186      9.54536     -2.46916         0.084966      0.183053     -0.048792
      0.00211      8.16954     -8.13678        -0.005561      0.071506      0.160857
      3.04757      9.52534     -2.47281        -0.000000      0.176320     -0.055870
      3.04757      8.18170     -8.13392        -0.000000      0.045194      0.142653
      6.10598      9.54536     -2.46916        -0.084966      0.183053     -0.048792
      6.09302      8.16954     -8.13678         0.005561      0.071506      0.160857
      9.13672      8.97404     -5.03562         0.112703      0.576925     -0.002053
      0.00002      7.60526    -10.69037         0.005043      0.399761     -0.108971
      3.04757      8.92651     -5.03782        -0.000000      0.616554     -0.002178
      3.04757      7.63962    -10.72239        -0.000000      0.362861     -0.084112
      6.10112      8.97404     -5.03562        -0.112703      0.576925     -0.002053
      6.09511      7.60526    -10.69037        -0.005043      0.399761     -0.108971
      1.52208      8.04282     -0.60720        -0.003776     -0.367984      0.030245
      1.52305      6.66397     -6.26302         0.007111     -0.369746      0.050687
      4.57305      8.04282     -0.60720         0.003776     -0.367984      0.030245
      4.57208      6.66397     -6.26302        -0.007111     -0.369746      0.050687
      7.61892      8.04652     -0.60483        -0.000000     -0.359405      0.013845
      7.61892      6.68103     -6.27009        -0.000000     -0.369471      0.074594
      9.13830      5.74866     -1.42624         0.006256     -0.199410      0.101655
      9.13952      4.36926     -7.10792         0.022970     -0.212632      0.128053
      3.04757      5.74346     -1.43118        -0.000000     -0.195553      0.121644
      3.04757      4.37157     -7.10642        -0.000000     -0.244749      0.123896
      6.09954      5.74866     -1.42624        -0.006256     -0.199410      0.101655
      6.09831      4.36926     -7.10792        -0.022970     -0.212632      0.128053
      1.56686     -1.00927     -4.17661        -0.176362      0.051858     -0.065131
      1.51844     -2.37399     -9.86484         0.034285      0.235289     -0.123658
      4.52827     -1.00927     -4.17661         0.176362      0.051858     -0.065131
      4.57669     -2.37399     -9.86484        -0.034285      0.235289     -0.123658
      7.61892     -0.96127     -4.21842        -0.000000      0.047813     -0.084805
      7.61892     -2.36508     -9.86799        -0.000000      0.195481     -0.102934
      9.13593      1.35427     -3.17835         0.127254     -0.173259     -0.153960
      0.00533     -0.04651     -8.80631         0.008355      0.014045     -0.070201
      3.04757      1.39177     -3.08579        -0.000000      0.258874      0.251996
      3.04757     -0.05037     -8.82187        -0.000000      0.108663      0.219876
      6.10190      1.35427     -3.17835        -0.127254     -0.173259     -0.153960
      6.08981     -0.04651     -8.80631        -0.008355      0.014045     -0.070201
      1.49468      3.44251     -2.48969         0.063374     -0.144672      0.089208
      1.52923      2.03070     -8.12563         0.138783     -0.128720      0.289744
      4.60046      3.44251     -2.48969        -0.063374     -0.144672      0.089208
      4.56590      2.03070     -8.12563        -0.138783     -0.128720      0.289744
      7.61892      3.42145     -2.47933        -0.000000     -0.023694      0.088809
      7.61892      2.02270     -8.12039        -0.000000     -0.017924      0.144642
      1.50442      2.87482     -5.05393         0.079248      0.274094     -0.048481
      1.52156      1.45735    -10.68671         0.020297      0.356351     -0.004224
      4.59071      2.87482     -5.05393        -0.079248      0.274094     -0.048481
      4.57357      1.45735    -10.68671        -0.020297      0.356351     -0.004224
      7.61892      2.87402     -5.04172        -0.000000      0.345470     -0.063099
      7.61892      1.44477    -10.68314        -0.000000      0.383197     -0.037931
      0.01078      1.89383     -0.62703         0.002137     -0.365637      0.048046
      9.14016      0.52035     -6.24735         0.222190     -0.469476      0.135078
      3.04757      1.92371     -0.59459        -0.000000     -0.363283     -0.097542
      3.04757      0.53861     -6.25959        -0.000000     -0.225662     -0.118171
      6.08436      1.89383     -0.62703        -0.002137     -0.365637      0.048046
      6.09768      0.52035     -6.24735        -0.222190     -0.469476      0.135078
 -----------------------------------------------------------------------------------
    total drift:                                0.543274      0.002051      0.050951


--------------------------------------------------------------------------------------------------------



  FREE ENERGIE OF THE ION-ELECTRON SYSTEM (eV)
  ---------------------------------------------------
  free  energy   TOTEN  =      -940.98845363 eV

  energy  without entropy=     -940.96341301  energy(sigma->0) =     -940.97593332
 


--------------------------------------------------------------------------------------------------------


    POTLOK:  cpu time      1.9233: real time      1.9302


--------------------------------------------------------------------------------------------------------


 writing wavefunctions
     LOOP+:  cpu time  35024.8271: real time  35020.9442
    4ORBIT:  cpu time      0.0000: real time      0.0000

 total amount of memory used by VASP MPI-rank0  7406498. kBytes
=======================================================================

   base      :      30000. kBytes
   nonlr-proj:      46654. kBytes
   fftplans  :      51012. kBytes
   grid      :      90980. kBytes
   one-center:       1850. kBytes
   HF        :        129. kBytes
   wavefun   :    6956640. kBytes
   fock_wrk  :     229233. kBytes
 
  
  
 General timing and accounting informations for this job:
 ========================================================
  
                  Total CPU time used (sec):    35055.820
                            User time (sec):    35028.801
                          System time (sec):       27.020
                         Elapsed time (sec):    35054.089
  
                   Maximum memory used (kb):    13182656.
                   Average memory used (kb):          N/A
  
                          Minor page faults:     16835891
                          Major page faults:            3
                 Voluntary context switches:       655203
