<?xml version="1.0" encoding="ISO-8859-1"?>
<modeling>
 <generator>
  <i name="program" type="string">vasp </i>
  <i name="version" type="string">6.4.2  </i>
  <i name="subversion" type="string">20Jul23 (build Nov 12 2023 22:16:35) complex                          parallel </i>
  <i name="platform" type="string">LinuxNV </i>
  <i name="date" type="string">2025 03 21 </i>
  <i name="time" type="string">13:26:23 </i>
 </generator>
 <incar>
  <i type="int" name="ISTART">     0</i>
  <i type="string" name="PREC">Normal</i>
  <i type="string" name="ALGO">All</i>
  <i type="int" name="ISPIN">     1</i>
  <i type="int" name="ICHARG">     0</i>
  <i type="int" name="NELM">   500</i>
  <i type="int" name="IBRION">    -1</i>
  <i name="EDIFF">      0.00001000</i>
  <i name="EDIFFG">     -0.00500000</i>
  <i type="int" name="NSW">     0</i>
  <i type="int" name="ISIF">     2</i>
  <i name="ENCUT">    450.00000000</i>
  <i type="string" name="LREAL">Auto</i>
  <i type="logical" name="LPLANE"> T  </i>
  <i name="TIME">      0.40000000</i>
  <i type="int" name="ISMEAR">     0</i>
  <i name="SIGMA">      0.05000000</i>
  <i type="logical" name="LWAVE"> T  </i>
  <i type="logical" name="LCHARG"> T  </i>
  <i name="HFSCREEN">      0.20000000</i>
  <i type="logical" name="LHFCALC"> T  </i>
  <i type="int" name="LMAXFOCK">     4</i>
  <i name="AEXX">      0.32000000</i>
  <i type="string" name="PRECFOCK">Fast</i>
 </incar>
 <primitive_cell>
  <structure name="primitive_cell" >
   <crystal>
    <varray name="basis" >
     <v>       0.00000000      12.28047342       0.00000000 </v>
     <v>       9.14270205       0.00000000       0.00000000 </v>
     <v>       0.00000000      -2.76826177     -11.30069772 </v>
    </varray>
    <i name="volume">   1268.80515525 </i>
    <varray name="rec_basis" >
     <v>       0.00000000       0.08143009      -0.01994742 </v>
     <v>       0.10937686      -0.00000000       0.00000000 </v>
     <v>       0.00000000       0.00000000      -0.08849011 </v>
    </varray>
   </crystal>
   <varray name="positions" >
    <v>       0.65905896       0.99983107       0.15722593 </v>
    <v>       0.65968073       0.00009942       0.65711699 </v>
    <v>       0.65862554       0.33333333       0.15674897 </v>
    <v>       0.66017573       0.33333333       0.65679569 </v>
    <v>       0.65905896       0.66683560       0.15722593 </v>
    <v>       0.65968073       0.66656725       0.65711699 </v>
    <v>       0.84266422       0.16792780       0.34354251 </v>
    <v>       0.84109573       0.16726434       0.84428438 </v>
    <v>       0.84266422       0.49873887       0.34354251 </v>
    <v>       0.84109573       0.49940233       0.84428438 </v>
    <v>       0.84382274       0.83333333       0.34282302 </v>
    <v>       0.84170236       0.83333333       0.84349051 </v>
    <v>       0.59014894       0.16782322       0.39708058 </v>
    <v>       0.58995348       0.16663725       0.89739537 </v>
    <v>       0.59014894       0.49884345       0.39708058 </v>
    <v>       0.58995348       0.50002942       0.89739537 </v>
    <v>       0.59286963       0.83333333       0.39781774 </v>
    <v>       0.59023225       0.83333333       0.89715139 </v>
    <v>       0.90830307       0.99892756       0.10247983 </v>
    <v>       0.90805586       0.99945842       0.60209606 </v>
    <v>       0.91095968       0.33333333       0.10745047 </v>
    <v>       0.90895602       0.33333333       0.60012002 </v>
    <v>       0.90830307       0.66773911       0.10247983 </v>
    <v>       0.90805586       0.66720825       0.60209606 </v>
    <v>       0.16073009       0.16821072       0.16145524 </v>
    <v>       0.15798181       0.16820917       0.65118550 </v>
    <v>       0.16073009       0.49845594       0.16145524 </v>
    <v>       0.15798181       0.49845750       0.65118550 </v>
    <v>       0.15936681       0.83333333       0.15831040 </v>
    <v>       0.15795110       0.83333333       0.65453165 </v>
    <v>       0.34201142       0.99948433       0.34333961 </v>
    <v>       0.33910886       0.99993478       0.84227683 </v>
    <v>       0.33473206       0.33333333       0.34648604 </v>
    <v>       0.33907499       0.33333333       0.84269288 </v>
    <v>       0.34201142       0.66718234       0.34333961 </v>
    <v>       0.33910886       0.66673188       0.84227683 </v>
    <v>       0.08926832       0.00834720       0.39592446 </v>
    <v>       0.09233981       0.99993374       0.89813068 </v>
    <v>       0.09047574       0.33333333       0.89681128 </v>
    <v>       0.08926832       0.65831946       0.39592446 </v>
    <v>       0.09233981       0.66673293       0.89813068 </v>
    <v>       0.40906315       0.16632910       0.10242412 </v>
    <v>       0.41044625       0.16664735       0.60337157 </v>
    <v>       0.40906315       0.50033757       0.10242412 </v>
    <v>       0.41044625       0.50001932       0.60337157 </v>
    <v>       0.40861060       0.83333333       0.10187295 </v>
    <v>       0.40960623       0.83333333       0.60267270 </v>
    <v>       0.99650609       0.16505244       0.13135755 </v>
    <v>       0.99542323       0.16622004       0.62629044 </v>
    <v>       0.99650609       0.50161422       0.13135755 </v>
    <v>       0.99542323       0.50044663       0.62629044 </v>
    <v>       0.99639648       0.83333333       0.12751724 </v>
    <v>       0.99566072       0.83333333       0.62779028 </v>
    <v>       0.50492784       0.99934535       0.37302074 </v>
    <v>       0.50232144       0.99992495       0.87193826 </v>
    <v>       0.50121846       0.33333333       0.37267541 </v>
    <v>       0.50235869       0.33333333       0.87246188 </v>
    <v>       0.50492784       0.66732132       0.37302074 </v>
    <v>       0.50232144       0.66674171       0.87193826 </v>
    <v>       0.67247533       0.16637985       0.28044573 </v>
    <v>       0.67321376       0.16736050       0.78158120 </v>
    <v>       0.67247533       0.50028682       0.28044573 </v>
    <v>       0.67321376       0.49930617       0.78158120 </v>
    <v>       0.67343377       0.83333333       0.28032697 </v>
    <v>       0.67306139       0.83333333       0.78113127 </v>
    <v>       0.82653261       0.99881384       0.21849666 </v>
    <v>       0.82755437       0.00023128       0.72002441 </v>
    <v>       0.82497567       0.33333333       0.21881909 </v>
    <v>       0.82848731       0.33333333       0.71977177 </v>
    <v>       0.82653261       0.66785283       0.21849666 </v>
    <v>       0.82755437       0.66643539       0.72002441 </v>
    <v>       0.83120421       0.99934549       0.44560240 </v>
    <v>       0.83254220       0.00000256       0.94599196 </v>
    <v>       0.82737769       0.33333333       0.44579740 </v>
    <v>       0.83597936       0.33333333       0.94882579 </v>
    <v>       0.83120421       0.66732117       0.44560240 </v>
    <v>       0.83254220       0.66666410       0.94599196 </v>
    <v>       0.66703923       0.16648032       0.05373123 </v>
    <v>       0.66757886       0.16658686       0.55421530 </v>
    <v>       0.66703923       0.50018635       0.05373123 </v>
    <v>       0.66757886       0.50007981       0.55421530 </v>
    <v>       0.66729407       0.83333333       0.05352183 </v>
    <v>       0.66910856       0.83333333       0.55484084 </v>
    <v>       0.49656359       0.99951823       0.12620831 </v>
    <v>       0.49757426       0.99965226       0.62898047 </v>
    <v>       0.49623870       0.33333333       0.12664547 </v>
    <v>       0.49773165       0.33333333       0.62884759 </v>
    <v>       0.49656359       0.66714844       0.12620831 </v>
    <v>       0.49757426       0.66701440       0.62898047 </v>
    <v>       0.00112767       0.17137820       0.36958883 </v>
    <v>       0.00346405       0.16608234       0.87294091 </v>
    <v>       0.00112767       0.49528846       0.36958883 </v>
    <v>       0.00346405       0.50058432       0.87294091 </v>
    <v>       0.00586997       0.83333333       0.37328819 </v>
    <v>       0.00425218       0.83333333       0.87321996 </v>
    <v>       0.17367786       0.99925982       0.28125211 </v>
    <v>       0.17187577       0.00058281       0.77927163 </v>
    <v>       0.17488564       0.33333333       0.27306167 </v>
    <v>       0.17187182       0.33333333       0.78064796 </v>
    <v>       0.17367786       0.66740685       0.28125211 </v>
    <v>       0.17187577       0.66608386       0.77927163 </v>
    <v>       0.32998718       0.16348305       0.22031298 </v>
    <v>       0.32744540       0.16726253       0.71903782 </v>
    <v>       0.32998718       0.50318362       0.22031298 </v>
    <v>       0.32744540       0.49940413       0.71903782 </v>
    <v>       0.32806508       0.83333333       0.21939603 </v>
    <v>       0.32668966       0.83333333       0.71857407 </v>
    <v>       0.33490969       0.16454873       0.44722300 </v>
    <v>       0.33184486       0.16642369       0.94566843 </v>
    <v>       0.33490969       0.50211794       0.44722300 </v>
    <v>       0.33184486       0.50024298       0.94566843 </v>
    <v>       0.33460120       0.83333333       0.44614223 </v>
    <v>       0.33074916       0.83333333       0.94535207 </v>
    <v>       0.16672255       0.00117863       0.05548599 </v>
    <v>       0.16699100       0.99972174       0.55282878 </v>
    <v>       0.16850803       0.33333333       0.05261490 </v>
    <v>       0.16872137       0.33333333       0.55391179 </v>
    <v>       0.16672255       0.66548804       0.05548599 </v>
    <v>       0.16699100       0.66694493       0.55282878 </v>
   </varray>
  </structure>
  <varray name="primitive_index" >
   <v type="int" >        1 </v>
   <v type="int" >        2 </v>
   <v type="int" >        3 </v>
   <v type="int" >        4 </v>
   <v type="int" >        5 </v>
   <v type="int" >        6 </v>
   <v type="int" >        7 </v>
   <v type="int" >        8 </v>
   <v type="int" >        9 </v>
   <v type="int" >       10 </v>
   <v type="int" >       11 </v>
   <v type="int" >       12 </v>
   <v type="int" >       13 </v>
   <v type="int" >       14 </v>
   <v type="int" >       15 </v>
   <v type="int" >       16 </v>
   <v type="int" >       17 </v>
   <v type="int" >       18 </v>
   <v type="int" >       19 </v>
   <v type="int" >       20 </v>
   <v type="int" >       21 </v>
   <v type="int" >       22 </v>
   <v type="int" >       23 </v>
   <v type="int" >       24 </v>
   <v type="int" >       25 </v>
   <v type="int" >       26 </v>
   <v type="int" >       27 </v>
   <v type="int" >       28 </v>
   <v type="int" >       29 </v>
   <v type="int" >       30 </v>
   <v type="int" >       31 </v>
   <v type="int" >       32 </v>
   <v type="int" >       33 </v>
   <v type="int" >       34 </v>
   <v type="int" >       35 </v>
   <v type="int" >       36 </v>
   <v type="int" >       37 </v>
   <v type="int" >       38 </v>
   <v type="int" >       39 </v>
   <v type="int" >       40 </v>
   <v type="int" >       41 </v>
   <v type="int" >       42 </v>
   <v type="int" >       43 </v>
   <v type="int" >       44 </v>
   <v type="int" >       45 </v>
   <v type="int" >       46 </v>
   <v type="int" >       47 </v>
   <v type="int" >       48 </v>
   <v type="int" >       49 </v>
   <v type="int" >       50 </v>
   <v type="int" >       51 </v>
   <v type="int" >       52 </v>
   <v type="int" >       53 </v>
   <v type="int" >       54 </v>
   <v type="int" >       55 </v>
   <v type="int" >       56 </v>
   <v type="int" >       57 </v>
   <v type="int" >       58 </v>
   <v type="int" >       59 </v>
   <v type="int" >       60 </v>
   <v type="int" >       61 </v>
   <v type="int" >       62 </v>
   <v type="int" >       63 </v>
   <v type="int" >       64 </v>
   <v type="int" >       65 </v>
   <v type="int" >       66 </v>
   <v type="int" >       67 </v>
   <v type="int" >       68 </v>
   <v type="int" >       69 </v>
   <v type="int" >       70 </v>
   <v type="int" >       71 </v>
   <v type="int" >       72 </v>
   <v type="int" >       73 </v>
   <v type="int" >       74 </v>
   <v type="int" >       75 </v>
   <v type="int" >       76 </v>
   <v type="int" >       77 </v>
   <v type="int" >       78 </v>
   <v type="int" >       79 </v>
   <v type="int" >       80 </v>
   <v type="int" >       81 </v>
   <v type="int" >       82 </v>
   <v type="int" >       83 </v>
   <v type="int" >       84 </v>
   <v type="int" >       85 </v>
   <v type="int" >       86 </v>
   <v type="int" >       87 </v>
   <v type="int" >       88 </v>
   <v type="int" >       89 </v>
   <v type="int" >       90 </v>
   <v type="int" >       91 </v>
   <v type="int" >       92 </v>
   <v type="int" >       93 </v>
   <v type="int" >       94 </v>
   <v type="int" >       95 </v>
   <v type="int" >       96 </v>
   <v type="int" >       97 </v>
   <v type="int" >       98 </v>
   <v type="int" >       99 </v>
   <v type="int" >      100 </v>
   <v type="int" >      101 </v>
   <v type="int" >      102 </v>
   <v type="int" >      103 </v>
   <v type="int" >      104 </v>
   <v type="int" >      105 </v>
   <v type="int" >      106 </v>
   <v type="int" >      107 </v>
   <v type="int" >      108 </v>
   <v type="int" >      109 </v>
   <v type="int" >      110 </v>
   <v type="int" >      111 </v>
   <v type="int" >      112 </v>
   <v type="int" >      113 </v>
   <v type="int" >      114 </v>
   <v type="int" >      115 </v>
   <v type="int" >      116 </v>
   <v type="int" >      117 </v>
   <v type="int" >      118 </v>
   <v type="int" >      119 </v>
  </varray>
 </primitive_cell>
 <kpoints>
  <generation param="Gamma">
   <v type="int" name="divisions">       2        2        2 </v>
   <v name="usershift">      0.00000000       0.00000000       0.00000000 </v>
   <v name="genvec1">      0.50000000       0.00000000       0.00000000 </v>
   <v name="genvec2">      0.00000000       0.50000000       0.00000000 </v>
   <v name="genvec3">      0.00000000       0.00000000       0.50000000 </v>
   <v name="shift">      0.00000000       0.00000000       0.00000000 </v>
  </generation>
  <varray name="kpointlist" >
   <v>       0.00000000       0.00000000       0.00000000 </v>
   <v>       0.50000000       0.00000000       0.00000000 </v>
   <v>       0.00000000       0.50000000       0.00000000 </v>
   <v>       0.50000000       0.50000000       0.00000000 </v>
   <v>       0.00000000       0.00000000       0.50000000 </v>
   <v>       0.50000000       0.00000000       0.50000000 </v>
   <v>       0.00000000       0.50000000       0.50000000 </v>
   <v>       0.50000000       0.50000000       0.50000000 </v>
  </varray>
  <varray name="weights" >
   <v>       0.12500000 </v>
   <v>       0.12500000 </v>
   <v>       0.12500000 </v>
   <v>       0.12500000 </v>
   <v>       0.12500000 </v>
   <v>       0.12500000 </v>
   <v>       0.12500000 </v>
   <v>       0.12500000 </v>
  </varray>
 </kpoints>
 <parameters>
  <separator name="general" >
   <i type="string" name="SYSTEM">unknown system</i>
   <i type="logical" name="LCOMPAT"> F  </i>
  </separator>
  <separator name="electronic" >
   <i type="string" name="PREC">normal</i>
   <i name="ENMAX">    450.00000000</i>
   <i name="ENAUG">    605.39200000</i>
   <i name="EDIFF">      0.00001000</i>
   <i type="int" name="IALGO">    58</i>
   <i type="int" name="IWAVPR">    10</i>
   <i type="int" name="NBANDS">   625</i>
   <i type="int" name="NBANDSLOW">    -1</i>
   <i type="int" name="NBANDSHIGH">    -1</i>
   <i name="NELECT">   1043.00000000</i>
   <i type="int" name="TURBO">     0</i>
   <i type="int" name="IRESTART">     0</i>
   <i type="int" name="NREBOOT">     0</i>
   <i type="int" name="NMIN">     0</i>
   <i name="EREF">      0.00000000</i>
   <separator name="electronic smearing" >
    <i type="int" name="ISMEAR">     0</i>
    <i name="SIGMA">      0.05000000</i>
    <i name="KSPACING">      0.50000000</i>
    <i type="logical" name="KGAMMA"> T  </i>
    <i type="logical" name="KBLOWUP"> T  </i>
   </separator>
   <separator name="electronic projectors" >
    <i type="logical" name="LREAL"> T  </i>
    <v name="ROPT">     -0.00050000     -0.00050000</v>
    <i type="int" name="LMAXPAW">  -100</i>
    <i type="int" name="LMAXMIX">     2</i>
    <i type="logical" name="NLSPLINE"> F  </i>
   </separator>
   <separator name="electronic startup" >
    <i type="int" name="ISTART">     0</i>
    <i type="int" name="ICHARG">     0</i>
    <i type="int" name="INIWAV">     1</i>
   </separator>
   <separator name="electronic spin" >
    <i type="int" name="ISPIN">     1</i>
    <i type="logical" name="LNONCOLLINEAR"> F  </i>
    <v name="MAGMOM">      1.00000000      1.00000000      1.00000000      1.00000000      1.00000000      1.00000000      1.00000000      1.00000000      1.00000000      1.00000000      1.00000000      1.00000000      1.00000000      1.00000000      1.00000000      1.00000000      1.00000000      1.00000000      1.00000000      1.00000000
      1.00000000      1.00000000      1.00000000      1.00000000      1.00000000      1.00000000      1.00000000      1.00000000      1.00000000      1.00000000      1.00000000      1.00000000      1.00000000      1.00000000      1.00000000      1.00000000      1.00000000      1.00000000      1.00000000      1.00000000
      1.00000000      1.00000000      1.00000000      1.00000000      1.00000000      1.00000000      1.00000000      1.00000000      1.00000000      1.00000000      1.00000000      1.00000000      1.00000000      1.00000000      1.00000000      1.00000000      1.00000000      1.00000000      1.00000000      1.00000000
      1.00000000      1.00000000      1.00000000      1.00000000      1.00000000      1.00000000      1.00000000      1.00000000      1.00000000      1.00000000      1.00000000      1.00000000      1.00000000      1.00000000      1.00000000      1.00000000      1.00000000      1.00000000      1.00000000      1.00000000
      1.00000000      1.00000000      1.00000000      1.00000000      1.00000000      1.00000000      1.00000000      1.00000000      1.00000000      1.00000000      1.00000000      1.00000000      1.00000000      1.00000000      1.00000000      1.00000000      1.00000000      1.00000000      1.00000000      1.00000000
      1.00000000      1.00000000      1.00000000      1.00000000      1.00000000      1.00000000      1.00000000      1.00000000      1.00000000      1.00000000      1.00000000      1.00000000      1.00000000      1.00000000      1.00000000      1.00000000      1.00000000      1.00000000      1.00000000</v>
    <i name="NUPDOWN">     -1.00000000</i>
    <i type="logical" name="LSORBIT"> F  </i>
    <v name="SAXIS">      0.00000000      0.00000000      1.00000000</v>
    <i type="logical" name="LSPIRAL"> F  </i>
    <v name="QSPIRAL">      0.00000000      0.00000000      0.00000000</v>
    <i type="logical" name="LZEROZ"> F  </i>
   </separator>
   <separator name="electronic exchange-correlation" >
    <i type="logical" name="LASPH"> F  </i>
    <i type="logical" name="LMETAGGA"> F  </i>
   </separator>
   <separator name="electronic convergence" >
    <i type="int" name="NELM">   500</i>
    <i type="int" name="NELMDL">    -5</i>
    <i type="int" name="NELMIN">     2</i>
    <i name="ENINI">    450.00000000</i>
    <separator name="electronic convergence detail" >
     <i type="logical" name="LDIAG"> T  </i>
     <i type="logical" name="LSUBROT"> F  </i>
     <i name="WEIMIN">      0.00000000</i>
     <i name="EBREAK">      0.00000000</i>
     <i name="DEPER">      0.30000000</i>
     <i type="int" name="NRMM">     4</i>
     <i name="TIME">      0.40000000</i>
    </separator>
   </separator>
   <separator name="electronic mixer" >
    <i name="AMIX">      0.40000000</i>
    <i name="BMIX">      1.00000000</i>
    <i name="AMIN">      0.10000000</i>
    <i name="AMIX_MAG">      1.60000000</i>
    <i name="BMIX_MAG">      1.00000000</i>
    <separator name="electronic mixer details" >
     <i type="int" name="IMIX">     4</i>
     <i type="logical" name="MIXFIRST"> F  </i>
     <i type="int" name="MAXMIX">   -45</i>
     <i name="WC">    100.00000000</i>
     <i type="int" name="INIMIX">     1</i>
     <i type="int" name="MIXPRE">     1</i>
     <i type="int" name="MREMOVE">     5</i>
    </separator>
   </separator>
   <separator name="electronic dipolcorrection" >
    <i type="logical" name="LDIPOL"> F  </i>
    <i type="logical" name="LMONO"> F  </i>
    <i type="int" name="IDIPOL">     0</i>
    <i name="EPSILON">      1.00000000</i>
    <v name="DIPOL">   -100.00000000   -100.00000000   -100.00000000</v>
    <i name="EFIELD">      0.00000000</i>
   </separator>
  </separator>
  <separator name="grids" >
   <i type="int" name="NGX">    64</i>
   <i type="int" name="NGY">    48</i>
   <i type="int" name="NGZ">    60</i>
   <i type="int" name="NGXF">   128</i>
   <i type="int" name="NGYF">    96</i>
   <i type="int" name="NGZF">   120</i>
   <i type="logical" name="ADDGRID"> F  </i>
  </separator>
  <separator name="ionic" >
   <i type="int" name="NSW">     0</i>
   <i type="int" name="IBRION">    -1</i>
   <i type="int" name="MDALGO">     0</i>
   <i type="int" name="ISIF">     2</i>
   <i name="PSTRESS">      0.00000000</i>
   <i name="EDIFFG">     -0.00500000</i>
   <i type="int" name="NFREE">     0</i>
   <i name="POTIM">      0.50000000</i>
   <i name="SMASS">     -3.00000000</i>
   <i name="SCALEE">      1.00000000</i>
  </separator>
  <separator name="ionic md" >
   <i name="TEBEG">      0.00010000</i>
   <i name="TEEND">      0.00010000</i>
   <i type="int" name="NBLOCK">     1</i>
   <i type="int" name="KBLOCK">     1</i>
   <i type="int" name="NPACO">   256</i>
   <i name="APACO">     10.00000000</i>
  </separator>
  <separator name="symmetry" >
   <i type="int" name="ISYM">     3</i>
   <i name="SYMPREC">      0.00001000</i>
  </separator>
  <separator name="dos" >
   <i type="int" name="LORBIT">     0</i>
   <v name="RWIGS">     -1.00000000     -1.00000000</v>
   <i type="int" name="NEDOS">   301</i>
   <i name="EMIN">     10.00000000</i>
   <i name="EMAX">    -10.00000000</i>
   <i name="EFERMI">      0.00000000</i>
  </separator>
  <separator name="writing" >
   <i type="int" name="NWRITE">     2</i>
   <i type="logical" name="LWAVE"> T  </i>
   <i type="logical" name="LDOWNSAMPLE"> F  </i>
   <i type="logical" name="LCHARG"> T  </i>
   <i type="logical" name="LPARD"> F  </i>
   <i type="logical" name="LVTOT"> F  </i>
   <i type="logical" name="LVHAR"> F  </i>
   <i type="logical" name="LELF"> F  </i>
   <i type="logical" name="LOPTICS"> F  </i>
   <v name="STM">      0.00000000      0.00000000      0.00000000      0.00000000      0.00000000      0.00000000      0.00000000</v>
  </separator>
  <separator name="performance" >
   <i type="int" name="NPAR">     1</i>
   <i type="int" name="NSIM">     4</i>
   <i type="int" name="NBLK">    -1</i>
   <i type="logical" name="LPLANE"> T  </i>
   <i type="logical" name="LSCALAPACK"> T  </i>
   <i type="logical" name="LSCAAWARE"> F  </i>
   <i type="logical" name="LSCALU"> F  </i>
   <i type="logical" name="LASYNC"> F  </i>
   <i type="logical" name="LORBITALREAL"> F  </i>
  </separator>
  <separator name="miscellaneous" >
   <i type="int" name="IDIOT">     3</i>
   <i type="int" name="PHON_NSTRUCT">    -1</i>
   <i type="logical" name="LMUSIC"> F  </i>
   <v name="POMASS">     69.72300000     16.00000000</v>
   <v name="DARWINR">      0.00000000      0.00000000</v>
   <v name="DARWINV">      1.00000000      1.00000000</v>
   <i type="logical" name="LCORR"> T  </i>
  </separator>
  <i type="logical" name="GGA_COMPAT"> T  </i>
  <i type="logical" name="LBERRY"> F  </i>
  <i type="int" name="ICORELEVEL">     0</i>
  <i type="logical" name="LDAU"> F  </i>
  <i type="int" name="I_CONSTRAINED_M">     0</i>
  <separator name="electronic exchange-correlation" >
   <i type="string" name="GGA">--</i>
   <i type="int" name="VOSKOWN">     0</i>
   <i type="logical" name="LHFCALC"> T  </i>
   <i type="string" name="PRECFOCK">fast</i>
   <i type="logical" name="LSYMGRAD"> F  </i>
   <i type="logical" name="LHFONE"> F  </i>
   <i type="logical" name="LRHFCALC"> F  </i>
   <i type="logical" name="LTHOMAS"> F  </i>
   <i type="logical" name="LMODELHF"> F  </i>
   <i type="logical" name="LFOCKACE"> T  </i>
   <i name="ENCUT4O">     -1.00000000</i>
   <i type="int" name="EXXOEP">     0</i>
   <i type="int" name="FOURORBIT">     0</i>
   <i name="AEXX">      0.32000000</i>
   <i name="HFALPHA">     -1.00000000</i>
   <i name="MCALPHA">      0.00000000</i>
   <i name="ALDAX">      0.68000000</i>
   <i name="AGGAX">      0.68000000</i>
   <i name="ALDAC">      1.00000000</i>
   <i name="AGGAC">      1.00000000</i>
   <i type="int" name="NKREDX">     1</i>
   <i type="int" name="NKREDY">     1</i>
   <i type="int" name="NKREDZ">     1</i>
   <i type="logical" name="SHIFTRED"> F  </i>
   <i type="logical" name="ODDONLY"> F  </i>
   <i type="logical" name="EVENONLY"> F  </i>
   <i type="int" name="LMAXFOCK">     4</i>
   <i type="int" name="NMAXFOCKAE">     1</i>
   <i type="logical" name="LFOCKAEDFT"> F  </i>
   <i name="HFSCREEN">      0.20000000</i>
   <i name="HFSCREENC">      0.20000000</i>
   <i type="int" name="NBANDSGWLOW">     1</i>
  </separator>
  <separator name="vdW DFT" >
   <i type="logical" name="LUSE_VDW"> F  </i>
   <i type="int" name="IVDW_NL">     1</i>
   <i type="logical" name="LSPIN_VDW"> F  </i>
   <i name="Zab_VDW">     -0.84910000</i>
   <i name="PARAM1">      0.12340000</i>
   <i name="PARAM2">      1.00000000</i>
   <i name="PARAM3">      0.00000000</i>
  </separator>
  <separator name="model GW" >
   <i type="int" name="MODEL_GW">     0</i>
   <i name="MODEL_EPS0">      6.39733692</i>
   <i name="MODEL_ALPHA">      1.00000000</i>
  </separator>
  <separator name="linear response parameters" >
   <i type="logical" name="LEPSILON"> F  </i>
   <i type="logical" name="LRPA"> F  </i>
   <i type="logical" name="LNABLA"> F  </i>
   <i type="logical" name="LVEL"> F  </i>
   <i name="CSHIFT">      0.10000000</i>
   <i name="OMEGAMAX">     -1.00000000</i>
   <i name="DEG_THRESHOLD">      0.00200000</i>
   <i name="RTIME">     -0.10000000</i>
   <i name="WPLASMAI">      0.00000000</i>
   <v name="DFIELD">      0.00000000      0.00000000      0.00000000</v>
   <v name="WPLASMA">      0.00000000      0.00000000      0.00000000      0.00000000      0.00000000      0.00000000      0.00000000      0.00000000      0.00000000</v>
  </separator>
  <separator name="orbital magnetization" >
   <i type="logical" name="NUCIND"> F  </i>
   <v name="MAGPOS">      0.00000000      0.00000000      0.00000000</v>
   <i type="logical" name="LNICSALL"> T  </i>
   <i type="logical" name="ORBITALMAG"> F  </i>
   <i type="logical" name="LMAGBLOCH"> F  </i>
   <i type="logical" name="LCHIMAG"> F  </i>
   <i type="logical" name="LGAUGE"> T  </i>
   <i type="int" name="MAGATOM">     0</i>
   <v name="MAGDIPOL">      0.00000000      0.00000000      0.00000000</v>
   <v name="AVECCONST">      0.00000000      0.00000000      0.00000000</v>
  </separator>
  <separator name="response functions" >
   <i type="logical" name="LALL_IN_ONE"> F  </i>
   <i type="int" name="IALL_IN_ONE">    -1</i>
   <i type="int" name="NBANDS_WAVE">    -1</i>
   <i type="logical" name="LFINITE_TEMPERATURE"> F  </i>
   <i type="logical" name="LADDER"> F  </i>
   <i type="logical" name="LRPAFORCE"> F  </i>
   <i type="logical" name="LFXC"> F  </i>
   <i type="logical" name="LHARTREE"> T  </i>
   <i type="int" name="IBSE">     0</i>
   <v type="int" name="KPOINT">    -1     0     0     0</v>
   <i type="logical" name="LTCTC"> F  </i>
   <i type="logical" name="LTCTE"> F  </i>
   <i type="logical" name="LTETE"> F  </i>
   <i type="logical" name="LTRIPLET"> F  </i>
   <i type="logical" name="LFXCEPS"> F  </i>
   <i type="logical" name="LFXHEG"> F  </i>
   <i type="int" name="NATURALO">     2</i>
   <i type="logical" name="LHOLEGF"> F  </i>
   <i type="logical" name="L2ORDER"> F  </i>
   <i type="logical" name="LDMP1"> F  </i>
   <i type="logical" name="LMP2LT"> F  </i>
   <i type="logical" name="LSMP2LT"> F  </i>
   <i type="logical" name="LGWLF"> F  </i>
   <i name="ENCUTGW">     -1.60000002</i>
   <i name="ENCUTGWSOFT">     -1.60000002</i>
   <i name="ENCUTLF">     -1.00000000</i>
   <i type="logical" name="LESF_SPLINES"> F  </i>
   <i type="int" name="LMAXMP2">    -1</i>
   <i name="SCISSOR">      0.00000000</i>
   <i type="int" name="NOMEGA">     0</i>
   <i type="int" name="NOMEGAR">     0</i>
   <i type="int" name="NBANDSGW">    -1</i>
   <i type="int" name="NBANDSO">    -1</i>
   <i type="int" name="NBANDSV">    -1</i>
   <i type="int" name="NELMGW">     1</i>
   <i type="int" name="NELMHF">     1</i>
   <i type="int" name="DIM">     3</i>
   <i type="int" name="IESPILON">     4</i>
   <i type="int" name="ANTIRES">     0</i>
   <i name="OMEGAMAX">    -30.00000000</i>
   <i name="OMEGAMIN">    -30.00000000</i>
   <i name="OMEGATL">   -200.00000000</i>
   <i type="int" name="OMEGAGRID">     0</i>
   <i name="CSHIFT">     -0.10000000</i>
   <i type="logical" name="LSELFENERGY"> F  </i>
   <i type="logical" name="LSPECTRAL"> F  </i>
   <i type="logical" name="LSPECTRALGW"> F  </i>
   <i type="logical" name="LSINGLES"> F  </i>
   <i type="logical" name="LFERMIGW"> F  </i>
   <i type="logical" name="ODDONLYGW"> F  </i>
   <i type="logical" name="EVENONLYGW"> F  </i>
   <i type="int" name="NKREDLFX">     1</i>
   <i type="int" name="NKREDLFY">     1</i>
   <i type="int" name="NKREDLFZ">     1</i>
   <i type="int" name="MAXMEM">  2800</i>
   <i type="int" name="TELESCOPE">     0</i>
   <i type="int" name="NTAUPAR">    -1</i>
   <i type="int" name="NOMEGAPAR">    -1</i>
   <i name="DAMP_NEWTON">      0.80000001</i>
   <i name="LAMBDA">      1.00000000</i>
  </separator>
  <separator name="External order field" >
   <i name="OFIELD_KAPPA">      0.00000000</i>
   <v name="OFIELD_K">      0.00000000      0.00000000      0.00000000</v>
   <i name="OFIELD_Q6_NEAR">      0.00000000</i>
   <i name="OFIELD_Q6_FAR">      0.00000000</i>
   <i name="OFIELD_A">      0.00000000</i>
  </separator>
  <separator name="optional k-points parameters" >
   <i type="int" name="KPOINTS_OPT_MODE">     1</i>
   <i type="logical" name="LKPOINTS_OPT"> F  </i>
  </separator>
 </parameters>
 <atominfo>
  <atoms>     119 </atoms>
  <types>       2 </types>
  <array name="atoms" >
   <dimension dim="1">ion</dimension>
   <field type="string">element</field>
   <field type="int">atomtype</field>
   <set>
    <rc><c>Ga</c><c>   1</c></rc>
    <rc><c>Ga</c><c>   1</c></rc>
    <rc><c>Ga</c><c>   1</c></rc>
    <rc><c>Ga</c><c>   1</c></rc>
    <rc><c>Ga</c><c>   1</c></rc>
    <rc><c>Ga</c><c>   1</c></rc>
    <rc><c>Ga</c><c>   1</c></rc>
    <rc><c>Ga</c><c>   1</c></rc>
    <rc><c>Ga</c><c>   1</c></rc>
    <rc><c>Ga</c><c>   1</c></rc>
    <rc><c>Ga</c><c>   1</c></rc>
    <rc><c>Ga</c><c>   1</c></rc>
    <rc><c>Ga</c><c>   1</c></rc>
    <rc><c>Ga</c><c>   1</c></rc>
    <rc><c>Ga</c><c>   1</c></rc>
    <rc><c>Ga</c><c>   1</c></rc>
    <rc><c>Ga</c><c>   1</c></rc>
    <rc><c>Ga</c><c>   1</c></rc>
    <rc><c>Ga</c><c>   1</c></rc>
    <rc><c>Ga</c><c>   1</c></rc>
    <rc><c>Ga</c><c>   1</c></rc>
    <rc><c>Ga</c><c>   1</c></rc>
    <rc><c>Ga</c><c>   1</c></rc>
    <rc><c>Ga</c><c>   1</c></rc>
    <rc><c>Ga</c><c>   1</c></rc>
    <rc><c>Ga</c><c>   1</c></rc>
    <rc><c>Ga</c><c>   1</c></rc>
    <rc><c>Ga</c><c>   1</c></rc>
    <rc><c>Ga</c><c>   1</c></rc>
    <rc><c>Ga</c><c>   1</c></rc>
    <rc><c>Ga</c><c>   1</c></rc>
    <rc><c>Ga</c><c>   1</c></rc>
    <rc><c>Ga</c><c>   1</c></rc>
    <rc><c>Ga</c><c>   1</c></rc>
    <rc><c>Ga</c><c>   1</c></rc>
    <rc><c>Ga</c><c>   1</c></rc>
    <rc><c>Ga</c><c>   1</c></rc>
    <rc><c>Ga</c><c>   1</c></rc>
    <rc><c>Ga</c><c>   1</c></rc>
    <rc><c>Ga</c><c>   1</c></rc>
    <rc><c>Ga</c><c>   1</c></rc>
    <rc><c>Ga</c><c>   1</c></rc>
    <rc><c>Ga</c><c>   1</c></rc>
    <rc><c>Ga</c><c>   1</c></rc>
    <rc><c>Ga</c><c>   1</c></rc>
    <rc><c>Ga</c><c>   1</c></rc>
    <rc><c>Ga</c><c>   1</c></rc>
    <rc><c>O </c><c>   2</c></rc>
    <rc><c>O </c><c>   2</c></rc>
    <rc><c>O </c><c>   2</c></rc>
    <rc><c>O </c><c>   2</c></rc>
    <rc><c>O </c><c>   2</c></rc>
    <rc><c>O </c><c>   2</c></rc>
    <rc><c>O </c><c>   2</c></rc>
    <rc><c>O </c><c>   2</c></rc>
    <rc><c>O </c><c>   2</c></rc>
    <rc><c>O </c><c>   2</c></rc>
    <rc><c>O </c><c>   2</c></rc>
    <rc><c>O </c><c>   2</c></rc>
    <rc><c>O </c><c>   2</c></rc>
    <rc><c>O </c><c>   2</c></rc>
    <rc><c>O </c><c>   2</c></rc>
    <rc><c>O </c><c>   2</c></rc>
    <rc><c>O </c><c>   2</c></rc>
    <rc><c>O </c><c>   2</c></rc>
    <rc><c>O </c><c>   2</c></rc>
    <rc><c>O </c><c>   2</c></rc>
    <rc><c>O </c><c>   2</c></rc>
    <rc><c>O </c><c>   2</c></rc>
    <rc><c>O </c><c>   2</c></rc>
    <rc><c>O </c><c>   2</c></rc>
    <rc><c>O </c><c>   2</c></rc>
    <rc><c>O </c><c>   2</c></rc>
    <rc><c>O </c><c>   2</c></rc>
    <rc><c>O </c><c>   2</c></rc>
    <rc><c>O </c><c>   2</c></rc>
    <rc><c>O </c><c>   2</c></rc>
    <rc><c>O </c><c>   2</c></rc>
    <rc><c>O </c><c>   2</c></rc>
    <rc><c>O </c><c>   2</c></rc>
    <rc><c>O </c><c>   2</c></rc>
    <rc><c>O </c><c>   2</c></rc>
    <rc><c>O </c><c>   2</c></rc>
    <rc><c>O </c><c>   2</c></rc>
    <rc><c>O </c><c>   2</c></rc>
    <rc><c>O </c><c>   2</c></rc>
    <rc><c>O </c><c>   2</c></rc>
    <rc><c>O </c><c>   2</c></rc>
    <rc><c>O </c><c>   2</c></rc>
    <rc><c>O </c><c>   2</c></rc>
    <rc><c>O </c><c>   2</c></rc>
    <rc><c>O </c><c>   2</c></rc>
    <rc><c>O </c><c>   2</c></rc>
    <rc><c>O </c><c>   2</c></rc>
    <rc><c>O </c><c>   2</c></rc>
    <rc><c>O </c><c>   2</c></rc>
    <rc><c>O </c><c>   2</c></rc>
    <rc><c>O </c><c>   2</c></rc>
    <rc><c>O </c><c>   2</c></rc>
    <rc><c>O </c><c>   2</c></rc>
    <rc><c>O </c><c>   2</c></rc>
    <rc><c>O </c><c>   2</c></rc>
    <rc><c>O </c><c>   2</c></rc>
    <rc><c>O </c><c>   2</c></rc>
    <rc><c>O </c><c>   2</c></rc>
    <rc><c>O </c><c>   2</c></rc>
    <rc><c>O </c><c>   2</c></rc>
    <rc><c>O </c><c>   2</c></rc>
    <rc><c>O </c><c>   2</c></rc>
    <rc><c>O </c><c>   2</c></rc>
    <rc><c>O </c><c>   2</c></rc>
    <rc><c>O </c><c>   2</c></rc>
    <rc><c>O </c><c>   2</c></rc>
    <rc><c>O </c><c>   2</c></rc>
    <rc><c>O </c><c>   2</c></rc>
    <rc><c>O </c><c>   2</c></rc>
    <rc><c>O </c><c>   2</c></rc>
    <rc><c>O </c><c>   2</c></rc>
    <rc><c>O </c><c>   2</c></rc>
   </set>
  </array>
  <array name="atomtypes" >
   <dimension dim="1">type</dimension>
   <field type="int">atomspertype</field>
   <field type="string">element</field>
   <field>mass</field>
   <field>valence</field>
   <field type="string">pseudopotential</field>
   <set>
    <rc><c>  47</c><c>Ga</c><c>     69.72300000</c><c>     13.00000000</c><c>  PAW_PBE Ga_d 06Jul2010                </c></rc>
    <rc><c>  72</c><c>O </c><c>     16.00000000</c><c>      6.00000000</c><c>  PAW_PBE O 08Apr2002                   </c></rc>
   </set>
  </array>
 </atominfo>
 <structure name="initialpos" >
  <crystal>
   <varray name="basis" >
    <v>       0.00000000      12.28047342       0.00000000 </v>
    <v>       9.14270205       0.00000000       0.00000000 </v>
    <v>       0.00000000      -2.76826177     -11.30069772 </v>
   </varray>
   <i name="volume">   1268.80515525 </i>
   <varray name="rec_basis" >
    <v>       0.00000000       0.08143009      -0.01994742 </v>
    <v>       0.10937686      -0.00000000       0.00000000 </v>
    <v>       0.00000000       0.00000000      -0.08849011 </v>
   </varray>
  </crystal>
  <varray name="positions" >
   <v>       0.65905896       0.99983107       0.15722593 </v>
   <v>       0.65968073       0.00009942       0.65711699 </v>
   <v>       0.65862554       0.33333333       0.15674897 </v>
   <v>       0.66017573       0.33333333       0.65679569 </v>
   <v>       0.65905896       0.66683560       0.15722593 </v>
   <v>       0.65968073       0.66656725       0.65711699 </v>
   <v>       0.84266422       0.16792780       0.34354251 </v>
   <v>       0.84109573       0.16726434       0.84428438 </v>
   <v>       0.84266422       0.49873887       0.34354251 </v>
   <v>       0.84109573       0.49940233       0.84428438 </v>
   <v>       0.84382274       0.83333333       0.34282302 </v>
   <v>       0.84170236       0.83333333       0.84349051 </v>
   <v>       0.59014894       0.16782322       0.39708058 </v>
   <v>       0.58995348       0.16663725       0.89739537 </v>
   <v>       0.59014894       0.49884345       0.39708058 </v>
   <v>       0.58995348       0.50002942       0.89739537 </v>
   <v>       0.59286963       0.83333333       0.39781774 </v>
   <v>       0.59023225       0.83333333       0.89715139 </v>
   <v>       0.90830307       0.99892756       0.10247983 </v>
   <v>       0.90805586       0.99945842       0.60209606 </v>
   <v>       0.91095968       0.33333333       0.10745047 </v>
   <v>       0.90895602       0.33333333       0.60012002 </v>
   <v>       0.90830307       0.66773911       0.10247983 </v>
   <v>       0.90805586       0.66720825       0.60209606 </v>
   <v>       0.16073009       0.16821072       0.16145524 </v>
   <v>       0.15798181       0.16820917       0.65118550 </v>
   <v>       0.16073009       0.49845594       0.16145524 </v>
   <v>       0.15798181       0.49845750       0.65118550 </v>
   <v>       0.15936681       0.83333333       0.15831040 </v>
   <v>       0.15795110       0.83333333       0.65453165 </v>
   <v>       0.34201142       0.99948433       0.34333961 </v>
   <v>       0.33910886       0.99993478       0.84227683 </v>
   <v>       0.33473206       0.33333333       0.34648604 </v>
   <v>       0.33907499       0.33333333       0.84269288 </v>
   <v>       0.34201142       0.66718234       0.34333961 </v>
   <v>       0.33910886       0.66673188       0.84227683 </v>
   <v>       0.08926832       0.00834720       0.39592446 </v>
   <v>       0.09233981       0.99993374       0.89813068 </v>
   <v>       0.09047574       0.33333333       0.89681128 </v>
   <v>       0.08926832       0.65831946       0.39592446 </v>
   <v>       0.09233981       0.66673293       0.89813068 </v>
   <v>       0.40906315       0.16632910       0.10242412 </v>
   <v>       0.41044625       0.16664735       0.60337157 </v>
   <v>       0.40906315       0.50033757       0.10242412 </v>
   <v>       0.41044625       0.50001932       0.60337157 </v>
   <v>       0.40861060       0.83333333       0.10187295 </v>
   <v>       0.40960623       0.83333333       0.60267270 </v>
   <v>       0.99650609       0.16505244       0.13135755 </v>
   <v>       0.99542323       0.16622004       0.62629044 </v>
   <v>       0.99650609       0.50161422       0.13135755 </v>
   <v>       0.99542323       0.50044663       0.62629044 </v>
   <v>       0.99639648       0.83333333       0.12751724 </v>
   <v>       0.99566072       0.83333333       0.62779028 </v>
   <v>       0.50492784       0.99934535       0.37302074 </v>
   <v>       0.50232144       0.99992495       0.87193826 </v>
   <v>       0.50121846       0.33333333       0.37267541 </v>
   <v>       0.50235869       0.33333333       0.87246188 </v>
   <v>       0.50492784       0.66732132       0.37302074 </v>
   <v>       0.50232144       0.66674171       0.87193826 </v>
   <v>       0.67247533       0.16637985       0.28044573 </v>
   <v>       0.67321376       0.16736050       0.78158120 </v>
   <v>       0.67247533       0.50028682       0.28044573 </v>
   <v>       0.67321376       0.49930617       0.78158120 </v>
   <v>       0.67343377       0.83333333       0.28032697 </v>
   <v>       0.67306139       0.83333333       0.78113127 </v>
   <v>       0.82653261       0.99881384       0.21849666 </v>
   <v>       0.82755437       0.00023128       0.72002441 </v>
   <v>       0.82497567       0.33333333       0.21881909 </v>
   <v>       0.82848731       0.33333333       0.71977177 </v>
   <v>       0.82653261       0.66785283       0.21849666 </v>
   <v>       0.82755437       0.66643539       0.72002441 </v>
   <v>       0.83120421       0.99934549       0.44560240 </v>
   <v>       0.83254220       0.00000256       0.94599196 </v>
   <v>       0.82737769       0.33333333       0.44579740 </v>
   <v>       0.83597936       0.33333333       0.94882579 </v>
   <v>       0.83120421       0.66732117       0.44560240 </v>
   <v>       0.83254220       0.66666410       0.94599196 </v>
   <v>       0.66703923       0.16648032       0.05373123 </v>
   <v>       0.66757886       0.16658686       0.55421530 </v>
   <v>       0.66703923       0.50018635       0.05373123 </v>
   <v>       0.66757886       0.50007981       0.55421530 </v>
   <v>       0.66729407       0.83333333       0.05352183 </v>
   <v>       0.66910856       0.83333333       0.55484084 </v>
   <v>       0.49656359       0.99951823       0.12620831 </v>
   <v>       0.49757426       0.99965226       0.62898047 </v>
   <v>       0.49623870       0.33333333       0.12664547 </v>
   <v>       0.49773165       0.33333333       0.62884759 </v>
   <v>       0.49656359       0.66714844       0.12620831 </v>
   <v>       0.49757426       0.66701440       0.62898047 </v>
   <v>       0.00112767       0.17137820       0.36958883 </v>
   <v>       0.00346405       0.16608234       0.87294091 </v>
   <v>       0.00112767       0.49528846       0.36958883 </v>
   <v>       0.00346405       0.50058432       0.87294091 </v>
   <v>       0.00586997       0.83333333       0.37328819 </v>
   <v>       0.00425218       0.83333333       0.87321996 </v>
   <v>       0.17367786       0.99925982       0.28125211 </v>
   <v>       0.17187577       0.00058281       0.77927163 </v>
   <v>       0.17488564       0.33333333       0.27306167 </v>
   <v>       0.17187182       0.33333333       0.78064796 </v>
   <v>       0.17367786       0.66740685       0.28125211 </v>
   <v>       0.17187577       0.66608386       0.77927163 </v>
   <v>       0.32998718       0.16348305       0.22031298 </v>
   <v>       0.32744540       0.16726253       0.71903782 </v>
   <v>       0.32998718       0.50318362       0.22031298 </v>
   <v>       0.32744540       0.49940413       0.71903782 </v>
   <v>       0.32806508       0.83333333       0.21939603 </v>
   <v>       0.32668966       0.83333333       0.71857407 </v>
   <v>       0.33490969       0.16454873       0.44722300 </v>
   <v>       0.33184486       0.16642369       0.94566843 </v>
   <v>       0.33490969       0.50211794       0.44722300 </v>
   <v>       0.33184486       0.50024298       0.94566843 </v>
   <v>       0.33460120       0.83333333       0.44614223 </v>
   <v>       0.33074916       0.83333333       0.94535207 </v>
   <v>       0.16672255       0.00117863       0.05548599 </v>
   <v>       0.16699100       0.99972174       0.55282878 </v>
   <v>       0.16850803       0.33333333       0.05261490 </v>
   <v>       0.16872137       0.33333333       0.55391179 </v>
   <v>       0.16672255       0.66548804       0.05548599 </v>
   <v>       0.16699100       0.66694493       0.55282878 </v>
  </varray>
 </structure>
 <calculation>
  <scstep>
   <time name="total">    3.95    3.95</time>
   <energy>
    <i name="alphaZ">   5383.97153279 </i>
    <i name="ewald"> -86585.10516480 </i>
    <i name="hartreedc">  -2068.69572640 </i>
    <i name="XCdc">   2766.19660149 </i>
    <i name="pawpsdc">  54209.96527043 </i>
    <i name="pawaedc"> -82833.42324267 </i>
    <i name="eentropy">     -0.00765182 </i>
    <i name="bandstr"> -40835.93631509 </i>
    <i name="atom"> 131754.67725141 </i>
    <i name="e_fr_energy"> -18208.35744466 </i>
    <i name="e_wo_entrp"> -18208.34979284 </i>
    <i name="e_0_energy"> -18208.35361875 </i>
   </energy>
  </scstep>
  <scstep>
   <time name="total">    3.14    3.14</time>
   <energy>
    <i name="e_fr_energy"> -62490.74611010 </i>
    <i name="e_wo_entrp"> -62490.73399990 </i>
    <i name="e_0_energy"> -62490.74005500 </i>
   </energy>
  </scstep>
  <scstep>
   <time name="total">    3.32    3.32</time>
   <energy>
    <i name="e_fr_energy"> -67531.47492423 </i>
    <i name="e_wo_entrp"> -67531.44619168 </i>
    <i name="e_0_energy"> -67531.46055796 </i>
   </energy>
  </scstep>
  <scstep>
   <time name="total">    3.88    3.88</time>
   <energy>
    <i name="e_fr_energy"> -68284.76270922 </i>
    <i name="e_wo_entrp"> -68284.71638381 </i>
    <i name="e_0_energy"> -68284.73954652 </i>
   </energy>
  </scstep>
  <scstep>
   <time name="total">  230.45  230.41</time>
   <energy>
    <i name="e_fr_energy"> -38823.29802937 </i>
    <i name="e_wo_entrp"> -38823.27266753 </i>
    <i name="e_0_energy"> -38823.28534845 </i>
   </energy>
  </scstep>
  <scstep>
   <time name="total">  460.17  460.10</time>
   <energy>
    <i name="e_fr_energy">  28366.04008566 </i>
    <i name="e_wo_entrp">  28366.05766341 </i>
    <i name="e_0_energy">  28366.04887454 </i>
   </energy>
  </scstep>
  <scstep>
   <time name="total">  460.60  460.53</time>
   <energy>
    <i name="e_fr_energy">  10492.74415637 </i>
    <i name="e_wo_entrp">  10492.77085314 </i>
    <i name="e_0_energy">  10492.75750475 </i>
   </energy>
  </scstep>
  <scstep>
   <time name="total">  461.39  461.31</time>
   <energy>
    <i name="e_fr_energy">   5313.08110256 </i>
    <i name="e_wo_entrp">   5313.11494452 </i>
    <i name="e_0_energy">   5313.09802354 </i>
   </energy>
  </scstep>
  <scstep>
   <time name="total">  460.34  460.26</time>
   <energy>
    <i name="e_fr_energy">   3325.98613084 </i>
    <i name="e_wo_entrp">   3326.01900600 </i>
    <i name="e_0_energy">   3326.00256842 </i>
   </energy>
  </scstep>
  <scstep>
   <time name="total">  460.23  460.15</time>
   <energy>
    <i name="e_fr_energy">   2190.17695452 </i>
    <i name="e_wo_entrp">   2190.18966828 </i>
    <i name="e_0_energy">   2190.18331140 </i>
   </energy>
  </scstep>
  <scstep>
   <time name="total">  459.46  459.38</time>
   <energy>
    <i name="e_fr_energy">   1178.46738437 </i>
    <i name="e_wo_entrp">   1178.48427923 </i>
    <i name="e_0_energy">   1178.47583180 </i>
   </energy>
  </scstep>
  <scstep>
   <time name="total">  459.28  459.18</time>
   <energy>
    <i name="e_fr_energy">    283.58852871 </i>
    <i name="e_wo_entrp">    283.59543455 </i>
    <i name="e_0_energy">    283.59198163 </i>
   </energy>
  </scstep>
  <scstep>
   <time name="total">  459.73  459.65</time>
   <energy>
    <i name="e_fr_energy">   -303.61444519 </i>
    <i name="e_wo_entrp">   -303.60474922 </i>
    <i name="e_0_energy">   -303.60959721 </i>
   </energy>
  </scstep>
  <scstep>
   <time name="total">  458.76  458.68</time>
   <energy>
    <i name="e_fr_energy">   -614.57942275 </i>
    <i name="e_wo_entrp">   -614.57151550 </i>
    <i name="e_0_energy">   -614.57546912 </i>
   </energy>
  </scstep>
  <scstep>
   <time name="total">  459.55  459.47</time>
   <energy>
    <i name="e_fr_energy">   -769.77146656 </i>
    <i name="e_wo_entrp">   -769.76478285 </i>
    <i name="e_0_energy">   -769.76812471 </i>
   </energy>
  </scstep>
  <scstep>
   <time name="total">  458.75  458.67</time>
   <energy>
    <i name="e_fr_energy">   -854.40788579 </i>
    <i name="e_wo_entrp">   -854.40063102 </i>
    <i name="e_0_energy">   -854.40425840 </i>
   </energy>
  </scstep>
  <scstep>
   <time name="total">  459.32  459.24</time>
   <energy>
    <i name="e_fr_energy">   -893.70957204 </i>
    <i name="e_wo_entrp">   -893.70305735 </i>
    <i name="e_0_energy">   -893.70631469 </i>
   </energy>
  </scstep>
  <scstep>
   <time name="total">  459.38  459.30</time>
   <energy>
    <i name="e_fr_energy">   -914.05029916 </i>
    <i name="e_wo_entrp">   -914.04221540 </i>
    <i name="e_0_energy">   -914.04625728 </i>
   </energy>
  </scstep>
  <scstep>
   <time name="total">  459.52  459.43</time>
   <energy>
    <i name="e_fr_energy">   -925.59069976 </i>
    <i name="e_wo_entrp">   -925.57358276 </i>
    <i name="e_0_energy">   -925.58214126 </i>
   </energy>
  </scstep>
  <scstep>
   <time name="total">  459.35  459.26</time>
   <energy>
    <i name="e_fr_energy">   -931.59983346 </i>
    <i name="e_wo_entrp">   -931.57475197 </i>
    <i name="e_0_energy">   -931.58729272 </i>
   </energy>
  </scstep>
  <scstep>
   <time name="total">  459.85  459.77</time>
   <energy>
    <i name="e_fr_energy">   -933.57264685 </i>
    <i name="e_wo_entrp">   -933.54416630 </i>
    <i name="e_0_energy">   -933.55840658 </i>
   </energy>
  </scstep>
  <scstep>
   <time name="total">  459.52  459.44</time>
   <energy>
    <i name="e_fr_energy">   -935.81137679 </i>
    <i name="e_wo_entrp">   -935.78303446 </i>
    <i name="e_0_energy">   -935.79720563 </i>
   </energy>
  </scstep>
  <scstep>
   <time name="total">  459.76  459.67</time>
   <energy>
    <i name="e_fr_energy">   -937.23203062 </i>
    <i name="e_wo_entrp">   -937.20732038 </i>
    <i name="e_0_energy">   -937.21967550 </i>
   </energy>
  </scstep>
  <scstep>
   <time name="total">  459.71  459.63</time>
   <energy>
    <i name="e_fr_energy">   -937.92920051 </i>
    <i name="e_wo_entrp">   -937.90687426 </i>
    <i name="e_0_energy">   -937.91803739 </i>
   </energy>
  </scstep>
  <scstep>
   <time name="total">  460.02  459.93</time>
   <energy>
    <i name="e_fr_energy">   -938.52679986 </i>
    <i name="e_wo_entrp">   -938.50426080 </i>
    <i name="e_0_energy">   -938.51553033 </i>
   </energy>
  </scstep>
  <scstep>
   <time name="total">  459.26  459.18</time>
   <energy>
    <i name="e_fr_energy">   -939.04218466 </i>
    <i name="e_wo_entrp">   -939.01916558 </i>
    <i name="e_0_energy">   -939.03067512 </i>
   </energy>
  </scstep>
  <scstep>
   <time name="total">  459.63  459.56</time>
   <energy>
    <i name="e_fr_energy">   -939.49137916 </i>
    <i name="e_wo_entrp">   -939.46831930 </i>
    <i name="e_0_energy">   -939.47984923 </i>
   </energy>
  </scstep>
  <scstep>
   <time name="total">  459.67  459.59</time>
   <energy>
    <i name="e_fr_energy">   -939.78420169 </i>
    <i name="e_wo_entrp">   -939.75999980 </i>
    <i name="e_0_energy">   -939.77210074 </i>
   </energy>
  </scstep>
  <scstep>
   <time name="total">  459.22  459.13</time>
   <energy>
    <i name="e_fr_energy">   -940.02448402 </i>
    <i name="e_wo_entrp">   -940.00085158 </i>
    <i name="e_0_energy">   -940.01266780 </i>
   </energy>
  </scstep>
  <scstep>
   <time name="total">  459.40  459.33</time>
   <energy>
    <i name="e_fr_energy">   -940.23796340 </i>
    <i name="e_wo_entrp">   -940.21473025 </i>
    <i name="e_0_energy">   -940.22634682 </i>
   </energy>
  </scstep>
  <scstep>
   <time name="total">  459.06  458.98</time>
   <energy>
    <i name="e_fr_energy">   -940.38788451 </i>
    <i name="e_wo_entrp">   -940.36399661 </i>
    <i name="e_0_energy">   -940.37594056 </i>
   </energy>
  </scstep>
  <scstep>
   <time name="total">  459.22  459.14</time>
   <energy>
    <i name="e_fr_energy">   -940.52059678 </i>
    <i name="e_wo_entrp">   -940.49565028 </i>
    <i name="e_0_energy">   -940.50812353 </i>
   </energy>
  </scstep>
  <scstep>
   <time name="total">  458.90  458.82</time>
   <energy>
    <i name="e_fr_energy">   -940.59705283 </i>
    <i name="e_wo_entrp">   -940.57125564 </i>
    <i name="e_0_energy">   -940.58415424 </i>
   </energy>
  </scstep>
  <scstep>
   <time name="total">  459.23  459.15</time>
   <energy>
    <i name="e_fr_energy">   -940.70385404 </i>
    <i name="e_wo_entrp">   -940.67820909 </i>
    <i name="e_0_energy">   -940.69103157 </i>
   </energy>
  </scstep>
  <scstep>
   <time name="total">  458.82  458.73</time>
   <energy>
    <i name="e_fr_energy">   -940.74659970 </i>
    <i name="e_wo_entrp">   -940.72128979 </i>
    <i name="e_0_energy">   -940.73394475 </i>
   </energy>
  </scstep>
  <scstep>
   <time name="total">  459.49  459.41</time>
   <energy>
    <i name="e_fr_energy">   -940.80552879 </i>
    <i name="e_wo_entrp">   -940.78018671 </i>
    <i name="e_0_energy">   -940.79285775 </i>
   </energy>
  </scstep>
  <scstep>
   <time name="total">  458.97  458.88</time>
   <energy>
    <i name="e_fr_energy">   -940.83264857 </i>
    <i name="e_wo_entrp">   -940.80733923 </i>
    <i name="e_0_energy">   -940.81999390 </i>
   </energy>
  </scstep>
  <scstep>
   <time name="total">  459.31  459.21</time>
   <energy>
    <i name="e_fr_energy">   -940.86001577 </i>
    <i name="e_wo_entrp">   -940.83404297 </i>
    <i name="e_0_energy">   -940.84702937 </i>
   </energy>
  </scstep>
  <scstep>
   <time name="total">  459.12  459.04</time>
   <energy>
    <i name="e_fr_energy">   -940.89874988 </i>
    <i name="e_wo_entrp">   -940.87292975 </i>
    <i name="e_0_energy">   -940.88583982 </i>
   </energy>
  </scstep>
  <scstep>
   <time name="total">  459.22  459.14</time>
   <energy>
    <i name="e_fr_energy">   -940.91433197 </i>
    <i name="e_wo_entrp">   -940.88836444 </i>
    <i name="e_0_energy">   -940.90134821 </i>
   </energy>
  </scstep>
  <scstep>
   <time name="total">  458.90  458.82</time>
   <energy>
    <i name="e_fr_energy">   -940.92134149 </i>
    <i name="e_wo_entrp">   -940.89531060 </i>
    <i name="e_0_energy">   -940.90832605 </i>
   </energy>
  </scstep>
  <scstep>
   <time name="total">  459.23  459.15</time>
   <energy>
    <i name="e_fr_energy">   -940.92574952 </i>
    <i name="e_wo_entrp">   -940.89971765 </i>
    <i name="e_0_energy">   -940.91273359 </i>
   </energy>
  </scstep>
  <scstep>
   <time name="total">  458.87  458.77</time>
   <energy>
    <i name="e_fr_energy">   -940.92951886 </i>
    <i name="e_wo_entrp">   -940.90362228 </i>
    <i name="e_0_energy">   -940.91657057 </i>
   </energy>
  </scstep>
  <scstep>
   <time name="total">  459.11  459.01</time>
   <energy>
    <i name="e_fr_energy">   -940.93572150 </i>
    <i name="e_wo_entrp">   -940.90980934 </i>
    <i name="e_0_energy">   -940.92276542 </i>
   </energy>
  </scstep>
  <scstep>
   <time name="total">  458.88  458.80</time>
   <energy>
    <i name="e_fr_energy">   -940.93986954 </i>
    <i name="e_wo_entrp">   -940.91412771 </i>
    <i name="e_0_energy">   -940.92699862 </i>
   </energy>
  </scstep>
  <scstep>
   <time name="total">  459.43  459.35</time>
   <energy>
    <i name="e_fr_energy">   -940.94826286 </i>
    <i name="e_wo_entrp">   -940.92256772 </i>
    <i name="e_0_energy">   -940.93541529 </i>
   </energy>
  </scstep>
  <scstep>
   <time name="total">  458.84  458.75</time>
   <energy>
    <i name="e_fr_energy">   -940.95118454 </i>
    <i name="e_wo_entrp">   -940.92558204 </i>
    <i name="e_0_energy">   -940.93838329 </i>
   </energy>
  </scstep>
  <scstep>
   <time name="total">  459.24  459.17</time>
   <energy>
    <i name="e_fr_energy">   -940.95749730 </i>
    <i name="e_wo_entrp">   -940.93200285 </i>
    <i name="e_0_energy">   -940.94475008 </i>
   </energy>
  </scstep>
  <scstep>
   <time name="total">  459.06  458.97</time>
   <energy>
    <i name="e_fr_energy">   -940.96241188 </i>
    <i name="e_wo_entrp">   -940.93700283 </i>
    <i name="e_0_energy">   -940.94970736 </i>
   </energy>
  </scstep>
  <scstep>
   <time name="total">  459.05  458.96</time>
   <energy>
    <i name="e_fr_energy">   -940.96685640 </i>
    <i name="e_wo_entrp">   -940.94162492 </i>
    <i name="e_0_energy">   -940.95424066 </i>
   </energy>
  </scstep>
  <scstep>
   <time name="total">  458.84  458.76</time>
   <energy>
    <i name="e_fr_energy">   -940.97034542 </i>
    <i name="e_wo_entrp">   -940.94533364 </i>
    <i name="e_0_energy">   -940.95783953 </i>
   </energy>
  </scstep>
  <scstep>
   <time name="total">  459.60  459.53</time>
   <energy>
    <i name="e_fr_energy">   -940.97351845 </i>
    <i name="e_wo_entrp">   -940.94865605 </i>
    <i name="e_0_energy">   -940.96108725 </i>
   </energy>
  </scstep>
  <scstep>
   <time name="total">  459.01  458.93</time>
   <energy>
    <i name="e_fr_energy">   -940.97581076 </i>
    <i name="e_wo_entrp">   -940.95111673 </i>
    <i name="e_0_energy">   -940.96346375 </i>
   </energy>
  </scstep>
  <scstep>
   <time name="total">  459.10  459.02</time>
   <energy>
    <i name="e_fr_energy">   -940.97805661 </i>
    <i name="e_wo_entrp">   -940.95350212 </i>
    <i name="e_0_energy">   -940.96577936 </i>
   </energy>
  </scstep>
  <scstep>
   <time name="total">  458.86  458.78</time>
   <energy>
    <i name="e_fr_energy">   -940.97974439 </i>
    <i name="e_wo_entrp">   -940.95522658 </i>
    <i name="e_0_energy">   -940.96748548 </i>
   </energy>
  </scstep>
  <scstep>
   <time name="total">  459.28  459.19</time>
   <energy>
    <i name="e_fr_energy">   -940.98112833 </i>
    <i name="e_wo_entrp">   -940.95657259 </i>
    <i name="e_0_energy">   -940.96885046 </i>
   </energy>
  </scstep>
  <scstep>
   <time name="total">  459.34  459.26</time>
   <energy>
    <i name="e_fr_energy">   -940.98233283 </i>
    <i name="e_wo_entrp">   -940.95777441 </i>
    <i name="e_0_energy">   -940.97005362 </i>
   </energy>
  </scstep>
  <scstep>
   <time name="total">  458.88  458.80</time>
   <energy>
    <i name="e_fr_energy">   -940.98324795 </i>
    <i name="e_wo_entrp">   -940.95860946 </i>
    <i name="e_0_energy">   -940.97092871 </i>
   </energy>
  </scstep>
  <scstep>
   <time name="total">  459.30  459.22</time>
   <energy>
    <i name="e_fr_energy">   -940.98410600 </i>
    <i name="e_wo_entrp">   -940.95935286 </i>
    <i name="e_0_energy">   -940.97172943 </i>
   </energy>
  </scstep>
  <scstep>
   <time name="total">  459.21  459.14</time>
   <energy>
    <i name="e_fr_energy">   -940.98471705 </i>
    <i name="e_wo_entrp">   -940.95988579 </i>
    <i name="e_0_energy">   -940.97230142 </i>
   </energy>
  </scstep>
  <scstep>
   <time name="total">  459.09  459.00</time>
   <energy>
    <i name="e_fr_energy">   -940.98533860 </i>
    <i name="e_wo_entrp">   -940.96046303 </i>
    <i name="e_0_energy">   -940.97290082 </i>
   </energy>
  </scstep>
  <scstep>
   <time name="total">  458.55  458.48</time>
   <energy>
    <i name="e_fr_energy">   -940.98584246 </i>
    <i name="e_wo_entrp">   -940.96089179 </i>
    <i name="e_0_energy">   -940.97336712 </i>
   </energy>
  </scstep>
  <scstep>
   <time name="total">  459.06  458.98</time>
   <energy>
    <i name="e_fr_energy">   -940.98626156 </i>
    <i name="e_wo_entrp">   -940.96124830 </i>
    <i name="e_0_energy">   -940.97375493 </i>
   </energy>
  </scstep>
  <scstep>
   <time name="total">  458.57  458.49</time>
   <energy>
    <i name="e_fr_energy">   -940.98665654 </i>
    <i name="e_wo_entrp">   -940.96162063 </i>
    <i name="e_0_energy">   -940.97413859 </i>
   </energy>
  </scstep>
  <scstep>
   <time name="total">  458.81  458.74</time>
   <energy>
    <i name="e_fr_energy">   -940.98694199 </i>
    <i name="e_wo_entrp">   -940.96185705 </i>
    <i name="e_0_energy">   -940.97439952 </i>
   </energy>
  </scstep>
  <scstep>
   <time name="total">  459.05  458.98</time>
   <energy>
    <i name="e_fr_energy">   -940.98721761 </i>
    <i name="e_wo_entrp">   -940.96209168 </i>
    <i name="e_0_energy">   -940.97465464 </i>
   </energy>
  </scstep>
  <scstep>
   <time name="total">  458.87  458.79</time>
   <energy>
    <i name="e_fr_energy">   -940.98740784 </i>
    <i name="e_wo_entrp">   -940.96226226 </i>
    <i name="e_0_energy">   -940.97483505 </i>
   </energy>
  </scstep>
  <scstep>
   <time name="total">  459.05  458.97</time>
   <energy>
    <i name="e_fr_energy">   -940.98759065 </i>
    <i name="e_wo_entrp">   -940.96245045 </i>
    <i name="e_0_energy">   -940.97502055 </i>
   </energy>
  </scstep>
  <scstep>
   <time name="total">  458.68  458.60</time>
   <energy>
    <i name="e_fr_energy">   -940.98780018 </i>
    <i name="e_wo_entrp">   -940.96266378 </i>
    <i name="e_0_energy">   -940.97523198 </i>
   </energy>
  </scstep>
  <scstep>
   <time name="total">  458.80  458.71</time>
   <energy>
    <i name="e_fr_energy">   -940.98793721 </i>
    <i name="e_wo_entrp">   -940.96281012 </i>
    <i name="e_0_energy">   -940.97537367 </i>
   </energy>
  </scstep>
  <scstep>
   <time name="total">  458.97  458.90</time>
   <energy>
    <i name="e_fr_energy">   -940.98813845 </i>
    <i name="e_wo_entrp">   -940.96302220 </i>
    <i name="e_0_energy">   -940.97558032 </i>
   </energy>
  </scstep>
  <scstep>
   <time name="total">  459.10  459.02</time>
   <energy>
    <i name="e_fr_energy">   -940.98821540 </i>
    <i name="e_wo_entrp">   -940.96311367 </i>
    <i name="e_0_energy">   -940.97566454 </i>
   </energy>
  </scstep>
  <scstep>
   <time name="total">  458.89  458.84</time>
   <energy>
    <i name="e_fr_energy">   -940.98829818 </i>
    <i name="e_wo_entrp">   -940.96319847 </i>
    <i name="e_0_energy">   -940.97574833 </i>
   </energy>
  </scstep>
  <scstep>
   <time name="total">  459.30  459.21</time>
   <energy>
    <i name="e_fr_energy">   -940.98834886 </i>
    <i name="e_wo_entrp">   -940.96327445 </i>
    <i name="e_0_energy">   -940.97581166 </i>
   </energy>
  </scstep>
  <scstep>
   <time name="total">  459.27  459.19</time>
   <energy>
    <i name="e_fr_energy">   -940.98839109 </i>
    <i name="e_wo_entrp">   -940.96332835 </i>
    <i name="e_0_energy">   -940.97585972 </i>
   </energy>
  </scstep>
  <scstep>
   <time name="total">  458.95  458.87</time>
   <energy>
    <i name="e_fr_energy">   -940.98842106 </i>
    <i name="e_wo_entrp">   -940.96336479 </i>
    <i name="e_0_energy">   -940.97589293 </i>
   </energy>
  </scstep>
  <scstep>
   <time name="total">  459.19  459.11</time>
   <energy>
    <i name="e_fr_energy">   -940.98843522 </i>
    <i name="e_wo_entrp">   -940.96338745 </i>
    <i name="e_0_energy">   -940.97591133 </i>
   </energy>
  </scstep>
  <scstep>
   <time name="total">  458.98  458.92</time>
   <energy>
    <i name="e_fr_energy">   -940.98844553 </i>
    <i name="e_wo_entrp">   -940.96340123 </i>
    <i name="e_0_energy">   -940.97592338 </i>
   </energy>
  </scstep>
  <scstep>
   <time name="total">  684.32  684.20</time>
   <energy>
    <i name="alphaZ">   5383.97153279 </i>
    <i name="ewald"> -86585.10516480 </i>
    <i name="hartreedc"> -34071.94219875 </i>
    <i name="XCdc">   2884.58658583 </i>
    <i name="pawpsdc"> 119325.87467413 </i>
    <i name="pawaedc">-134573.83188982 </i>
    <i name="eentropy">     -0.02504062 </i>
    <i name="bandstr">  -8902.16615020 </i>
    <i name="atom"> 131754.67725141 </i>
    <i name="e_fr_energy">   -940.98845363 </i>
    <i name="e_wo_entrp">   -940.96341301 </i>
    <i name="e_0_energy">   -940.97593332 </i>
   </energy>
  </scstep>
  <structure>
   <crystal>
    <varray name="basis" >
     <v>       0.00000000      12.28047342       0.00000000 </v>
     <v>       9.14270205       0.00000000       0.00000000 </v>
     <v>       0.00000000      -2.76826177     -11.30069772 </v>
    </varray>
    <i name="volume">   1268.80515525 </i>
    <varray name="rec_basis" >
     <v>       0.00000000       0.08143009      -0.01994742 </v>
     <v>       0.10937686      -0.00000000       0.00000000 </v>
     <v>       0.00000000       0.00000000      -0.08849011 </v>
    </varray>
   </crystal>
   <varray name="positions" >
    <v>       0.65905896       0.99983107       0.15722593 </v>
    <v>       0.65968073       0.00009942       0.65711699 </v>
    <v>       0.65862554       0.33333333       0.15674897 </v>
    <v>       0.66017573       0.33333333       0.65679569 </v>
    <v>       0.65905896       0.66683560       0.15722593 </v>
    <v>       0.65968073       0.66656725       0.65711699 </v>
    <v>       0.84266422       0.16792780       0.34354251 </v>
    <v>       0.84109573       0.16726434       0.84428438 </v>
    <v>       0.84266422       0.49873887       0.34354251 </v>
    <v>       0.84109573       0.49940233       0.84428438 </v>
    <v>       0.84382274       0.83333333       0.34282302 </v>
    <v>       0.84170236       0.83333333       0.84349051 </v>
    <v>       0.59014894       0.16782322       0.39708058 </v>
    <v>       0.58995348       0.16663725       0.89739537 </v>
    <v>       0.59014894       0.49884345       0.39708058 </v>
    <v>       0.58995348       0.50002942       0.89739537 </v>
    <v>       0.59286963       0.83333333       0.39781774 </v>
    <v>       0.59023225       0.83333333       0.89715139 </v>
    <v>       0.90830307       0.99892756       0.10247983 </v>
    <v>       0.90805586       0.99945842       0.60209606 </v>
    <v>       0.91095968       0.33333333       0.10745047 </v>
    <v>       0.90895602       0.33333333       0.60012002 </v>
    <v>       0.90830307       0.66773911       0.10247983 </v>
    <v>       0.90805586       0.66720825       0.60209606 </v>
    <v>       0.16073009       0.16821072       0.16145524 </v>
    <v>       0.15798181       0.16820917       0.65118550 </v>
    <v>       0.16073009       0.49845594       0.16145524 </v>
    <v>       0.15798181       0.49845750       0.65118550 </v>
    <v>       0.15936681       0.83333333       0.15831040 </v>
    <v>       0.15795110       0.83333333       0.65453165 </v>
    <v>       0.34201142       0.99948433       0.34333961 </v>
    <v>       0.33910886       0.99993478       0.84227683 </v>
    <v>       0.33473206       0.33333333       0.34648604 </v>
    <v>       0.33907499       0.33333333       0.84269288 </v>
    <v>       0.34201142       0.66718234       0.34333961 </v>
    <v>       0.33910886       0.66673188       0.84227683 </v>
    <v>       0.08926832       0.00834720       0.39592446 </v>
    <v>       0.09233981       0.99993374       0.89813068 </v>
    <v>       0.09047574       0.33333333       0.89681128 </v>
    <v>       0.08926832       0.65831946       0.39592446 </v>
    <v>       0.09233981       0.66673293       0.89813068 </v>
    <v>       0.40906315       0.16632910       0.10242412 </v>
    <v>       0.41044625       0.16664735       0.60337157 </v>
    <v>       0.40906315       0.50033757       0.10242412 </v>
    <v>       0.41044625       0.50001932       0.60337157 </v>
    <v>       0.40861060       0.83333333       0.10187295 </v>
    <v>       0.40960623       0.83333333       0.60267270 </v>
    <v>       0.99650609       0.16505244       0.13135755 </v>
    <v>       0.99542323       0.16622004       0.62629044 </v>
    <v>       0.99650609       0.50161422       0.13135755 </v>
    <v>       0.99542323       0.50044663       0.62629044 </v>
    <v>       0.99639648       0.83333333       0.12751724 </v>
    <v>       0.99566072       0.83333333       0.62779028 </v>
    <v>       0.50492784       0.99934535       0.37302074 </v>
    <v>       0.50232144       0.99992495       0.87193826 </v>
    <v>       0.50121846       0.33333333       0.37267541 </v>
    <v>       0.50235869       0.33333333       0.87246188 </v>
    <v>       0.50492784       0.66732132       0.37302074 </v>
    <v>       0.50232144       0.66674171       0.87193826 </v>
    <v>       0.67247533       0.16637985       0.28044573 </v>
    <v>       0.67321376       0.16736050       0.78158120 </v>
    <v>       0.67247533       0.50028682       0.28044573 </v>
    <v>       0.67321376       0.49930617       0.78158120 </v>
    <v>       0.67343377       0.83333333       0.28032697 </v>
    <v>       0.67306139       0.83333333       0.78113127 </v>
    <v>       0.82653261       0.99881384       0.21849666 </v>
    <v>       0.82755437       0.00023128       0.72002441 </v>
    <v>       0.82497567       0.33333333       0.21881909 </v>
    <v>       0.82848731       0.33333333       0.71977177 </v>
    <v>       0.82653261       0.66785283       0.21849666 </v>
    <v>       0.82755437       0.66643539       0.72002441 </v>
    <v>       0.83120421       0.99934549       0.44560240 </v>
    <v>       0.83254220       0.00000256       0.94599196 </v>
    <v>       0.82737769       0.33333333       0.44579740 </v>
    <v>       0.83597936       0.33333333       0.94882579 </v>
    <v>       0.83120421       0.66732117       0.44560240 </v>
    <v>       0.83254220       0.66666410       0.94599196 </v>
    <v>       0.66703923       0.16648032       0.05373123 </v>
    <v>       0.66757886       0.16658686       0.55421530 </v>
    <v>       0.66703923       0.50018635       0.05373123 </v>
    <v>       0.66757886       0.50007981       0.55421530 </v>
    <v>       0.66729407       0.83333333       0.05352183 </v>
    <v>       0.66910856       0.83333333       0.55484084 </v>
    <v>       0.49656359       0.99951823       0.12620831 </v>
    <v>       0.49757426       0.99965226       0.62898047 </v>
    <v>       0.49623870       0.33333333       0.12664547 </v>
    <v>       0.49773165       0.33333333       0.62884759 </v>
    <v>       0.49656359       0.66714844       0.12620831 </v>
    <v>       0.49757426       0.66701440       0.62898047 </v>
    <v>       0.00112767       0.17137820       0.36958883 </v>
    <v>       0.00346405       0.16608234       0.87294091 </v>
    <v>       0.00112767       0.49528846       0.36958883 </v>
    <v>       0.00346405       0.50058432       0.87294091 </v>
    <v>       0.00586997       0.83333333       0.37328819 </v>
    <v>       0.00425218       0.83333333       0.87321996 </v>
    <v>       0.17367786       0.99925982       0.28125211 </v>
    <v>       0.17187577       0.00058281       0.77927163 </v>
    <v>       0.17488564       0.33333333       0.27306167 </v>
    <v>       0.17187182       0.33333333       0.78064796 </v>
    <v>       0.17367786       0.66740685       0.28125211 </v>
    <v>       0.17187577       0.66608386       0.77927163 </v>
    <v>       0.32998718       0.16348305       0.22031298 </v>
    <v>       0.32744540       0.16726253       0.71903782 </v>
    <v>       0.32998718       0.50318362       0.22031298 </v>
    <v>       0.32744540       0.49940413       0.71903782 </v>
    <v>       0.32806508       0.83333333       0.21939603 </v>
    <v>       0.32668966       0.83333333       0.71857407 </v>
    <v>       0.33490969       0.16454873       0.44722300 </v>
    <v>       0.33184486       0.16642369       0.94566843 </v>
    <v>       0.33490969       0.50211794       0.44722300 </v>
    <v>       0.33184486       0.50024298       0.94566843 </v>
    <v>       0.33460120       0.83333333       0.44614223 </v>
    <v>       0.33074916       0.83333333       0.94535207 </v>
    <v>       0.16672255       0.00117863       0.05548599 </v>
    <v>       0.16699100       0.99972174       0.55282878 </v>
    <v>       0.16850803       0.33333333       0.05261490 </v>
    <v>       0.16872137       0.33333333       0.55391179 </v>
    <v>       0.16672255       0.66548804       0.05548599 </v>
    <v>       0.16699100       0.66694493       0.55282878 </v>
   </varray>
  </structure>
  <varray name="forces" >
   <v>       0.01745957      -0.04693980       0.08962718 </v>
   <v>      -0.00312816       0.04801877       0.02622462 </v>
   <v>      -0.00000000      -0.04695525       0.09471175 </v>
   <v>      -0.00000000       0.05923741       0.02459314 </v>
   <v>      -0.01745957      -0.04693980       0.08962718 </v>
   <v>       0.00312816       0.04801877       0.02622462 </v>
   <v>       0.07074485      -0.76654773       0.10442344 </v>
   <v>       0.00342438      -0.04951267      -0.04017886 </v>
   <v>      -0.07074485      -0.76654773       0.10442344 </v>
   <v>      -0.00342438      -0.04951267      -0.04017886 </v>
   <v>      -0.00000000      -0.17312546       0.01118748 </v>
   <v>      -0.00000000      -0.07382130      -0.03373974 </v>
   <v>       0.00436667      -0.10174982      -0.01463767 </v>
   <v>       0.00235558      -0.02324354      -0.00817420 </v>
   <v>      -0.00436667      -0.10174982      -0.01463767 </v>
   <v>      -0.00235558      -0.02324354      -0.00817420 </v>
   <v>      -0.00000000      -0.10225298      -0.01408682 </v>
   <v>      -0.00000000      -0.03430561       0.01298324 </v>
   <v>      -0.07273736       0.07775533       0.14422275 </v>
   <v>      -0.04542434      -0.04418644      -0.15049367 </v>
   <v>      -0.00000000       0.00779207       0.18286467 </v>
   <v>      -0.00000000      -0.13494440      -0.15009239 </v>
   <v>       0.07273736       0.07775533       0.14422275 </v>
   <v>       0.04542434      -0.04418644      -0.15049367 </v>
   <v>      -0.25078229       0.09287215       0.23479529 </v>
   <v>      -0.59708565      -0.12688693      -0.39500773 </v>
   <v>       0.25078229       0.09287215       0.23479529 </v>
   <v>       0.59708565      -0.12688693      -0.39500773 </v>
   <v>      -0.00000000       0.06128841       0.13661315 </v>
   <v>      -0.00000000       0.03928528      -0.09743301 </v>
   <v>      -0.03269730       0.04747967      -0.09501741 </v>
   <v>      -0.07420505      -0.03526252      -0.13103721 </v>
   <v>      -0.00000000       0.30803117      -0.21549899 </v>
   <v>      -0.00000000       0.06396406      -0.21150167 </v>
   <v>       0.03269730       0.04747967      -0.09501741 </v>
   <v>       0.07420505      -0.03526252      -0.13103721 </v>
   <v>      -0.55045559       0.49329299      -0.08453662 </v>
   <v>       0.01414280      -0.11047588      -0.03019890 </v>
   <v>      -0.00000000      -0.24313903       0.00046507 </v>
   <v>       0.55045559       0.49329299      -0.08453662 </v>
   <v>      -0.01414280      -0.11047588      -0.03019890 </v>
   <v>       0.00789053       0.11814703       0.02114749 </v>
   <v>      -0.05630816       0.21697563       0.06428338 </v>
   <v>      -0.00789053       0.11814703       0.02114749 </v>
   <v>       0.05630816       0.21697563       0.06428338 </v>
   <v>      -0.00000000       0.06383944       0.00404880 </v>
   <v>      -0.00000000       0.09787496       0.01474396 </v>
   <v>       0.04511214      -0.19225773      -0.02317323 </v>
   <v>       0.07556244      -0.00797785       0.24789504 </v>
   <v>      -0.04511214      -0.19225773      -0.02317323 </v>
   <v>      -0.07556244      -0.00797785       0.24789504 </v>
   <v>      -0.00000000      -0.22197393       0.09385129 </v>
   <v>      -0.00000000      -0.14927528       0.17572276 </v>
   <v>       0.00472299       0.17599575      -0.11039850 </v>
   <v>       0.01309730       0.14944463      -0.10283710 </v>
   <v>      -0.00000000       0.24985961      -0.14187050 </v>
   <v>      -0.00000000       0.15082922      -0.09050367 </v>
   <v>      -0.00472299       0.17599575      -0.11039850 </v>
   <v>      -0.01309730       0.14944463      -0.10283710 </v>
   <v>      -0.00112503       0.03959527      -0.10747318 </v>
   <v>       0.00034726      -0.01914939      -0.10952349 </v>
   <v>       0.00112503       0.03959527      -0.10747318 </v>
   <v>      -0.00034726      -0.01914939      -0.10952349 </v>
   <v>      -0.00000000       0.02910503      -0.09968538 </v>
   <v>      -0.00000000      -0.02546614      -0.10874815 </v>
   <v>       0.08496631       0.18305295      -0.04879190 </v>
   <v>      -0.00556068       0.07150622       0.16085671 </v>
   <v>      -0.00000000       0.17631972      -0.05586972 </v>
   <v>      -0.00000000       0.04519385       0.14265319 </v>
   <v>      -0.08496631       0.18305295      -0.04879190 </v>
   <v>       0.00556068       0.07150622       0.16085671 </v>
   <v>       0.11270322       0.57692464      -0.00205306 </v>
   <v>       0.00504265       0.39976125      -0.10897129 </v>
   <v>      -0.00000000       0.61655389      -0.00217842 </v>
   <v>      -0.00000000       0.36286122      -0.08411245 </v>
   <v>      -0.11270322       0.57692464      -0.00205306 </v>
   <v>      -0.00504265       0.39976125      -0.10897129 </v>
   <v>      -0.00377607      -0.36798420       0.03024450 </v>
   <v>       0.00711081      -0.36974616       0.05068685 </v>
   <v>       0.00377607      -0.36798420       0.03024450 </v>
   <v>      -0.00711081      -0.36974616       0.05068685 </v>
   <v>      -0.00000000      -0.35940509       0.01384542 </v>
   <v>      -0.00000000      -0.36947104       0.07459376 </v>
   <v>       0.00625596      -0.19941006       0.10165505 </v>
   <v>       0.02296953      -0.21263187       0.12805282 </v>
   <v>      -0.00000000      -0.19555258       0.12164377 </v>
   <v>      -0.00000000      -0.24474917       0.12389622 </v>
   <v>      -0.00625596      -0.19941006       0.10165505 </v>
   <v>      -0.02296953      -0.21263187       0.12805282 </v>
   <v>      -0.17636193       0.05185802      -0.06513073 </v>
   <v>       0.03428521       0.23528890      -0.12365758 </v>
   <v>       0.17636193       0.05185802      -0.06513073 </v>
   <v>      -0.03428521       0.23528890      -0.12365758 </v>
   <v>      -0.00000000       0.04781332      -0.08480549 </v>
   <v>      -0.00000000       0.19548082      -0.10293359 </v>
   <v>       0.12725351      -0.17325912      -0.15396002 </v>
   <v>       0.00835455       0.01404548      -0.07020130 </v>
   <v>      -0.00000000       0.25887398       0.25199610 </v>
   <v>      -0.00000000       0.10866309       0.21987617 </v>
   <v>      -0.12725351      -0.17325912      -0.15396002 </v>
   <v>      -0.00835455       0.01404548      -0.07020130 </v>
   <v>       0.06337424      -0.14467229       0.08920775 </v>
   <v>       0.13878342      -0.12872028       0.28974353 </v>
   <v>      -0.06337424      -0.14467229       0.08920775 </v>
   <v>      -0.13878342      -0.12872028       0.28974353 </v>
   <v>      -0.00000000      -0.02369354       0.08880865 </v>
   <v>      -0.00000000      -0.01792424       0.14464185 </v>
   <v>       0.07924771       0.27409368      -0.04848108 </v>
   <v>       0.02029703       0.35635134      -0.00422393 </v>
   <v>      -0.07924771       0.27409368      -0.04848108 </v>
   <v>      -0.02029703       0.35635134      -0.00422393 </v>
   <v>      -0.00000000       0.34547042      -0.06309906 </v>
   <v>      -0.00000000       0.38319713      -0.03793121 </v>
   <v>       0.00213744      -0.36563660       0.04804578 </v>
   <v>       0.22219005      -0.46947582       0.13507767 </v>
   <v>      -0.00000000      -0.36328279      -0.09754160 </v>
   <v>      -0.00000000      -0.22566231      -0.11817097 </v>
   <v>      -0.00213744      -0.36563660       0.04804578 </v>
   <v>      -0.22219005      -0.46947582       0.13507767 </v>
  </varray>
  <varray name="stress" >
   <v>     -52.79986505       0.00000000       0.00000000 </v>
   <v>       0.00000000     -45.55637186       1.66489429 </v>
   <v>       0.00000000       1.66489475     -50.04727715 </v>
  </varray>
  <energy>
   <i name="e_fr_energy">   -940.98845363 </i>
   <i name="e_wo_entrp">   -940.96341301 </i>
   <i name="e_0_energy">   -940.97593332 </i>
  </energy>
  <time name="totalsc">35024.8335020.94</time>
  <eigenvalues>
   <array>
    <dimension dim="1">band</dimension>
    <dimension dim="2">kpoint</dimension>
    <dimension dim="3">spin</dimension>
    <field>eigene</field>
    <field>occ</field>
    <set>
     <set comment="spin 1">
      <set comment="kpoint 1">
       <r>  -18.8221    1.0000 </r>
       <r>  -18.5683    1.0000 </r>
       <r>  -18.4686    1.0000 </r>
       <r>  -18.4150    1.0000 </r>
       <r>  -18.2813    1.0000 </r>
       <r>  -18.1539    1.0000 </r>
       <r>  -18.1273    1.0000 </r>
       <r>  -18.0809    1.0000 </r>
       <r>  -17.9948    1.0000 </r>
       <r>  -17.9801    1.0000 </r>
       <r>  -17.9670    1.0000 </r>
       <r>  -17.8854    1.0000 </r>
       <r>  -17.8753    1.0000 </r>
       <r>  -17.8580    1.0000 </r>
       <r>  -17.8552    1.0000 </r>
       <r>  -17.8415    1.0000 </r>
       <r>  -17.8179    1.0000 </r>
       <r>  -17.7853    1.0000 </r>
       <r>  -17.7384    1.0000 </r>
[...]
       <r>   -12.6699   652.2735   489.2927 </r>
       <r>   -12.5400   314.0338   530.0838 </r>
       <r>   -12.4101   128.6807   546.7986 </r>
       <r>   -12.2802   125.4321   563.0915 </r>
       <r>   -12.1503    89.8150   574.7579 </r>
       <r>   -12.0204   109.6183   588.9966 </r>
       <r>   -11.8905   115.7394   604.0305 </r>
       <r>   -11.7606    66.9460   612.7263 </r>
       <r>   -11.6307     9.7794   613.9966 </r>
       <r>   -11.5008     0.0260   614.0000 </r>
       <r>   -11.3709     0.0000   614.0000 </r>
       <r>   -11.2410     0.0000   614.0000 </r>
       <r>   -11.1111     0.0000   614.0000 </r>
       <r>   -10.9812     0.0000   614.0000 </r>
       <r>   -10.8514     0.0000   614.0000 </r>
       <r>   -10.7215     0.0000   614.0000 </r>
       <r>   -10.5916     0.0000   614.0000 </r>
       <r>   -10.4617     0.0000   614.0000 </r>
       <r>   -10.3318     0.0000   614.0000 </r>
       <r>   -10.2019     0.0000   614.0000 </r>
       <r>   -10.0720     0.0000   614.0000 </r>
       <r>    -9.9421     0.0000   614.0000 </r>
       <r>    -9.8122     0.0000   614.0000 </r>
       <r>    -9.6823     0.0000   614.0000 </r>
       <r>    -9.5524     0.0000   614.0000 </r>
       <r>    -9.4225     0.0000   614.0000 </r>
       <r>    -9.2926     0.0000   614.0000 </r>
       <r>    -9.1627     0.0000   614.0000 </r>
       <r>    -9.0328     0.0000   614.0000 </r>
       <r>    -8.9029     0.0000   614.0000 </r>
       <r>    -8.7731     0.0000   614.0000 </r>
       <r>    -8.6432     0.0000   614.0000 </r>
       <r>    -8.5133     0.0000   614.0000 </r>
       <r>    -8.3834     0.0000   614.0000 </r>
       <r>    -8.2535     0.0000   614.0000 </r>
       <r>    -8.1236     0.0000   614.0000 </r>
       <r>    -7.9937     0.0000   614.0000 </r>
       <r>    -7.8638     0.0000   614.0000 </r>
       <r>    -7.7339     0.0000   614.0000 </r>
       <r>    -7.6040     0.0000   614.0000 </r>
       <r>    -7.4741     0.0000   614.0000 </r>
       <r>    -7.3442     0.0000   614.0000 </r>
       <r>    -7.2143     0.0000   614.0000 </r>
       <r>    -7.0844     0.0000   614.0000 </r>
       <r>    -6.9545     0.0000   614.0000 </r>
       <r>    -6.8246     0.0000   614.0000 </r>
       <r>    -6.6948     0.0000   614.0000 </r>
       <r>    -6.5649     0.0000   614.0000 </r>
       <r>    -6.4350     0.0000   614.0000 </r>
       <r>    -6.3051     0.0000   614.0000 </r>
       <r>    -6.1752     0.0000   614.0000 </r>
       <r>    -6.0453     0.0000   614.0000 </r>
       <r>    -5.9154     0.0000   614.0000 </r>
       <r>    -5.7855     0.0000   614.0000 </r>
       <r>    -5.6556     0.0000   614.0000 </r>
       <r>    -5.5257     0.0000   614.0000 </r>
       <r>    -5.3958     0.0018   614.0002 </r>
       <r>    -5.2659     3.4023   614.4422 </r>
       <r>    -5.1360     8.6816   615.5699 </r>
       <r>    -5.0061    20.6365   618.2504 </r>
       <r>    -4.8762    28.2080   621.9145 </r>
       <r>    -4.7463    32.5634   626.1443 </r>
       <r>    -4.6164    32.7209   630.3945 </r>
       <r>    -4.4866    46.3253   636.4119 </r>
       <r>    -4.3567    42.6902   641.9571 </r>
       <r>    -4.2268    60.7896   649.8533 </r>
       <r>    -4.0969    47.7551   656.0563 </r>
       <r>    -3.9670    35.7134   660.6953 </r>
       <r>    -3.8371    60.2670   668.5236 </r>
       <r>    -3.7072    37.3089   673.3698 </r>
       <r>    -3.5773    30.0150   677.2686 </r>
       <r>    -3.4474    26.1386   680.6638 </r>
       <r>    -3.3175    28.9929   684.4298 </r>
       <r>    -3.1876    34.6820   688.9348 </r>
       <r>    -3.0577    37.0668   693.7495 </r>
       <r>    -2.9278    41.3513   699.1208 </r>
       <r>    -2.7979    33.3493   703.4527 </r>
       <r>    -2.6680    35.2595   708.0327 </r>
       <r>    -2.5381    39.4691   713.1594 </r>
       <r>    -2.4083    35.3229   717.7477 </r>
       <r>    -2.2784    53.1600   724.6528 </r>
       <r>    -2.1485    31.9256   728.7998 </r>
       <r>    -2.0186    40.1137   734.0103 </r>
       <r>    -1.8887    67.2557   742.7464 </r>
       <r>    -1.7588    75.7296   752.5832 </r>
       <r>    -1.6289    50.7224   759.1717 </r>
       <r>    -1.4990    62.5753   767.2999 </r>
       <r>    -1.3691    69.0609   776.2705 </r>
       <r>    -1.2392    52.4691   783.0859 </r>
       <r>    -1.1093    46.5025   789.1263 </r>
       <r>    -0.9794    77.0749   799.1378 </r>
       <r>    -0.8495    67.2261   807.8701 </r>
       <r>    -0.7196    69.2850   816.8698 </r>
       <r>    -0.5897    78.4482   827.0597 </r>
       <r>    -0.4598    51.6193   833.7648 </r>
       <r>    -0.3300    69.7241   842.8215 </r>
       <r>    -0.2001    72.9341   852.2952 </r>
       <r>    -0.0702    74.9541   862.0313 </r>
       <r>     0.0597    79.5580   872.3653 </r>
       <r>     0.1896    69.2423   881.3595 </r>
       <r>     0.3195    65.8283   889.9102 </r>
       <r>     0.4494    85.0116   900.9527 </r>
       <r>     0.5793    92.2477   912.9351 </r>
       <r>     0.7092    88.7207   924.4594 </r>
       <r>     0.8391    90.9873   936.2781 </r>
       <r>     0.9690    85.0863   947.3302 </r>
       <r>     1.0989   127.1610   963.8477 </r>
       <r>     1.2288   116.0281   978.9190 </r>
       <r>     1.3587   129.5022   995.7405 </r>
       <r>     1.4886   121.4057  1011.5104 </r>
       <r>     1.6185    90.2457  1023.2327 </r>
       <r>     1.7483    44.8255  1029.0553 </r>
       <r>     1.8782    57.3444  1036.5040 </r>
       <r>     2.0081    39.2280  1041.5994 </r>
       <r>     2.1380     3.0838  1042.0000 </r>
       <r>     2.2679     3.2577  1042.4232 </r>
       <r>     2.3978    12.0500  1043.9884 </r>
       <r>     2.5277     0.5233  1044.0564 </r>
       <r>     2.6576    10.2322  1045.3855 </r>
       <r>     2.7875     4.7287  1045.9997 </r>
       <r>     2.9174     0.0024  1046.0000 </r>
       <r>     3.0473     0.0000  1046.0000 </r>
       <r>     3.1772     0.0000  1046.0000 </r>
       <r>     3.3071     0.0000  1046.0000 </r>
       <r>     3.4370     0.0000  1046.0000 </r>
       <r>     3.5669     0.0000  1046.0000 </r>
       <r>     3.6968     0.0000  1046.0000 </r>
       <r>     3.8266     0.0000  1046.0000 </r>
       <r>     3.9565     0.0000  1046.0000 </r>
       <r>     4.0864     0.0000  1046.0000 </r>
       <r>     4.2163     0.0000  1046.0000 </r>
       <r>     4.3462     0.0000  1046.0000 </r>
       <r>     4.4761     0.0000  1046.0000 </r>
       <r>     4.6060     0.0000  1046.0000 </r>
       <r>     4.7359     0.0000  1046.0000 </r>
       <r>     4.8658     0.0000  1046.0000 </r>
       <r>     4.9957     0.0000  1046.0000 </r>
       <r>     5.1256     0.0000  1046.0000 </r>
       <r>     5.2555     0.0000  1046.0000 </r>
       <r>     5.3854     0.0000  1046.0000 </r>
       <r>     5.5153     0.0000  1046.0000 </r>
       <r>     5.6452     0.0000  1046.0000 </r>
       <r>     5.7751     0.0000  1046.0000 </r>
       <r>     5.9049     0.0000  1046.0000 </r>
       <r>     6.0348     0.0000  1046.0000 </r>
       <r>     6.1647     0.0000  1046.0000 </r>
       <r>     6.2946     0.0000  1046.0000 </r>
       <r>     6.4245     0.0000  1046.0000 </r>
       <r>     6.5544     0.0018  1046.0002 </r>
       <r>     6.6843     1.3768  1046.1791 </r>
       <r>     6.8142     0.5460  1046.2500 </r>
       <r>     6.9441     0.0000  1046.2500 </r>
       <r>     7.0740     0.0000  1046.2500 </r>
       <r>     7.2039     0.0000  1046.2500 </r>
       <r>     7.3338     0.0160  1046.2521 </r>
       <r>     7.4637     2.2938  1046.5500 </r>
       <r>     7.5936     3.7884  1047.0421 </r>
       <r>     7.7235     1.6199  1047.2525 </r>
       <r>     7.8534     2.5681  1047.5861 </r>
       <r>     7.9833     4.2913  1048.1435 </r>
       <r>     8.1131     0.8197  1048.2500 </r>
       <r>     8.2430     0.0139  1048.2518 </r>
       <r>     8.3729     5.4880  1048.9646 </r>
       <r>     8.5028     5.5130  1049.6808 </r>
       <r>     8.6327     6.2456  1050.4920 </r>
       <r>     8.7626     5.7964  1051.2449 </r>
       <r>     8.8925     5.0370  1051.8992 </r>
       <r>     9.0224     2.9130  1052.2776 </r>
       <r>     9.1523     9.7362  1053.5423 </r>
       <r>     9.2822     6.4952  1054.3859 </r>
       <r>     9.4121     5.7056  1055.1271 </r>
       <r>     9.5420     2.6197  1055.4674 </r>
       <r>     9.6719    12.4012  1057.0782 </r>
       <r>     9.8018    14.9871  1059.0249 </r>
       <r>     9.9317     8.5749  1060.1388 </r>
       <r>    10.0616     6.7303  1061.0130 </r>
       <r>    10.1914    18.1524  1063.3709 </r>
       <r>    10.3213    26.7998  1066.8520 </r>
       <r>    10.4512    29.3495  1070.6643 </r>
       <r>    10.5811    38.3556  1075.6465 </r>
       <r>    10.7110    42.8735  1081.2155 </r>
       <r>    10.8409    40.5378  1086.4811 </r>
       <r>    10.9708    21.0340  1089.2133 </r>
       <r>    11.1007    26.7051  1092.6821 </r>
       <r>    11.2306    35.1551  1097.2485 </r>
       <r>    11.3605    28.5820  1100.9612 </r>
       <r>    11.4904    36.7476  1105.7345 </r>
       <r>    11.6203    39.8713  1110.9135 </r>
       <r>    11.7502    36.0307  1115.5937 </r>
       <r>    11.8801    31.9533  1119.7442 </r>
       <r>    12.0100    23.7958  1122.8351 </r>
       <r>    12.1399    33.3725  1127.1700 </r>
       <r>    12.2697    40.8219  1132.4725 </r>
       <r>    12.3996    51.9089  1139.2152 </r>
       <r>    12.5295    41.1394  1144.5589 </r>
       <r>    12.6594    28.9301  1148.3168 </r>
       <r>    12.7893    16.7987  1150.4988 </r>
       <r>    12.9192    22.2307  1153.3864 </r>
       <r>    13.0491    42.3911  1158.8928 </r>
       <r>    13.1790    37.7279  1163.7934 </r>
       <r>    13.3089    42.6893  1169.3385 </r>
       <r>    13.4388    27.0300  1172.8495 </r>
       <r>    13.5687    29.6456  1176.7003 </r>
       <r>    13.6986    36.6321  1181.4586 </r>
       <r>    13.8285    25.0850  1184.7170 </r>
       <r>    13.9584    40.5103  1189.9790 </r>
       <r>    14.0883    38.3508  1194.9605 </r>
       <r>    14.2182    20.3116  1197.5989 </r>
       <r>    14.3480    33.2355  1201.9160 </r>
       <r>    14.4779    34.8992  1206.4492 </r>
       <r>    14.6078    32.4237  1210.6608 </r>
       <r>    14.7377    27.0586  1214.1756 </r>
       <r>    14.8676    27.9053  1217.8003 </r>
       <r>    14.9975    29.0677  1221.5760 </r>
       <r>    15.1274    26.7376  1225.0491 </r>
       <r>    15.2573    24.5669  1228.2402 </r>
       <r>    15.3872    21.9119  1231.0864 </r>
       <r>    15.5171    24.9146  1234.3226 </r>
       <r>    15.6470    23.2693  1237.3452 </r>
       <r>    15.7769    20.5731  1240.0175 </r>
       <r>    15.9068    17.6388  1242.3087 </r>
       <r>    16.0367    13.5946  1244.0745 </r>
       <r>    16.1666    17.6947  1246.3730 </r>
       <r>    16.2965    11.4613  1247.8617 </r>
       <r>    16.4263    10.8013  1249.2647 </r>
       <r>    16.5562     3.8914  1249.7702 </r>
       <r>    16.6861     1.7504  1249.9976 </r>
       <r>    16.8160     0.0187  1250.0000 </r>
       <r>    16.9459     0.0000  1250.0000 </r>
       <r>    17.0758     0.0000  1250.0000 </r>
       <r>    17.2057     0.0000  1250.0000 </r>
       <r>    17.3356     0.0000  1250.0000 </r>
       <r>    17.4655     0.0000  1250.0000 </r>
       <r>    17.5954     0.0000  1250.0000 </r>
       <r>    17.7253     0.0000  1250.0000 </r>
       <r>    17.8552     0.0000  1250.0000 </r>
       <r>    17.9851     0.0000  1250.0000 </r>
       <r>    18.1150     0.0000  1250.0000 </r>
       <r>    18.2449     0.0000  1250.0000 </r>
       <r>    18.3748     0.0000  1250.0000 </r>
      </set>
     </set>
    </array>
   </total>
  </dos>
 </calculation>
 <structure name="finalpos" >
  <crystal>
   <varray name="basis" >
    <v>       0.00000000      12.28047342       0.00000000 </v>
    <v>       9.14270205       0.00000000       0.00000000 </v>
    <v>       0.00000000      -2.76826177     -11.30069772 </v>
   </varray>
   <i name="volume">   1268.80515525 </i>
   <varray name="rec_basis" >
    <v>       0.00000000       0.08143009      -0.01994742 </v>
    <v>       0.10937686      -0.00000000       0.00000000 </v>
    <v>       0.00000000       0.00000000      -0.08849011 </v>
   </varray>
  </crystal>
  <varray name="positions" >
   <v>       0.65905896       0.99983107       0.15722593 </v>
   <v>       0.65968073       0.00009942       0.65711699 </v>
   <v>       0.65862554       0.33333333       0.15674897 </v>
   <v>       0.66017573       0.33333333       0.65679569 </v>
   <v>       0.65905896       0.66683560       0.15722593 </v>
   <v>       0.65968073       0.66656725       0.65711699 </v>
   <v>       0.84266422       0.16792780       0.34354251 </v>
   <v>       0.84109573       0.16726434       0.84428438 </v>
   <v>       0.84266422       0.49873887       0.34354251 </v>
   <v>       0.84109573       0.49940233       0.84428438 </v>
   <v>       0.84382274       0.83333333       0.34282302 </v>
   <v>       0.84170236       0.83333333       0.84349051 </v>
   <v>       0.59014894       0.16782322       0.39708058 </v>
   <v>       0.58995348       0.16663725       0.89739537 </v>
   <v>       0.59014894       0.49884345       0.39708058 </v>
   <v>       0.58995348       0.50002942       0.89739537 </v>
   <v>       0.59286963       0.83333333       0.39781774 </v>
   <v>       0.59023225       0.83333333       0.89715139 </v>
   <v>       0.90830307       0.99892756       0.10247983 </v>
   <v>       0.90805586       0.99945842       0.60209606 </v>
   <v>       0.91095968       0.33333333       0.10745047 </v>
   <v>       0.90895602       0.33333333       0.60012002 </v>
   <v>       0.90830307       0.66773911       0.10247983 </v>
   <v>       0.90805586       0.66720825       0.60209606 </v>
   <v>       0.16073009       0.16821072       0.16145524 </v>
   <v>       0.15798181       0.16820917       0.65118550 </v>
   <v>       0.16073009       0.49845594       0.16145524 </v>
   <v>       0.15798181       0.49845750       0.65118550 </v>
   <v>       0.15936681       0.83333333       0.15831040 </v>
   <v>       0.15795110       0.83333333       0.65453165 </v>
   <v>       0.34201142       0.99948433       0.34333961 </v>
   <v>       0.33910886       0.99993478       0.84227683 </v>
   <v>       0.33473206       0.33333333       0.34648604 </v>
   <v>       0.33907499       0.33333333       0.84269288 </v>
   <v>       0.34201142       0.66718234       0.34333961 </v>
   <v>       0.33910886       0.66673188       0.84227683 </v>
   <v>       0.08926832       0.00834720       0.39592446 </v>
   <v>       0.09233981       0.99993374       0.89813068 </v>
   <v>       0.09047574       0.33333333       0.89681128 </v>
   <v>       0.08926832       0.65831946       0.39592446 </v>
   <v>       0.09233981       0.66673293       0.89813068 </v>
   <v>       0.40906315       0.16632910       0.10242412 </v>
   <v>       0.41044625       0.16664735       0.60337157 </v>
   <v>       0.40906315       0.50033757       0.10242412 </v>
   <v>       0.41044625       0.50001932       0.60337157 </v>
   <v>       0.40861060       0.83333333       0.10187295 </v>
   <v>       0.40960623       0.83333333       0.60267270 </v>
   <v>       0.99650609       0.16505244       0.13135755 </v>
   <v>       0.99542323       0.16622004       0.62629044 </v>
   <v>       0.99650609       0.50161422       0.13135755 </v>
   <v>       0.99542323       0.50044663       0.62629044 </v>
   <v>       0.99639648       0.83333333       0.12751724 </v>
   <v>       0.99566072       0.83333333       0.62779028 </v>
   <v>       0.50492784       0.99934535       0.37302074 </v>
   <v>       0.50232144       0.99992495       0.87193826 </v>
   <v>       0.50121846       0.33333333       0.37267541 </v>
   <v>       0.50235869       0.33333333       0.87246188 </v>
   <v>       0.50492784       0.66732132       0.37302074 </v>
   <v>       0.50232144       0.66674171       0.87193826 </v>
   <v>       0.67247533       0.16637985       0.28044573 </v>
   <v>       0.67321376       0.16736050       0.78158120 </v>
   <v>       0.67247533       0.50028682       0.28044573 </v>
   <v>       0.67321376       0.49930617       0.78158120 </v>
   <v>       0.67343377       0.83333333       0.28032697 </v>
   <v>       0.67306139       0.83333333       0.78113127 </v>
   <v>       0.82653261       0.99881384       0.21849666 </v>
   <v>       0.82755437       0.00023128       0.72002441 </v>
   <v>       0.82497567       0.33333333       0.21881909 </v>
   <v>       0.82848731       0.33333333       0.71977177 </v>
   <v>       0.82653261       0.66785283       0.21849666 </v>
   <v>       0.82755437       0.66643539       0.72002441 </v>
   <v>       0.83120421       0.99934549       0.44560240 </v>
   <v>       0.83254220       0.00000256       0.94599196 </v>
   <v>       0.82737769       0.33333333       0.44579740 </v>
   <v>       0.83597936       0.33333333       0.94882579 </v>
   <v>       0.83120421       0.66732117       0.44560240 </v>
   <v>       0.83254220       0.66666410       0.94599196 </v>
   <v>       0.66703923       0.16648032       0.05373123 </v>
   <v>       0.66757886       0.16658686       0.55421530 </v>
   <v>       0.66703923       0.50018635       0.05373123 </v>
   <v>       0.66757886       0.50007981       0.55421530 </v>
   <v>       0.66729407       0.83333333       0.05352183 </v>
   <v>       0.66910856       0.83333333       0.55484084 </v>
   <v>       0.49656359       0.99951823       0.12620831 </v>
   <v>       0.49757426       0.99965226       0.62898047 </v>
   <v>       0.49623870       0.33333333       0.12664547 </v>
   <v>       0.49773165       0.33333333       0.62884759 </v>
   <v>       0.49656359       0.66714844       0.12620831 </v>
   <v>       0.49757426       0.66701440       0.62898047 </v>
   <v>       0.00112767       0.17137820       0.36958883 </v>
   <v>       0.00346405       0.16608234       0.87294091 </v>
   <v>       0.00112767       0.49528846       0.36958883 </v>
   <v>       0.00346405       0.50058432       0.87294091 </v>
   <v>       0.00586997       0.83333333       0.37328819 </v>
   <v>       0.00425218       0.83333333       0.87321996 </v>
   <v>       0.17367786       0.99925982       0.28125211 </v>
   <v>       0.17187577       0.00058281       0.77927163 </v>
   <v>       0.17488564       0.33333333       0.27306167 </v>
   <v>       0.17187182       0.33333333       0.78064796 </v>
   <v>       0.17367786       0.66740685       0.28125211 </v>
   <v>       0.17187577       0.66608386       0.77927163 </v>
   <v>       0.32998718       0.16348305       0.22031298 </v>
   <v>       0.32744540       0.16726253       0.71903782 </v>
   <v>       0.32998718       0.50318362       0.22031298 </v>
   <v>       0.32744540       0.49940413       0.71903782 </v>
   <v>       0.32806508       0.83333333       0.21939603 </v>
   <v>       0.32668966       0.83333333       0.71857407 </v>
   <v>       0.33490969       0.16454873       0.44722300 </v>
   <v>       0.33184486       0.16642369       0.94566843 </v>
   <v>       0.33490969       0.50211794       0.44722300 </v>
   <v>       0.33184486       0.50024298       0.94566843 </v>
   <v>       0.33460120       0.83333333       0.44614223 </v>
   <v>       0.33074916       0.83333333       0.94535207 </v>
   <v>       0.16672255       0.00117863       0.05548599 </v>
   <v>       0.16699100       0.99972174       0.55282878 </v>
   <v>       0.16850803       0.33333333       0.05261490 </v>
   <v>       0.16872137       0.33333333       0.55391179 </v>
   <v>       0.16672255       0.66548804       0.05548599 </v>
   <v>       0.16699100       0.66694493       0.55282878 </v>
  </varray>
 </structure>
</modeling>
