 running    4 mpi-ranks, on    1 nodes
 distrk:  each k-point on    1 cores,    4 groups
 distr:  one band on    1 cores,    1 groups
 OpenACC runtime initialized ...    4 GPUs detected
 vasp.6.4.2 20Jul23 (build Nov 12 2023 22:16:35) complex                         
 POSCAR found type information on POSCAR GaO P 
 POSCAR found :  3 types and     119 ions
 scaLAPACK will be used selectively (only on CPU)
 LDA part: xc-table for Pade appr. of Perdew
 POSCAR, INCAR and KPOINTS ok, starting setup
 FFT: planning ... GRIDC
 FFT: planning ... GRID_SOFT
 FFT: planning ... GRID
 WAVECAR not read
 entering main loop
       N       E                     dE             d eps       ncg     rms          rms(c)
DAV:   1     0.216742235054E+05    0.21674E+05   -0.31764E+05 10000   0.280E+03
DAV:   2     0.480668414953E+04   -0.16868E+05   -0.15895E+05 10000   0.813E+02
DAV:   3    -0.141473780346E+03   -0.49482E+04   -0.46612E+04 12800   0.320E+02
DAV:   4    -0.762688360350E+03   -0.62121E+03   -0.60809E+03 12352   0.121E+02
DAV:   5    -0.805420379648E+03   -0.42732E+02   -0.42389E+02 14328   0.344E+01    0.610E+01
RMM:   6    -0.696465558241E+03    0.10895E+03   -0.38539E+02 13161   0.238E+01    0.215E+01
RMM:   7    -0.701227004495E+03   -0.47614E+01   -0.65104E+01 13804   0.992E+00    0.173E+01
RMM:   8    -0.697180968808E+03    0.40460E+01   -0.11524E+01 15355   0.455E+00    0.116E+01
RMM:   9    -0.699917575985E+03   -0.27366E+01   -0.62767E+00 12949   0.330E+00    0.223E+01
RMM:  10    -0.697204649671E+03    0.27129E+01   -0.24542E+00 13443   0.201E+00    0.118E+01
RMM:  11    -0.696824707370E+03    0.37994E+00   -0.15268E+00 13338   0.134E+00    0.450E+00
RMM:  12    -0.696464189976E+03    0.36052E+00   -0.75232E-01 12970   0.102E+00    0.360E+00
RMM:  13    -0.696217915776E+03    0.24627E+00   -0.12157E-01 15382   0.479E-01    0.267E+00
RMM:  14    -0.696135334093E+03    0.82582E-01   -0.48949E-02 13700   0.220E-01    0.230E+00
RMM:  15    -0.696039798181E+03    0.95536E-01   -0.38636E-02 13159   0.181E-01    0.161E+00
RMM:  16    -0.695993128278E+03    0.46670E-01   -0.36453E-02 13665   0.158E-01    0.648E-01
RMM:  17    -0.695993747419E+03   -0.61914E-03   -0.63371E-03 15001   0.889E-02    0.802E-01
RMM:  18    -0.695989617392E+03    0.41300E-02   -0.10678E-02 13349   0.109E-01    0.981E-01
RMM:  19    -0.696004961869E+03   -0.15344E-01   -0.75487E-03 13223   0.731E-02    0.259E+00
RMM:  20    -0.695993897865E+03    0.11064E-01   -0.10961E-03 12912   0.509E-02    0.205E+00
RMM:  21    -0.695981805773E+03    0.12092E-01   -0.14435E-03 12161   0.335E-02    0.359E-01
RMM:  22    -0.695985264837E+03   -0.34591E-02   -0.74073E-04 12516   0.459E-02    0.291E-01
RMM:  23    -0.695985696864E+03   -0.43203E-03   -0.25526E-04 12186   0.247E-02    0.373E-01
RMM:  24    -0.695985187536E+03    0.50933E-03   -0.21195E-04 10850   0.167E-02    0.958E-02
RMM:  25    -0.695985237130E+03   -0.49594E-04   -0.89422E-05  9502   0.125E-02    0.219E-02
RMM:  26    -0.695985248474E+03   -0.11344E-04   -0.27121E-05  7565   0.857E-03    0.129E-02
RMM:  27    -0.695985248165E+03    0.30841E-06   -0.10162E-05  6317   0.566E-03
   1 F= -.69598525E+03 E0= -.69598195E+03  d E =-.695985E+03
 curvature:   0.00 expect dE= 0.000E+00 dE for cont linesearch  0.000E+00
 trial: gam= 0.00000 g(F)=  0.252E+02 g(S)=  0.000E+00 ort = 0.000E+00 (trialstep = 0.100E+01)
 search vector abs. value=  0.252E+02
 bond charge predicted
       N       E                     dE             d eps       ncg     rms          rms(c)
DAV:   1    -0.651168506200E+03    0.44817E+02   -0.72841E+03 11392   0.109E+02    0.181E+01
RMM:   2    -0.684900350050E+03   -0.33732E+02   -0.40651E+02 14021   0.287E+01    0.564E+00
RMM:   3    -0.699435728294E+03   -0.14535E+02   -0.10004E+02 14905   0.128E+01    0.903E+00
RMM:   4    -0.700328336974E+03   -0.89261E+00   -0.12673E+01 15432   0.498E+00    0.804E+00
RMM:   5    -0.699891850475E+03    0.43649E+00   -0.30785E+00 14200   0.257E+00    0.466E+00
RMM:   6    -0.699871235006E+03    0.20615E-01   -0.12602E+00 14554   0.128E+00    0.188E+00
RMM:   7    -0.699974428288E+03   -0.10319E+00   -0.77447E-01 15438   0.697E-01    0.113E+00
RMM:   8    -0.700000383510E+03   -0.25955E-01   -0.37295E-01 13548   0.500E-01    0.888E-01
RMM:   9    -0.700007774289E+03   -0.73908E-02   -0.11984E-01 14584   0.259E-01    0.949E-01
RMM:  10    -0.700000940427E+03    0.68339E-02   -0.94568E-02 13520   0.331E-01    0.247E-01
RMM:  11    -0.700001685717E+03   -0.74529E-03   -0.19551E-02 15232   0.950E-02    0.156E-01
RMM:  12    -0.700002252438E+03   -0.56672E-03   -0.10440E-02 12938   0.560E-02    0.893E-02
RMM:  13    -0.700002280608E+03   -0.28170E-04   -0.35078E-03 13414   0.361E-02    0.426E-02
RMM:  14    -0.700002403685E+03   -0.12308E-03   -0.16332E-03 10756   0.200E-02    0.373E-02
RMM:  15    -0.700002452503E+03   -0.48817E-04   -0.61726E-04  9440   0.126E-02    0.141E-02
RMM:  16    -0.700002479493E+03   -0.26990E-04   -0.28513E-04  8393   0.799E-03    0.115E-02
RMM:  17    -0.700002491506E+03   -0.12013E-04   -0.13476E-04  6258   0.643E-03    0.727E-03
RMM:  18    -0.700002496224E+03   -0.47183E-05   -0.56099E-05  5929   0.422E-03
   2 F= -.70000250E+03 E0= -.69999497E+03  d E =-.401725E+01
 trial-energy change:   -4.017248  1 .order  -10.704524  -25.226606    3.817559
 step:   0.5240(harm=  0.8686)  dis= 0.24470  next Energy=  -701.632380 (dE=-0.565E+01)
 bond charge predicted
       N       E                     dE             d eps       ncg     rms          rms(c)
DAV:   1    -0.692595466622E+03    0.74070E+01   -0.11079E+03 12871   0.425E+01    0.884E+00
RMM:   2    -0.698970459335E+03   -0.63750E+01   -0.70805E+01 13134   0.128E+01    0.207E+00
RMM:   3    -0.700911778984E+03   -0.19413E+01   -0.16682E+01 15178   0.613E+00    0.339E+00
RMM:   4    -0.701129827000E+03   -0.21805E+00   -0.20850E+00 15456   0.175E+00    0.280E+00
RMM:   5    -0.701103432777E+03    0.26394E-01   -0.24850E-01 14479   0.721E-01    0.683E-01
RMM:   6    -0.701102105829E+03    0.13269E-02   -0.10526E-01 13498   0.471E-01    0.107E+00
RMM:   7    -0.701100838347E+03    0.12675E-02   -0.23756E-02 15478   0.203E-01    0.604E-01
RMM:   8    -0.701098740460E+03    0.20979E-02   -0.91099E-03 13292   0.130E-01    0.944E-02
RMM:   9    -0.701098773571E+03   -0.33112E-04   -0.17964E-03 14172   0.602E-02    0.581E-02
RMM:  10    -0.701098825624E+03   -0.52052E-04   -0.65621E-04 13303   0.305E-02    0.178E-02
RMM:  11    -0.701098834416E+03   -0.87923E-05   -0.13627E-04 10701   0.177E-02    0.914E-03
RMM:  12    -0.701098837206E+03   -0.27896E-05   -0.43848E-05  8602   0.869E-03
   3 F= -.70109884E+03 E0= -.70109880E+03  d E =-.511359E+01
 curvature:   2.55 expect dE= 0.460E+01 dE for cont linesearch  0.239E-01
 ZBRENT: interpolating
 opt :   0.5778  next Energy=  -701.111918 (dE=-0.513E+01)
 bond charge predicted
       N       E                     dE             d eps       ncg     rms          rms(c)
DAV:   1    -0.701061461744E+03    0.37373E-01   -0.76630E+00 12112   0.289E+00    0.465E-01
RMM:   2    -0.701087068131E+03   -0.25606E-01   -0.28074E-01 13736   0.815E-01    0.229E-01
RMM:   3    -0.701095979433E+03   -0.89113E-02   -0.93023E-02 15445   0.329E-01    0.158E-01
RMM:   4    -0.701097121261E+03   -0.11418E-02   -0.12319E-02 15385   0.119E-01    0.102E-01
RMM:   5    -0.701097144442E+03   -0.23181E-04   -0.16935E-03 14222   0.496E-02    0.339E-02
RMM:   6    -0.701097176465E+03   -0.32023E-04   -0.45543E-04 11732   0.242E-02    0.122E-02
RMM:   7    -0.701097183732E+03   -0.72671E-05   -0.11251E-04 10238   0.133E-02    0.632E-03
RMM:   8    -0.701097186525E+03   -0.27924E-05   -0.37412E-05  8004   0.798E-03
   4 F= -.70109719E+03 E0= -.70109636E+03  d E =-.511194E+01
 curvature:  -1.40 expect dE=-0.279E+01 dE for cont linesearch -0.155E-01
 ZBRENT: interpolating
 opt :   0.5497  next Energy=  -701.105101 (dE=-0.512E+01)
 bond charge predicted
       N       E                     dE             d eps       ncg     rms          rms(c)
DAV:   1    -0.701096027277E+03    0.11565E-02   -0.20670E+00 11754   0.150E+00    0.246E-01
RMM:   2    -0.701102435554E+03   -0.64083E-02   -0.70209E-02 13267   0.431E-01    0.113E-01
RMM:   3    -0.701104562615E+03   -0.21271E-02   -0.22543E-02 15298   0.176E-01    0.659E-02
RMM:   4    -0.701104779137E+03   -0.21652E-03   -0.26338E-03 14700   0.642E-02    0.413E-02
RMM:   5    -0.701104790283E+03   -0.11146E-04   -0.47080E-04 12598   0.283E-02    0.137E-02
RMM:   6    -0.701104798888E+03   -0.86043E-05   -0.11103E-04 10065   0.137E-02    0.555E-03
RMM:   7    -0.701104800803E+03   -0.19160E-05   -0.32486E-05  7689   0.833E-03
   5 F= -.70110480E+03 E0= -.70110460E+03  d E =-.511955E+01
 curvature:  -0.56 expect dE=-0.106E+01 dE for cont linesearch -0.650E-06
 trial: gam= 0.07504 g(F)=  0.189E+01 g(S)=  0.000E+00 ort =-0.539E-02 (trialstep = 0.910E+00)
 search vector abs. value=  0.203E+01
 bond charge predicted
       N       E                     dE             d eps       ncg     rms          rms(c)
DAV:   1    -0.700183388668E+03    0.92141E+00   -0.28203E+02 10600   0.232E+01    0.308E+00
RMM:   2    -0.701542703481E+03   -0.13593E+01   -0.14482E+01 13721   0.726E+00    0.116E+00
RMM:   3    -0.701828841335E+03   -0.28614E+00   -0.32968E+00 15383   0.269E+00    0.123E+00
RMM:   4    -0.701842400153E+03   -0.13559E-01   -0.35176E-01 15572   0.903E-01    0.919E-01
RMM:   5    -0.701822448794E+03    0.19951E-01   -0.10304E-01 14682   0.444E-01    0.310E-01
RMM:   6    -0.701823029586E+03   -0.58079E-03   -0.27232E-02 15335   0.205E-01    0.278E-01
RMM:   7    -0.701822465615E+03    0.56397E-03   -0.57708E-03 14794   0.915E-02    0.108E-01
RMM:   8    -0.701822474867E+03   -0.92519E-05   -0.22932E-03 13923   0.543E-02    0.525E-02
RMM:   9    -0.701822471892E+03    0.29752E-05   -0.60212E-04 12262   0.310E-02    0.204E-02
RMM:  10    -0.701822490211E+03   -0.18320E-04   -0.24640E-04 11071   0.183E-02    0.157E-02
RMM:  11    -0.701822493604E+03   -0.33927E-05   -0.70838E-05  9989   0.108E-02
   6 F= -.70182249E+03 E0= -.70181321E+03  d E =-.717693E+00
 trial-energy change:   -0.717693  1 .order   -0.790042   -1.717221    0.137138
 step:   0.8245(harm=  0.8427)  dis= 0.08337  next Energy=  -701.828990 (dE=-0.724E+00)
 bond charge predicted
       N       E                     dE             d eps       ncg     rms          rms(c)
DAV:   1    -0.701817933298E+03    0.45569E-02   -0.24923E+00 10864   0.216E+00    0.253E-01
RMM:   2    -0.701826860454E+03   -0.89272E-02   -0.97214E-02 13459   0.597E-01    0.102E-01
RMM:   3    -0.701828689592E+03   -0.18291E-02   -0.22002E-02 15264   0.221E-01    0.102E-01
RMM:   4    -0.701828774219E+03   -0.84627E-04   -0.25543E-03 15142   0.764E-02    0.766E-02
RMM:   5    -0.701828604863E+03    0.16936E-03   -0.80488E-04 13220   0.390E-02    0.186E-02
RMM:   6    -0.701828616615E+03   -0.11752E-04   -0.21154E-04 11313   0.196E-02    0.184E-02
RMM:   7    -0.701828612785E+03    0.38300E-05   -0.52733E-05  9518   0.115E-02
   7 F= -.70182861E+03 E0= -.70182042E+03  d E =-.723812E+00
 curvature:  -0.42 expect dE=-0.404E+00 dE for cont linesearch -0.186E-04
 trial: gam= 0.50903 g(F)=  0.962E+00 g(S)=  0.000E+00 ort = 0.948E-02 (trialstep = 0.893E+00)
 search vector abs. value=  0.150E+01
 bond charge predicted
       N       E                     dE             d eps       ncg     rms          rms(c)
DAV:   1    -0.701546388171E+03    0.28223E+00   -0.17192E+02 10912   0.178E+01    0.322E+00
RMM:   2    -0.702277668950E+03   -0.73128E+00   -0.79294E+00 13514   0.563E+00    0.103E+00
RMM:   3    -0.702473019700E+03   -0.19535E+00   -0.20848E+00 15248   0.206E+00    0.901E-01
RMM:   4    -0.702483860896E+03   -0.10841E-01   -0.20764E-01 15507   0.678E-01    0.789E-01
RMM:   5    -0.702480919334E+03    0.29416E-02   -0.39388E-02 15633   0.266E-01    0.462E-01
RMM:   6    -0.702477444310E+03    0.34750E-02   -0.22422E-02 12830   0.199E-01    0.176E-01
RMM:   7    -0.702477296495E+03    0.14782E-03   -0.42324E-03 15530   0.880E-02    0.109E-01
RMM:   8    -0.702477232768E+03    0.63727E-04   -0.12769E-03 13072   0.383E-02    0.316E-02
RMM:   9    -0.702477257311E+03   -0.24543E-04   -0.33234E-04 11557   0.232E-02    0.191E-02
RMM:  10    -0.702477263414E+03   -0.61035E-05   -0.11331E-04 10128   0.131E-02    0.508E-03
RMM:  11    -0.702477265788E+03   -0.23734E-05   -0.34466E-05  8497   0.788E-03
   8 F= -.70247727E+03 E0= -.70246451E+03  d E =-.648653E+00
 trial-energy change:   -0.648653  1 .order   -0.650896   -0.863499   -0.438294
 step:   1.8789(harm=  1.8132)  dis= 0.09323  next Energy=  -702.716259 (dE=-0.888E+00)
 bond charge predicted
       N       E                     dE             d eps       ncg     rms          rms(c)
DAV:   1    -0.701572665104E+03    0.90460E+00   -0.21118E+02 11040   0.198E+01    0.408E+00
RMM:   2    -0.702482006537E+03   -0.90934E+00   -0.99332E+00 13457   0.650E+00    0.177E+00
RMM:   3    -0.702717910965E+03   -0.23590E+00   -0.25693E+00 15385   0.232E+00    0.896E-01
RMM:   4    -0.702734178079E+03   -0.16267E-01   -0.26299E-01 15527   0.760E-01    0.651E-01
RMM:   5    -0.702729245758E+03    0.49323E-02   -0.54574E-02 15091   0.333E-01    0.150E-01
RMM:   6    -0.702730213619E+03   -0.96786E-03   -0.16372E-02 14892   0.164E-01    0.121E-01
RMM:   7    -0.702730387659E+03   -0.17404E-03   -0.40873E-03 14934   0.783E-02    0.521E-02
RMM:   8    -0.702730482821E+03   -0.95162E-04   -0.12185E-03 13559   0.393E-02    0.366E-02
RMM:   9    -0.702730507095E+03   -0.24274E-04   -0.33621E-04 11193   0.215E-02    0.111E-02
RMM:  10    -0.702730517690E+03   -0.10595E-04   -0.12071E-04  9711   0.123E-02    0.406E-03
RMM:  11    -0.702730520199E+03   -0.25088E-05   -0.36857E-05  8448   0.820E-03
   9 F= -.70273052E+03 E0= -.70272176E+03  d E =-.901907E+00
 curvature:  -1.40 expect dE=-0.175E+01 dE for cont linesearch -0.942E-03
 trial: gam= 1.26576 g(F)=  0.125E+01 g(S)=  0.000E+00 ort = 0.318E-01 (trialstep = 0.438E+00)
 search vector abs. value=  0.373E+01
 bond charge predicted
       N       E                     dE             d eps       ncg     rms          rms(c)
DAV:   1    -0.702840051310E+03   -0.10953E+00   -0.85099E+01 10928   0.123E+01    0.354E+00
RMM:   2    -0.703175011695E+03   -0.33496E+00   -0.37001E+00 13492   0.358E+00    0.123E+00
RMM:   3    -0.703253911294E+03   -0.78900E-01   -0.92746E-01 15333   0.138E+00    0.121E+00
RMM:   4    -0.703251590600E+03    0.23207E-02   -0.10744E-01 15450   0.477E-01    0.429E-01
RMM:   5    -0.703251568842E+03    0.21758E-04   -0.23498E-02 15659   0.196E-01    0.276E-01
RMM:   6    -0.703250675717E+03    0.89313E-03   -0.61718E-03 13137   0.111E-01    0.647E-02
RMM:   7    -0.703250851033E+03   -0.17532E-03   -0.20170E-03 14688   0.582E-02    0.450E-02
RMM:   8    -0.703250859537E+03   -0.85043E-05   -0.48379E-04 12782   0.287E-02    0.194E-02
RMM:   9    -0.703250869903E+03   -0.10366E-04   -0.14863E-04 10434   0.144E-02    0.805E-03
RMM:  10    -0.703250872984E+03   -0.30809E-05   -0.44400E-05  9078   0.889E-03
  10 F= -.70325087E+03 E0= -.70323927E+03  d E =-.520353E+00
 ZBRENT: can't locate minimum, use default step
 trial-energy change:   -0.520353  1 .order   -0.530516   -0.564788   -0.496244
 step:   1.7506(harm=  3.6062)  dis= 0.17078  next Energy=  -705.057401 (dE=-0.233E+01)
 bond charge predicted
       N       E                     dE             d eps       ncg     rms          rms(c)
DAV:   1    -0.699781037172E+03    0.34698E+01   -0.81051E+02 11072   0.398E+01    0.230E+01
RMM:   2    -0.703506854765E+03   -0.37258E+01   -0.41911E+01 13322   0.125E+01    0.414E+00
RMM:   3    -0.704353119044E+03   -0.84626E+00   -0.93741E+00 15504   0.491E+00    0.451E+00
RMM:   4    -0.704426535052E+03   -0.73416E-01   -0.11687E+00 15486   0.162E+00    0.292E+00
RMM:   5    -0.704421561190E+03    0.49739E-02   -0.23350E-01 15245   0.686E-01    0.439E-01
RMM:   6    -0.704425272313E+03   -0.37111E-02   -0.58466E-02 15658   0.306E-01    0.300E-01
RMM:   7    -0.704426509170E+03   -0.12369E-02   -0.18028E-02 15406   0.147E-01    0.110E-01
RMM:   8    -0.704426898776E+03   -0.38961E-03   -0.48840E-03 14338   0.775E-02    0.471E-02
RMM:   9    -0.704427032152E+03   -0.13338E-03   -0.16229E-03 13400   0.412E-02    0.272E-02
RMM:  10    -0.704427080360E+03   -0.48209E-04   -0.52266E-04 11034   0.239E-02    0.216E-02
RMM:  11    -0.704427094896E+03   -0.14535E-04   -0.18075E-04 10204   0.133E-02    0.434E-03
RMM:  12    -0.704427100723E+03   -0.58273E-05   -0.68046E-05  9056   0.854E-03
  11 F= -.70442710E+03 E0= -.70442471E+03  d E =-.169658E+01
 curvature:  -3.42 expect dE=-0.623E+01 dE for cont linesearch -0.433E-06
 trial: gam= 1.24587 g(F)=  0.182E+01 g(S)=  0.000E+00 ort =-0.687E-03 (trialstep = 0.343E+00)
 search vector abs. value=  0.761E+01
 bond charge predicted
       N       E                     dE             d eps       ncg     rms          rms(c)
DAV:   1    -0.704445672948E+03   -0.18578E-01   -0.84119E+01 11176   0.132E+01    0.348E+00
RMM:   2    -0.704771428244E+03   -0.32576E+00   -0.39290E+00 13700   0.382E+00    0.112E+00
RMM:   3    -0.704842321313E+03   -0.70893E-01   -0.83538E-01 15494   0.144E+00    0.573E-01
RMM:   4    -0.704848894192E+03   -0.65729E-02   -0.10817E-01 15487   0.513E-01    0.335E-01
RMM:   5    -0.704849558778E+03   -0.66459E-03   -0.22092E-02 15461   0.216E-01    0.127E-01
RMM:   6    -0.704850038189E+03   -0.47941E-03   -0.57101E-03 15254   0.105E-01    0.616E-02
RMM:   7    -0.704850177868E+03   -0.13968E-03   -0.15733E-03 14582   0.507E-02    0.250E-02
RMM:   8    -0.704850220852E+03   -0.42985E-04   -0.46704E-04 12069   0.263E-02    0.612E-03
RMM:   9    -0.704850233802E+03   -0.12949E-04   -0.15021E-04 10399   0.146E-02    0.425E-03
RMM:  10    -0.704850237831E+03   -0.40297E-05   -0.50376E-05  9221   0.883E-03
  12 F= -.70485024E+03 E0= -.70484991E+03  d E =-.423137E+00
 trial-energy change:   -0.423137  1 .order   -0.422026   -0.624241   -0.219810
 step:   0.5254(harm=  0.5300)  dis= 0.08910  next Energy=  -704.908667 (dE=-0.482E+00)
 bond charge predicted
       N       E                     dE             d eps       ncg     rms          rms(c)
DAV:   1    -0.704807029554E+03    0.43204E-01   -0.23476E+01 11136   0.686E+00    0.156E+00
RMM:   2    -0.704895150753E+03   -0.88121E-01   -0.10249E+00 13781   0.193E+00    0.634E-01
RMM:   3    -0.704912955880E+03   -0.17805E-01   -0.21126E-01 15454   0.719E-01    0.347E-01
RMM:   4    -0.704914285511E+03   -0.13296E-02   -0.26037E-02 15488   0.253E-01    0.164E-01
RMM:   5    -0.704914515745E+03   -0.23023E-03   -0.57058E-03 15332   0.108E-01    0.499E-02
RMM:   6    -0.704914641014E+03   -0.12527E-03   -0.14069E-03 14953   0.522E-02    0.249E-02
RMM:   7    -0.704914676812E+03   -0.35798E-04   -0.40155E-04 12116   0.253E-02    0.101E-02
RMM:   8    -0.704914687013E+03   -0.10202E-04   -0.11935E-04 10440   0.144E-02    0.311E-03
RMM:   9    -0.704914690452E+03   -0.34387E-05   -0.43909E-05  8902   0.872E-03
  13 F= -.70491469E+03 E0= -.70491467E+03  d E =-.487590E+00
 curvature:  -1.11 expect dE=-0.176E+01 dE for cont linesearch -0.629E-03
 trial: gam= 0.13793 g(F)=  0.158E+01 g(S)=  0.000E+00 ort = 0.657E-01 (trialstep = 0.380E+00)
 search vector abs. value=  0.175E+01
 bond charge predicted
       N       E                     dE             d eps       ncg     rms          rms(c)
DAV:   1    -0.705176816087E+03   -0.26213E+00   -0.57669E+01 10488   0.111E+01    0.182E+00
RMM:   2    -0.705383637267E+03   -0.20682E+00   -0.22129E+00 13450   0.302E+00    0.626E-01
RMM:   3    -0.705421774273E+03   -0.38137E-01   -0.45391E-01 15321   0.114E+00    0.428E-01
RMM:   4    -0.705422200792E+03   -0.42652E-03   -0.47424E-02 15125   0.378E-01    0.161E-01
RMM:   5    -0.705422355732E+03   -0.15494E-03   -0.10282E-02 15378   0.165E-01    0.434E-02
RMM:   6    -0.705422537036E+03   -0.18130E-03   -0.21840E-03 15391   0.712E-02    0.329E-02
RMM:   7    -0.705422571425E+03   -0.34389E-04   -0.56906E-04 13078   0.360E-02    0.145E-02
RMM:   8    -0.705422585232E+03   -0.13807E-04   -0.20680E-04 11986   0.194E-02    0.404E-03
RMM:   9    -0.705422589099E+03   -0.38667E-05   -0.56192E-05  9188   0.111E-02
  14 F= -.70542259E+03 E0= -.70542259E+03  d E =-.507899E+00
 trial-energy change:   -0.507899  1 .order   -0.507459   -0.605046   -0.409872
 step:   1.1773(harm=  1.1773)  dis= 0.07479  next Energy=  -705.852521 (dE=-0.938E+00)
 bond charge predicted
       N       E                     dE             d eps       ncg     rms          rms(c)
DAV:   1    -0.704693363707E+03    0.72922E+00   -0.25407E+02 10470   0.234E+01    0.358E+00
RMM:   2    -0.705664415775E+03   -0.97105E+00   -0.10436E+01 13535   0.662E+00    0.126E+00
RMM:   3    -0.705848585306E+03   -0.18417E+00   -0.21692E+00 15357   0.251E+00    0.954E-01
RMM:   4    -0.705850747272E+03   -0.21620E-02   -0.23302E-01 15171   0.836E-01    0.387E-01
RMM:   5    -0.705850767925E+03   -0.20654E-04   -0.49627E-02 15420   0.361E-01    0.962E-02
RMM:   6    -0.705851555797E+03   -0.78787E-03   -0.10010E-02 15607   0.154E-01    0.665E-02
RMM:   7    -0.705851704014E+03   -0.14822E-03   -0.26210E-03 14156   0.763E-02    0.314E-02
RMM:   8    -0.705851771979E+03   -0.67965E-04   -0.92614E-04 14492   0.402E-02    0.911E-03
RMM:   9    -0.705851792547E+03   -0.20568E-04   -0.23588E-04 10719   0.179E-02    0.583E-03
RMM:  10    -0.705851799345E+03   -0.67982E-05   -0.78564E-05  9661   0.105E-02
  15 F= -.70585180E+03 E0= -.70585180E+03  d E =-.937109E+00
 curvature:  -0.65 expect dE=-0.591E+00 dE for cont linesearch -0.101E-04
 trial: gam= 0.58740 g(F)=  0.916E+00 g(S)=  0.000E+00 ort =-0.523E-02 (trialstep = 0.539E+00)
 search vector abs. value=  0.151E+01
 bond charge predicted
       N       E                     dE             d eps       ncg     rms          rms(c)
DAV:   1    -0.705824748118E+03    0.27044E-01   -0.97112E+01 10864   0.142E+01    0.165E+00
RMM:   2    -0.706159909031E+03   -0.33516E+00   -0.36252E+00 13319   0.384E+00    0.562E-01
RMM:   3    -0.706230473297E+03   -0.70564E-01   -0.79282E-01 15197   0.148E+00    0.558E-01
RMM:   4    -0.706233005336E+03   -0.25320E-02   -0.83173E-02 15390   0.482E-01    0.334E-01
RMM:   5    -0.706231132728E+03    0.18726E-02   -0.21805E-02 14250   0.225E-01    0.108E-01
RMM:   6    -0.706231404902E+03   -0.27217E-03   -0.47043E-03 15223   0.105E-01    0.736E-02
RMM:   7    -0.706231428979E+03   -0.24078E-04   -0.14140E-03 14706   0.478E-02    0.296E-02
RMM:   8    -0.706231444276E+03   -0.15297E-04   -0.32547E-04 11509   0.226E-02    0.143E-02
RMM:   9    -0.706231450356E+03   -0.60800E-05   -0.11085E-04  9997   0.139E-02    0.448E-03
RMM:  10    -0.706231453492E+03   -0.31358E-05   -0.36718E-05  8681   0.804E-03
  16 F= -.70623145E+03 E0= -.70623145E+03  d E =-.379654E+00
 trial-energy change:   -0.379654  1 .order   -0.378986   -0.492175   -0.265797
 step:   1.1725(harm=  1.1725)  dis= 0.08361  next Energy=  -706.386825 (dE=-0.535E+00)
 bond charge predicted
       N       E                     dE             d eps       ncg     rms          rms(c)
DAV:   1    -0.705819281828E+03    0.41217E+00   -0.13379E+02 10552   0.167E+01    0.193E+00
RMM:   2    -0.706288072862E+03   -0.46879E+00   -0.50530E+00 13368   0.455E+00    0.647E-01
RMM:   3    -0.706386560835E+03   -0.98488E-01   -0.11059E+00 15175   0.174E+00    0.655E-01
RMM:   4    -0.706390478422E+03   -0.39176E-02   -0.11776E-01 15397   0.570E-01    0.396E-01
RMM:   5    -0.706387904912E+03    0.25735E-02   -0.30927E-02 14392   0.266E-01    0.134E-01
RMM:   6    -0.706388256975E+03   -0.35206E-03   -0.65399E-03 15229   0.123E-01    0.872E-02
RMM:   7    -0.706388293319E+03   -0.36344E-04   -0.19792E-03 14787   0.561E-02    0.336E-02
RMM:   8    -0.706388316324E+03   -0.23005E-04   -0.45078E-04 12287   0.263E-02    0.155E-02
RMM:   9    -0.706388326181E+03   -0.98567E-05   -0.15379E-04 10213   0.155E-02    0.571E-03
RMM:  10    -0.706388330321E+03   -0.41394E-05   -0.50165E-05  8983   0.911E-03
  17 F= -.70638833E+03 E0= -.70638833E+03  d E =-.536531E+00
 curvature:  -0.97 expect dE=-0.488E+00 dE for cont linesearch -0.222E-06
 trial: gam= 0.54226 g(F)=  0.502E+00 g(S)=  0.000E+00 ort = 0.587E-03 (trialstep = 0.666E+00)
 search vector abs. value=  0.948E+00
 bond charge predicted
       N       E                     dE             d eps       ncg     rms          rms(c)
DAV:   1    -0.706254417545E+03    0.13391E+00   -0.87271E+01 10368   0.131E+01    0.189E+00
RMM:   2    -0.706566863207E+03   -0.31245E+00   -0.34128E+00 13279   0.353E+00    0.625E-01
RMM:   3    -0.706624046207E+03   -0.57183E-01   -0.66658E-01 15316   0.133E+00    0.551E-01
RMM:   4    -0.706625559606E+03   -0.15134E-02   -0.73420E-02 15344   0.443E-01    0.321E-01
RMM:   5    -0.706624086535E+03    0.14731E-02   -0.19868E-02 14696   0.209E-01    0.855E-02
RMM:   6    -0.706624345750E+03   -0.25922E-03   -0.44003E-03 14993   0.976E-02    0.521E-02
RMM:   7    -0.706624410077E+03   -0.64327E-04   -0.13627E-03 14715   0.458E-02    0.195E-02
RMM:   8    -0.706624436014E+03   -0.25937E-04   -0.36384E-04 10891   0.226E-02    0.104E-02
RMM:   9    -0.706624444258E+03   -0.82444E-05   -0.12167E-04 10135   0.135E-02    0.408E-03
RMM:  10    -0.706624447631E+03   -0.33731E-05   -0.41874E-05  8966   0.777E-03
  18 F= -.70662445E+03 E0= -.70662445E+03  d E =-.236117E+00
 trial-energy change:   -0.236117  1 .order   -0.235078   -0.334673   -0.135483
 step:   1.0966(harm=  1.1189)  dis= 0.07037  next Energy=  -706.668545 (dE=-0.280E+00)
 bond charge predicted
       N       E                     dE             d eps       ncg     rms          rms(c)
DAV:   1    -0.706517968167E+03    0.10648E+00   -0.36606E+01 10800   0.852E+00    0.123E+00
RMM:   2    -0.706645663609E+03   -0.12770E+00   -0.13929E+00 13232   0.226E+00    0.418E-01
RMM:   3    -0.706668806810E+03   -0.23143E-01   -0.27235E-01 15323   0.848E-01    0.351E-01
RMM:   4    -0.706669343450E+03   -0.53664E-03   -0.29733E-02 15340   0.284E-01    0.194E-01
RMM:   5    -0.706668949986E+03    0.39346E-03   -0.80445E-03 14905   0.133E-01    0.591E-02
RMM:   6    -0.706669044328E+03   -0.94343E-04   -0.17574E-03 15370   0.603E-02    0.334E-02
RMM:   7    -0.706669068267E+03   -0.23939E-04   -0.53945E-04 13028   0.285E-02    0.142E-02
RMM:   8    -0.706669077777E+03   -0.95098E-05   -0.15105E-04 10282   0.160E-02    0.575E-03
RMM:   9    -0.706669081304E+03   -0.35275E-05   -0.52176E-05  9374   0.981E-03
  19 F= -.70666908E+03 E0= -.70666908E+03  d E =-.280751E+00
 curvature:  -1.05 expect dE=-0.400E+00 dE for cont linesearch -0.671E-06
 trial: gam= 0.76459 g(F)=  0.380E+00 g(S)=  0.000E+00 ort =-0.777E-03 (trialstep = 0.752E+00)
 search vector abs. value=  0.933E+00
 bond charge predicted
       N       E                     dE             d eps       ncg     rms          rms(c)
DAV:   1    -0.706438074197E+03    0.23100E+00   -0.10614E+02 10147   0.143E+01    0.223E+00
RMM:   2    -0.706813374012E+03   -0.37530E+00   -0.41036E+00 12943   0.375E+00    0.654E-01
RMM:   3    -0.706887471208E+03   -0.74097E-01   -0.84000E-01 15290   0.145E+00    0.604E-01
RMM:   4    -0.706891091135E+03   -0.36199E-02   -0.93417E-02 15359   0.482E-01    0.396E-01
RMM:   5    -0.706889485643E+03    0.16055E-02   -0.23342E-02 14546   0.222E-01    0.942E-02
RMM:   6    -0.706889918965E+03   -0.43332E-03   -0.55975E-03 14555   0.107E-01    0.635E-02
RMM:   7    -0.706890030302E+03   -0.11134E-03   -0.16849E-03 15014   0.519E-02    0.234E-02
RMM:   8    -0.706890065166E+03   -0.34865E-04   -0.44575E-04 11069   0.240E-02    0.930E-03
RMM:   9    -0.706890077074E+03   -0.11908E-04   -0.14673E-04 10259   0.142E-02    0.457E-03
RMM:  10    -0.706890081175E+03   -0.41009E-05   -0.50653E-05  9088   0.825E-03
  20 F= -.70689008E+03 E0= -.70689008E+03  d E =-.221000E+00
 trial-energy change:   -0.221000  1 .order   -0.217744   -0.285499   -0.149989
 step:   1.4076(harm=  1.5845)  dis= 0.10734  next Energy=  -706.957608 (dE=-0.289E+00)
 bond charge predicted
       N       E                     dE             d eps       ncg     rms          rms(c)
DAV:   1    -0.706615388587E+03    0.27469E+00   -0.81244E+01 10368   0.125E+01    0.217E+00
RMM:   2    -0.706903401776E+03   -0.28801E+00   -0.31111E+00 12979   0.325E+00    0.614E-01
RMM:   3    -0.706956928271E+03   -0.53526E-01   -0.62572E-01 15303   0.125E+00    0.506E-01
RMM:   4    -0.706959463113E+03   -0.25348E-02   -0.69114E-02 15307   0.414E-01    0.310E-01
RMM:   5    -0.706958671965E+03    0.79115E-03   -0.17175E-02 14792   0.189E-01    0.728E-02
RMM:   6    -0.706958990745E+03   -0.31878E-03   -0.39392E-03 14724   0.889E-02    0.477E-02
RMM:   7    -0.706959079097E+03   -0.88351E-04   -0.11929E-03 14757   0.432E-02    0.202E-02
RMM:   8    -0.706959103673E+03   -0.24576E-04   -0.32182E-04 10803   0.207E-02    0.578E-03
RMM:   9    -0.706959113049E+03   -0.93764E-05   -0.10979E-04 10055   0.126E-02    0.328E-03
RMM:  10    -0.706959115847E+03   -0.27983E-05   -0.36369E-05  8698   0.725E-03
  21 F= -.70695912E+03 E0= -.70695912E+03  d E =-.290035E+00
 curvature:  -1.86 expect dE=-0.475E+00 dE for cont linesearch -0.151E-04
 trial: gam= 0.58020 g(F)=  0.256E+00 g(S)=  0.000E+00 ort =-0.275E-02 (trialstep = 0.883E+00)
 search vector abs. value=  0.566E+00
 bond charge predicted
       N       E                     dE             d eps       ncg     rms          rms(c)
DAV:   1    -0.706636107298E+03    0.32301E+00   -0.91889E+01 10176   0.134E+01    0.272E+00
RMM:   2    -0.706999167637E+03   -0.36306E+00   -0.38635E+00 13372   0.357E+00    0.815E-01
RMM:   3    -0.707056754224E+03   -0.57587E-01   -0.70558E-01 15448   0.133E+00    0.533E-01
RMM:   4    -0.707058076940E+03   -0.13227E-02   -0.79031E-02 15429   0.450E-01    0.269E-01
RMM:   5    -0.707057821378E+03    0.25556E-03   -0.19166E-02 15159   0.202E-01    0.675E-02
RMM:   6    -0.707058165853E+03   -0.34447E-03   -0.42987E-03 15356   0.944E-02    0.471E-02
RMM:   7    -0.707058267060E+03   -0.10121E-03   -0.12433E-03 14763   0.449E-02    0.215E-02
RMM:   8    -0.707058297126E+03   -0.30066E-04   -0.37023E-04 11876   0.240E-02    0.436E-03
RMM:   9    -0.707058307816E+03   -0.10690E-04   -0.12248E-04 10119   0.137E-02    0.326E-03
RMM:  10    -0.707058311191E+03   -0.33744E-05   -0.41670E-05  9082   0.871E-03
  22 F= -.70705831E+03 E0= -.70705831E+03  d E =-.991953E-01
 trial-energy change:   -0.099195  1 .order   -0.088534   -0.224281    0.047212
 step:   0.7553(harm=  0.7296)  dis= 0.04263  next Energy=  -707.061695 (dE=-0.103E+00)
 bond charge predicted
       N       E                     dE             d eps       ncg     rms          rms(c)
DAV:   1    -0.707052921098E+03    0.53867E-02   -0.19337E+00 11216   0.193E+00    0.397E-01
RMM:   2    -0.707060486202E+03   -0.75651E-02   -0.80648E-02 13264   0.507E-01    0.131E-01
RMM:   3    -0.707061581093E+03   -0.10949E-02   -0.13854E-02 15393   0.187E-01    0.988E-02
RMM:   4    -0.707061593932E+03   -0.12840E-04   -0.15135E-03 14997   0.635E-02    0.568E-02
RMM:   5    -0.707061583739E+03    0.10193E-04   -0.38030E-04 13104   0.295E-02    0.102E-02
RMM:   6    -0.707061588994E+03   -0.52548E-05   -0.79522E-05 10209   0.141E-02
  23 F= -.70706159E+03 E0= -.70706159E+03  d E =-.102473E+00
 curvature:  -0.79 expect dE=-0.962E-01 dE for cont linesearch -0.168E-04
 trial: gam= 0.22560 g(F)=  0.122E+00 g(S)=  0.000E+00 ort = 0.347E-02 (trialstep = 0.858E+00)
 search vector abs. value=  0.152E+00
 bond charge predicted
       N       E                     dE             d eps       ncg     rms          rms(c)
DAV:   1    -0.707026842685E+03    0.34741E-01   -0.25650E+01 10488   0.744E+00    0.101E+00
RMM:   2    -0.707115179819E+03   -0.88337E-01   -0.94334E-01 13331   0.200E+00    0.311E-01
RMM:   3    -0.707132972222E+03   -0.17792E-01   -0.20219E-01 15172   0.754E-01    0.275E-01
RMM:   4    -0.707133302876E+03   -0.33065E-03   -0.21534E-02 15340   0.252E-01    0.123E-01
RMM:   5    -0.707133168138E+03    0.13474E-03   -0.47803E-03 15064   0.111E-01    0.405E-02
RMM:   6    -0.707133244187E+03   -0.76049E-04   -0.10675E-03 15103   0.493E-02    0.285E-02
RMM:   7    -0.707133256522E+03   -0.12335E-04   -0.28215E-04 12535   0.253E-02    0.141E-02
RMM:   8    -0.707133261658E+03   -0.51359E-05   -0.10066E-04 10308   0.142E-02    0.327E-03
RMM:   9    -0.707133263432E+03   -0.17747E-05   -0.28510E-05  8474   0.940E-03
  24 F= -.70713326E+03 E0= -.70713326E+03  d E =-.716744E-01
 trial-energy change:   -0.071674  1 .order   -0.071712   -0.104998   -0.038425
 step:   1.3526(harm=  1.3526)  dis= 0.02139  next Energy=  -707.144390 (dE=-0.828E-01)
 bond charge predicted
       N       E                     dE             d eps       ncg     rms          rms(c)
DAV:   1    -0.707110258743E+03    0.23003E-01   -0.85565E+00 10968   0.430E+00    0.584E-01
RMM:   2    -0.707139344361E+03   -0.29086E-01   -0.31050E-01 13334   0.114E+00    0.179E-01
RMM:   3    -0.707144943721E+03   -0.55994E-02   -0.63966E-02 15149   0.425E-01    0.158E-01
RMM:   4    -0.707145042688E+03   -0.98967E-04   -0.69207E-03 15321   0.143E-01    0.711E-02
RMM:   5    -0.707145000712E+03    0.41975E-04   -0.15506E-03 14845   0.626E-02    0.234E-02
RMM:   6    -0.707145025917E+03   -0.25204E-04   -0.35014E-04 13982   0.281E-02    0.164E-02
RMM:   7    -0.707145029977E+03   -0.40603E-05   -0.97429E-05 10248   0.151E-02
  25 F= -.70714503E+03 E0= -.70714503E+03  d E =-.834410E-01
 curvature:  -0.84 expect dE=-0.614E-01 dE for cont linesearch -0.543E-06
 trial: gam= 0.59876 g(F)=  0.731E-01 g(S)=  0.000E+00 ort = 0.314E-03 (trialstep = 0.957E+00)
 search vector abs. value=  0.128E+00
 bond charge predicted
       N       E                     dE             d eps       ncg     rms          rms(c)
DAV:   1    -0.707073808674E+03    0.71217E-01   -0.27765E+01 10528   0.760E+00    0.114E+00
RMM:   2    -0.707167218114E+03   -0.93409E-01   -0.10006E+00 13147   0.198E+00    0.324E-01
RMM:   3    -0.707184939201E+03   -0.17721E-01   -0.20413E-01 15255   0.750E-01    0.296E-01
RMM:   4    -0.707184951957E+03   -0.12757E-04   -0.20503E-02 15145   0.245E-01    0.125E-01
RMM:   5    -0.707184872174E+03    0.79783E-04   -0.48271E-03 15018   0.109E-01    0.442E-02
RMM:   6    -0.707184941881E+03   -0.69707E-04   -0.10305E-03 15112   0.478E-02    0.294E-02
RMM:   7    -0.707184957268E+03   -0.15387E-04   -0.29036E-04 12458   0.241E-02    0.112E-02
RMM:   8    -0.707184963991E+03   -0.67238E-05   -0.96164E-05  9845   0.133E-02
  26 F= -.70718496E+03 E0= -.70718496E+03  d E =-.399340E-01
 trial-energy change:   -0.039934  1 .order   -0.038978   -0.070123   -0.007833
 step:   1.0657(harm=  1.0769)  dis= 0.01599  next Energy=  -707.185412 (dE=-0.404E-01)
 bond charge predicted
       N       E                     dE             d eps       ncg     rms          rms(c)
DAV:   1    -0.707184128731E+03    0.82854E-03   -0.36239E-01 11728   0.867E-01    0.129E-01
RMM:   2    -0.707185332787E+03   -0.12041E-02   -0.12860E-02 13144   0.223E-01    0.365E-02
RMM:   3    -0.707185554912E+03   -0.22213E-03   -0.25628E-03 15137   0.840E-02    0.333E-02
RMM:   4    -0.707185556662E+03   -0.17503E-05   -0.27543E-04 13321   0.284E-02    0.143E-02
RMM:   5    -0.707185555920E+03    0.74248E-06   -0.65989E-05 10306   0.144E-02
  27 F= -.70718556E+03 E0= -.70718556E+03  d E =-.405259E-01
 curvature:  -0.93 expect dE=-0.299E-01 dE for cont linesearch -0.732E-05
 trial: gam= 0.44650 g(F)=  0.321E-01 g(S)=  0.000E+00 ort = 0.100E-02 (trialstep = 0.978E+00)
 search vector abs. value=  0.585E-01
 bond charge predicted
       N       E                     dE             d eps       ncg     rms          rms(c)
DAV:   1    -0.707154632597E+03    0.30924E-01   -0.12376E+01 10520   0.513E+00    0.643E-01
RMM:   2    -0.707196236139E+03   -0.41604E-01   -0.44339E-01 13149   0.134E+00    0.205E-01
RMM:   3    -0.707204795025E+03   -0.85589E-02   -0.94291E-02 15227   0.513E-01    0.209E-01
RMM:   4    -0.707205162411E+03   -0.36739E-03   -0.10079E-02 15302   0.168E-01    0.130E-01
RMM:   5    -0.707205011690E+03    0.15072E-03   -0.25303E-03 14164   0.777E-02    0.392E-02
RMM:   6    -0.707205048571E+03   -0.36881E-04   -0.58470E-04 14885   0.366E-02    0.252E-02
RMM:   7    -0.707205056028E+03   -0.74572E-05   -0.18139E-04 11457   0.178E-02    0.169E-02
RMM:   8    -0.707205056042E+03   -0.14297E-07   -0.47789E-05  9095   0.107E-02
  28 F= -.70720506E+03 E0= -.70720506E+03  d E =-.195001E-01
 trial-energy change:   -0.019500  1 .order   -0.018944   -0.031821   -0.006067
 step:   1.1778(harm=  1.2089)  dis= 0.01212  next Energy=  -707.205679 (dE=-0.201E-01)
 bond charge predicted
       N       E                     dE             d eps       ncg     rms          rms(c)
DAV:   1    -0.707203807938E+03    0.12481E-02   -0.51465E-01 11456   0.105E+00    0.130E-01
RMM:   2    -0.707205523817E+03   -0.17159E-02   -0.18258E-02 13135   0.271E-01    0.416E-02
RMM:   3    -0.707205876546E+03   -0.35273E-03   -0.38879E-03 15142   0.104E-01    0.425E-02
RMM:   4    -0.707205892738E+03   -0.16192E-04   -0.42503E-04 14068   0.346E-02    0.272E-02
RMM:   5    -0.707205887570E+03    0.51677E-05   -0.11774E-04 11210   0.181E-02    0.803E-03
RMM:   6    -0.707205889122E+03   -0.15522E-05   -0.26890E-05  8017   0.861E-03
  29 F= -.70720589E+03 E0= -.70720589E+03  d E =-.203332E-01
 curvature:  -1.07 expect dE=-0.203E-01 dE for cont linesearch -0.226E-04
 trial: gam= 0.58237 g(F)=  0.190E-01 g(S)=  0.000E+00 ort = 0.111E-02 (trialstep = 0.102E+01)
 search vector abs. value=  0.402E-01
 bond charge predicted
       N       E                     dE             d eps       ncg     rms          rms(c)
DAV:   1    -0.707180042503E+03    0.25845E-01   -0.95905E+00 10392   0.448E+00    0.531E-01
RMM:   2    -0.707211341236E+03   -0.31299E-01   -0.32996E-01 12986   0.117E+00    0.163E-01
RMM:   3    -0.707218190227E+03   -0.68490E-02   -0.73854E-02 15125   0.455E-01    0.169E-01
RMM:   4    -0.707218542049E+03   -0.35182E-03   -0.77131E-03 15314   0.148E-01    0.108E-01
RMM:   5    -0.707218419050E+03    0.12300E-03   -0.18517E-03 14048   0.677E-02    0.334E-02
RMM:   6    -0.707218449366E+03   -0.30316E-04   -0.42646E-04 14359   0.319E-02    0.242E-02
RMM:   7    -0.707218452267E+03   -0.29016E-05   -0.13378E-04 11051   0.161E-02    0.142E-02
RMM:   8    -0.707218452520E+03   -0.25279E-06   -0.36396E-05  8544   0.979E-03
  30 F= -.70721845E+03 E0= -.70721845E+03  d E =-.125634E-01
 trial-energy change:   -0.012563  1 .order   -0.012114   -0.020045   -0.004182
 step:   1.2407(harm=  1.2868)  dis= 0.01324  next Energy=  -707.218914 (dE=-0.130E-01)
 bond charge predicted
       N       E                     dE             d eps       ncg     rms          rms(c)
DAV:   1    -0.707217260923E+03    0.11913E-02   -0.45770E-01 11232   0.979E-01    0.115E-01
RMM:   2    -0.707218743536E+03   -0.14826E-02   -0.15613E-02 12968   0.253E-01    0.354E-02
RMM:   3    -0.707219064988E+03   -0.32145E-03   -0.34776E-03 15069   0.986E-02    0.369E-02
RMM:   4    -0.707219083098E+03   -0.18110E-04   -0.36838E-04 13992   0.326E-02    0.248E-02
RMM:   5    -0.707219077282E+03    0.58153E-05   -0.10127E-04 10857   0.170E-02    0.834E-03
RMM:   6    -0.707219078626E+03   -0.13436E-05   -0.22861E-05  7387   0.824E-03
  31 F= -.70721908E+03 E0= -.70721908E+03  d E =-.131895E-01
 curvature:  -1.27 expect dE=-0.152E-01 dE for cont linesearch -0.200E-04
 trial: gam= 0.63997 g(F)=  0.119E-01 g(S)=  0.000E+00 ort = 0.794E-03 (trialstep = 0.106E+01)
 search vector abs. value=  0.294E-01
 bond charge predicted
       N       E                     dE             d eps       ncg     rms          rms(c)
DAV:   1    -0.707196410301E+03    0.22667E-01   -0.78659E+00 10320   0.404E+00    0.519E-01
RMM:   2    -0.707220811191E+03   -0.24401E-01   -0.25712E-01 12816   0.103E+00    0.161E-01
RMM:   3    -0.707226548148E+03   -0.57370E-02   -0.61939E-02 15104   0.412E-01    0.143E-01
RMM:   4    -0.707226793769E+03   -0.24562E-03   -0.62022E-03 15187   0.132E-01    0.728E-02
RMM:   5    -0.707226765983E+03    0.27786E-04   -0.13746E-03 14616   0.576E-02    0.265E-02
RMM:   6    -0.707226787805E+03   -0.21823E-04   -0.30959E-04 13396   0.260E-02    0.156E-02
RMM:   7    -0.707226793413E+03   -0.56083E-05   -0.90570E-05 10005   0.136E-02
  32 F= -.70722679E+03 E0= -.70722679E+03  d E =-.771479E-02
 trial-energy change:   -0.007715  1 .order   -0.007299   -0.013216   -0.001383
 step:   1.1637(harm=  1.1870)  dis= 0.01193  next Energy=  -707.226859 (dE=-0.778E-02)
 bond charge predicted
       N       E                     dE             d eps       ncg     rms          rms(c)
DAV:   1    -0.707226668748E+03    0.11906E-03   -0.71022E-02 11536   0.384E-01    0.470E-02
RMM:   2    -0.707226890184E+03   -0.22144E-03   -0.23308E-03 12828   0.996E-02    0.144E-02
RMM:   3    -0.707226941586E+03   -0.51402E-04   -0.56560E-04 14211   0.397E-02    0.138E-02
RMM:   4    -0.707226944622E+03   -0.30364E-05   -0.68176E-05 10421   0.154E-02
  33 F= -.70722694E+03 E0= -.70722694E+03  d E =-.786600E-02
 curvature:  -1.35 expect dE=-0.892E-02 dE for cont linesearch -0.118E-04
 trial: gam= 0.53734 g(F)=  0.659E-02 g(S)=  0.000E+00 ort = 0.506E-03 (trialstep = 0.108E+01)
 search vector abs. value=  0.156E-01
 bond charge predicted
       N       E                     dE             d eps       ncg     rms          rms(c)
DAV:   1    -0.707215159145E+03    0.11782E-01   -0.41007E+00 10414   0.295E+00    0.348E-01
RMM:   2    -0.707228206200E+03   -0.13047E-01   -0.13829E-01 12924   0.759E-01    0.110E-01
RMM:   3    -0.707231254138E+03   -0.30479E-02   -0.32772E-02 15155   0.302E-01    0.108E-01
RMM:   4    -0.707231441258E+03   -0.18712E-03   -0.33855E-03 15218   0.978E-02    0.763E-02
RMM:   5    -0.707231381080E+03    0.60178E-04   -0.82852E-04 13642   0.452E-02    0.221E-02
RMM:   6    -0.707231397564E+03   -0.16485E-04   -0.21175E-04 12983   0.222E-02    0.181E-02
RMM:   7    -0.707231398908E+03   -0.13432E-05   -0.72193E-05  9828   0.130E-02
  34 F= -.70723140E+03 E0= -.70723140E+03  d E =-.445429E-02
 trial-energy change:   -0.004454  1 .order   -0.004039   -0.007428   -0.000651
 step:   1.1577(harm=  1.1870)  dis= 0.00838  next Energy=  -707.231422 (dE=-0.448E-02)
 bond charge predicted
       N       E                     dE             d eps       ncg     rms          rms(c)
DAV:   1    -0.707231389182E+03    0.83825E-05   -0.19645E-02 11520   0.205E-01    0.211E-02
RMM:   2    -0.707231453794E+03   -0.64612E-04   -0.67950E-04 12824   0.552E-02    0.727E-03
RMM:   3    -0.707231468513E+03   -0.14719E-04   -0.16984E-04 12758   0.222E-02    0.838E-03
RMM:   4    -0.707231469719E+03   -0.12061E-05   -0.23663E-05  6575   0.104E-02
  35 F= -.70723147E+03 E0= -.70723147E+03  d E =-.452510E-02
 curvature:  -1.24 expect dE=-0.472E-02 dE for cont linesearch -0.162E-04
 trial: gam= 0.59691 g(F)=  0.380E-02 g(S)=  0.000E+00 ort = 0.452E-03 (trialstep = 0.110E+01)
 search vector abs. value=  0.990E-02
 bond charge predicted
       N       E                     dE             d eps       ncg     rms          rms(c)
DAV:   1    -0.707223724789E+03    0.77437E-02   -0.26318E+00 10504   0.238E+00    0.305E-01
RMM:   2    -0.707232121350E+03   -0.83966E-02   -0.88906E-02 12961   0.610E-01    0.937E-02
RMM:   3    -0.707234034205E+03   -0.19129E-02   -0.20674E-02 15183   0.242E-01    0.854E-02
RMM:   4    -0.707234150476E+03   -0.11627E-03   -0.21845E-03 15094   0.786E-02    0.583E-02
RMM:   5    -0.707234106812E+03    0.43664E-04   -0.53213E-04 13637   0.362E-02    0.189E-02
RMM:   6    -0.707234114494E+03   -0.76820E-05   -0.12420E-04 11422   0.170E-02    0.129E-02
RMM:   7    -0.707234115402E+03   -0.90866E-06   -0.42102E-05  9162   0.108E-02
  36 F= -.70723412E+03 E0= -.70723412E+03  d E =-.264568E-02
 trial-energy change:   -0.002646  1 .order   -0.002339   -0.004464   -0.000213
 step:   1.1360(harm=  1.1530)  dis= 0.00592  next Energy=  -707.234119 (dE=-0.265E-02)
 bond charge predicted
       N       E                     dE             d eps       ncg     rms          rms(c)
DAV:   1    -0.707234117741E+03   -0.32468E-05   -0.32015E-03 11496   0.865E-02    0.853E-03
RMM:   2    -0.707234131189E+03   -0.13448E-04   -0.14384E-04 12220   0.281E-02    0.304E-03
RMM:   3    -0.707234133170E+03   -0.19809E-05   -0.33162E-05  6675   0.117E-02
  37 F= -.70723413E+03 E0= -.70723413E+03  d E =-.266345E-02
 curvature:  -1.27 expect dE=-0.293E-02 dE for cont linesearch -0.325E-05
 trial: gam= 0.65148 g(F)=  0.231E-02 g(S)=  0.000E+00 ort = 0.159E-03 (trialstep = 0.111E+01)
 search vector abs. value=  0.672E-02
 bond charge predicted
       N       E                     dE             d eps       ncg     rms          rms(c)
DAV:   1    -0.707228729612E+03    0.54016E-02   -0.18198E+00 10440   0.197E+00    0.261E-01
RMM:   2    -0.707234425303E+03   -0.56957E-02   -0.60240E-02 12784   0.500E-01    0.793E-02
RMM:   3    -0.707235807578E+03   -0.13823E-02   -0.14703E-02 15170   0.202E-01    0.741E-02
RMM:   4    -0.707235905742E+03   -0.98164E-04   -0.15469E-03 15040   0.652E-02    0.549E-02
RMM:   5    -0.707235880047E+03    0.25695E-04   -0.37629E-04 12840   0.304E-02    0.180E-02
RMM:   6    -0.707235885773E+03   -0.57267E-05   -0.84946E-05 10286   0.145E-02
  38 F= -.70723589E+03 E0= -.70723589E+03  d E =-.175260E-02
 trial-energy change:   -0.001753  1 .order   -0.001511   -0.002669   -0.000353
 step:   1.2055(harm=  1.2738)  dis= 0.00475  next Energy=  -707.235902 (dE=-0.177E-02)
 bond charge predicted
       N       E                     dE             d eps       ncg     rms          rms(c)
DAV:   1    -0.707235860568E+03    0.19479E-04   -0.15507E-02 11640   0.185E-01    0.189E-02
RMM:   2    -0.707235919633E+03   -0.59065E-04   -0.63037E-04 12880   0.535E-02    0.849E-03
RMM:   3    -0.707235931762E+03   -0.12129E-04   -0.14484E-04 12526   0.213E-02    0.107E-02
RMM:   4    -0.707235932224E+03   -0.46244E-06   -0.20814E-05  6391   0.101E-02
  39 F= -.70723593E+03 E0= -.70723593E+03  d E =-.179905E-02
 curvature:  -1.48 expect dE=-0.207E-02 dE for cont linesearch -0.838E-05
 trial: gam= 0.56432 g(F)=  0.140E-02 g(S)=  0.000E+00 ort = 0.195E-03 (trialstep = 0.113E+01)
 search vector abs. value=  0.376E-02
 bond charge predicted
       N       E                     dE             d eps       ncg     rms          rms(c)
DAV:   1    -0.707232778605E+03    0.31532E-02   -0.10647E+00 10452   0.152E+00    0.187E-01
RMM:   2    -0.707236177602E+03   -0.33990E-02   -0.35875E-02 12922   0.390E-01    0.578E-02
RMM:   3    -0.707236989362E+03   -0.81176E-03   -0.86258E-03 15164   0.156E-01    0.552E-02
RMM:   4    -0.707237047098E+03   -0.57735E-04   -0.93006E-04 14956   0.511E-02    0.408E-02
RMM:   5    -0.707237030408E+03    0.16690E-04   -0.23485E-04 12679   0.244E-02    0.135E-02
RMM:   6    -0.707237033753E+03   -0.33449E-05   -0.52811E-05  9291   0.116E-02
  40 F= -.70723703E+03 E0= -.70723703E+03  d E =-.110153E-02
 trial-energy change:   -0.001102  1 .order   -0.000961   -0.001699   -0.000223
 step:   1.2301(harm=  1.2955)  dis= 0.00327  next Energy=  -707.237044 (dE=-0.111E-02)
 bond charge predicted
       N       E                     dE             d eps       ncg     rms          rms(c)
DAV:   1    -0.707237018094E+03    0.12314E-04   -0.95730E-03 11536   0.146E-01    0.144E-02
RMM:   2    -0.707237056018E+03   -0.37924E-04   -0.40187E-04 12877   0.420E-02    0.635E-03
RMM:   3    -0.707237062898E+03   -0.68797E-05   -0.92247E-05 11343   0.170E-02
  41 F= -.70723706E+03 E0= -.70723706E+03  d E =-.113067E-02
 curvature:  -1.37 expect dE=-0.124E-02 dE for cont linesearch -0.211E-07
 trial: gam= 0.72141 g(F)=  0.901E-03 g(S)=  0.000E+00 ort =-0.760E-05 (trialstep = 0.115E+01)
 search vector abs. value=  0.285E-02
 bond charge predicted
       N       E                     dE             d eps       ncg     rms          rms(c)
DAV:   1    -0.707234457572E+03    0.25984E-02   -0.85961E-01 10428   0.135E+00    0.159E-01
RMM:   2    -0.707237123069E+03   -0.26655E-02   -0.28181E-02 12725   0.340E-01    0.491E-02
RMM:   3    -0.707237742747E+03   -0.61968E-03   -0.66020E-03 15121   0.136E-01    0.515E-02
RMM:   4    -0.707237781012E+03   -0.38265E-04   -0.69585E-04 14732   0.440E-02    0.362E-02
RMM:   5    -0.707237770411E+03    0.10601E-04   -0.19406E-04 12100   0.219E-02    0.143E-02
RMM:   6    -0.707237771866E+03   -0.14546E-05   -0.38178E-05  8863   0.102E-02
  42 F= -.70723777E+03 E0= -.70723777E+03  d E =-.708968E-03
 trial-energy change:   -0.000709  1 .order   -0.000568   -0.001026   -0.000111
 step:   1.2165(harm=  1.2851)  dis= 0.00318  next Energy=  -707.237775 (dE=-0.712E-03)
 bond charge predicted
       N       E                     dE             d eps       ncg     rms          rms(c)
DAV:   1    -0.707237768390E+03    0.20214E-05   -0.33983E-03 11688   0.863E-02    0.844E-03
RMM:   2    -0.707237782221E+03   -0.13831E-04   -0.14764E-04 11691   0.250E-02    0.413E-03
RMM:   3    -0.707237784267E+03   -0.20466E-05   -0.34360E-05  7115   0.110E-02
  43 F= -.70723778E+03 E0= -.70723778E+03  d E =-.721369E-03
 curvature:  -1.54 expect dE=-0.845E-03 dE for cont linesearch -0.554E-07
 trial: gam= 0.65082 g(F)=  0.547E-03 g(S)=  0.000E+00 ort = 0.101E-04 (trialstep = 0.116E+01)
 search vector abs. value=  0.177E-02
 bond charge predicted
       N       E                     dE             d eps       ncg     rms          rms(c)
DAV:   1    -0.707236197194E+03    0.15850E-02   -0.55081E-01 10478   0.108E+00    0.131E-01
RMM:   2    -0.707237814766E+03   -0.16176E-02   -0.17103E-02 12378   0.268E-01    0.396E-02
RMM:   3    -0.707238242304E+03   -0.42754E-03   -0.45199E-03 15127   0.112E-01    0.406E-02
RMM:   4    -0.707238271095E+03   -0.28791E-04   -0.46156E-04 13895   0.357E-02    0.286E-02
RMM:   5    -0.707238268166E+03    0.29290E-05   -0.13800E-04 11144   0.193E-02    0.142E-02
RMM:   6    -0.707238267747E+03    0.41910E-06   -0.27843E-05  8293   0.879E-03
  44 F= -.70723827E+03 E0= -.70723827E+03  d E =-.483480E-03
 trial-energy change:   -0.000483  1 .order   -0.000386   -0.000643   -0.000130
 step:   1.2900(harm=  1.4540)  dis= 0.00267  next Energy=  -707.238275 (dE=-0.491E-03)
 bond charge predicted
       N       E                     dE             d eps       ncg     rms          rms(c)
DAV:   1    -0.707238261503E+03    0.66635E-05   -0.71146E-03 11680   0.123E-01    0.121E-02
RMM:   2    -0.707238285037E+03   -0.23534E-04   -0.24859E-04 12099   0.312E-02    0.531E-03
RMM:   3    -0.707238289504E+03   -0.44665E-05   -0.57523E-05  8645   0.131E-02
  45 F= -.70723829E+03 E0= -.70723829E+03  d E =-.505237E-03
 curvature:  -1.59 expect dE=-0.402E-03 dE for cont linesearch -0.997E-07
 trial: gam= 0.39692 g(F)=  0.252E-03 g(S)=  0.000E+00 ort = 0.105E-04 (trialstep = 0.119E+01)
 search vector abs. value=  0.539E-03
 bond charge predicted
       N       E                     dE             d eps       ncg     rms          rms(c)
DAV:   1    -0.707237795467E+03    0.48957E-03   -0.16954E-01 10672   0.621E-01    0.651E-02
RMM:   2    -0.707238353469E+03   -0.55800E-03   -0.58912E-03 13120   0.166E-01    0.210E-02
RMM:   3    -0.707238485920E+03   -0.13245E-03   -0.14229E-03 14883   0.653E-02    0.218E-02
RMM:   4    -0.707238496207E+03   -0.10287E-04   -0.16573E-04 12475   0.227E-02    0.152E-02
RMM:   5    -0.707238494271E+03    0.19362E-05   -0.52246E-05  9807   0.139E-02
  46 F= -.70723849E+03 E0= -.70723849E+03  d E =-.204767E-03
 trial-energy change:   -0.000205  1 .order   -0.000152   -0.000304   -0.000000
 step:   1.1868(harm=  1.1872)  dis= 0.00083  next Energy=  -707.238494 (dE=-0.205E-03)
 bond charge predicted
       N       E                     dE             d eps       ncg     rms          rms(c)
DAV:   1    -0.707238494579E+03    0.16275E-05   -0.11105E-05  7328   0.682E-03    0.385E-03
RMM:   2    -0.707238494770E+03   -0.19059E-06   -0.37765E-06  5830   0.480E-03
  47 F= -.70723849E+03 E0= -.70723849E+03  d E =-.205266E-03
 curvature:  -0.92 expect dE=-0.180E-03 dE for cont linesearch -0.305E-08
 trial: gam= 0.92370 g(F)=  0.195E-03 g(S)=  0.000E+00 ort = 0.133E-05 (trialstep = 0.972E+00)
 search vector abs. value=  0.657E-03
 bond charge predicted
       N       E                     dE             d eps       ncg     rms          rms(c)
DAV:   1    -0.707238094284E+03    0.40030E-03   -0.14756E-01 10566   0.565E-01    0.633E-02
RMM:   2    -0.707238515618E+03   -0.42133E-03   -0.44334E-03 12383   0.141E-01    0.199E-02
RMM:   3    -0.707238636932E+03   -0.12131E-03   -0.12663E-03 14980   0.600E-02    0.188E-02
RMM:   4    -0.707238645137E+03   -0.82053E-05   -0.12762E-04 12171   0.196E-02    0.132E-02
RMM:   5    -0.707238644316E+03    0.82113E-06   -0.44183E-05  9262   0.125E-02
  48 F= -.70723864E+03 E0= -.70723864E+03  d E =-.149546E-03
 trial-energy change:   -0.000150  1 .order   -0.000130   -0.000191   -0.000068
 step:   1.5123(harm=  1.5123)  dis= 0.00163  next Energy=  -707.238643 (dE=-0.149E-03)
 bond charge predicted
       N       E                     dE             d eps       ncg     rms          rms(c)
DAV:   1    -0.707238492781E+03    0.15236E-03   -0.45678E-02 10984   0.315E-01    0.380E-02
RMM:   2    -0.707238627002E+03   -0.13422E-03   -0.14172E-03 12401   0.796E-02    0.115E-02
RMM:   3    -0.707238664615E+03   -0.37613E-04   -0.39823E-04 13550   0.339E-02    0.990E-03
RMM:   4    -0.707238667724E+03   -0.31096E-05   -0.48356E-05  8893   0.143E-02
  49 F= -.70723867E+03 E0= -.70723867E+03  d E =-.172955E-03
 curvature:  -2.53 expect dE=-0.402E-03 dE for cont linesearch -0.202E-04
 ZBRENT: interpolating
 opt :   1.2381  next Energy=  -707.238654 (dE=-0.159E-03)
 bond charge predicted
       N       E                     dE             d eps       ncg     rms          rms(c)
DAV:   1    -0.707238614797E+03    0.49818E-04   -0.11840E-02 10832   0.161E-01    0.160E-02
RMM:   2    -0.707238651093E+03   -0.36296E-04   -0.38068E-04 12294   0.401E-02    0.559E-03
RMM:   3    -0.707238658721E+03   -0.76282E-05   -0.89189E-05 10760   0.167E-02
  50 F= -.70723866E+03 E0= -.70723866E+03  d E =-.163951E-03
 curvature:  -1.17 expect dE=-0.168E-03 dE for cont linesearch -0.391E-04
 ZBRENT: interpolating
 opt :   1.4223  next Energy=  -707.238671 (dE=-0.176E-03)
 bond charge predicted
       N       E                     dE             d eps       ncg     rms          rms(c)
DAV:   1    -0.707238642949E+03    0.81435E-05   -0.51871E-03 10848   0.106E-01    0.139E-02
RMM:   2    -0.707238660417E+03   -0.17468E-04   -0.18343E-04 11782   0.273E-02    0.376E-03
RMM:   3    -0.707238663561E+03   -0.31439E-05   -0.42019E-05  7737   0.121E-02
  51 F= -.70723866E+03 E0= -.70723866E+03  d E =-.168791E-03
 curvature:  -0.10 expect dE=-0.140E-04 dE for cont linesearch -0.869E-06
 ZBRENT: bisectioning
 opt :   1.3302  next Energy=  -707.238671 (dE=-0.176E-03)
 bond charge predicted
       N       E                     dE             d eps       ncg     rms          rms(c)
DAV:   1    -0.707238656750E+03    0.36667E-05   -0.12595E-03 10492   0.524E-02    0.748E-03
RMM:   2    -0.707238661205E+03   -0.44545E-05   -0.47155E-05  8179   0.135E-02
  52 F= -.70723866E+03 E0= -.70723866E+03  d E =-.166435E-03
 curvature:  -0.81 expect dE=-0.126E-03 dE for cont linesearch -0.283E-04
 ZBRENT: interpolating
 opt :   1.3914  next Energy=  -707.238665 (dE=-0.170E-03)
 bond charge predicted
       N       E                     dE             d eps       ncg     rms          rms(c)
DAV:   1    -0.707238661887E+03   -0.51372E-05   -0.53334E-04 10126   0.333E-02    0.430E-03
RMM:   2    -0.707238663259E+03   -0.13711E-05   -0.15075E-05  5842   0.858E-03
  53 F= -.70723866E+03 E0= -.70723866E+03  d E =-.168489E-03
 curvature:  -0.03 expect dE=-0.451E-05 dE for cont linesearch -0.155E-06
 ZBRENT: bisectioning
 opt :   1.3608  next Energy=  -707.238665 (dE=-0.170E-03)
 bond charge predicted
       N       E                     dE             d eps       ncg     rms          rms(c)
DAV:   1    -0.707238661927E+03   -0.40091E-07   -0.12491E-04 10118   0.188E-02    0.235E-03
RMM:   2    -0.707238662897E+03   -0.96949E-06   -0.11326E-05  5334   0.771E-03
  54 F= -.70723866E+03 E0= -.70723866E+03  d E =-.168127E-03
 curvature:  -0.29 expect dE=-0.402E-04 dE for cont linesearch -0.352E-05
 ZBRENT: interpolating
 opt :   1.3797  next Energy=  -707.238664 (dE=-0.169E-03)
 bond charge predicted
       N       E                     dE             d eps       ncg     rms          rms(c)
DAV:   1    -0.707238662869E+03   -0.94119E-06   -0.44577E-05  9063   0.129E-02    0.129E-03
RMM:   2    -0.707238663423E+03   -0.55402E-06   -0.58236E-06  5122   0.515E-03
  55 F= -.70723866E+03 E0= -.70723866E+03  d E =-.168653E-03
 curvature:  -0.03 expect dE=-0.354E-05 dE for cont linesearch -0.235E-07
 trial: gam= 0.55191 g(F)=  0.133E-03 g(S)=  0.000E+00 ort =-0.240E-04 (trialstep = 0.105E+01)
 search vector abs. value=  0.306E-03
 bond charge predicted
       N       E                     dE             d eps       ncg     rms          rms(c)
DAV:   1    -0.707238438183E+03    0.22469E-03   -0.80845E-02 10623   0.418E-01    0.462E-02
RMM:   2    -0.707238687038E+03   -0.24886E-03   -0.26161E-03 12694   0.106E-01    0.147E-02
RMM:   3    -0.707238746204E+03   -0.59166E-04   -0.64122E-04 14703   0.430E-02    0.143E-02
RMM:   4    -0.707238749770E+03   -0.35653E-05   -0.72488E-05 10735   0.152E-02
  56 F= -.70723875E+03 E0= -.70723875E+03  d E =-.863471E-04
 trial-energy change:   -0.000086  1 .order   -0.000051   -0.000126    0.000024
 step:   0.8824(harm=  0.8824)  dis= 0.00062  next Energy=  -707.238716 (dE=-0.527E-04)
 bond charge predicted
       N       E                     dE             d eps       ncg     rms          rms(c)
DAV:   1    -0.707238730963E+03    0.15241E-04   -0.22130E-03 11092   0.743E-02    0.618E-03
RMM:   2    -0.707238741468E+03   -0.10505E-04   -0.11427E-04 11042   0.236E-02    0.338E-03
RMM:   3    -0.707238742317E+03   -0.84886E-06   -0.20316E-05  6279   0.983E-03
  57 F= -.70723874E+03 E0= -.70723874E+03  d E =-.788945E-04
 curvature:  -1.13 expect dE=-0.105E-03 dE for cont linesearch -0.325E-04
 ZBRENT: interpolating
 opt :   1.0197  next Energy=  -707.238750 (dE=-0.867E-04)
 bond charge predicted
       N       E                     dE             d eps       ncg     rms          rms(c)
DAV:   1    -0.707238741807E+03   -0.33843E-06   -0.13202E-03 10524   0.536E-02    0.813E-03
RMM:   2    -0.707238747288E+03   -0.54817E-05   -0.58045E-05  8850   0.151E-02
  58 F= -.70723875E+03 E0= -.70723875E+03  d E =-.838657E-04
 curvature:  -0.01 expect dE=-0.986E-06 dE for cont linesearch -0.124E-06
 ZBRENT: bisectioning
 opt :   0.9511  next Energy=  -707.238753 (dE=-0.895E-04)
 bond charge predicted
       N       E                     dE             d eps       ncg     rms          rms(c)
DAV:   1    -0.707238743474E+03   -0.16671E-05   -0.29886E-04 10274   0.290E-02    0.359E-03
RMM:   2    -0.707238745161E+03   -0.16875E-05   -0.20195E-05  5768   0.113E-02
  59 F= -.70723875E+03 E0= -.70723875E+03  d E =-.817387E-04
 curvature:  -0.63 expect dE=-0.633E-04 dE for cont linesearch -0.204E-04
 ZBRENT: interpolating
 opt :   0.9961  next Energy=  -707.238748 (dE=-0.845E-04)
 bond charge predicted
       N       E                     dE             d eps       ncg     rms          rms(c)
DAV:   1    -0.707238745681E+03   -0.22069E-05   -0.11707E-04  9328   0.195E-02    0.191E-03
RMM:   2    -0.707238747176E+03   -0.14952E-05   -0.15586E-05  5563   0.855E-03
  60 F= -.70723875E+03 E0= -.70723875E+03  d E =-.837532E-04
 curvature:  -0.02 expect dE=-0.110E-05 dE for cont linesearch -0.202E-07
 ZBRENT: interpolating
 opt :   0.9856  next Energy=  -707.238747 (dE=-0.839E-04)
 bond charge predicted
       N       E                     dE             d eps       ncg     rms          rms(c)
DAV:   1    -0.707238746534E+03   -0.85353E-06   -0.59280E-06  5736   0.110E-02    0.127E-03
RMM:   2    -0.707238746714E+03   -0.18030E-06   -0.23385E-06  4985   0.323E-03
  61 F= -.70723875E+03 E0= -.70723875E+03  d E =-.832918E-04
 curvature:  -0.10 expect dE=-0.788E-05 dE for cont linesearch -0.224E-05
 ZBRENT: interpolating
 opt :   0.9942  next Energy=  -707.238747 (dE=-0.838E-04)
 bond charge predicted
       N       E                     dE             d eps       ncg     rms          rms(c)
DAV:   1    -0.707238746995E+03   -0.46119E-06   -0.14562E-06  5408   0.434E-03    0.101E-03
RMM:   2    -0.707238747093E+03   -0.97862E-07   -0.13169E-06  5056   0.259E-03
  62 F= -.70723875E+03 E0= -.70723875E+03  d E =-.836706E-04
 curvature:  -0.00 expect dE=-0.476E-07 dE for cont linesearch -0.558E-13
 trial: gam= 0.42323 g(F)=  0.618E-04 g(S)=  0.000E+00 ort = 0.149E-06 (trialstep = 0.104E+01)
 search vector abs. value=  0.117E-03
 bond charge predicted
       N       E                     dE             d eps       ncg     rms          rms(c)
DAV:   1    -0.707238691118E+03    0.55877E-04   -0.27394E-02 10980   0.254E-01    0.249E-02
RMM:   2    -0.707238777454E+03   -0.86336E-04   -0.90310E-04 12971   0.676E-02    0.865E-03
RMM:   3    -0.707238799921E+03   -0.22467E-04   -0.24180E-04 13407   0.276E-02    0.803E-03
RMM:   4    -0.707238801655E+03   -0.17338E-05   -0.30874E-05  6961   0.120E-02
  63 F= -.70723880E+03 E0= -.70723880E+03  d E =-.545617E-04
 trial-energy change:   -0.000055  1 .order   -0.000032   -0.000064    0.000001
 step:   1.0246(harm=  1.0246)  dis= 0.00052  next Energy=  -707.238779 (dE=-0.317E-04)
 bond charge predicted
       N       E                     dE             d eps       ncg     rms          rms(c)
DAV:   1    -0.707238800721E+03   -0.79944E-06   -0.13196E-05  7094   0.134E-02    0.155E-03
RMM:   2    -0.707238801353E+03   -0.63263E-06   -0.68502E-06  5680   0.622E-03
  64 F= -.70723880E+03 E0= -.70723880E+03  d E =-.542599E-04
 curvature:  -0.97 expect dE=-0.535E-04 dE for cont linesearch -0.209E-04
 ZBRENT: interpolating
 opt :   1.0414  next Energy=  -707.238802 (dE=-0.546E-04)
 bond charge predicted
       N       E                     dE             d eps       ncg     rms          rms(c)
DAV:   1    -0.707238801747E+03   -0.10262E-05   -0.39075E-06  6906   0.683E-03    0.176E-03
RMM:   2    -0.707238801968E+03   -0.22131E-06   -0.28980E-06  5183   0.381E-03
  65 F= -.70723880E+03 E0= -.70723880E+03  d E =-.548748E-04
 curvature:  -0.00 expect dE=-0.221E-09 dE for cont linesearch -0.101E-12
 trial: gam= 0.43272 g(F)=  0.266E-04 g(S)=  0.000E+00 ort = 0.119E-05 (trialstep = 0.104E+01)
 search vector abs. value=  0.495E-04
 bond charge predicted
       N       E                     dE             d eps       ncg     rms          rms(c)
DAV:   1    -0.707238785985E+03    0.15762E-04   -0.12488E-02 10984   0.168E-01    0.173E-02
RMM:   2    -0.707238826170E+03   -0.40186E-04   -0.42322E-04 12736   0.438E-02    0.575E-03
RMM:   3    -0.707238834216E+03   -0.80458E-05   -0.10113E-04 12068   0.178E-02    0.561E-03
RMM:   4    -0.707238834605E+03   -0.38883E-06   -0.15458E-05  6029   0.919E-03
  66 F= -.70723883E+03 E0= -.70723883E+03  d E =-.326371E-04
 trial-energy change:   -0.000033  1 .order   -0.000018   -0.000028   -0.000008
 step:   1.4254(harm=  1.4254)  dis= 0.00045  next Energy=  -707.238821 (dE=-0.193E-04)
 bond charge predicted
       N       E                     dE             d eps       ncg     rms          rms(c)
DAV:   1    -0.707238833916E+03    0.30025E-06   -0.16694E-03 11716   0.619E-02    0.699E-03
RMM:   2    -0.707238840104E+03   -0.61879E-05   -0.65087E-05  9121   0.178E-02
  67 F= -.70723884E+03 E0= -.70723884E+03  d E =-.381359E-04
 curvature:  -1.30 expect dE=-0.507E-04 dE for cont linesearch -0.661E-05
 ZBRENT: interpolating
 opt :   1.1626  next Energy=  -707.238835 (dE=-0.331E-04)
 bond charge predicted
       N       E                     dE             d eps       ncg     rms          rms(c)
DAV:   1    -0.707238833688E+03    0.22773E-06   -0.73986E-04 10304   0.416E-02    0.516E-03
RMM:   2    -0.707238836317E+03   -0.26287E-05   -0.29328E-05  6118   0.137E-02
  68 F= -.70723884E+03 E0= -.70723884E+03  d E =-.343490E-04
 curvature:  -0.09 expect dE=-0.605E-05 dE for cont linesearch -0.393E-05
 ZBRENT: interpolating
 opt :   1.3595  next Energy=  -707.238841 (dE=-0.387E-04)
 bond charge predicted
       N       E                     dE             d eps       ncg     rms          rms(c)
DAV:   1    -0.707238837484E+03   -0.37955E-05   -0.38659E-04 10158   0.317E-02    0.371E-03
RMM:   2    -0.707238840080E+03   -0.25964E-05   -0.28512E-05  7767   0.130E-02
  69 F= -.70723884E+03 E0= -.70723884E+03  d E =-.381121E-04
 curvature:  -0.01 expect dE=-0.432E-06 dE for cont linesearch -0.378E-07
 ZBRENT: bisectioning
 opt :   1.2610  next Energy=  -707.238841 (dE=-0.391E-04)
 bond charge predicted
       N       E                     dE             d eps       ncg     rms          rms(c)
DAV:   1    -0.707238837446E+03    0.37442E-07   -0.82110E-05  9248   0.193E-02    0.180E-03
RMM:   2    -0.707238838694E+03   -0.12478E-05   -0.13106E-05  5114   0.794E-03
  70 F= -.70723884E+03 E0= -.70723884E+03  d E =-.367261E-04
 curvature:  -0.31 expect dE=-0.201E-04 dE for cont linesearch -0.935E-05
 ZBRENT: interpolating
 opt :   1.3350  next Energy=  -707.238840 (dE=-0.383E-04)
 bond charge predicted
       N       E                     dE             d eps       ncg     rms          rms(c)
DAV:   1    -0.707238839345E+03   -0.18988E-05   -0.46104E-05  8168   0.142E-02    0.129E-03
RMM:   2    -0.707238840066E+03   -0.72091E-06   -0.74309E-06  5061   0.544E-03
  71 F= -.70723884E+03 E0= -.70723884E+03  d E =-.380981E-04
 curvature:  -0.01 expect dE=-0.172E-06 dE for cont linesearch -0.176E-13
 trial: gam= 1.64173 g(F)=  0.331E-04 g(S)=  0.000E+00 ort = 0.130E-07 (trialstep = 0.327E+00)
 search vector abs. value=  0.167E-03
 bond charge predicted
       N       E                     dE             d eps       ncg     rms          rms(c)
DAV:   1    -0.707238839600E+03   -0.25525E-06   -0.42703E-03 11244   0.968E-02    0.100E-02
RMM:   2    -0.707238852366E+03   -0.12765E-04   -0.13414E-04 10539   0.244E-02    0.338E-03
RMM:   3    -0.707238854815E+03   -0.24494E-05   -0.34174E-05  7448   0.110E-02
  72 F= -.70723885E+03 E0= -.70723885E+03  d E =-.147488E-04
 trial-energy change:   -0.000015  1 .order   -0.000006   -0.000011   -0.000002
 step:   0.4076(harm=  0.4076)  dis= 0.00022  next Energy=  -707.238847 (dE=-0.675E-05)
 reached required accuracy - stopping structural energy minimisation
Warning: ieee_invalid is signaling
Warning: ieee_divide_by_zero is signaling
Warning: ieee_underflow is signaling
Warning: ieee_inexact is signaling
FORTRAN STOP
Warning: ieee_invalid is signaling
Warning: ieee_divide_by_zero is signaling
Warning: ieee_underflow is signaling
Warning: ieee_inexact is signaling
FORTRAN STOP
Warning: ieee_invalid is signaling
Warning: ieee_divide_by_zero is signaling
Warning: ieee_underflow is signaling
Warning: ieee_inexact is signaling
FORTRAN STOP
Warning: ieee_invalid is signaling
Warning: ieee_divide_by_zero is signaling
Warning: ieee_underflow is signaling
Warning: ieee_inexact is signaling
FORTRAN STOP
