<?xml version="1.0" encoding="ISO-8859-1"?>
<modeling>
 <generator>
  <i name="program" type="string">vasp </i>
  <i name="version" type="string">6.4.2  </i>
  <i name="subversion" type="string">20Jul23 (build Nov 12 2023 22:16:35) complex                          parallel </i>
  <i name="platform" type="string">LinuxNV </i>
  <i name="date" type="string">2025 03 12 </i>
  <i name="time" type="string">13:06:19 </i>
 </generator>
 <incar>
  <i type="int" name="ISTART">     0</i>
  <i type="string" name="PREC">Normal</i>
  <i type="string" name="ALGO">Fast</i>
  <i type="int" name="ISPIN">     1</i>
  <i type="int" name="ICHARG">     2</i>
  <i type="int" name="IBRION">     2</i>
  <i name="EDIFF">      0.00001000</i>
  <i name="EDIFFG">     -0.00500000</i>
  <i type="int" name="NSW">   300</i>
  <i type="int" name="ISIF">     2</i>
  <i name="ENCUT">    450.00000000</i>
  <i type="string" name="LREAL">Auto</i>
  <i type="logical" name="LPLANE"> T  </i>
  <i type="int" name="ISMEAR">     0</i>
  <i name="SIGMA">      0.05000000</i>
  <i type="logical" name="LWAVE"> F  </i>
  <i type="logical" name="LCHARG"> F  </i>
 </incar>
 <primitive_cell>
  <structure name="primitive_cell" >
   <crystal>
    <varray name="basis" >
     <v>       0.00000000      12.28047342       0.00000000 </v>
     <v>       9.14270205       0.00000000       0.00000000 </v>
     <v>       0.00000000      -2.76826177     -11.30069772 </v>
    </varray>
    <i name="volume">   1268.80515525 </i>
    <varray name="rec_basis" >
     <v>       0.00000000       0.08143009      -0.01994742 </v>
     <v>       0.10937686      -0.00000000       0.00000000 </v>
     <v>       0.00000000       0.00000000      -0.08849011 </v>
    </varray>
   </crystal>
   <varray name="positions" >
    <v>       0.65883830       0.00000000       0.15736517 </v>
    <v>       0.65883830       0.00000000       0.65736517 </v>
    <v>       0.65883830       0.33333333       0.15736517 </v>
    <v>       0.65883830       0.33333333       0.65736517 </v>
    <v>       0.65883830       0.66666667       0.15736517 </v>
    <v>       0.65883830       0.66666667       0.65736517 </v>
    <v>       0.84116170       0.16666667       0.84263483 </v>
    <v>       0.84116170       0.50000000       0.34263483 </v>
    <v>       0.84116170       0.50000000       0.84263483 </v>
    <v>       0.84116170       0.83333333       0.34263483 </v>
    <v>       0.84116170       0.83333333       0.84263483 </v>
    <v>       0.59047440       0.16666667       0.39739300 </v>
    <v>       0.59047440       0.16666667       0.89739300 </v>
    <v>       0.59047440       0.50000000       0.39739300 </v>
    <v>       0.59047440       0.50000000       0.89739300 </v>
    <v>       0.59047440       0.83333333       0.39739300 </v>
    <v>       0.59047440       0.83333333       0.89739300 </v>
    <v>       0.90952560       0.00000000       0.10260700 </v>
    <v>       0.90952560       0.00000000       0.60260700 </v>
    <v>       0.90952560       0.33333333       0.10260700 </v>
    <v>       0.90952560       0.33333333       0.60260700 </v>
    <v>       0.90952560       0.66666667       0.10260700 </v>
    <v>       0.90952560       0.66666667       0.60260700 </v>
    <v>       0.15883830       0.16666667       0.15736517 </v>
    <v>       0.15883830       0.16666667       0.65736517 </v>
    <v>       0.15883830       0.50000000       0.15736517 </v>
    <v>       0.15883830       0.50000000       0.65736517 </v>
    <v>       0.15883830       0.83333333       0.15736517 </v>
    <v>       0.15883830       0.83333333       0.65736517 </v>
    <v>       0.34116170       0.00000000       0.34263483 </v>
    <v>       0.34116170       0.00000000       0.84263483 </v>
    <v>       0.34116170       0.33333333       0.34263483 </v>
    <v>       0.34116170       0.33333333       0.84263483 </v>
    <v>       0.34116170       0.66666667       0.34263483 </v>
    <v>       0.34116170       0.66666667       0.84263483 </v>
    <v>       0.09047440       0.00000000       0.39739300 </v>
    <v>       0.09047440       0.00000000       0.89739300 </v>
    <v>       0.09047440       0.33333333       0.39739300 </v>
    <v>       0.09047440       0.33333333       0.89739300 </v>
    <v>       0.09047440       0.66666667       0.39739300 </v>
    <v>       0.09047440       0.66666667       0.89739300 </v>
    <v>       0.40952560       0.16666667       0.10260700 </v>
    <v>       0.40952560       0.16666667       0.60260700 </v>
    <v>       0.40952560       0.50000000       0.10260700 </v>
    <v>       0.40952560       0.50000000       0.60260700 </v>
    <v>       0.40952560       0.83333333       0.10260700 </v>
    <v>       0.40952560       0.83333333       0.60260700 </v>
    <v>       0.99646913       0.16666667       0.12833205 </v>
    <v>       0.99646913       0.16666667       0.62833205 </v>
    <v>       0.99646913       0.50000000       0.12833205 </v>
    <v>       0.99646913       0.50000000       0.62833205 </v>
    <v>       0.99646913       0.83333333       0.12833205 </v>
    <v>       0.99646913       0.83333333       0.62833205 </v>
    <v>       0.50353087       0.00000000       0.37166795 </v>
    <v>       0.50353087       0.00000000       0.87166795 </v>
    <v>       0.50353087       0.33333333       0.37166795 </v>
    <v>       0.50353087       0.33333333       0.87166795 </v>
    <v>       0.50353087       0.66666667       0.37166795 </v>
    <v>       0.50353087       0.66666667       0.87166795 </v>
    <v>       0.67337106       0.16666667       0.28161508 </v>
    <v>       0.67337106       0.16666667       0.78161508 </v>
    <v>       0.67337106       0.50000000       0.28161508 </v>
    <v>       0.67337106       0.50000000       0.78161508 </v>
    <v>       0.67337106       0.83333333       0.28161508 </v>
    <v>       0.67337106       0.83333333       0.78161508 </v>
    <v>       0.82662894       0.00000000       0.21838492 </v>
    <v>       0.82662894       0.00000000       0.71838492 </v>
    <v>       0.82662894       0.33333333       0.21838492 </v>
    <v>       0.82662894       0.33333333       0.71838492 </v>
    <v>       0.82662894       0.66666667       0.21838492 </v>
    <v>       0.82662894       0.66666667       0.71838492 </v>
    <v>       0.83549502       0.00000000       0.44542296 </v>
    <v>       0.83549502       0.00000000       0.94542296 </v>
    <v>       0.83549502       0.33333333       0.44542296 </v>
    <v>       0.83549502       0.33333333       0.94542296 </v>
    <v>       0.83549502       0.66666667       0.44542296 </v>
    <v>       0.83549502       0.66666667       0.94542296 </v>
    <v>       0.66450498       0.16666667       0.05457704 </v>
    <v>       0.66450498       0.16666667       0.55457704 </v>
    <v>       0.66450498       0.50000000       0.05457704 </v>
    <v>       0.66450498       0.50000000       0.55457704 </v>
    <v>       0.66450498       0.83333333       0.05457704 </v>
    <v>       0.66450498       0.83333333       0.55457704 </v>
    <v>       0.49646913       0.00000000       0.12833205 </v>
    <v>       0.49646913       0.00000000       0.62833205 </v>
    <v>       0.49646913       0.33333333       0.12833205 </v>
    <v>       0.49646913       0.33333333       0.62833205 </v>
    <v>       0.49646913       0.66666667       0.12833205 </v>
    <v>       0.49646913       0.66666667       0.62833205 </v>
    <v>       0.00353087       0.16666667       0.87166795 </v>
    <v>       0.00353087       0.50000000       0.37166795 </v>
    <v>       0.00353087       0.50000000       0.87166795 </v>
    <v>       0.00353087       0.83333333       0.37166795 </v>
    <v>       0.00353087       0.83333333       0.87166795 </v>
    <v>       0.17337106       0.00000000       0.28161508 </v>
    <v>       0.17337106       0.00000000       0.78161508 </v>
    <v>       0.17337106       0.33333333       0.28161508 </v>
    <v>       0.17337106       0.33333333       0.78161508 </v>
    <v>       0.17337106       0.66666667       0.28161508 </v>
    <v>       0.17337106       0.66666667       0.78161508 </v>
    <v>       0.32662894       0.16666667       0.21838492 </v>
    <v>       0.32662894       0.16666667       0.71838492 </v>
    <v>       0.32662894       0.50000000       0.21838492 </v>
    <v>       0.32662894       0.50000000       0.71838492 </v>
    <v>       0.32662894       0.83333333       0.21838492 </v>
    <v>       0.32662894       0.83333333       0.71838492 </v>
    <v>       0.33549502       0.16666667       0.44542296 </v>
    <v>       0.33549502       0.16666667       0.94542296 </v>
    <v>       0.33549502       0.50000000       0.44542296 </v>
    <v>       0.33549502       0.50000000       0.94542296 </v>
    <v>       0.33549502       0.83333333       0.44542296 </v>
    <v>       0.33549502       0.83333333       0.94542296 </v>
    <v>       0.16450498       0.00000000       0.05457704 </v>
    <v>       0.16450498       0.00000000       0.55457704 </v>
    <v>       0.16450498       0.33333333       0.05457704 </v>
    <v>       0.16450498       0.33333333       0.55457704 </v>
    <v>       0.16450498       0.66666667       0.05457704 </v>
    <v>       0.16450498       0.66666667       0.55457704 </v>
    <v>       0.00353087       0.16666667       0.37166795 </v>
   </varray>
  </structure>
  <varray name="primitive_index" >
   <v type="int" >        1 </v>
   <v type="int" >        2 </v>
   <v type="int" >        3 </v>
   <v type="int" >        4 </v>
   <v type="int" >        5 </v>
   <v type="int" >        6 </v>
   <v type="int" >        7 </v>
   <v type="int" >        8 </v>
   <v type="int" >        9 </v>
   <v type="int" >       10 </v>
   <v type="int" >       11 </v>
   <v type="int" >       12 </v>
   <v type="int" >       13 </v>
   <v type="int" >       14 </v>
   <v type="int" >       15 </v>
   <v type="int" >       16 </v>
   <v type="int" >       17 </v>
   <v type="int" >       18 </v>
   <v type="int" >       19 </v>
   <v type="int" >       20 </v>
   <v type="int" >       21 </v>
   <v type="int" >       22 </v>
   <v type="int" >       23 </v>
   <v type="int" >       24 </v>
   <v type="int" >       25 </v>
   <v type="int" >       26 </v>
   <v type="int" >       27 </v>
   <v type="int" >       28 </v>
   <v type="int" >       29 </v>
   <v type="int" >       30 </v>
   <v type="int" >       31 </v>
   <v type="int" >       32 </v>
   <v type="int" >       33 </v>
   <v type="int" >       34 </v>
   <v type="int" >       35 </v>
   <v type="int" >       36 </v>
   <v type="int" >       37 </v>
   <v type="int" >       38 </v>
   <v type="int" >       39 </v>
   <v type="int" >       40 </v>
   <v type="int" >       41 </v>
   <v type="int" >       42 </v>
   <v type="int" >       43 </v>
   <v type="int" >       44 </v>
   <v type="int" >       45 </v>
   <v type="int" >       46 </v>
   <v type="int" >       47 </v>
   <v type="int" >       48 </v>
   <v type="int" >       49 </v>
   <v type="int" >       50 </v>
   <v type="int" >       51 </v>
   <v type="int" >       52 </v>
   <v type="int" >       53 </v>
   <v type="int" >       54 </v>
   <v type="int" >       55 </v>
   <v type="int" >       56 </v>
   <v type="int" >       57 </v>
   <v type="int" >       58 </v>
   <v type="int" >       59 </v>
   <v type="int" >       60 </v>
   <v type="int" >       61 </v>
   <v type="int" >       62 </v>
   <v type="int" >       63 </v>
   <v type="int" >       64 </v>
   <v type="int" >       65 </v>
   <v type="int" >       66 </v>
   <v type="int" >       67 </v>
   <v type="int" >       68 </v>
   <v type="int" >       69 </v>
   <v type="int" >       70 </v>
   <v type="int" >       71 </v>
   <v type="int" >       72 </v>
   <v type="int" >       73 </v>
   <v type="int" >       74 </v>
   <v type="int" >       75 </v>
   <v type="int" >       76 </v>
   <v type="int" >       77 </v>
   <v type="int" >       78 </v>
   <v type="int" >       79 </v>
   <v type="int" >       80 </v>
   <v type="int" >       81 </v>
   <v type="int" >       82 </v>
   <v type="int" >       83 </v>
   <v type="int" >       84 </v>
   <v type="int" >       85 </v>
   <v type="int" >       86 </v>
   <v type="int" >       87 </v>
   <v type="int" >       88 </v>
   <v type="int" >       89 </v>
   <v type="int" >       90 </v>
   <v type="int" >       91 </v>
   <v type="int" >       92 </v>
   <v type="int" >       93 </v>
   <v type="int" >       94 </v>
   <v type="int" >       95 </v>
   <v type="int" >       96 </v>
   <v type="int" >       97 </v>
   <v type="int" >       98 </v>
   <v type="int" >       99 </v>
   <v type="int" >      100 </v>
   <v type="int" >      101 </v>
   <v type="int" >      102 </v>
   <v type="int" >      103 </v>
   <v type="int" >      104 </v>
   <v type="int" >      105 </v>
   <v type="int" >      106 </v>
   <v type="int" >      107 </v>
   <v type="int" >      108 </v>
   <v type="int" >      109 </v>
   <v type="int" >      110 </v>
   <v type="int" >      111 </v>
   <v type="int" >      112 </v>
   <v type="int" >      113 </v>
   <v type="int" >      114 </v>
   <v type="int" >      115 </v>
   <v type="int" >      116 </v>
   <v type="int" >      117 </v>
   <v type="int" >      118 </v>
   <v type="int" >      119 </v>
  </varray>
 </primitive_cell>
 <kpoints>
  <generation param="Gamma">
   <v type="int" name="divisions">       2        2        2 </v>
   <v name="usershift">      0.00000000       0.00000000       0.00000000 </v>
   <v name="genvec1">      0.50000000       0.00000000       0.00000000 </v>
   <v name="genvec2">      0.00000000       0.50000000       0.00000000 </v>
   <v name="genvec3">      0.00000000       0.00000000       0.50000000 </v>
   <v name="shift">      0.00000000       0.00000000       0.00000000 </v>
  </generation>
  <varray name="kpointlist" >
   <v>       0.00000000       0.00000000       0.00000000 </v>
   <v>       0.50000000       0.00000000       0.00000000 </v>
   <v>       0.00000000       0.50000000       0.00000000 </v>
   <v>       0.50000000       0.50000000       0.00000000 </v>
   <v>       0.00000000       0.00000000       0.50000000 </v>
   <v>       0.50000000       0.00000000       0.50000000 </v>
   <v>       0.00000000       0.50000000       0.50000000 </v>
   <v>       0.50000000       0.50000000       0.50000000 </v>
  </varray>
  <varray name="weights" >
   <v>       0.12500000 </v>
   <v>       0.12500000 </v>
   <v>       0.12500000 </v>
   <v>       0.12500000 </v>
   <v>       0.12500000 </v>
   <v>       0.12500000 </v>
   <v>       0.12500000 </v>
   <v>       0.12500000 </v>
  </varray>
 </kpoints>
 <parameters>
  <separator name="general" >
   <i type="string" name="SYSTEM">unknown system</i>
   <i type="logical" name="LCOMPAT"> F  </i>
  </separator>
  <separator name="electronic" >
   <i type="string" name="PREC">normal</i>
   <i name="ENMAX">    450.00000000</i>
   <i name="ENAUG">    605.39200000</i>
   <i name="EDIFF">      0.00001000</i>
   <i type="int" name="IALGO">    68</i>
   <i type="int" name="IWAVPR">    11</i>
   <i type="int" name="NBANDS">   625</i>
   <i type="int" name="NBANDSLOW">    -1</i>
   <i type="int" name="NBANDSHIGH">    -1</i>
   <i name="NELECT">   1042.00000000</i>
   <i type="int" name="TURBO">     0</i>
   <i type="int" name="IRESTART">     0</i>
   <i type="int" name="NREBOOT">     0</i>
   <i type="int" name="NMIN">     0</i>
   <i name="EREF">      0.00000000</i>
   <separator name="electronic smearing" >
    <i type="int" name="ISMEAR">     0</i>
    <i name="SIGMA">      0.05000000</i>
    <i name="KSPACING">      0.50000000</i>
    <i type="logical" name="KGAMMA"> T  </i>
    <i type="logical" name="KBLOWUP"> T  </i>
   </separator>
   <separator name="electronic projectors" >
    <i type="logical" name="LREAL"> T  </i>
    <v name="ROPT">     -0.00050000     -0.00050000     -0.00050000</v>
    <i type="int" name="LMAXPAW">  -100</i>
    <i type="int" name="LMAXMIX">     2</i>
    <i type="logical" name="NLSPLINE"> F  </i>
   </separator>
   <separator name="electronic startup" >
    <i type="int" name="ISTART">     0</i>
    <i type="int" name="ICHARG">     2</i>
    <i type="int" name="INIWAV">     1</i>
   </separator>
   <separator name="electronic spin" >
    <i type="int" name="ISPIN">     1</i>
    <i type="logical" name="LNONCOLLINEAR"> F  </i>
    <v name="MAGMOM">      1.00000000      1.00000000      1.00000000      1.00000000      1.00000000      1.00000000      1.00000000      1.00000000      1.00000000      1.00000000      1.00000000      1.00000000      1.00000000      1.00000000      1.00000000      1.00000000      1.00000000      1.00000000      1.00000000      1.00000000
      1.00000000      1.00000000      1.00000000      1.00000000      1.00000000      1.00000000      1.00000000      1.00000000      1.00000000      1.00000000      1.00000000      1.00000000      1.00000000      1.00000000      1.00000000      1.00000000      1.00000000      1.00000000      1.00000000      1.00000000
      1.00000000      1.00000000      1.00000000      1.00000000      1.00000000      1.00000000      1.00000000      1.00000000      1.00000000      1.00000000      1.00000000      1.00000000      1.00000000      1.00000000      1.00000000      1.00000000      1.00000000      1.00000000      1.00000000      1.00000000
      1.00000000      1.00000000      1.00000000      1.00000000      1.00000000      1.00000000      1.00000000      1.00000000      1.00000000      1.00000000      1.00000000      1.00000000      1.00000000      1.00000000      1.00000000      1.00000000      1.00000000      1.00000000      1.00000000      1.00000000
      1.00000000      1.00000000      1.00000000      1.00000000      1.00000000      1.00000000      1.00000000      1.00000000      1.00000000      1.00000000      1.00000000      1.00000000      1.00000000      1.00000000      1.00000000      1.00000000      1.00000000      1.00000000      1.00000000      1.00000000
      1.00000000      1.00000000      1.00000000      1.00000000      1.00000000      1.00000000      1.00000000      1.00000000      1.00000000      1.00000000      1.00000000      1.00000000      1.00000000      1.00000000      1.00000000      1.00000000      1.00000000      1.00000000      1.00000000</v>
    <i name="NUPDOWN">     -1.00000000</i>
    <i type="logical" name="LSORBIT"> F  </i>
    <v name="SAXIS">      0.00000000      0.00000000      1.00000000</v>
    <i type="logical" name="LSPIRAL"> F  </i>
    <v name="QSPIRAL">      0.00000000      0.00000000      0.00000000</v>
    <i type="logical" name="LZEROZ"> F  </i>
   </separator>
   <separator name="electronic exchange-correlation" >
    <i type="logical" name="LASPH"> F  </i>
    <i type="logical" name="LMETAGGA"> F  </i>
   </separator>
   <separator name="electronic convergence" >
    <i type="int" name="NELM">    60</i>
    <i type="int" name="NELMDL">    -5</i>
    <i type="int" name="NELMIN">     2</i>
    <i name="ENINI">    450.00000000</i>
    <separator name="electronic convergence detail" >
     <i type="logical" name="LDIAG"> T  </i>
     <i type="logical" name="LSUBROT"> F  </i>
     <i name="WEIMIN">      0.00100000</i>
     <i name="EBREAK">      0.00000000</i>
     <i name="DEPER">      0.30000000</i>
     <i type="int" name="NRMM">     4</i>
     <i name="TIME">      0.40000000</i>
    </separator>
   </separator>
   <separator name="electronic mixer" >
    <i name="AMIX">      0.40000000</i>
    <i name="BMIX">      1.00000000</i>
    <i name="AMIN">      0.10000000</i>
    <i name="AMIX_MAG">      1.60000000</i>
    <i name="BMIX_MAG">      1.00000000</i>
    <separator name="electronic mixer details" >
     <i type="int" name="IMIX">     4</i>
     <i type="logical" name="MIXFIRST"> F  </i>
     <i type="int" name="MAXMIX">   -45</i>
     <i name="WC">    100.00000000</i>
     <i type="int" name="INIMIX">     1</i>
     <i type="int" name="MIXPRE">     1</i>
     <i type="int" name="MREMOVE">     5</i>
    </separator>
   </separator>
   <separator name="electronic dipolcorrection" >
    <i type="logical" name="LDIPOL"> F  </i>
    <i type="logical" name="LMONO"> F  </i>
    <i type="int" name="IDIPOL">     0</i>
    <i name="EPSILON">      1.00000000</i>
    <v name="DIPOL">   -100.00000000   -100.00000000   -100.00000000</v>
    <i name="EFIELD">      0.00000000</i>
   </separator>
  </separator>
  <separator name="grids" >
   <i type="int" name="NGX">    64</i>
   <i type="int" name="NGY">    48</i>
   <i type="int" name="NGZ">    60</i>
   <i type="int" name="NGXF">   128</i>
   <i type="int" name="NGYF">    96</i>
   <i type="int" name="NGZF">   120</i>
   <i type="logical" name="ADDGRID"> F  </i>
  </separator>
  <separator name="ionic" >
   <i type="int" name="NSW">   300</i>
   <i type="int" name="IBRION">     2</i>
   <i type="int" name="MDALGO">     0</i>
   <i type="int" name="ISIF">     2</i>
   <i name="PSTRESS">      0.00000000</i>
   <i name="EDIFFG">     -0.00500000</i>
   <i type="int" name="NFREE">     1</i>
   <i name="POTIM">      0.50000000</i>
   <i name="SMASS">     -3.00000000</i>
   <i name="SCALEE">      1.00000000</i>
  </separator>
  <separator name="ionic md" >
   <i name="TEBEG">      0.00010000</i>
   <i name="TEEND">      0.00010000</i>
   <i type="int" name="NBLOCK">     1</i>
   <i type="int" name="KBLOCK">   300</i>
   <i type="int" name="NPACO">   256</i>
   <i name="APACO">     10.00000000</i>
  </separator>
  <separator name="symmetry" >
   <i type="int" name="ISYM">     2</i>
   <i name="SYMPREC">      0.00001000</i>
  </separator>
  <separator name="dos" >
   <i type="int" name="LORBIT">     0</i>
   <v name="RWIGS">     -1.00000000     -1.00000000     -1.00000000</v>
   <i type="int" name="NEDOS">   301</i>
   <i name="EMIN">     10.00000000</i>
   <i name="EMAX">    -10.00000000</i>
   <i name="EFERMI">      0.00000000</i>
  </separator>
  <separator name="writing" >
   <i type="int" name="NWRITE">     2</i>
   <i type="logical" name="LWAVE"> F  </i>
   <i type="logical" name="LDOWNSAMPLE"> F  </i>
   <i type="logical" name="LCHARG"> F  </i>
   <i type="logical" name="LPARD"> F  </i>
   <i type="logical" name="LVTOT"> F  </i>
   <i type="logical" name="LVHAR"> F  </i>
   <i type="logical" name="LELF"> F  </i>
   <i type="logical" name="LOPTICS"> F  </i>
   <v name="STM">      0.00000000      0.00000000      0.00000000      0.00000000      0.00000000      0.00000000      0.00000000</v>
  </separator>
  <separator name="performance" >
   <i type="int" name="NPAR">     1</i>
   <i type="int" name="NSIM">     4</i>
   <i type="int" name="NBLK">    -1</i>
   <i type="logical" name="LPLANE"> T  </i>
   <i type="logical" name="LSCALAPACK"> T  </i>
   <i type="logical" name="LSCAAWARE"> F  </i>
   <i type="logical" name="LSCALU"> F  </i>
   <i type="logical" name="LASYNC"> F  </i>
   <i type="logical" name="LORBITALREAL"> F  </i>
  </separator>
  <separator name="miscellaneous" >
   <i type="int" name="IDIOT">     3</i>
   <i type="int" name="PHON_NSTRUCT">    -1</i>
   <i type="logical" name="LMUSIC"> F  </i>
   <v name="POMASS">     69.72300000     16.00000000     30.97400000</v>
   <v name="DARWINR">      0.00000000      0.00000000      0.00000000</v>
   <v name="DARWINV">      1.00000000      1.00000000      1.00000000</v>
   <i type="logical" name="LCORR"> T  </i>
  </separator>
  <i type="logical" name="GGA_COMPAT"> T  </i>
  <i type="logical" name="LBERRY"> F  </i>
  <i type="int" name="ICORELEVEL">     0</i>
  <i type="logical" name="LDAU"> F  </i>
  <i type="int" name="I_CONSTRAINED_M">     0</i>
  <separator name="electronic exchange-correlation" >
   <i type="string" name="GGA">--</i>
   <i type="int" name="VOSKOWN">     0</i>
   <i type="logical" name="LHFCALC"> F  </i>
   <i type="string" name="PRECFOCK"></i>
   <i type="logical" name="LSYMGRAD"> F  </i>
   <i type="logical" name="LHFONE"> F  </i>
   <i type="logical" name="LRHFCALC"> F  </i>
   <i type="logical" name="LTHOMAS"> F  </i>
   <i type="logical" name="LMODELHF"> F  </i>
   <i type="logical" name="LFOCKACE"> F  </i>
   <i name="ENCUT4O">     -1.00000000</i>
   <i type="int" name="EXXOEP">     0</i>
   <i type="int" name="FOURORBIT">     0</i>
   <i name="AEXX">      0.00000000</i>
   <i name="HFALPHA">      0.00000000</i>
   <i name="MCALPHA">      0.00000000</i>
   <i name="ALDAX">      1.00000000</i>
   <i name="AGGAX">      1.00000000</i>
   <i name="ALDAC">      1.00000000</i>
   <i name="AGGAC">      1.00000000</i>
   <i type="int" name="NKREDX">     1</i>
   <i type="int" name="NKREDY">     1</i>
   <i type="int" name="NKREDZ">     1</i>
   <i type="logical" name="SHIFTRED"> F  </i>
   <i type="logical" name="ODDONLY"> F  </i>
   <i type="logical" name="EVENONLY"> F  </i>
   <i type="int" name="LMAXFOCK">     0</i>
   <i type="int" name="NMAXFOCKAE">     0</i>
   <i type="logical" name="LFOCKAEDFT"> F  </i>
   <i name="HFSCREEN">      0.00000000</i>
   <i name="HFSCREENC">      0.00000000</i>
   <i type="int" name="NBANDSGWLOW">     0</i>
  </separator>
  <separator name="vdW DFT" >
   <i type="logical" name="LUSE_VDW"> F  </i>
   <i type="int" name="IVDW_NL">     1</i>
   <i type="logical" name="LSPIN_VDW"> F  </i>
   <i name="Zab_VDW">     -0.84910000</i>
   <i name="PARAM1">      0.12340000</i>
   <i name="PARAM2">      1.00000000</i>
   <i name="PARAM3">      0.00000000</i>
  </separator>
  <separator name="model GW" >
   <i type="int" name="MODEL_GW">     0</i>
   <i name="MODEL_EPS0">      6.39733692</i>
   <i name="MODEL_ALPHA">      1.00000000</i>
  </separator>
  <separator name="linear response parameters" >
   <i type="logical" name="LEPSILON"> F  </i>
   <i type="logical" name="LRPA"> F  </i>
   <i type="logical" name="LNABLA"> F  </i>
   <i type="logical" name="LVEL"> F  </i>
   <i name="CSHIFT">      0.10000000</i>
   <i name="OMEGAMAX">     -1.00000000</i>
   <i name="DEG_THRESHOLD">      0.00200000</i>
   <i name="RTIME">     -0.10000000</i>
   <i name="WPLASMAI">      0.00000000</i>
   <v name="DFIELD">      0.00000000      0.00000000      0.00000000</v>
   <v name="WPLASMA">      0.00000000      0.00000000      0.00000000      0.00000000      0.00000000      0.00000000      0.00000000      0.00000000      0.00000000</v>
  </separator>
  <separator name="orbital magnetization" >
   <i type="logical" name="NUCIND"> F  </i>
   <v name="MAGPOS">      0.00000000      0.00000000      0.00000000</v>
   <i type="logical" name="LNICSALL"> T  </i>
   <i type="logical" name="ORBITALMAG"> F  </i>
   <i type="logical" name="LMAGBLOCH"> F  </i>
   <i type="logical" name="LCHIMAG"> F  </i>
   <i type="logical" name="LGAUGE"> T  </i>
   <i type="int" name="MAGATOM">     0</i>
   <v name="MAGDIPOL">      0.00000000      0.00000000      0.00000000</v>
   <v name="AVECCONST">      0.00000000      0.00000000      0.00000000</v>
  </separator>
  <separator name="response functions" >
   <i type="logical" name="LALL_IN_ONE"> F  </i>
   <i type="int" name="IALL_IN_ONE">    -1</i>
   <i type="int" name="NBANDS_WAVE">    -1</i>
   <i type="logical" name="LFINITE_TEMPERATURE"> F  </i>
   <i type="logical" name="LADDER"> F  </i>
   <i type="logical" name="LRPAFORCE"> F  </i>
   <i type="logical" name="LFXC"> F  </i>
   <i type="logical" name="LHARTREE"> T  </i>
   <i type="int" name="IBSE">     0</i>
   <v type="int" name="KPOINT">    -1     0     0     0</v>
   <i type="logical" name="LTCTC"> F  </i>
   <i type="logical" name="LTCTE"> F  </i>
   <i type="logical" name="LTETE"> F  </i>
   <i type="logical" name="LTRIPLET"> F  </i>
   <i type="logical" name="LFXCEPS"> F  </i>
   <i type="logical" name="LFXHEG"> F  </i>
   <i type="int" name="NATURALO">     2</i>
   <i type="logical" name="LHOLEGF"> F  </i>
   <i type="logical" name="L2ORDER"> F  </i>
   <i type="logical" name="LDMP1"> F  </i>
   <i type="logical" name="LMP2LT"> F  </i>
   <i type="logical" name="LSMP2LT"> F  </i>
   <i type="logical" name="LGWLF"> F  </i>
   <i name="ENCUTGW">     -1.60000002</i>
   <i name="ENCUTGWSOFT">     -1.60000002</i>
   <i name="ENCUTLF">     -1.00000000</i>
   <i type="logical" name="LESF_SPLINES"> F  </i>
   <i type="int" name="LMAXMP2">    -1</i>
   <i name="SCISSOR">      0.00000000</i>
   <i type="int" name="NOMEGA">     0</i>
   <i type="int" name="NOMEGAR">     0</i>
   <i type="int" name="NBANDSGW">    -1</i>
   <i type="int" name="NBANDSO">    -1</i>
   <i type="int" name="NBANDSV">    -1</i>
   <i type="int" name="NELMGW">     1</i>
   <i type="int" name="NELMHF">     1</i>
   <i type="int" name="DIM">     3</i>
   <i type="int" name="IESPILON">     4</i>
   <i type="int" name="ANTIRES">     0</i>
   <i name="OMEGAMAX">    -30.00000000</i>
   <i name="OMEGAMIN">    -30.00000000</i>
   <i name="OMEGATL">   -200.00000000</i>
   <i type="int" name="OMEGAGRID">     0</i>
   <i name="CSHIFT">     -0.10000000</i>
   <i type="logical" name="LSELFENERGY"> F  </i>
   <i type="logical" name="LSPECTRAL"> F  </i>
   <i type="logical" name="LSPECTRALGW"> F  </i>
   <i type="logical" name="LSINGLES"> F  </i>
   <i type="logical" name="LFERMIGW"> F  </i>
   <i type="logical" name="ODDONLYGW"> F  </i>
   <i type="logical" name="EVENONLYGW"> F  </i>
   <i type="int" name="NKREDLFX">     1</i>
   <i type="int" name="NKREDLFY">     1</i>
   <i type="int" name="NKREDLFZ">     1</i>
   <i type="int" name="MAXMEM">  2800</i>
   <i type="int" name="TELESCOPE">     0</i>
   <i type="int" name="NTAUPAR">    -1</i>
   <i type="int" name="NOMEGAPAR">    -1</i>
   <i name="DAMP_NEWTON">      0.80000001</i>
   <i name="LAMBDA">      1.00000000</i>
  </separator>
  <separator name="External order field" >
   <i name="OFIELD_KAPPA">      0.00000000</i>
   <v name="OFIELD_K">      0.00000000      0.00000000      0.00000000</v>
   <i name="OFIELD_Q6_NEAR">      0.00000000</i>
   <i name="OFIELD_Q6_FAR">      0.00000000</i>
   <i name="OFIELD_A">      0.00000000</i>
  </separator>
  <separator name="optional k-points parameters" >
   <i type="int" name="KPOINTS_OPT_MODE">     1</i>
   <i type="logical" name="LKPOINTS_OPT"> F  </i>
  </separator>
 </parameters>
 <atominfo>
  <atoms>     119 </atoms>
  <types>       3 </types>
  <array name="atoms" >
   <dimension dim="1">ion</dimension>
   <field type="string">element</field>
   <field type="int">atomtype</field>
   <set>
    <rc><c>Ga</c><c>   1</c></rc>
    <rc><c>Ga</c><c>   1</c></rc>
    <rc><c>Ga</c><c>   1</c></rc>
    <rc><c>Ga</c><c>   1</c></rc>
    <rc><c>Ga</c><c>   1</c></rc>
    <rc><c>Ga</c><c>   1</c></rc>
    <rc><c>Ga</c><c>   1</c></rc>
    <rc><c>Ga</c><c>   1</c></rc>
    <rc><c>Ga</c><c>   1</c></rc>
    <rc><c>Ga</c><c>   1</c></rc>
    <rc><c>Ga</c><c>   1</c></rc>
    <rc><c>Ga</c><c>   1</c></rc>
    <rc><c>Ga</c><c>   1</c></rc>
    <rc><c>Ga</c><c>   1</c></rc>
    <rc><c>Ga</c><c>   1</c></rc>
    <rc><c>Ga</c><c>   1</c></rc>
    <rc><c>Ga</c><c>   1</c></rc>
    <rc><c>Ga</c><c>   1</c></rc>
    <rc><c>Ga</c><c>   1</c></rc>
    <rc><c>Ga</c><c>   1</c></rc>
    <rc><c>Ga</c><c>   1</c></rc>
    <rc><c>Ga</c><c>   1</c></rc>
    <rc><c>Ga</c><c>   1</c></rc>
    <rc><c>Ga</c><c>   1</c></rc>
    <rc><c>Ga</c><c>   1</c></rc>
    <rc><c>Ga</c><c>   1</c></rc>
    <rc><c>Ga</c><c>   1</c></rc>
    <rc><c>Ga</c><c>   1</c></rc>
    <rc><c>Ga</c><c>   1</c></rc>
    <rc><c>Ga</c><c>   1</c></rc>
    <rc><c>Ga</c><c>   1</c></rc>
    <rc><c>Ga</c><c>   1</c></rc>
    <rc><c>Ga</c><c>   1</c></rc>
    <rc><c>Ga</c><c>   1</c></rc>
    <rc><c>Ga</c><c>   1</c></rc>
    <rc><c>Ga</c><c>   1</c></rc>
    <rc><c>Ga</c><c>   1</c></rc>
    <rc><c>Ga</c><c>   1</c></rc>
    <rc><c>Ga</c><c>   1</c></rc>
    <rc><c>Ga</c><c>   1</c></rc>
    <rc><c>Ga</c><c>   1</c></rc>
    <rc><c>Ga</c><c>   1</c></rc>
    <rc><c>Ga</c><c>   1</c></rc>
    <rc><c>Ga</c><c>   1</c></rc>
    <rc><c>Ga</c><c>   1</c></rc>
    <rc><c>Ga</c><c>   1</c></rc>
    <rc><c>Ga</c><c>   1</c></rc>
    <rc><c>O </c><c>   2</c></rc>
    <rc><c>O </c><c>   2</c></rc>
    <rc><c>O </c><c>   2</c></rc>
    <rc><c>O </c><c>   2</c></rc>
    <rc><c>O </c><c>   2</c></rc>
    <rc><c>O </c><c>   2</c></rc>
    <rc><c>O </c><c>   2</c></rc>
    <rc><c>O </c><c>   2</c></rc>
    <rc><c>O </c><c>   2</c></rc>
    <rc><c>O </c><c>   2</c></rc>
    <rc><c>O </c><c>   2</c></rc>
    <rc><c>O </c><c>   2</c></rc>
    <rc><c>O </c><c>   2</c></rc>
    <rc><c>O </c><c>   2</c></rc>
    <rc><c>O </c><c>   2</c></rc>
    <rc><c>O </c><c>   2</c></rc>
    <rc><c>O </c><c>   2</c></rc>
    <rc><c>O </c><c>   2</c></rc>
    <rc><c>O </c><c>   2</c></rc>
    <rc><c>O </c><c>   2</c></rc>
    <rc><c>O </c><c>   2</c></rc>
    <rc><c>O </c><c>   2</c></rc>
    <rc><c>O </c><c>   2</c></rc>
    <rc><c>O </c><c>   2</c></rc>
    <rc><c>O </c><c>   2</c></rc>
    <rc><c>O </c><c>   2</c></rc>
    <rc><c>O </c><c>   2</c></rc>
    <rc><c>O </c><c>   2</c></rc>
    <rc><c>O </c><c>   2</c></rc>
    <rc><c>O </c><c>   2</c></rc>
    <rc><c>O </c><c>   2</c></rc>
    <rc><c>O </c><c>   2</c></rc>
    <rc><c>O </c><c>   2</c></rc>
    <rc><c>O </c><c>   2</c></rc>
    <rc><c>O </c><c>   2</c></rc>
    <rc><c>O </c><c>   2</c></rc>
    <rc><c>O </c><c>   2</c></rc>
    <rc><c>O </c><c>   2</c></rc>
    <rc><c>O </c><c>   2</c></rc>
    <rc><c>O </c><c>   2</c></rc>
    <rc><c>O </c><c>   2</c></rc>
    <rc><c>O </c><c>   2</c></rc>
    <rc><c>O </c><c>   2</c></rc>
    <rc><c>O </c><c>   2</c></rc>
    <rc><c>O </c><c>   2</c></rc>
    <rc><c>O </c><c>   2</c></rc>
    <rc><c>O </c><c>   2</c></rc>
    <rc><c>O </c><c>   2</c></rc>
    <rc><c>O </c><c>   2</c></rc>
    <rc><c>O </c><c>   2</c></rc>
    <rc><c>O </c><c>   2</c></rc>
    <rc><c>O </c><c>   2</c></rc>
    <rc><c>O </c><c>   2</c></rc>
    <rc><c>O </c><c>   2</c></rc>
    <rc><c>O </c><c>   2</c></rc>
    <rc><c>O </c><c>   2</c></rc>
    <rc><c>O </c><c>   2</c></rc>
    <rc><c>O </c><c>   2</c></rc>
    <rc><c>O </c><c>   2</c></rc>
    <rc><c>O </c><c>   2</c></rc>
    <rc><c>O </c><c>   2</c></rc>
    <rc><c>O </c><c>   2</c></rc>
    <rc><c>O </c><c>   2</c></rc>
    <rc><c>O </c><c>   2</c></rc>
    <rc><c>O </c><c>   2</c></rc>
    <rc><c>O </c><c>   2</c></rc>
    <rc><c>O </c><c>   2</c></rc>
    <rc><c>O </c><c>   2</c></rc>
    <rc><c>O </c><c>   2</c></rc>
    <rc><c>O </c><c>   2</c></rc>
    <rc><c>O </c><c>   2</c></rc>
    <rc><c>P </c><c>   3</c></rc>
   </set>
  </array>
  <array name="atomtypes" >
   <dimension dim="1">type</dimension>
   <field type="int">atomspertype</field>
   <field type="string">element</field>
   <field>mass</field>
   <field>valence</field>
   <field type="string">pseudopotential</field>
   <set>
    <rc><c>  47</c><c>Ga</c><c>     69.72300000</c><c>     13.00000000</c><c>  PAW_PBE Ga_d 06Jul2010                </c></rc>
    <rc><c>  71</c><c>O </c><c>     16.00000000</c><c>      6.00000000</c><c>   PAW_PBE O 08Apr2002                  </c></rc>
    <rc><c>   1</c><c>P </c><c>     30.97400000</c><c>      5.00000000</c><c>  PAW_PBE P 06Sep2000                   </c></rc>
   </set>
  </array>
 </atominfo>
 <structure name="initialpos" >
  <crystal>
   <varray name="basis" >
    <v>       0.00000000      12.28047342       0.00000000 </v>
    <v>       9.14270205       0.00000000       0.00000000 </v>
    <v>       0.00000000      -2.76826177     -11.30069772 </v>
   </varray>
   <i name="volume">   1268.80515525 </i>
   <varray name="rec_basis" >
    <v>       0.00000000       0.08143009      -0.01994742 </v>
    <v>       0.10937686      -0.00000000       0.00000000 </v>
    <v>       0.00000000       0.00000000      -0.08849011 </v>
   </varray>
  </crystal>
  <varray name="positions" >
   <v>       0.65883830       0.00000000       0.15736517 </v>
   <v>       0.65883830       0.00000000       0.65736517 </v>
   <v>       0.65883830       0.33333333       0.15736517 </v>
   <v>       0.65883830       0.33333333       0.65736517 </v>
   <v>       0.65883830       0.66666667       0.15736517 </v>
   <v>       0.65883830       0.66666667       0.65736517 </v>
   <v>       0.84116170       0.16666667       0.84263483 </v>
   <v>       0.84116170       0.50000000       0.34263483 </v>
   <v>       0.84116170       0.50000000       0.84263483 </v>
   <v>       0.84116170       0.83333333       0.34263483 </v>
   <v>       0.84116170       0.83333333       0.84263483 </v>
   <v>       0.59047440       0.16666667       0.39739300 </v>
   <v>       0.59047440       0.16666667       0.89739300 </v>
   <v>       0.59047440       0.50000000       0.39739300 </v>
   <v>       0.59047440       0.50000000       0.89739300 </v>
   <v>       0.59047440       0.83333333       0.39739300 </v>
   <v>       0.59047440       0.83333333       0.89739300 </v>
   <v>       0.90952560       0.00000000       0.10260700 </v>
   <v>       0.90952560       0.00000000       0.60260700 </v>
   <v>       0.90952560       0.33333333       0.10260700 </v>
   <v>       0.90952560       0.33333333       0.60260700 </v>
   <v>       0.90952560       0.66666667       0.10260700 </v>
   <v>       0.90952560       0.66666667       0.60260700 </v>
   <v>       0.15883830       0.16666667       0.15736517 </v>
   <v>       0.15883830       0.16666667       0.65736517 </v>
   <v>       0.15883830       0.50000000       0.15736517 </v>
   <v>       0.15883830       0.50000000       0.65736517 </v>
   <v>       0.15883830       0.83333333       0.15736517 </v>
   <v>       0.15883830       0.83333333       0.65736517 </v>
   <v>       0.34116170       0.00000000       0.34263483 </v>
   <v>       0.34116170       0.00000000       0.84263483 </v>
   <v>       0.34116170       0.33333333       0.34263483 </v>
   <v>       0.34116170       0.33333333       0.84263483 </v>
   <v>       0.34116170       0.66666667       0.34263483 </v>
   <v>       0.34116170       0.66666667       0.84263483 </v>
   <v>       0.09047440       0.00000000       0.39739300 </v>
   <v>       0.09047440       0.00000000       0.89739300 </v>
   <v>       0.09047440       0.33333333       0.39739300 </v>
   <v>       0.09047440       0.33333333       0.89739300 </v>
   <v>       0.09047440       0.66666667       0.39739300 </v>
   <v>       0.09047440       0.66666667       0.89739300 </v>
   <v>       0.40952560       0.16666667       0.10260700 </v>
   <v>       0.40952560       0.16666667       0.60260700 </v>
   <v>       0.40952560       0.50000000       0.10260700 </v>
   <v>       0.40952560       0.50000000       0.60260700 </v>
   <v>       0.40952560       0.83333333       0.10260700 </v>
   <v>       0.40952560       0.83333333       0.60260700 </v>
   <v>       0.99646913       0.16666667       0.12833205 </v>
   <v>       0.99646913       0.16666667       0.62833205 </v>
   <v>       0.99646913       0.50000000       0.12833205 </v>
   <v>       0.99646913       0.50000000       0.62833205 </v>
   <v>       0.99646913       0.83333333       0.12833205 </v>
   <v>       0.99646913       0.83333333       0.62833205 </v>
   <v>       0.50353087       0.00000000       0.37166795 </v>
   <v>       0.50353087       0.00000000       0.87166795 </v>
   <v>       0.50353087       0.33333333       0.37166795 </v>
   <v>       0.50353087       0.33333333       0.87166795 </v>
   <v>       0.50353087       0.66666667       0.37166795 </v>
   <v>       0.50353087       0.66666667       0.87166795 </v>
   <v>       0.67337106       0.16666667       0.28161508 </v>
   <v>       0.67337106       0.16666667       0.78161508 </v>
   <v>       0.67337106       0.50000000       0.28161508 </v>
   <v>       0.67337106       0.50000000       0.78161508 </v>
   <v>       0.67337106       0.83333333       0.28161508 </v>
   <v>       0.67337106       0.83333333       0.78161508 </v>
   <v>       0.82662894       0.00000000       0.21838492 </v>
   <v>       0.82662894       0.00000000       0.71838492 </v>
   <v>       0.82662894       0.33333333       0.21838492 </v>
   <v>       0.82662894       0.33333333       0.71838492 </v>
   <v>       0.82662894       0.66666667       0.21838492 </v>
   <v>       0.82662894       0.66666667       0.71838492 </v>
   <v>       0.83549502       0.00000000       0.44542296 </v>
   <v>       0.83549502       0.00000000       0.94542296 </v>
   <v>       0.83549502       0.33333333       0.44542296 </v>
   <v>       0.83549502       0.33333333       0.94542296 </v>
   <v>       0.83549502       0.66666667       0.44542296 </v>
   <v>       0.83549502       0.66666667       0.94542296 </v>
   <v>       0.66450498       0.16666667       0.05457704 </v>
   <v>       0.66450498       0.16666667       0.55457704 </v>
   <v>       0.66450498       0.50000000       0.05457704 </v>
   <v>       0.66450498       0.50000000       0.55457704 </v>
   <v>       0.66450498       0.83333333       0.05457704 </v>
   <v>       0.66450498       0.83333333       0.55457704 </v>
   <v>       0.49646913       0.00000000       0.12833205 </v>
   <v>       0.49646913       0.00000000       0.62833205 </v>
   <v>       0.49646913       0.33333333       0.12833205 </v>
   <v>       0.49646913       0.33333333       0.62833205 </v>
   <v>       0.49646913       0.66666667       0.12833205 </v>
   <v>       0.49646913       0.66666667       0.62833205 </v>
   <v>       0.00353087       0.16666667       0.87166795 </v>
   <v>       0.00353087       0.50000000       0.37166795 </v>
   <v>       0.00353087       0.50000000       0.87166795 </v>
   <v>       0.00353087       0.83333333       0.37166795 </v>
   <v>       0.00353087       0.83333333       0.87166795 </v>
   <v>       0.17337106       0.00000000       0.28161508 </v>
   <v>       0.17337106       0.00000000       0.78161508 </v>
   <v>       0.17337106       0.33333333       0.28161508 </v>
   <v>       0.17337106       0.33333333       0.78161508 </v>
   <v>       0.17337106       0.66666667       0.28161508 </v>
   <v>       0.17337106       0.66666667       0.78161508 </v>
   <v>       0.32662894       0.16666667       0.21838492 </v>
   <v>       0.32662894       0.16666667       0.71838492 </v>
   <v>       0.32662894       0.50000000       0.21838492 </v>
   <v>       0.32662894       0.50000000       0.71838492 </v>
   <v>       0.32662894       0.83333333       0.21838492 </v>
   <v>       0.32662894       0.83333333       0.71838492 </v>
   <v>       0.33549502       0.16666667       0.44542296 </v>
   <v>       0.33549502       0.16666667       0.94542296 </v>
   <v>       0.33549502       0.50000000       0.44542296 </v>
   <v>       0.33549502       0.50000000       0.94542296 </v>
   <v>       0.33549502       0.83333333       0.44542296 </v>
   <v>       0.33549502       0.83333333       0.94542296 </v>
   <v>       0.16450498       0.00000000       0.05457704 </v>
   <v>       0.16450498       0.00000000       0.55457704 </v>
   <v>       0.16450498       0.33333333       0.05457704 </v>
   <v>       0.16450498       0.33333333       0.55457704 </v>
   <v>       0.16450498       0.66666667       0.05457704 </v>
   <v>       0.16450498       0.66666667       0.55457704 </v>
   <v>       0.00353087       0.16666667       0.37166795 </v>
  </varray>
 </structure>
 <calculation>
  <scstep>
   <time name="dav">    1.78    1.78</time>
   <time name="total">    1.90    1.90</time>
   <energy>
    <i name="alphaZ">   5376.25786726 </i>
    <i name="ewald"> -86362.76776985 </i>
    <i name="hartreedc"> -33533.57331741 </i>
    <i name="XCdc">   4078.31799697 </i>
    <i name="pawpsdc"> 100093.09196360 </i>
    <i name="pawaedc">-115889.62880893 </i>
    <i name="eentropy">     -0.00492094 </i>
    <i name="bandstr">  16045.53771686 </i>
    <i name="atom"> 131866.99277783 </i>
    <i name="e_fr_energy">  21674.22350538 </i>
    <i name="e_wo_entrp">  21674.22842632 </i>
    <i name="e_0_energy">  21674.22596585 </i>
   </energy>
  </scstep>
  <scstep>
   <time name="dav">    1.92    1.92</time>
   <time name="total">    1.93    1.93</time>
   <energy>
    <i name="e_fr_energy">   4806.68414953 </i>
    <i name="e_wo_entrp">   4806.70054642 </i>
    <i name="e_0_energy">   4806.69234798 </i>
   </energy>
  </scstep>
  <scstep>
   <time name="dav">    2.05    2.05</time>
   <time name="total">    2.05    2.05</time>
   <energy>
    <i name="e_fr_energy">   -141.47378035 </i>
    <i name="e_wo_entrp">   -141.47378035 </i>
    <i name="e_0_energy">   -141.47378035 </i>
   </energy>
  </scstep>
  <scstep>
   <time name="dav">    2.00    2.00</time>
   <time name="total">    2.01    2.01</time>
   <energy>
    <i name="e_fr_energy">   -762.68836035 </i>
    <i name="e_wo_entrp">   -762.68836035 </i>
    <i name="e_0_energy">   -762.68836035 </i>
   </energy>
  </scstep>
  <scstep>
   <time name="dav">    2.29    2.29</time>
   <time name="total">    2.56    2.56</time>
   <energy>
    <i name="e_fr_energy">   -805.42037965 </i>
    <i name="e_wo_entrp">   -805.42037965 </i>
    <i name="e_0_energy">   -805.42037965 </i>
   </energy>
  </scstep>
  <scstep>
   <time name="diag">    0.24    0.24</time>
   <time name="diis">    2.63    2.63</time>
   <time name="orth">    0.03    0.03</time>
   <time name="total">    3.28    3.28</time>
   <energy>
    <i name="e_fr_energy">   -696.46555824 </i>
    <i name="e_wo_entrp">   -696.45600926 </i>
    <i name="e_0_energy">   -696.46078375 </i>
   </energy>
  </scstep>
  <scstep>
   <time name="diag">    0.24    0.24</time>
   <time name="diis">    2.61    2.61</time>
   <time name="orth">    0.03    0.03</time>
   <time name="total">    3.26    3.26</time>
   <energy>
    <i name="e_fr_energy">   -701.22700449 </i>
    <i name="e_wo_entrp">   -701.22700449 </i>
    <i name="e_0_energy">   -701.22700449 </i>
   </energy>
  </scstep>
  <scstep>
   <time name="diag">    0.24    0.24</time>
   <time name="diis">    2.92    2.92</time>
   <time name="orth">    0.03    0.03</time>
   <time name="total">    3.57    3.57</time>
   <energy>
    <i name="e_fr_energy">   -697.18096881 </i>
    <i name="e_wo_entrp">   -697.18096881 </i>
    <i name="e_0_energy">   -697.18096881 </i>
   </energy>
  </scstep>
  <scstep>
   <time name="diag">    0.24    0.24</time>
   <time name="diis">    2.46    2.46</time>
   <time name="orth">    0.03    0.03</time>
   <time name="total">    3.25    3.37</time>
   <energy>
    <i name="e_fr_energy">   -699.91757599 </i>
    <i name="e_wo_entrp">   -699.91757199 </i>
    <i name="e_0_energy">   -699.91757399 </i>
   </energy>
  </scstep>
  <scstep>
   <time name="diag">    0.24    0.24</time>
   <time name="diis">    2.54    2.54</time>
   <time name="orth">    0.03    0.03</time>
   <time name="total">    3.19    3.19</time>
   <energy>
    <i name="e_fr_energy">   -697.20464967 </i>
    <i name="e_wo_entrp">   -697.19018159 </i>
    <i name="e_0_energy">   -697.19741563 </i>
   </energy>
  </scstep>
  <scstep>
   <time name="diag">    0.24    0.24</time>
   <time name="diis">    2.50    2.50</time>
   <time name="orth">    0.03    0.03</time>
   <time name="total">    3.16    3.16</time>
   <energy>
    <i name="e_fr_energy">   -696.82470737 </i>
    <i name="e_wo_entrp">   -696.82470737 </i>
    <i name="e_0_energy">   -696.82470737 </i>
   </energy>
  </scstep>
  <scstep>
   <time name="diag">    0.24    0.24</time>
   <time name="diis">    2.42    2.42</time>
   <time name="orth">    0.03    0.03</time>
   <time name="total">    3.07    3.07</time>
   <energy>
    <i name="e_fr_energy">   -696.46418998 </i>
    <i name="e_wo_entrp">   -696.46418998 </i>
    <i name="e_0_energy">   -696.46418998 </i>
   </energy>
  </scstep>
  <scstep>
   <time name="diag">    0.24    0.24</time>
   <time name="diis">    2.93    2.93</time>
   <time name="orth">    0.03    0.03</time>
   <time name="total">    3.59    3.59</time>
   <energy>
    <i name="e_fr_energy">   -696.21791578 </i>
    <i name="e_wo_entrp">   -696.21791578 </i>
    <i name="e_0_energy">   -696.21791578 </i>
   </energy>
  </scstep>
  <scstep>
   <time name="diag">    0.24    0.24</time>
   <time name="diis">    2.58    2.58</time>
   <time name="orth">    0.03    0.03</time>
   <time name="total">    3.24    3.24</time>
   <energy>
    <i name="e_fr_energy">   -696.13533409 </i>
    <i name="e_wo_entrp">   -696.13533409 </i>
    <i name="e_0_energy">   -696.13533409 </i>
   </energy>
  </scstep>
  <scstep>
   <time name="diag">    0.24    0.24</time>
   <time name="diis">    2.46    2.46</time>
   <time name="orth">    0.03    0.03</time>
   <time name="total">    3.12    3.12</time>
   <energy>
    <i name="e_fr_energy">   -696.03979818 </i>
    <i name="e_wo_entrp">   -696.03974273 </i>
    <i name="e_0_energy">   -696.03977046 </i>
   </energy>
  </scstep>
  <scstep>
   <time name="diag">    0.24    0.24</time>
   <time name="diis">    2.58    2.58</time>
   <time name="orth">    0.03    0.03</time>
   <time name="total">    3.24    3.24</time>
   <energy>
    <i name="e_fr_energy">   -695.99312828 </i>
    <i name="e_wo_entrp">   -695.98817454 </i>
    <i name="e_0_energy">   -695.99065141 </i>
   </energy>
  </scstep>
  <scstep>
   <time name="diag">    0.24    0.24</time>
   <time name="diis">    2.84    2.84</time>
   <time name="orth">    0.03    0.03</time>
   <time name="total">    3.51    3.51</time>
   <energy>
    <i name="e_fr_energy">   -695.99374742 </i>
    <i name="e_wo_entrp">   -695.98736633 </i>
    <i name="e_0_energy">   -695.99055687 </i>
   </energy>
  </scstep>
  <scstep>
   <time name="diag">    0.24    0.24</time>
   <time name="diis">    2.52    2.52</time>
   <time name="orth">    0.03    0.03</time>
   <time name="total">    3.19    3.19</time>
   <energy>
    <i name="e_fr_energy">   -695.98961739 </i>
    <i name="e_wo_entrp">   -695.97891002 </i>
    <i name="e_0_energy">   -695.98426370 </i>
   </energy>
  </scstep>
  <scstep>
   <time name="diag">    0.24    0.24</time>
   <time name="diis">    2.49    2.49</time>
   <time name="orth">    0.03    0.03</time>
   <time name="total">    3.16    3.16</time>
   <energy>
    <i name="e_fr_energy">   -696.00496187 </i>
    <i name="e_wo_entrp">   -695.98908863 </i>
    <i name="e_0_energy">   -695.99702525 </i>
   </energy>
  </scstep>
  <scstep>
   <time name="diag">    0.24    0.24</time>
   <time name="diis">    2.40    2.40</time>
   <time name="orth">    0.03    0.03</time>
   <time name="total">    3.08    3.08</time>
   <energy>
    <i name="e_fr_energy">   -695.99389786 </i>
    <i name="e_wo_entrp">   -695.97936053 </i>
    <i name="e_0_energy">   -695.98662920 </i>
   </energy>
  </scstep>
  <scstep>
   <time name="diag">    0.24    0.24</time>
   <time name="diis">    2.29    2.29</time>
   <time name="orth">    0.03    0.03</time>
   <time name="total">    2.97    2.97</time>
   <energy>
    <i name="e_fr_energy">   -695.98180577 </i>
    <i name="e_wo_entrp">   -695.97368124 </i>
    <i name="e_0_energy">   -695.97774350 </i>
   </energy>
  </scstep>
  <scstep>
   <time name="diag">    0.24    0.24</time>
   <time name="diis">    2.35    2.35</time>
   <time name="orth">    0.03    0.03</time>
   <time name="total">    3.03    3.03</time>
   <energy>
    <i name="e_fr_energy">   -695.98526484 </i>
    <i name="e_wo_entrp">   -695.97715369 </i>
    <i name="e_0_energy">   -695.98120926 </i>
   </energy>
  </scstep>
  <scstep>
   <time name="diag">    0.24    0.24</time>
   <time name="diis">    2.29    2.29</time>
   <time name="orth">    0.03    0.03</time>
   <time name="total">    2.98    2.98</time>
   <energy>
    <i name="e_fr_energy">   -695.98569686 </i>
    <i name="e_wo_entrp">   -695.97736907 </i>
    <i name="e_0_energy">   -695.98153297 </i>
   </energy>
  </scstep>
  <scstep>
   <time name="diag">    0.24    0.24</time>
   <time name="diis">    2.05    2.05</time>
   <time name="orth">    0.03    0.03</time>
   <time name="total">    2.74    2.74</time>
   <energy>
    <i name="e_fr_energy">   -695.98518754 </i>
    <i name="e_wo_entrp">   -695.97804707 </i>
    <i name="e_0_energy">   -695.98161731 </i>
   </energy>
  </scstep>
  <scstep>
   <time name="diag">    0.24    0.24</time>
   <time name="diis">    1.80    1.80</time>
   <time name="orth">    0.03    0.03</time>
   <time name="total">    2.49    2.49</time>
   <energy>
    <i name="e_fr_energy">   -695.98523713 </i>
    <i name="e_wo_entrp">   -695.97848866 </i>
    <i name="e_0_energy">   -695.98186290 </i>
   </energy>
  </scstep>
  <scstep>
   <time name="diag">    0.24    0.24</time>
   <time name="diis">    1.42    1.42</time>
   <time name="orth">    0.03    0.03</time>
   <time name="total">    2.12    2.12</time>
   <energy>
    <i name="e_fr_energy">   -695.98524847 </i>
    <i name="e_wo_entrp">   -695.97860681 </i>
    <i name="e_0_energy">   -695.98192764 </i>
   </energy>
  </scstep>
  <scstep>
   <time name="diag">    0.24    0.24</time>
   <time name="diis">    1.17    1.17</time>
   <time name="orth">    0.03    0.03</time>
   <time name="total">    1.55    1.55</time>
   <energy>
    <i name="alphaZ">   5376.25786726 </i>
    <i name="ewald"> -86362.76776985 </i>
    <i name="hartreedc"> -33991.08269328 </i>
    <i name="XCdc">   4137.12482779 </i>
    <i name="pawpsdc"> 118414.35388306 </i>
    <i name="pawaedc">-134462.95278645 </i>
    <i name="eentropy">     -0.00659409 </i>
    <i name="bandstr">  -5673.90476043 </i>
    <i name="atom"> 131866.99277783 </i>
    <i name="e_fr_energy">   -695.98524817 </i>
    <i name="e_wo_entrp">   -695.97865408 </i>
    <i name="e_0_energy">   -695.98195112 </i>
   </energy>
  </scstep>
  <structure>
   <crystal>
    <varray name="basis" >
     <v>       0.00000000      12.28047342       0.00000000 </v>
     <v>       9.14270205       0.00000000       0.00000000 </v>
     <v>       0.00000000      -2.76826177     -11.30069772 </v>
    </varray>
    <i name="volume">   1268.80515525 </i>
    <varray name="rec_basis" >
     <v>       0.00000000       0.08143009      -0.01994742 </v>
     <v>       0.10937686      -0.00000000       0.00000000 </v>
     <v>       0.00000000       0.00000000      -0.08849011 </v>
    </varray>
   </crystal>
   <varray name="positions" >
    <v>       0.65883830       0.00000000       0.15736517 </v>
    <v>       0.65883830       0.00000000       0.65736517 </v>
    <v>       0.65883830       0.33333333       0.15736517 </v>
    <v>       0.65883830       0.33333333       0.65736517 </v>
    <v>       0.65883830       0.66666667       0.15736517 </v>
    <v>       0.65883830       0.66666667       0.65736517 </v>
    <v>       0.84116170       0.16666667       0.84263483 </v>
    <v>       0.84116170       0.50000000       0.34263483 </v>
    <v>       0.84116170       0.50000000       0.84263483 </v>
    <v>       0.84116170       0.83333333       0.34263483 </v>
    <v>       0.84116170       0.83333333       0.84263483 </v>
    <v>       0.59047440       0.16666667       0.39739300 </v>
    <v>       0.59047440       0.16666667       0.89739300 </v>
    <v>       0.59047440       0.50000000       0.39739300 </v>
    <v>       0.59047440       0.50000000       0.89739300 </v>
    <v>       0.59047440       0.83333333       0.39739300 </v>
    <v>       0.59047440       0.83333333       0.89739300 </v>
    <v>       0.90952560       0.00000000       0.10260700 </v>
    <v>       0.90952560       0.00000000       0.60260700 </v>
    <v>       0.90952560       0.33333333       0.10260700 </v>
    <v>       0.90952560       0.33333333       0.60260700 </v>
    <v>       0.90952560       0.66666667       0.10260700 </v>
    <v>       0.90952560       0.66666667       0.60260700 </v>
    <v>       0.15883830       0.16666667       0.15736517 </v>
    <v>       0.15883830       0.16666667       0.65736517 </v>
    <v>       0.15883830       0.50000000       0.15736517 </v>
    <v>       0.15883830       0.50000000       0.65736517 </v>
    <v>       0.15883830       0.83333333       0.15736517 </v>
    <v>       0.15883830       0.83333333       0.65736517 </v>
    <v>       0.34116170       0.00000000       0.34263483 </v>
    <v>       0.34116170       0.00000000       0.84263483 </v>
    <v>       0.34116170       0.33333333       0.34263483 </v>
    <v>       0.34116170       0.33333333       0.84263483 </v>
    <v>       0.34116170       0.66666667       0.34263483 </v>
    <v>       0.34116170       0.66666667       0.84263483 </v>
    <v>       0.09047440       0.00000000       0.39739300 </v>
    <v>       0.09047440       0.00000000       0.89739300 </v>
    <v>       0.09047440       0.33333333       0.39739300 </v>
    <v>       0.09047440       0.33333333       0.89739300 </v>
    <v>       0.09047440       0.66666667       0.39739300 </v>
    <v>       0.09047440       0.66666667       0.89739300 </v>
    <v>       0.40952560       0.16666667       0.10260700 </v>
    <v>       0.40952560       0.16666667       0.60260700 </v>
    <v>       0.40952560       0.50000000       0.10260700 </v>
    <v>       0.40952560       0.50000000       0.60260700 </v>
    <v>       0.40952560       0.83333333       0.10260700 </v>
    <v>       0.40952560       0.83333333       0.60260700 </v>
    <v>       0.99646913       0.16666667       0.12833205 </v>
    <v>       0.99646913       0.16666667       0.62833205 </v>
    <v>       0.99646913       0.50000000       0.12833205 </v>
    <v>       0.99646913       0.50000000       0.62833205 </v>
    <v>       0.99646913       0.83333333       0.12833205 </v>
    <v>       0.99646913       0.83333333       0.62833205 </v>
    <v>       0.50353087       0.00000000       0.37166795 </v>
    <v>       0.50353087       0.00000000       0.87166795 </v>
    <v>       0.50353087       0.33333333       0.37166795 </v>
    <v>       0.50353087       0.33333333       0.87166795 </v>
    <v>       0.50353087       0.66666667       0.37166795 </v>
    <v>       0.50353087       0.66666667       0.87166795 </v>
    <v>       0.67337106       0.16666667       0.28161508 </v>
    <v>       0.67337106       0.16666667       0.78161508 </v>
    <v>       0.67337106       0.50000000       0.28161508 </v>
    <v>       0.67337106       0.50000000       0.78161508 </v>
    <v>       0.67337106       0.83333333       0.28161508 </v>
    <v>       0.67337106       0.83333333       0.78161508 </v>
    <v>       0.82662894       0.00000000       0.21838492 </v>
    <v>       0.82662894       0.00000000       0.71838492 </v>
    <v>       0.82662894       0.33333333       0.21838492 </v>
    <v>       0.82662894       0.33333333       0.71838492 </v>
    <v>       0.82662894       0.66666667       0.21838492 </v>
    <v>       0.82662894       0.66666667       0.71838492 </v>
    <v>       0.83549502       0.00000000       0.44542296 </v>
    <v>       0.83549502       0.00000000       0.94542296 </v>
    <v>       0.83549502       0.33333333       0.44542296 </v>
    <v>       0.83549502       0.33333333       0.94542296 </v>
    <v>       0.83549502       0.66666667       0.44542296 </v>
    <v>       0.83549502       0.66666667       0.94542296 </v>
    <v>       0.66450498       0.16666667       0.05457704 </v>
    <v>       0.66450498       0.16666667       0.55457704 </v>
    <v>       0.66450498       0.50000000       0.05457704 </v>
    <v>       0.66450498       0.50000000       0.55457704 </v>
    <v>       0.66450498       0.83333333       0.05457704 </v>
    <v>       0.66450498       0.83333333       0.55457704 </v>
    <v>       0.49646913       0.00000000       0.12833205 </v>
    <v>       0.49646913       0.00000000       0.62833205 </v>
    <v>       0.49646913       0.33333333       0.12833205 </v>
    <v>       0.49646913       0.33333333       0.62833205 </v>
    <v>       0.49646913       0.66666667       0.12833205 </v>
    <v>       0.49646913       0.66666667       0.62833205 </v>
    <v>       0.00353087       0.16666667       0.87166795 </v>
    <v>       0.00353087       0.50000000       0.37166795 </v>
    <v>       0.00353087       0.50000000       0.87166795 </v>
    <v>       0.00353087       0.83333333       0.37166795 </v>
    <v>       0.00353087       0.83333333       0.87166795 </v>
    <v>       0.17337106       0.00000000       0.28161508 </v>
    <v>       0.17337106       0.00000000       0.78161508 </v>
    <v>       0.17337106       0.33333333       0.28161508 </v>
    <v>       0.17337106       0.33333333       0.78161508 </v>
    <v>       0.17337106       0.66666667       0.28161508 </v>
    <v>       0.17337106       0.66666667       0.78161508 </v>
    <v>       0.32662894       0.16666667       0.21838492 </v>
    <v>       0.32662894       0.16666667       0.71838492 </v>
    <v>       0.32662894       0.50000000       0.21838492 </v>
    <v>       0.32662894       0.50000000       0.71838492 </v>
    <v>       0.32662894       0.83333333       0.21838492 </v>
    <v>       0.32662894       0.83333333       0.71838492 </v>
    <v>       0.33549502       0.16666667       0.44542296 </v>
    <v>       0.33549502       0.16666667       0.94542296 </v>
    <v>       0.33549502       0.50000000       0.44542296 </v>
    <v>       0.33549502       0.50000000       0.94542296 </v>
    <v>       0.33549502       0.83333333       0.44542296 </v>
    <v>       0.33549502       0.83333333       0.94542296 </v>
    <v>       0.16450498       0.00000000       0.05457704 </v>
    <v>       0.16450498       0.00000000       0.55457704 </v>
    <v>       0.16450498       0.33333333       0.05457704 </v>
    <v>       0.16450498       0.33333333       0.55457704 </v>
    <v>       0.16450498       0.66666667       0.05457704 </v>
    <v>       0.16450498       0.66666667       0.55457704 </v>
    <v>       0.00353087       0.16666667       0.37166795 </v>
   </varray>
  </structure>
  <varray name="forces" >
   <v>       0.93275391       0.54683749      -1.04737546 </v>
   <v>       0.15189635       0.04033644       0.16054001 </v>
   <v>      -0.93275391       0.54683749      -1.04737546 </v>
   <v>      -0.15189635       0.04033644       0.16054001 </v>
   <v>       0.00000000       0.08110900      -0.21408256 </v>
   <v>       0.00000000       0.04459639       0.05448271 </v>
   <v>       0.00000000      -0.20575613       0.06849261 </v>
   <v>      -1.05089825      -0.06607261       0.08029313 </v>
   <v>       0.01719787       0.00381176      -0.01214135 </v>
   <v>       1.05089825      -0.06607261       0.08029313 </v>
   <v>      -0.01719787       0.00381176      -0.01214135 </v>
   <v>       0.00000000       1.20876854       0.57832871 </v>
   <v>       0.00000000       0.09318875      -0.26150634 </v>
   <v>      -0.15544553       0.14413628       0.15354603 </v>
   <v>      -0.06260116       0.02502503      -0.08596720 </v>
   <v>       0.15544553       0.14413628       0.15354603 </v>
   <v>       0.06260116       0.02502503      -0.08596720 </v>
   <v>      -0.59924571      -1.08918170      -0.28903704 </v>
   <v>      -0.31667232      -0.54594428       0.65569854 </v>
   <v>       0.59924571      -1.08918170      -0.28903704 </v>
   <v>       0.31667232      -0.54594428       0.65569854 </v>
   <v>       0.00000000      -0.17775941      -0.12905410 </v>
   <v>       0.00000000      -0.03678976       0.24859221 </v>
   <v>       0.00000000       0.65557916       0.26413938 </v>
   <v>       0.00000000       0.17227232      -0.48749121 </v>
   <v>       0.26508229      -0.11765199       0.16190664 </v>
   <v>       0.32816703      -0.24988679      -0.10269821 </v>
   <v>      -0.26508229      -0.11765199       0.16190664 </v>
   <v>      -0.32816703      -0.24988679      -0.10269821 </v>
   <v>      -0.01311672       0.49597776      -0.13795620 </v>
   <v>      -0.00832991       0.17573787      -0.16957760 </v>
   <v>       0.01311672       0.49597776      -0.13795620 </v>
   <v>       0.00832991       0.17573787      -0.16957760 </v>
   <v>       0.00000000       0.13341194      -0.06899550 </v>
   <v>       0.00000000       0.04444642      -0.13786172 </v>
   <v>      -9.68024280       5.29855067      -1.55768510 </v>
   <v>      -0.14774662      -0.03599242       0.01486615 </v>
   <v>       9.68024280       5.29855067      -1.55768510 </v>
   <v>       0.14774662      -0.03599242       0.01486615 </v>
   <v>       0.00000000      -0.28685189       0.05857244 </v>
   <v>       0.00000000      -0.04525377      -0.01437239 </v>
   <v>       0.00000000       0.32047739      -0.08064701 </v>
   <v>       0.00000000       0.22177140       0.01534963 </v>
   <v>      -0.07306082       0.19196449      -0.00401612 </v>
   <v>      -0.01370407       0.13720340       0.04132639 </v>
   <v>       0.07306082       0.19196449      -0.00401612 </v>
   <v>       0.01370407       0.13720340       0.04132639 </v>
   <v>       0.00000000       0.36301726      -0.96840679 </v>
   <v>       0.00000000       0.61335044       0.21359435 </v>
   <v>      -0.03225883       0.32201068      -0.01619276 </v>
   <v>       0.02778045       0.33648860      -0.22502662 </v>
   <v>       0.03225883       0.32201068      -0.01619276 </v>
   <v>      -0.02778045       0.33648860      -0.22502662 </v>
   <v>      -0.18533354      -0.34908233      -0.01491176 </v>
   <v>      -0.04731936      -0.10094785       0.10780803 </v>
   <v>       0.18533354      -0.34908233      -0.01491176 </v>
   <v>       0.04731936      -0.10094785       0.10780803 </v>
   <v>       0.00000000      -0.14370264       0.02494104 </v>
   <v>       0.00000000      -0.05609588       0.06750828 </v>
   <v>       0.00000000      -0.98684571       0.62496868 </v>
   <v>       0.00000000      -0.02385059       0.00385567 </v>
   <v>       0.20952360      -0.16889429       0.01696091 </v>
   <v>       0.00435295      -0.03126741       0.01730424 </v>
   <v>      -0.20952360      -0.16889429       0.01696091 </v>
   <v>      -0.00435295      -0.03126741       0.01730424 </v>
   <v>      -0.71754265       0.79584173       0.57831572 </v>
   <v>       0.04128041       0.09299096      -0.16810108 </v>
   <v>       0.71754265       0.79584173       0.57831572 </v>
   <v>      -0.04128041       0.09299096      -0.16810108 </v>
   <v>       0.00000000       0.09673012       0.07547926 </v>
   <v>       0.00000000       0.02029828      -0.06848735 </v>
   <v>      -0.08457438       0.52112265      -0.46486777 </v>
   <v>       0.10086435      -0.01440986       0.01868602 </v>
   <v>       0.08457438       0.52112265      -0.46486777 </v>
   <v>      -0.10086435      -0.01440986       0.01868602 </v>
   <v>       0.00000000      -0.14627946      -0.12322109 </v>
   <v>       0.00000000      -0.13607926       0.01232797 </v>
   <v>       0.00000000       0.08907093       0.50648604 </v>
   <v>       0.00000000      -0.00083935      -0.27802560 </v>
   <v>       0.06518526       0.13210057       0.13673609 </v>
   <v>       0.00972528       0.15029584      -0.03001058 </v>
   <v>      -0.06518526       0.13210057       0.13673609 </v>
   <v>      -0.00972528       0.15029584      -0.03001058 </v>
   <v>      -0.09879341      -0.27598777       0.11092768 </v>
   <v>      -0.02077474      -0.12608020      -0.03001610 </v>
   <v>       0.09879341      -0.27598777       0.11092768 </v>
   <v>       0.02077474      -0.12608020      -0.03001610 </v>
   <v>       0.00000000      -0.12967762       0.01841112 </v>
   <v>       0.00000000      -0.06390918      -0.02970117 </v>
   <v>       0.00000000       0.09219382      -0.00430494 </v>
   <v>       0.47556445       0.58352503      -0.12386182 </v>
   <v>      -0.04673012       0.08622027       0.00360564 </v>
   <v>      -0.47556445       0.58352503      -0.12386182 </v>
   <v>       0.04673012       0.08622027       0.00360564 </v>
   <v>      -0.02494256       0.14697159       0.13372714 </v>
   <v>       0.05969205      -0.02207008       0.10681674 </v>
   <v>       0.02494256       0.14697159       0.13372714 </v>
   <v>      -0.05969205      -0.02207008       0.10681674 </v>
   <v>       0.00000000       0.08311069       0.05038095 </v>
   <v>       0.00000000       0.03145521       0.00869401 </v>
   <v>       0.00000000      -0.20143470      -0.03527456 </v>
   <v>       0.00000000      -0.10089315       0.07615608 </v>
   <v>      -0.04610944      -0.15222755      -0.03547601 </v>
   <v>      -0.05564931      -0.05904467       0.05125785 </v>
   <v>       0.04610944      -0.15222755      -0.03547601 </v>
   <v>       0.05564931      -0.05904467       0.05125785 </v>
   <v>       0.00000000      -0.31585107      -0.01527624 </v>
   <v>       0.00000000      -0.24698255       0.06103555 </v>
   <v>      -0.03203595      -0.27821427      -0.02363967 </v>
   <v>       0.00419314      -0.22341357       0.04457429 </v>
   <v>       0.03203595      -0.27821427      -0.02363967 </v>
   <v>      -0.00419314      -0.22341357       0.04457429 </v>
   <v>       0.10974637       0.10586100      -0.04277439 </v>
   <v>       0.01888326       0.39655377      -0.12214431 </v>
   <v>      -0.10974637       0.10586100      -0.04277439 </v>
   <v>      -0.01888326       0.39655377      -0.12214431 </v>
   <v>       0.00000000       0.20529928       0.03173983 </v>
   <v>       0.00000000       0.24804306      -0.05638275 </v>
   <v>       0.00000000     -15.15972684       4.12671458 </v>
  </varray>
  <varray name="stress" >
   <v>     105.71452787       0.00000000       0.00000000 </v>
   <v>       0.00000000      68.63645817      -6.77274217 </v>
   <v>       0.00000000      -6.77274082      55.88987955 </v>
  </varray>
  <energy>
   <i name="e_fr_energy">   -695.98524817 </i>
   <i name="e_wo_entrp">   -695.97865408 </i>
   <i name="e_0_energy">   -695.98195112 </i>
  </energy>
  <time name="totalsc">   86.60   86.73</time>
 </calculation>
 <calculation>
  <scstep>
   <time name="dav">    1.91    1.91</time>
   <time name="total">    2.29    2.29</time>
   <energy>
    <i name="alphaZ">   5376.25786726 </i>
    <i name="ewald"> -86106.92775223 </i>
    <i name="hartreedc"> -34250.13267910 </i>
    <i name="XCdc">   4136.81543477 </i>
    <i name="pawpsdc"> 118414.30286965 </i>
    <i name="pawaedc">-134462.89205156 </i>
    <i name="eentropy">     -0.01057664 </i>
    <i name="bandstr">  -5625.57439618 </i>
    <i name="atom"> 131866.99277783 </i>
    <i name="e_fr_energy">   -651.16850620 </i>
    <i name="e_wo_entrp">   -651.15792956 </i>
    <i name="e_0_energy">   -651.16321788 </i>
   </energy>
  </scstep>
  <scstep>
   <time name="diag">    0.24    0.24</time>
   <time name="diis">    2.65    2.65</time>
   <time name="orth">    0.03    0.03</time>
   <time name="total">    3.30    3.30</time>
   <energy>
    <i name="e_fr_energy">   -684.90035005 </i>
    <i name="e_wo_entrp">   -684.88609338 </i>
    <i name="e_0_energy">   -684.89322171 </i>
   </energy>
  </scstep>
  <scstep>
   <time name="diag">    0.24    0.24</time>
   <time name="diis">    2.83    2.83</time>
   <time name="orth">    0.03    0.03</time>
   <time name="total">    3.48    3.48</time>
   <energy>
    <i name="e_fr_energy">   -699.43572829 </i>
    <i name="e_wo_entrp">   -699.42706094 </i>
    <i name="e_0_energy">   -699.43139462 </i>
   </energy>
  </scstep>
  <scstep>
   <time name="diag">    0.24    0.24</time>
   <time name="diis">    2.93    2.93</time>
   <time name="orth">    0.03    0.03</time>
   <time name="total">    3.59    3.59</time>
   <energy>
    <i name="e_fr_energy">   -700.32833697 </i>
    <i name="e_wo_entrp">   -700.31928531 </i>
    <i name="e_0_energy">   -700.32381114 </i>
   </energy>
  </scstep>
  <scstep>
   <time name="diag">    0.24    0.24</time>
   <time name="diis">    2.69    2.69</time>
   <time name="orth">    0.03    0.03</time>
   <time name="total">    3.35    3.35</time>
   <energy>
    <i name="e_fr_energy">   -699.89185047 </i>
    <i name="e_wo_entrp">   -699.88378788 </i>
    <i name="e_0_energy">   -699.88781918 </i>
   </energy>
  </scstep>
  <scstep>
   <time name="diag">    0.24    0.24</time>
   <time name="diis">    2.74    2.74</time>
   <time name="orth">    0.03    0.03</time>
   <time name="total">    3.40    3.40</time>
   <energy>
    <i name="e_fr_energy">   -699.87123501 </i>
    <i name="e_wo_entrp">   -699.85636198 </i>
    <i name="e_0_energy">   -699.86379849 </i>
   </energy>
  </scstep>
  <scstep>
   <time name="diag">    0.24    0.24</time>
   <time name="diis">    2.94    2.94</time>
   <time name="orth">    0.03    0.03</time>
   <time name="total">    3.60    3.60</time>
   <energy>
    <i name="e_fr_energy">   -699.97442829 </i>
    <i name="e_wo_entrp">   -699.95438422 </i>
    <i name="e_0_energy">   -699.96440625 </i>
   </energy>
  </scstep>
  <scstep>
   <time name="diag">    0.24    0.24</time>
   <time name="diis">    2.56    2.56</time>
   <time name="orth">    0.03    0.03</time>
   <time name="total">    3.21    3.21</time>
   <energy>
    <i name="e_fr_energy">   -700.00038351 </i>
    <i name="e_wo_entrp">   -699.98924624 </i>
    <i name="e_0_energy">   -699.99481488 </i>
   </energy>
  </scstep>
  <scstep>
   <time name="diag">    0.24    0.24</time>
   <time name="diis">    2.76    2.76</time>
   <time name="orth">    0.03    0.03</time>
   <time name="total">    3.42    3.43</time>
   <energy>
    <i name="e_fr_energy">   -700.00777429 </i>
    <i name="e_wo_entrp">   -699.99161977 </i>
    <i name="e_0_energy">   -699.99969703 </i>
   </energy>
  </scstep>
  <scstep>
   <time name="diag">    0.24    0.24</time>
   <time name="diis">    2.53    2.53</time>
   <time name="orth">    0.03    0.03</time>
   <time name="total">    3.20    3.20</time>
   <energy>
    <i name="e_fr_energy">   -700.00094043 </i>
    <i name="e_wo_entrp">   -699.98624816 </i>
    <i name="e_0_energy">   -699.99359429 </i>
   </energy>
  </scstep>
  <scstep>
   <time name="diag">    0.24    0.24</time>
   <time name="diis">    2.87    2.87</time>
   <time name="orth">    0.03    0.03</time>
   <time name="total">    3.54    3.54</time>
   <energy>
    <i name="e_fr_energy">   -700.00168572 </i>
    <i name="e_wo_entrp">   -699.98666971 </i>
    <i name="e_0_energy">   -699.99417771 </i>
   </energy>
  </scstep>
  <scstep>
   <time name="diag">    0.24    0.24</time>
   <time name="diis">    2.41    2.41</time>
   <time name="orth">    0.03    0.03</time>
   <time name="total">    3.08    3.08</time>
   <energy>
    <i name="e_fr_energy">   -700.00225244 </i>
    <i name="e_wo_entrp">   -699.98782874 </i>
    <i name="e_0_energy">   -699.99504059 </i>
   </energy>
  </scstep>
  <scstep>
   <time name="diag">    0.24    0.24</time>
   <time name="diis">    2.53    2.53</time>
   <time name="orth">    0.03    0.03</time>
   <time name="total">    3.19    3.20</time>
   <energy>
    <i name="e_fr_energy">   -700.00228061 </i>
    <i name="e_wo_entrp">   -699.98768864 </i>
    <i name="e_0_energy">   -699.99498462 </i>
   </energy>
  </scstep>
  <scstep>
   <time name="diag">    0.24    0.24</time>
   <time name="diis">    2.03    2.03</time>
   <time name="orth">    0.03    0.03</time>
   <time name="total">    2.70    2.70</time>
   <energy>
    <i name="e_fr_energy">   -700.00240369 </i>
    <i name="e_wo_entrp">   -699.98717431 </i>
    <i name="e_0_energy">   -699.99478900 </i>
   </energy>
  </scstep>
  <scstep>
   <time name="diag">    0.24    0.24</time>
   <time name="diis">    1.80    1.80</time>
   <time name="orth">    0.03    0.03</time>
   <time name="total">    2.47    2.47</time>
   <energy>
    <i name="e_fr_energy">   -700.00245250 </i>
    <i name="e_wo_entrp">   -699.98740218 </i>
    <i name="e_0_energy">   -699.99492734 </i>
   </energy>
  </scstep>
  <scstep>
   <time name="diag">    0.24    0.24</time>
   <time name="diis">    1.83    1.83</time>
   <time name="orth">    0.03    0.03</time>
   <time name="total">    2.51    2.51</time>
   <energy>
    <i name="e_fr_energy">   -700.00247949 </i>
    <i name="e_wo_entrp">   -699.98737362 </i>
    <i name="e_0_energy">   -699.99492656 </i>
   </energy>
  </scstep>
  <scstep>
   <time name="diag">    0.24    0.24</time>
   <time name="diis">    1.17    1.17</time>
   <time name="orth">    0.03    0.03</time>
   <time name="total">    1.84    1.85</time>
   <energy>
    <i name="e_fr_energy">   -700.00249151 </i>
    <i name="e_wo_entrp">   -699.98740038 </i>
    <i name="e_0_energy">   -699.99494594 </i>
   </energy>
  </scstep>
  <scstep>
   <time name="diag">    0.24    0.24</time>
   <time name="diis">    1.09    1.09</time>
   <time name="orth">    0.03    0.03</time>
   <time name="total">    1.47    1.47</time>
   <energy>
    <i name="alphaZ">   5376.25786726 </i>
    <i name="ewald"> -86106.92775223 </i>
    <i name="hartreedc"> -34269.67541482 </i>
    <i name="XCdc">   4137.52671456 </i>
    <i name="pawpsdc"> 117898.10902493 </i>
    <i name="pawaedc">-133948.06361877 </i>
    <i name="eentropy">     -0.01505798 </i>
    <i name="bandstr">  -5654.20703700 </i>
    <i name="atom"> 131866.99277783 </i>
    <i name="e_fr_energy">   -700.00249622 </i>
    <i name="e_wo_entrp">   -699.98743825 </i>
    <i name="e_0_energy">   -699.99496723 </i>
   </energy>
  </scstep>
  <structure>
   <crystal>
    <varray name="basis" >
     <v>       0.00000000      12.28047342       0.00000000 </v>
     <v>       9.14270205       0.00000000       0.00000000 </v>
     <v>       0.00000000      -2.76826177     -11.30069772 </v>
    </varray>
    <i name="volume">   1268.80515525 </i>
    <varray name="rec_basis" >
     <v>       0.00000000       0.08143009      -0.01994742 </v>
     <v>       0.10937686      -0.00000000       0.00000000 </v>
     <v>       0.00000000       0.00000000      -0.08849011 </v>
    </varray>
   </crystal>
   <varray name="positions" >
    <v>       0.66199441       0.00492180       0.16183641 </v>
    <v>       0.65884227       0.00080150       0.65667983 </v>
    <v>       0.66199441       0.32841154       0.16183641 </v>
    <v>       0.65884227       0.33253183       0.65667983 </v>
    <v>       0.65936294       0.66666667       0.15827909 </v>
    <v>       0.65896106       0.66666667       0.65713258 </v>
    <v>       0.84028750       0.16666667       0.84234244 </v>
    <v>       0.84082487       0.49445480       0.34229206 </v>
    <v>       0.84118836       0.50009075       0.84268666 </v>
    <v>       0.84082487       0.83887853       0.34229206 </v>
    <v>       0.84118836       0.83324259       0.84268666 </v>
    <v>       0.59466640       0.16666667       0.39492412 </v>
    <v>       0.59109213       0.16666667       0.89850937 </v>
    <v>       0.59089287       0.49917977       0.39673751 </v>
    <v>       0.59065544       0.49966968       0.89775999 </v>
    <v>       0.59089287       0.83415356       0.39673751 </v>
    <v>       0.59065544       0.83366366       0.89775999 </v>
    <v>       0.90552500      -0.00316200       0.10384090 </v>
    <v>       0.90674992      -0.00167096       0.59980782 </v>
    <v>       0.90552500       0.33649533       0.10384090 </v>
    <v>       0.90674992       0.33500430       0.59980782 </v>
    <v>       0.90895148       0.66666667       0.10315793 </v>
    <v>       0.90914185       0.66666667       0.60154576 </v>
    <v>       0.16115949       0.16666667       0.15623756 </v>
    <v>       0.15998418       0.16666667       0.65944627 </v>
    <v>       0.15822031       0.50139874       0.15667399 </v>
    <v>       0.15795547       0.50173162       0.65780359 </v>
    <v>       0.15822031       0.83193459       0.15667399 </v>
    <v>       0.15795547       0.83160172       0.65780359 </v>
    <v>       0.34324286      -0.00006921       0.34322376 </v>
    <v>       0.34201526      -0.00004395       0.84335876 </v>
    <v>       0.34324286       0.33340255       0.34322376 </v>
    <v>       0.34201526       0.33337729       0.84335876 </v>
[...]
       <r>   -10.6048     0.0000   142.0000 </r>
       <r>   -10.4928     0.0000   142.0000 </r>
       <r>   -10.3808     0.0000   142.0000 </r>
       <r>   -10.2688     0.0000   142.0000 </r>
       <r>   -10.1568     0.0000   142.0000 </r>
       <r>   -10.0448     0.0000   142.0000 </r>
       <r>    -9.9328     0.0000   142.0000 </r>
       <r>    -9.8207     0.0000   142.0000 </r>
       <r>    -9.7087     0.0000   142.0000 </r>
       <r>    -9.5967     0.0000   142.0000 </r>
       <r>    -9.4847     0.0131   142.0015 </r>
       <r>    -9.3727    10.5783   143.1863 </r>
       <r>    -9.2607    42.3813   147.9333 </r>
       <r>    -9.1487   134.2256   162.9675 </r>
       <r>    -9.0367   286.4580   195.0528 </r>
       <r>    -8.9247   562.3082   258.0352 </r>
       <r>    -8.8127   696.9783   336.1016 </r>
       <r>    -8.7007   635.2375   407.2525 </r>
       <r>    -8.5887   584.6445   472.7368 </r>
       <r>    -8.4767   419.4581   519.7190 </r>
       <r>    -8.3647   230.9603   545.5881 </r>
       <r>    -8.2527   153.3277   562.7619 </r>
       <r>    -8.1406    99.5680   573.9142 </r>
       <r>    -8.0286   104.8988   585.6636 </r>
       <r>    -7.9166   108.7463   597.8439 </r>
       <r>    -7.8046    90.8719   608.0222 </r>
       <r>    -7.6926    32.8624   611.7030 </r>
       <r>    -7.5806     2.6495   611.9998 </r>
       <r>    -7.4686     0.0019   612.0000 </r>
       <r>    -7.3566     0.0000   612.0000 </r>
       <r>    -7.2446     0.0000   612.0000 </r>
       <r>    -7.1326     0.0000   612.0000 </r>
       <r>    -7.0206     0.0000   612.0000 </r>
       <r>    -6.9086     0.0000   612.0000 </r>
       <r>    -6.7966     0.0000   612.0000 </r>
       <r>    -6.6846     0.0000   612.0000 </r>
       <r>    -6.5725     0.0000   612.0000 </r>
       <r>    -6.4605     0.0000   612.0000 </r>
       <r>    -6.3485     0.0000   612.0000 </r>
       <r>    -6.2365     0.0000   612.0000 </r>
       <r>    -6.1245     0.0000   612.0000 </r>
       <r>    -6.0125     0.0000   612.0000 </r>
       <r>    -5.9005     0.0000   612.0000 </r>
       <r>    -5.7885     0.0000   612.0000 </r>
       <r>    -5.6765     0.0000   612.0000 </r>
       <r>    -5.5645     0.0000   612.0000 </r>
       <r>    -5.4525     0.0000   612.0000 </r>
       <r>    -5.3405     0.0000   612.0000 </r>
       <r>    -5.2285     0.0000   612.0000 </r>
       <r>    -5.1165     0.0000   612.0000 </r>
       <r>    -5.0045     0.0106   612.0012 </r>
       <r>    -4.8924     8.1970   612.9193 </r>
       <r>    -4.7804     9.6273   613.9976 </r>
       <r>    -4.6684     0.0212   614.0000 </r>
       <r>    -4.5564     0.0000   614.0000 </r>
       <r>    -4.4444     0.0000   614.0000 </r>
       <r>    -4.3324     0.0000   614.0000 </r>
       <r>    -4.2204     0.0000   614.0000 </r>
       <r>    -4.1084     0.0000   614.0000 </r>
       <r>    -3.9964     0.0000   614.0000 </r>
       <r>    -3.8844     0.0000   614.0000 </r>
       <r>    -3.7724     0.0000   614.0000 </r>
       <r>    -3.6604     0.0000   614.0000 </r>
       <r>    -3.5484     0.0000   614.0000 </r>
       <r>    -3.4364     0.0000   614.0000 </r>
       <r>    -3.3243     0.0460   614.0052 </r>
       <r>    -3.2123     4.4775   614.5067 </r>
       <r>    -3.1003    12.4178   615.8975 </r>
       <r>    -2.9883    24.6120   618.6543 </r>
       <r>    -2.8763    25.8578   621.5505 </r>
       <r>    -2.7643    35.8613   625.5672 </r>
       <r>    -2.6523    29.3150   628.8507 </r>
       <r>    -2.5403    48.1429   634.2430 </r>
       <r>    -2.4283    41.6220   638.9050 </r>
       <r>    -2.3163    51.2157   644.6415 </r>
       <r>    -2.2043    61.3215   651.5099 </r>
       <r>    -2.0923    48.1022   656.8977 </r>
       <r>    -1.9803    40.4170   661.4247 </r>
       <r>    -1.8683    52.5634   667.3122 </r>
       <r>    -1.7563    46.7774   672.5516 </r>
       <r>    -1.6442    30.3091   675.9464 </r>
       <r>    -1.5322    32.1204   679.5441 </r>
       <r>    -1.4202    29.4375   682.8413 </r>
       <r>    -1.3082    38.5318   687.1571 </r>
       <r>    -1.1962    40.6832   691.7139 </r>
       <r>    -1.0842    40.7589   696.2792 </r>
       <r>    -0.9722    40.6365   700.8308 </r>
       <r>    -0.8602    34.0936   704.6495 </r>
       <r>    -0.7482    37.0958   708.8045 </r>
       <r>    -0.6362    42.8478   713.6037 </r>
       <r>    -0.5242    32.9358   717.2928 </r>
       <r>    -0.4122    40.2596   721.8021 </r>
       <r>    -0.3002    45.9366   726.9473 </r>
       <r>    -0.1882    45.6111   732.0561 </r>
       <r>    -0.0761    47.3108   737.3552 </r>
       <r>     0.0359    56.7010   743.7061 </r>
       <r>     0.1479    74.8997   752.0954 </r>
       <r>     0.2599    66.0436   759.4927 </r>
       <r>     0.3719    67.1289   767.0116 </r>
       <r>     0.4839    70.4592   774.9036 </r>
       <r>     0.5959    58.8379   781.4938 </r>
       <r>     0.7079    60.0236   788.2169 </r>
       <r>     0.8199    65.5669   795.5608 </r>
       <r>     0.9319    73.8563   803.8332 </r>
       <r>     1.0439    79.2109   812.7054 </r>
       <r>     1.1559    81.7439   821.8613 </r>
       <r>     1.2679    68.8963   829.5781 </r>
       <r>     1.3799    71.9772   837.6401 </r>
       <r>     1.4919    65.4892   844.9753 </r>
       <r>     1.6040    70.6310   852.8865 </r>
       <r>     1.7160    74.1688   861.1939 </r>
       <r>     1.8280    92.8585   871.5947 </r>
       <r>     1.9400    76.9478   880.2134 </r>
       <r>     2.0520    60.1812   886.9541 </r>
       <r>     2.1640    59.5603   893.6252 </r>
       <r>     2.2760    78.9695   902.4704 </r>
       <r>     2.3880    92.3521   912.8145 </r>
       <r>     2.5000    87.1495   922.5758 </r>
       <r>     2.6120   101.8604   933.9849 </r>
       <r>     2.7240    96.2291   944.7632 </r>
       <r>     2.8360   104.3761   956.4540 </r>
       <r>     2.9480   114.0715   969.2308 </r>
       <r>     3.0600   111.4510   981.7141 </r>
       <r>     3.1721   122.4058   995.4244 </r>
       <r>     3.2841   107.5753  1007.4736 </r>
       <r>     3.3961    85.2570  1017.0230 </r>
       <r>     3.5081    63.6254  1024.1494 </r>
       <r>     3.6201    40.1097  1028.6420 </r>
       <r>     3.7321    57.8297  1035.1193 </r>
       <r>     3.8441    25.2268  1037.9449 </r>
       <r>     3.9561     0.5332  1038.0046 </r>
       <r>     4.0681     1.8862  1038.2159 </r>
       <r>     4.1801     4.3501  1038.7031 </r>
       <r>     4.2921    10.5233  1039.8818 </r>
       <r>     4.4041     1.0548  1040.0000 </r>
       <r>     4.5161     0.0002  1040.0000 </r>
       <r>     4.6281     0.0000  1040.0000 </r>
       <r>     4.7401     0.0000  1040.0000 </r>
       <r>     4.8522     0.0000  1040.0000 </r>
       <r>     4.9642     0.0000  1040.0000 </r>
       <r>     5.0762     0.0000  1040.0000 </r>
       <r>     5.1882     0.0956  1040.0107 </r>
       <r>     5.3002     3.4488  1040.3970 </r>
       <r>     5.4122    11.0717  1041.6371 </r>
       <r>     5.5242     3.2367  1041.9996 </r>
       <r>     5.6362     0.0032  1042.0000 </r>
       <r>     5.7482     0.0000  1042.0000 </r>
       <r>     5.8602     0.0000  1042.0000 </r>
       <r>     5.9722     0.0000  1042.0000 </r>
       <r>     6.0842     0.0000  1042.0000 </r>
       <r>     6.1962     0.0609  1042.0068 </r>
       <r>     6.3082     1.9335  1042.2234 </r>
       <r>     6.4203     0.2376  1042.2500 </r>
       <r>     6.5323     0.0000  1042.2500 </r>
       <r>     6.6443     0.0000  1042.2500 </r>
       <r>     6.7563     0.0000  1042.2500 </r>
       <r>     6.8683     0.1375  1042.2654 </r>
       <r>     6.9803     2.7047  1042.5683 </r>
       <r>     7.0923     2.0784  1042.8011 </r>
       <r>     7.2043     5.4592  1043.4126 </r>
       <r>     7.3163     3.0283  1043.7518 </r>
       <r>     7.4283     3.1493  1044.1045 </r>
       <r>     7.5403     4.4793  1044.6062 </r>
       <r>     7.6523     2.4720  1044.8831 </r>
       <r>     7.7643     3.6030  1045.2867 </r>
       <r>     7.8763     5.8242  1045.9390 </r>
       <r>     7.9883     4.8793  1046.4856 </r>
       <r>     8.1004     5.7472  1047.1293 </r>
       <r>     8.2124     6.7655  1047.8871 </r>
       <r>     8.3244     6.6512  1048.6320 </r>
       <r>     8.4364     7.3659  1049.4571 </r>
       <r>     8.5484    14.1883  1051.0463 </r>
       <r>     8.6604    13.0376  1052.5066 </r>
       <r>     8.7724     7.7245  1053.3718 </r>
       <r>     8.8844    14.1110  1054.9523 </r>
       <r>     8.9964    12.3054  1056.3306 </r>
       <r>     9.1084    14.4598  1057.9502 </r>
       <r>     9.2204    18.1394  1059.9819 </r>
       <r>     9.3324    18.0104  1061.9992 </r>
       <r>     9.4444    28.5669  1065.1989 </r>
       <r>     9.5564    21.3529  1067.5906 </r>
       <r>     9.6685    33.2582  1071.3157 </r>
       <r>     9.7805    45.6623  1076.4302 </r>
       <r>     9.8925    38.1995  1080.7088 </r>
       <r>    10.0045    34.2209  1084.5418 </r>
       <r>    10.1165    40.8834  1089.1210 </r>
       <r>    10.2285    32.7379  1092.7879 </r>
       <r>    10.3405    36.7172  1096.9004 </r>
       <r>    10.4525    34.0195  1100.7109 </r>
       <r>    10.5645    39.4430  1105.1288 </r>
       <r>    10.6765    36.5190  1109.2191 </r>
       <r>    10.7885    35.9779  1113.2489 </r>
       <r>    10.9005    32.8571  1116.9291 </r>
       <r>    11.0125    26.5619  1119.9042 </r>
       <r>    11.1245    35.7203  1123.9052 </r>
       <r>    11.2365    45.9273  1129.0493 </r>
       <r>    11.3486    34.0484  1132.8630 </r>
       <r>    11.4606    36.2286  1136.9208 </r>
       <r>    11.5726    40.2741  1141.4318 </r>
       <r>    11.6846    37.3321  1145.6133 </r>
       <r>    11.7966    20.3897  1147.8971 </r>
       <r>    11.9086    16.3906  1149.7329 </r>
       <r>    12.0206    32.4536  1153.3680 </r>
       <r>    12.1326    25.4404  1156.2175 </r>
       <r>    12.2446    30.5249  1159.6365 </r>
       <r>    12.3566    46.0446  1164.7938 </r>
       <r>    12.4686    36.6028  1168.8935 </r>
       <r>    12.5806    40.5267  1173.4328 </r>
       <r>    12.6926    45.8588  1178.5693 </r>
       <r>    12.8046    36.6057  1182.6694 </r>
       <r>    12.9167    36.2156  1186.7258 </r>
       <r>    13.0287    32.9883  1190.4207 </r>
       <r>    13.1407    38.3145  1194.7122 </r>
       <r>    13.2527    37.0178  1198.8585 </r>
       <r>    13.3647    44.4882  1203.8414 </r>
       <r>    13.4767    49.7477  1209.4135 </r>
       <r>    13.5887    41.0925  1214.0162 </r>
       <r>    13.7007    42.2349  1218.7468 </r>
       <r>    13.8127    37.0376  1222.8952 </r>
       <r>    13.9247    34.0360  1226.7075 </r>
       <r>    14.0367    29.9057  1230.0572 </r>
       <r>    14.1487    29.6999  1233.3837 </r>
       <r>    14.2607    33.6378  1237.1514 </r>
       <r>    14.3727    32.1479  1240.7522 </r>
       <r>    14.4847    37.1050  1244.9082 </r>
       <r>    14.5968    35.1256  1248.8425 </r>
       <r>    14.7088    10.2706  1249.9929 </r>
       <r>    14.8208     0.0634  1250.0000 </r>
       <r>    14.9328     0.0000  1250.0000 </r>
       <r>    15.0448     0.0000  1250.0000 </r>
       <r>    15.1568     0.0000  1250.0000 </r>
       <r>    15.2688     0.0000  1250.0000 </r>
       <r>    15.3808     0.0000  1250.0000 </r>
       <r>    15.4928     0.0000  1250.0000 </r>
       <r>    15.6048     0.0000  1250.0000 </r>
       <r>    15.7168     0.0000  1250.0000 </r>
       <r>    15.8288     0.0000  1250.0000 </r>
       <r>    15.9408     0.0000  1250.0000 </r>
       <r>    16.0528     0.0000  1250.0000 </r>
       <r>    16.1649     0.0000  1250.0000 </r>
      </set>
     </set>
    </array>
   </total>
  </dos>
 </calculation>
 <structure name="finalpos" >
  <crystal>
   <varray name="basis" >
    <v>       0.00000000      12.28047342       0.00000000 </v>
    <v>       9.14270205       0.00000000       0.00000000 </v>
    <v>       0.00000000      -2.76826177     -11.30069772 </v>
   </varray>
   <i name="volume">   1268.80515525 </i>
   <varray name="rec_basis" >
    <v>       0.00000000       0.08143009      -0.01994742 </v>
    <v>       0.10937686      -0.00000000       0.00000000 </v>
    <v>       0.00000000       0.00000000      -0.08849011 </v>
   </varray>
  </crystal>
  <varray name="positions" >
   <v>       0.66321357      -0.00659390       0.15245181 </v>
   <v>       0.65955000      -0.00080395       0.65876011 </v>
   <v>       0.66321357       0.33992723       0.15245181 </v>
   <v>       0.65955000       0.33413729       0.65876011 </v>
   <v>       0.66006421       0.66666667       0.15587495 </v>
   <v>       0.66087404       0.66666667       0.65533275 </v>
   <v>       0.84187901       0.16666667       0.84601587 </v>
   <v>       0.84555697       0.50093069       0.33532998 </v>
   <v>       0.84266196       0.49988791       0.84377652 </v>
   <v>       0.84555697       0.83240264       0.33532998 </v>
   <v>       0.84266196       0.83344543       0.84377652 </v>
   <v>       0.59001836       0.16666667       0.40282926 </v>
   <v>       0.59198837       0.16666667       0.89999951 </v>
   <v>       0.59270907       0.50035921       0.39743955 </v>
   <v>       0.58930135       0.50130392       0.89411166 </v>
   <v>       0.59270907       0.83297412       0.39743955 </v>
   <v>       0.58930135       0.83202941       0.89411166 </v>
   <v>       0.91220035      -0.00125578       0.10364042 </v>
   <v>       0.91133059       0.00102406       0.60733915 </v>
   <v>       0.91220035       0.33458911       0.10364042 </v>
   <v>       0.91133059       0.33230927       0.60733915 </v>
   <v>       0.91223911       0.66666667       0.09961718 </v>
   <v>       0.90841506       0.66666667       0.60011346 </v>
   <v>       0.16225995       0.16666667       0.15856615 </v>
   <v>       0.16309913       0.16666667       0.65614853 </v>
   <v>       0.16163751       0.49954771       0.15836430 </v>
   <v>       0.15935447       0.49896695       0.65351962 </v>
   <v>       0.16163751       0.83378562       0.15836430 </v>
   <v>       0.15935447       0.83436638       0.65351962 </v>
   <v>       0.34108936      -0.00055026       0.34385220 </v>
   <v>       0.34151516      -0.00008400       0.84392570 </v>
   <v>       0.34108936       0.33388359       0.34385220 </v>
   <v>       0.34151516       0.33341734       0.84392570 </v>
   <v>       0.34213929       0.66666667       0.34411142 </v>
   <v>       0.33968096       0.66666667       0.84294240 </v>
   <v>       0.08721438       0.03119665       0.39582290 </v>
   <v>       0.09254864       0.00007140       0.89825922 </v>
   <v>       0.08721438       0.30213668       0.39582290 </v>
   <v>       0.09254864       0.33326194       0.89825922 </v>
   <v>       0.08743528       0.66666667       0.39554640 </v>
   <v>       0.09273250       0.66666667       0.89832225 </v>
   <v>       0.41295216       0.16666667       0.10396344 </v>
   <v>       0.41062371       0.16666667       0.60350137 </v>
   <v>       0.41185419       0.49923469       0.10349854 </v>
   <v>       0.40991758       0.50057387       0.60295293 </v>
   <v>       0.41185419       0.83409865       0.10349854 </v>
   <v>       0.40991758       0.83275946       0.60295293 </v>
   <v>       0.99774679       0.16666667       0.13760204 </v>
   <v>      -0.00172451       0.16666667       0.62276403 </v>
   <v>       0.99963215       0.50102925       0.12531981 </v>
   <v>       0.99501257       0.49927661       0.62469466 </v>
   <v>       0.99963215       0.83230409       0.12531981 </v>
   <v>       0.99501257       0.83405672       0.62469466 </v>
   <v>       0.50553325      -0.00008391       0.37202630 </v>
   <v>       0.50458761       0.00045929       0.87367445 </v>
   <v>       0.50553325       0.33341724       0.37202630 </v>
   <v>       0.50458761       0.33287404       0.87367445 </v>
   <v>       0.50556897       0.66666667       0.37321391 </v>
   <v>       0.50162285       0.66666667       0.86838905 </v>
   <v>       0.69125301       0.16666667       0.29846643 </v>
   <v>       0.67399468       0.16666667       0.78364100 </v>
   <v>       0.67558340       0.50092321       0.28170273 </v>
   <v>       0.67395078       0.50015197       0.78000216 </v>
   <v>       0.67558340       0.83241012       0.28170273 </v>
   <v>       0.67395078       0.83318136       0.78000216 </v>
   <v>       0.82407134      -0.01895989       0.21095237 </v>
   <v>       0.82812081       0.00093956       0.72089423 </v>
   <v>       0.82407134       0.35229323       0.21095237 </v>
   <v>       0.82812081       0.33239377       0.72089423 </v>
   <v>       0.83014428       0.66666667       0.21602386 </v>
   <v>       0.82851175       0.66666667       0.71839289 </v>
   <v>       0.82648019       0.01693656       0.44889008 </v>
   <v>       0.83458369      -0.00010410       0.94693956 </v>
   <v>       0.82648019       0.31639677       0.44889008 </v>
   <v>       0.83458369       0.33343743       0.94693956 </v>
   <v>       0.83750311       0.66666667       0.44148731 </v>
   <v>       0.83312026       0.66666667       0.94430125 </v>
   <v>       0.66840242       0.16666667       0.05824493 </v>
   <v>       0.66740092       0.16666667       0.55823143 </v>
   <v>       0.66513173       0.50447031       0.05000657 </v>
   <v>       0.67112488       0.49901778       0.55389486 </v>
   <v>       0.66513173       0.82886302       0.05000657 </v>
   <v>       0.67112488       0.83431555       0.55389486 </v>
   <v>       0.50191653       0.00050262       0.13111043 </v>
   <v>       0.49764149      -0.00064166       0.62853847 </v>
   <v>       0.50191653       0.33283072       0.13111043 </v>
   <v>       0.49764149       0.33397500       0.62853847 </v>
   <v>       0.49821932       0.66666667       0.12836278 </v>
   <v>       0.49866121       0.66666667       0.62706480 </v>
   <v>       0.00421700       0.16666667       0.87222737 </v>
   <v>       0.00639894       0.48741856       0.37466479 </v>
   <v>       0.00473898       0.49999153       0.87118102 </v>
   <v>       0.00639894       0.84591478       0.37466479 </v>
   <v>       0.00473898       0.83334180       0.87118102 </v>
   <v>       0.17507225      -0.00109547       0.27961065 </v>
   <v>       0.17363170       0.00039468       0.78101917 </v>
   <v>       0.17507225       0.33442880       0.27961065 </v>
   <v>       0.17363170       0.33293865       0.78101917 </v>
   <v>       0.17304752       0.66666667       0.28136279 </v>
   <v>       0.17247054       0.66666667       0.77935407 </v>
   <v>       0.33114916       0.16666667       0.22009209 </v>
   <v>       0.33024942       0.16666667       0.72131374 </v>
   <v>       0.33021702       0.50056226       0.22008038 </v>
   <v>       0.32797323       0.50018808       0.71950792 </v>
   <v>       0.33021702       0.83277108       0.22008038 </v>
   <v>       0.32797323       0.83314526       0.71950792 </v>
   <v>       0.33609632       0.16666667       0.44658815 </v>
   <v>       0.33558376       0.16666667       0.94759254 </v>
   <v>       0.33546562       0.50046277       0.44634693 </v>
   <v>       0.33461195       0.49954093       0.94691367 </v>
   <v>       0.33546562       0.83287057       0.44634693 </v>
   <v>       0.33461195       0.83379240       0.94691367 </v>
   <v>       0.16871185       0.00091429       0.05424312 </v>
   <v>       0.16881161      -0.00003739       0.55456553 </v>
   <v>       0.16871185       0.33241904       0.05424312 </v>
   <v>       0.16881161       0.33337073       0.55456553 </v>
   <v>       0.17027638       0.66666667       0.05456315 </v>
   <v>       0.16485107       0.66666667       0.55249993 </v>
   <v>      -0.16724657       0.16666667       0.36305175 </v>
  </varray>
 </structure>
</modeling>
