       N       E                     dE             d eps       ncg     rms          rms(c)
DAV:   1     0.216828071835E+05    0.21683E+05   -0.31755E+05 10000   0.280E+03
DAV:   2     0.480658597770E+04   -0.16876E+05   -0.15903E+05 10000   0.813E+02
DAV:   3    -0.142153620330E+03   -0.49487E+04   -0.46606E+04 12872   0.320E+02
DAV:   4    -0.760398209886E+03   -0.61824E+03   -0.60476E+03 12336   0.121E+02
DAV:   5    -0.804000978291E+03   -0.43603E+02   -0.43286E+02 14360   0.347E+01    0.610E+01
RMM:   6    -0.697001094669E+03    0.10700E+03   -0.38486E+02 13111   0.238E+01    0.254E+01
RMM:   7    -0.706460670319E+03   -0.94596E+01   -0.82107E+01 13866   0.102E+01    0.214E+01
RMM:   8    -0.699128107615E+03    0.73326E+01   -0.14053E+01 14628   0.490E+00    0.149E+01
RMM:   9    -0.697278455960E+03    0.18497E+01   -0.70089E+00 13869   0.292E+00    0.150E+01
RMM:  10    -0.704881317915E+03   -0.76029E+01   -0.77430E+00 12623   0.301E+00    0.258E+01
RMM:  11    -0.696478945617E+03    0.84024E+01   -0.31315E+00 13655   0.213E+00    0.607E+00
RMM:  12    -0.696474762124E+03    0.41835E-02   -0.99110E-01 13522   0.122E+00    0.592E+00
RMM:  13    -0.696174928311E+03    0.29983E+00   -0.48299E-01 13561   0.804E-01    0.544E+00
RMM:  14    -0.695713928891E+03    0.46100E+00   -0.16521E-01 14038   0.483E-01    0.386E+00
RMM:  15    -0.695521212249E+03    0.19272E+00   -0.94639E-02 14319   0.268E-01    0.302E+00
RMM:  16    -0.695419298362E+03    0.10191E+00   -0.41387E-02 13905   0.190E-01    0.249E+00
RMM:  17    -0.695310135680E+03    0.10916E+00   -0.65078E-02 13277   0.225E-01    0.152E+00
RMM:  18    -0.695355385417E+03   -0.45250E-01   -0.10182E-02 11882   0.138E-01    0.210E+00
RMM:  19    -0.695308337977E+03    0.47047E-01   -0.30777E-02 13908   0.186E-01    0.256E+00
RMM:  20    -0.695302582051E+03    0.57559E-02   -0.90378E-03 15065   0.119E-01    0.270E+00
RMM:  21    -0.695298532970E+03    0.40491E-02   -0.48397E-03 13326   0.688E-02    0.254E+00
RMM:  22    -0.695283885494E+03    0.14647E-01   -0.25901E-03 13263   0.581E-02    0.833E-01
RMM:  23    -0.695287955705E+03   -0.40702E-02   -0.78500E-04 12176   0.443E-02    0.763E-01
RMM:  24    -0.695288524923E+03   -0.56922E-03   -0.77255E-04 12639   0.346E-02    0.693E-01
RMM:  25    -0.695287622903E+03    0.90202E-03   -0.31929E-04 11232   0.209E-02    0.263E-01
RMM:  26    -0.695287764796E+03   -0.14189E-03   -0.90572E-05 10064   0.163E-02    0.915E-02
RMM:  27    -0.695287860757E+03   -0.95961E-04   -0.43714E-05  8733   0.123E-02    0.314E-02
RMM:  28    -0.695287883654E+03   -0.22897E-04   -0.12894E-05  6159   0.905E-03    0.226E-02
RMM:  29    -0.695287882594E+03    0.10598E-05   -0.45500E-06  5927   0.532E-03
   1 F= -.69528788E+03 E0= -.69527576E+03  d E =-.695288E+03
       N       E                     dE             d eps       ncg     rms          rms(c)
DAV:   1    -0.654631895035E+03    0.40656E+02   -0.54626E+03 11054   0.112E+02    0.140E+01
RMM:   2    -0.685426107401E+03   -0.30794E+02   -0.35392E+02 13959   0.327E+01    0.754E+00
RMM:   3    -0.685518501588E+03   -0.92394E-01   -0.62382E+01 15149   0.154E+01    0.715E+00
RMM:   4    -0.685275348887E+03    0.24315E+00   -0.12534E+01 16353   0.579E+00    0.659E+00
RMM:   5    -0.685275466011E+03   -0.11712E-03   -0.37379E+00 16607   0.260E+00    0.570E+00
RMM:   6    -0.685256930022E+03    0.18536E-01   -0.11113E+00 15295   0.144E+00    0.390E+00
RMM:   7    -0.684946226536E+03    0.31070E+00   -0.27790E+00 15106   0.215E+00    0.287E+00
RMM:   8    -0.685043021684E+03   -0.96795E-01   -0.11439E+00 15979   0.963E-01    0.307E+00
RMM:   9    -0.684962907896E+03    0.80114E-01   -0.19801E-01 15904   0.506E-01    0.252E+00
RMM:  10    -0.684896342044E+03    0.66566E-01   -0.94275E-02 16234   0.356E-01    0.200E+00
RMM:  11    -0.684860114153E+03    0.36228E-01   -0.81933E-01 15383   0.559E-01    0.782E-01
RMM:  12    -0.684922067694E+03   -0.61954E-01   -0.55039E-01 15199   0.361E-01    0.114E+00
RMM:  13    -0.684873251454E+03    0.48816E-01    0.17059E-01 16104   0.224E-01    0.977E-01
RMM:  14    -0.684893216781E+03   -0.19965E-01   -0.45583E-02 16049   0.168E-01    0.122E+00
RMM:  15    -0.684800930401E+03    0.92286E-01    0.25380E-01 15781   0.346E-01    0.684E-01
RMM:  16    -0.684772027180E+03    0.28903E-01    0.16910E-01 15327   0.163E-01    0.557E-01
RMM:  17    -0.684753061369E+03    0.18966E-01    0.18323E-01 14710   0.983E-02    0.610E-01
RMM:  18    -0.684748647416E+03    0.44140E-02    0.56296E-02 14706   0.114E-01    0.687E-01
RMM:  19    -0.684710720349E+03    0.37927E-01    0.17021E-01 17114   0.282E-01    0.529E-01
RMM:  20    -0.684713749156E+03   -0.30288E-02   -0.21669E-02 16381   0.204E-01    0.936E-01
RMM:  21    -0.684703549883E+03    0.10199E-01    0.70600E-02 14871   0.100E-01    0.101E+00
RMM:  22    -0.684696280285E+03    0.72696E-02    0.63338E-02 12961   0.726E-02    0.110E+00
RMM:  23    -0.684684041438E+03    0.12239E-01    0.90442E-02 12809   0.627E-02    0.113E+00
RMM:  24    -0.684684173000E+03   -0.13156E-03    0.41266E-02 12931   0.578E-02    0.121E+00
RMM:  25    -0.684673675589E+03    0.10497E-01    0.80099E-02  9299   0.431E-02    0.124E+00
RMM:  26    -0.684672234291E+03    0.14413E-02    0.38129E-02 11008   0.425E-02    0.130E+00
RMM:  27    -0.684673355703E+03   -0.11214E-02    0.40942E-02 12558   0.471E-02    0.137E+00
RMM:  28    -0.684666308059E+03    0.70476E-02    0.36508E-02  8871   0.323E-02    0.137E+00
RMM:  29    -0.684661189853E+03    0.51182E-02    0.36972E-02  7372   0.279E-02    0.139E+00
RMM:  30    -0.684667581968E+03   -0.63921E-02    0.20084E-02 12471   0.371E-02    0.146E+00
RMM:  31    -0.684674369732E+03   -0.67878E-02    0.79008E-03 13715   0.541E-02    0.153E+00
RMM:  32    -0.684673459093E+03    0.91064E-03    0.23241E-02 11474   0.297E-02    0.156E+00
RMM:  33    -0.684673047718E+03    0.41138E-03    0.10586E-02  8738   0.237E-02    0.157E+00
RMM:  34    -0.684670590276E+03    0.24574E-02    0.13501E-02  8239   0.229E-02    0.158E+00
RMM:  35    -0.684650459367E+03    0.20131E-01    0.92974E-03 13609   0.460E-02    0.147E+00
RMM:  36    -0.684651892568E+03   -0.14332E-02    0.12080E-02 10933   0.238E-02    0.149E+00
RMM:  37    -0.684646268118E+03    0.56244E-02    0.85422E-03 11545   0.250E-02    0.147E+00
RMM:  38    -0.684644523744E+03    0.17444E-02    0.11507E-02  9096   0.194E-02    0.147E+00
RMM:  39    -0.684643471820E+03    0.10519E-02    0.83710E-03  7138   0.169E-02    0.147E+00
RMM:  40    -0.684649834047E+03   -0.63622E-02    0.10489E-02 11283   0.234E-02    0.153E+00
RMM:  41    -0.684619902340E+03    0.29932E-01    0.12573E-02 14817   0.606E-02    0.135E+00
RMM:  42    -0.684603425443E+03    0.16477E-01   -0.11169E-02 14765   0.609E-02    0.121E+00
RMM:  43    -0.684586581799E+03    0.16844E-01    0.70434E-03 15105   0.626E-02    0.109E+00
RMM:  44    -0.684579636287E+03    0.69455E-02    0.42182E-03 13409   0.433E-02    0.104E+00
RMM:  45    -0.684569974077E+03    0.96622E-02    0.85931E-03 14229   0.508E-02    0.980E-01
RMM:  46    -0.684574158968E+03   -0.41849E-02    0.16477E-03 12360   0.345E-02    0.103E+00
RMM:  47    -0.684547004099E+03    0.27155E-01    0.38758E-02 16737   0.111E-01    0.843E-01
RMM:  48    -0.684540260018E+03    0.67441E-02   -0.22750E-02 15168   0.768E-02    0.733E-01
RMM:  49    -0.684537283440E+03    0.29766E-02    0.49380E-03 13243   0.455E-02    0.714E-01
RMM:  50    -0.684536934500E+03    0.34894E-03   -0.82695E-03 12924   0.370E-02    0.697E-01
RMM:  51    -0.684535769642E+03    0.11649E-02    0.35779E-03 12397   0.299E-02    0.688E-01
RMM:  52    -0.684535800535E+03   -0.30893E-04   -0.19380E-03 11678   0.231E-02    0.690E-01
RMM:  53    -0.684535964959E+03   -0.16442E-03    0.37285E-03 13404   0.355E-02    0.703E-01
RMM:  54    -0.684537756679E+03   -0.17917E-02   -0.91953E-04 12514   0.270E-02    0.728E-01
RMM:  55    -0.684535960452E+03    0.17962E-02    0.67500E-03 11405   0.199E-02    0.711E-01
RMM:  56    -0.684538448415E+03   -0.24880E-02   -0.10687E-04 12180   0.290E-02    0.745E-01
RMM:  57    -0.684537724901E+03    0.72351E-03    0.65121E-03 13912   0.454E-02    0.739E-01
RMM:  58    -0.684538516320E+03   -0.79142E-03   -0.34742E-03 11699   0.211E-02    0.750E-01
RMM:  59    -0.684538412950E+03    0.10337E-03    0.27881E-03 10025   0.148E-02    0.760E-01
RMM:  60    -0.684538263668E+03    0.14928E-03    0.84798E-04  7581   0.115E-02
   2 F= -.68453826E+03 E0= -.68452644E+03  d E =0.107496E+02
       N       E                     dE             d eps       ncg     rms          rms(c)
DAV:   1    -0.695585387934E+03   -0.11047E+02   -0.15037E+02 12938   0.143E+01    0.830E+00
RMM:   2    -0.698267439655E+03   -0.26821E+01   -0.41534E+01 14065   0.640E+00    0.669E+00
RMM:   3    -0.697608228161E+03    0.65921E+00   -0.76411E+00 14399   0.343E+00    0.371E+00
RMM:   4    -0.697474457693E+03    0.13377E+00   -0.24047E+00 14896   0.146E+00    0.327E+00
RMM:   5    -0.697461749523E+03    0.12708E-01   -0.23949E-01 14699   0.633E-01    0.135E+00
RMM:   6    -0.697443034640E+03    0.18715E-01   -0.60197E-02 15491   0.295E-01    0.109E+00
RMM:   7    -0.697417425571E+03    0.25609E-01   -0.34174E-02 13401   0.193E-01    0.824E-01
RMM:   8    -0.697412709307E+03    0.47163E-02   -0.29868E-02 13545   0.175E-01    0.922E-01
RMM:   9    -0.697411430585E+03    0.12787E-02   -0.99932E-03 14784   0.109E-01    0.462E-01
RMM:  10    -0.697413556204E+03   -0.21256E-02   -0.11284E-02 13361   0.889E-02    0.898E-01
RMM:  11    -0.697410830621E+03    0.27256E-02   -0.87745E-03 12963   0.690E-02    0.264E-01
RMM:  12    -0.697410995582E+03   -0.16496E-03   -0.51091E-03 11456   0.474E-02    0.154E-01
RMM:  13    -0.697411382948E+03   -0.38737E-03   -0.71402E-03  9897   0.374E-02    0.307E-02
RMM:  14    -0.697411878757E+03   -0.49581E-03   -0.56174E-03  8074   0.337E-02    0.250E-02
RMM:  15    -0.697412474203E+03   -0.59545E-03   -0.67600E-03  6635   0.315E-02    0.167E-02
RMM:  16    -0.697412982578E+03   -0.50838E-03   -0.58963E-03  6583   0.305E-02    0.354E-03
RMM:  17    -0.697413561807E+03   -0.57923E-03   -0.66033E-03  6568   0.304E-02    0.105E-02
RMM:  18    -0.697414089349E+03   -0.52754E-03   -0.61125E-03  6504   0.300E-02    0.173E-03
RMM:  19    -0.697414662437E+03   -0.57309E-03   -0.65845E-03  6454   0.294E-02    0.207E-03
RMM:  20    -0.697415208055E+03   -0.54562E-03   -0.63133E-03  6074   0.290E-02    0.575E-03
RMM:  21    -0.697415781595E+03   -0.57354E-03   -0.66486E-03  5420   0.285E-02    0.527E-03
RMM:  22    -0.697416335473E+03   -0.55388E-03   -0.64608E-03  5711   0.290E-02    0.598E-03
RMM:  23    -0.697416919292E+03   -0.58382E-03   -0.67662E-03  3643   0.285E-02    0.801E-03
RMM:  24    -0.697417486712E+03   -0.56742E-03   -0.66371E-03  4289   0.288E-02    0.918E-03
RMM:  25    -0.697418082179E+03   -0.59547E-03   -0.69224E-03  3631   0.288E-02    0.113E-02
RMM:  26    -0.697418665351E+03   -0.58317E-03   -0.68240E-03  3008   0.289E-02    0.132E-02
RMM:  27    -0.697419272328E+03   -0.60698E-03   -0.70953E-03  3460   0.291E-02    0.147E-02
RMM:  28    -0.697419868704E+03   -0.59638E-03   -0.70094E-03  3889   0.294E-02    0.164E-02
RMM:  29    -0.697420493065E+03   -0.62436E-03   -0.72997E-03  3092   0.295E-02    0.183E-02
RMM:  30    -0.697421106236E+03   -0.61317E-03   -0.72138E-03  2894   0.297E-02    0.203E-02
RMM:  31    -0.697421748444E+03   -0.64221E-03   -0.75238E-03  2832   0.299E-02    0.223E-02
RMM:  32    -0.697422380284E+03   -0.63184E-03   -0.74438E-03  2760   0.301E-02    0.243E-02
RMM:  33    -0.697423043164E+03   -0.66288E-03   -0.77739E-03  2714   0.303E-02    0.264E-02
RMM:  34    -0.697423694352E+03   -0.65119E-03   -0.76848E-03  2774   0.306E-02    0.284E-02
RMM:  35    -0.697424379206E+03   -0.68485E-03   -0.80403E-03  2763   0.308E-02    0.306E-02
RMM:  36    -0.697425050934E+03   -0.67173E-03   -0.79384E-03  2788   0.310E-02    0.327E-02
RMM:  37    -0.697425758797E+03   -0.70786E-03   -0.83222E-03  2806   0.313E-02    0.348E-02
RMM:  38    -0.697426452894E+03   -0.69410E-03   -0.82125E-03  2854   0.315E-02    0.369E-02
RMM:  39    -0.697427185539E+03   -0.73265E-03   -0.86217E-03  2890   0.318E-02    0.391E-02
RMM:  40    -0.697427903638E+03   -0.71810E-03   -0.85051E-03  2906   0.321E-02    0.413E-02
RMM:  41    -0.697428661896E+03   -0.75826E-03   -0.89307E-03  2908   0.323E-02    0.435E-02
RMM:  42    -0.697429406553E+03   -0.74466E-03   -0.88236E-03  2845   0.326E-02    0.457E-02
RMM:  43    -0.697430191677E+03   -0.78512E-03   -0.92532E-03  2874   0.328E-02    0.480E-02
RMM:  44    -0.697430964461E+03   -0.77278E-03   -0.91609E-03  2885   0.331E-02    0.503E-02
RMM:  45    -0.697431777924E+03   -0.81346E-03   -0.95939E-03  2849   0.333E-02    0.526E-02
RMM:  46    -0.697432580961E+03   -0.80304E-03   -0.95217E-03  2849   0.336E-02    0.549E-02
RMM:  47    -0.697433422617E+03   -0.84166E-03   -0.99479E-03  3065   0.339E-02    0.572E-02
RMM:  48    -0.697434257499E+03   -0.83488E-03   -0.98987E-03  2856   0.342E-02    0.596E-02
RMM:  49    -0.697435130992E+03   -0.87349E-03   -0.10316E-02  2898   0.345E-02    0.620E-02
RMM:  50    -0.697435999338E+03   -0.86835E-03   -0.10296E-02  2875   0.348E-02    0.645E-02
RMM:  51    -0.697436903716E+03   -0.90438E-03   -0.10690E-02  2909   0.350E-02    0.669E-02
RMM:  52    -0.697437802472E+03   -0.89876E-03   -0.10707E-02  3229   0.354E-02    0.691E-02
RMM:  53    -0.697438737827E+03   -0.93536E-03   -0.11067E-02  2930   0.357E-02    0.716E-02
RMM:  54    -0.697439676926E+03   -0.93910E-03   -0.11138E-02  2845   0.360E-02    0.742E-02
RMM:  55    -0.697440644550E+03   -0.96762E-03   -0.11460E-02  2879   0.363E-02    0.767E-02
RMM:  56    -0.697441620851E+03   -0.97630E-03   -0.11584E-02  2876   0.366E-02    0.793E-02
RMM:  57    -0.697442621155E+03   -0.10003E-02   -0.11874E-02  2958   0.369E-02    0.818E-02
RMM:  58    -0.697443636621E+03   -0.10155E-02   -0.12051E-02  2950   0.373E-02    0.844E-02
RMM:  59    -0.697444674567E+03   -0.10379E-02   -0.12314E-02  2960   0.376E-02    0.871E-02
RMM:  60    -0.697445731547E+03   -0.10570E-02   -0.12543E-02  2915   0.379E-02
   3 F= -.69744573E+03 E0= -.69743318E+03  d E =-.215785E+01
       N       E                     dE             d eps       ncg     rms          rms(c)
DAV:   1    -0.696660074520E+03    0.78460E+00   -0.52486E+02 10910   0.330E+01    0.621E+00
RMM:   2    -0.699476559086E+03   -0.28165E+01   -0.30943E+01 13626   0.107E+01    0.279E+00
RMM:   3    -0.700016206449E+03   -0.53965E+00   -0.64758E+00 15487   0.397E+00    0.342E+00
RMM:   4    -0.700010554730E+03    0.56517E-02   -0.84155E-01 15548   0.141E+00    0.254E+00
RMM:   5    -0.699993009618E+03    0.17545E-01   -0.16283E-01 15758   0.551E-01    0.205E+00
RMM:   6    -0.699947544669E+03    0.45465E-01   -0.13191E-01 12932   0.500E-01    0.585E-01
RMM:   7    -0.699943271088E+03    0.42736E-02   -0.47395E-02 13218   0.277E-01    0.581E-01
RMM:   8    -0.699940208494E+03    0.30626E-02   -0.96393E-03 14479   0.143E-01    0.300E-01
RMM:   9    -0.699939480570E+03    0.72792E-03   -0.52942E-03 14726   0.841E-02    0.877E-02
RMM:  10    -0.699939509981E+03   -0.29411E-04   -0.10460E-03 13669   0.416E-02    0.609E-02
RMM:  11    -0.699939521718E+03   -0.11737E-04   -0.44985E-04 12465   0.261E-02    0.157E-02
RMM:  12    -0.699939540369E+03   -0.18651E-04   -0.19334E-04 10749   0.164E-02    0.187E-02
RMM:  13    -0.699939539284E+03    0.10845E-05   -0.55484E-05  9607   0.105E-02
   4 F= -.69993954E+03 E0= -.69993042E+03  d E =-.249381E+01
       N       E                     dE             d eps       ncg     rms          rms(c)
DAV:   1    -0.699939938001E+03   -0.39763E-03   -0.33869E-02 11640   0.261E-01    0.293E-02
RMM:   2    -0.699940064756E+03   -0.12676E-03   -0.13861E-03 13438   0.725E-02    0.152E-02
RMM:   3    -0.699940088618E+03   -0.23861E-04   -0.29541E-04 13373   0.270E-02    0.161E-02
RMM:   4    -0.699940089267E+03   -0.64964E-06   -0.42813E-05  8639   0.123E-02
   5 F= -.69994009E+03 E0= -.69993093E+03  d E =-.249436E+01
       N       E                     dE             d eps       ncg     rms          rms(c)
DAV:   1    -0.698824938670E+03    0.11151E+01   -0.36054E+02 10928   0.283E+01    0.800E+00
RMM:   2    -0.700536328886E+03   -0.17114E+01   -0.18773E+01 13499   0.888E+00    0.206E+00
RMM:   3    -0.700967598288E+03   -0.43127E+00   -0.48050E+00 15560   0.353E+00    0.266E+00
RMM:   4    -0.700986614868E+03   -0.19017E-01   -0.65043E-01 15581   0.124E+00    0.243E+00
RMM:   5    -0.700984443378E+03    0.21715E-02   -0.12716E-01 15811   0.485E-01    0.202E+00
RMM:   6    -0.700964914674E+03    0.19529E-01   -0.51057E-02 13075   0.336E-01    0.588E-01
RMM:   7    -0.700965037645E+03   -0.12297E-03   -0.31192E-02 12902   0.247E-01    0.563E-01
RMM:   8    -0.700962990418E+03    0.20472E-02   -0.79998E-03 14059   0.132E-01    0.157E-01
RMM:   9    -0.700963075608E+03   -0.85190E-04   -0.20861E-03 15246   0.618E-02    0.114E-01
RMM:  10    -0.700963056226E+03    0.19382E-04   -0.66105E-04 13345   0.308E-02    0.258E-02
RMM:  11    -0.700963083340E+03   -0.27114E-04   -0.26795E-04 11845   0.190E-02    0.345E-02
RMM:  12    -0.700963076599E+03    0.67405E-05   -0.65268E-05  9782   0.127E-02
   6 F= -.70096308E+03 E0= -.70095433E+03  d E =-.102299E+01
       N       E                     dE             d eps       ncg     rms          rms(c)
DAV:   1    -0.700866900586E+03    0.96183E-01   -0.44834E+01 11544   0.976E+00    0.287E+00
RMM:   2    -0.701055595119E+03   -0.18869E+00   -0.19955E+00 13474   0.285E+00    0.218E+00
RMM:   3    -0.701040375593E+03    0.15220E-01   -0.51229E-01 15492   0.112E+00    0.760E-01
RMM:   4    -0.701040515797E+03   -0.14020E-03   -0.69634E-02 15537   0.402E-01    0.365E-01
RMM:   5    -0.701040007216E+03    0.50858E-03   -0.14607E-02 15602   0.168E-01    0.245E-01
RMM:   6    -0.701039287777E+03    0.71944E-03   -0.46989E-03 14630   0.873E-02    0.106E-01
RMM:   7    -0.701039274330E+03    0.13447E-04   -0.15338E-03 14054   0.506E-02    0.327E-02
RMM:   8    -0.701039308960E+03   -0.34629E-04   -0.39646E-04 11753   0.249E-02    0.184E-02
RMM:   9    -0.701039318495E+03   -0.95357E-05   -0.12742E-04 10282   0.134E-02    0.749E-03
RMM:  10    -0.701039322286E+03   -0.37907E-05   -0.42480E-05  8923   0.813E-03
   7 F= -.70103932E+03 E0= -.70102875E+03  d E =-.109923E+01
       N       E                     dE             d eps       ncg     rms          rms(c)
DAV:   1    -0.700468021320E+03    0.57130E+00   -0.34936E+02 10431   0.266E+01    0.118E+01
RMM:   2    -0.702108126053E+03   -0.16401E+01   -0.18868E+01 13896   0.808E+00    0.271E+00
RMM:   3    -0.702468486935E+03   -0.36036E+00   -0.43431E+00 15654   0.303E+00    0.216E+00
RMM:   4    -0.702486721285E+03   -0.18234E-01   -0.52786E-01 15637   0.108E+00    0.153E+00
RMM:   5    -0.702479478900E+03    0.72424E-02   -0.11932E-01 15295   0.480E-01    0.299E-01
RMM:   6    -0.702481131563E+03   -0.16527E-02   -0.34048E-02 14634   0.238E-01    0.190E-01
RMM:   7    -0.702481809850E+03   -0.67829E-03   -0.97856E-03 15511   0.119E-01    0.103E-01
RMM:   8    -0.702482064150E+03   -0.25430E-03   -0.33340E-03 13915   0.576E-02    0.411E-02
RMM:   9    -0.702482117568E+03   -0.53417E-04   -0.91938E-04 12764   0.328E-02    0.211E-02
RMM:  10    -0.702482148541E+03   -0.30973E-04   -0.35300E-04 10652   0.180E-02    0.127E-02
RMM:  11    -0.702482156982E+03   -0.84408E-05   -0.10594E-04  9831   0.113E-02    0.241E-03
RMM:  12    -0.702482160903E+03   -0.39214E-05   -0.45305E-05  8390   0.697E-03
   8 F= -.70248216E+03 E0= -.70247751E+03  d E =-.144284E+01
       N       E                     dE             d eps       ncg     rms          rms(c)
DAV:   1    -0.702438668055E+03    0.43489E-01   -0.35200E+01 11056   0.831E+00    0.211E+00
RMM:   2    -0.702587772687E+03   -0.14910E+00   -0.17389E+00 13633   0.240E+00    0.835E-01
RMM:   3    -0.702615211608E+03   -0.27439E-01   -0.36300E-01 15604   0.881E-01    0.605E-01
RMM:   4    -0.702617981802E+03   -0.27702E-02   -0.52877E-02 15701   0.326E-01    0.286E-01
RMM:   5    -0.702617851516E+03    0.13029E-03   -0.11441E-02 15605   0.142E-01    0.802E-02
RMM:   6    -0.702618051634E+03   -0.20012E-03   -0.28650E-03 14241   0.696E-02    0.327E-02
RMM:   7    -0.702618119892E+03   -0.68258E-04   -0.83328E-04 13746   0.355E-02    0.169E-02
RMM:   8    -0.702618140037E+03   -0.20145E-04   -0.25426E-04 10700   0.179E-02    0.470E-03
RMM:   9    -0.702618146631E+03   -0.65947E-05   -0.83762E-05  9899   0.103E-02
   9 F= -.70261815E+03 E0= -.70261333E+03  d E =-.157882E+01
       N       E                     dE             d eps       ncg     rms          rms(c)
DAV:   1    -0.701388080358E+03    0.12301E+01   -0.28195E+02 10552   0.246E+01    0.927E+00
RMM:   2    -0.702708606008E+03   -0.13205E+01   -0.15571E+01 13722   0.790E+00    0.273E+00
RMM:   3    -0.702967237917E+03   -0.25863E+00   -0.33204E+00 15642   0.298E+00    0.137E+00
RMM:   4    -0.702997488747E+03   -0.30251E-01   -0.50400E-01 15723   0.110E+00    0.915E-01
RMM:   5    -0.702997300341E+03    0.18841E-03   -0.10111E-01 15453   0.474E-01    0.287E-01
RMM:   6    -0.702999496545E+03   -0.21962E-02   -0.27751E-02 15570   0.221E-01    0.118E-01
RMM:   7    -0.703000078374E+03   -0.58183E-03   -0.70246E-03 15360   0.101E-01    0.505E-02
RMM:   8    -0.703000276316E+03   -0.19794E-03   -0.23728E-03 13311   0.528E-02    0.197E-02
RMM:   9    -0.703000335863E+03   -0.59546E-04   -0.71388E-04 12687   0.283E-02    0.111E-02
RMM:  10    -0.703000357314E+03   -0.21452E-04   -0.26071E-04 10331   0.164E-02    0.457E-03
RMM:  11    -0.703000364446E+03   -0.71319E-05   -0.86500E-05  9448   0.971E-03
  10 F= -.70300036E+03 E0= -.70299452E+03  d E =-.382218E+00
       N       E                     dE             d eps       ncg     rms          rms(c)
DAV:   1    -0.702973554480E+03    0.26803E-01   -0.26394E+01 10520   0.750E+00    0.141E+00
RMM:   2    -0.703079827838E+03   -0.10627E+00   -0.12615E+00 13779   0.220E+00    0.924E-01
RMM:   3    -0.703100991019E+03   -0.21163E-01   -0.26424E-01 15485   0.803E-01    0.681E-01
RMM:   4    -0.703101916515E+03   -0.92550E-03   -0.36471E-02 15390   0.299E-01    0.173E-01
RMM:   5    -0.703102586450E+03   -0.66994E-03   -0.88317E-03 15710   0.131E-01    0.532E-02
RMM:   6    -0.703102728504E+03   -0.14205E-03   -0.20259E-03 15349   0.614E-02    0.370E-02
RMM:   7    -0.703102760468E+03   -0.31964E-04   -0.57434E-04 12755   0.305E-02    0.147E-02
RMM:   8    -0.703102772277E+03   -0.11809E-04   -0.16448E-04 10763   0.167E-02    0.553E-03
RMM:   9    -0.703102776893E+03   -0.46166E-05   -0.59257E-05  9361   0.104E-02
  11 F= -.70310278E+03 E0= -.70309699E+03  d E =-.484630E+00
       N       E                     dE             d eps       ncg     rms          rms(c)
DAV:   1    -0.702146288593E+03    0.95648E+00   -0.30310E+02 10648   0.254E+01    0.448E+00
RMM:   2    -0.703543263963E+03   -0.13970E+01   -0.15192E+01 13744   0.767E+00    0.188E+00
RMM:   3    -0.703803603352E+03   -0.26034E+00   -0.32278E+00 15431   0.284E+00    0.157E+00
RMM:   4    -0.703817264164E+03   -0.13661E-01   -0.36213E-01 15574   0.978E-01    0.104E+00
RMM:   5    -0.703808836428E+03    0.84277E-02   -0.91320E-02 14885   0.450E-01    0.202E-01
RMM:   6    -0.703809685336E+03   -0.84891E-03   -0.19279E-02 14903   0.208E-01    0.100E-01
RMM:   7    -0.703810018910E+03   -0.33357E-03   -0.55472E-03 15272   0.959E-02    0.562E-02
RMM:   8    -0.703810116225E+03   -0.97315E-04   -0.13733E-03 13418   0.464E-02    0.253E-02
RMM:   9    -0.703810154888E+03   -0.38663E-04   -0.46650E-04 11948   0.251E-02    0.913E-03
RMM:  10    -0.703810168510E+03   -0.13623E-04   -0.15116E-04 10275   0.143E-02    0.420E-03
RMM:  11    -0.703810173053E+03   -0.45426E-05   -0.52827E-05  9312   0.888E-03
  12 F= -.70381017E+03 E0= -.70380403E+03  d E =-.707396E+00
       N       E                     dE             d eps       ncg     rms          rms(c)
DAV:   1    -0.703810037848E+03    0.13066E-03   -0.78816E-02 11304   0.408E-01    0.787E-02
RMM:   2    -0.703810339402E+03   -0.30155E-03   -0.33483E-03 13584   0.113E-01    0.268E-02
RMM:   3    -0.703810391077E+03   -0.51675E-04   -0.67005E-04 14878   0.416E-02    0.171E-02
RMM:   4    -0.703810393132E+03   -0.20547E-05   -0.89672E-05 11520   0.164E-02
  13 F= -.70381039E+03 E0= -.70380426E+03  d E =-.707616E+00
       N       E                     dE             d eps       ncg     rms          rms(c)
DAV:   1    -0.703619559237E+03    0.19083E+00   -0.12566E+02 10952   0.170E+01    0.190E+00
RMM:   2    -0.704124500947E+03   -0.50494E+00   -0.53409E+00 13931   0.499E+00    0.689E-01
RMM:   3    -0.704229185976E+03   -0.10469E+00   -0.11458E+00 15169   0.181E+00    0.612E-01
RMM:   4    -0.704236136797E+03   -0.69508E-02   -0.13665E-01 15554   0.614E-01    0.443E-01
RMM:   5    -0.704232568208E+03    0.35686E-02   -0.31887E-02 14816   0.274E-01    0.119E-01
RMM:   6    -0.704232916075E+03   -0.34787E-03   -0.61536E-03 15326   0.120E-01    0.908E-02
RMM:   7    -0.704232911450E+03    0.46255E-05   -0.18928E-03 14759   0.569E-02    0.353E-02
RMM:   8    -0.704232928128E+03   -0.16678E-04   -0.44324E-04 13041   0.287E-02    0.184E-02
RMM:   9    -0.704232934705E+03   -0.65777E-05   -0.15505E-04 10605   0.164E-02    0.589E-03
RMM:  10    -0.704232938642E+03   -0.39371E-05   -0.47663E-05  9282   0.994E-03
  14 F= -.70423294E+03 E0= -.70422875E+03  d E =-.422546E+00
       N       E                     dE             d eps       ncg     rms          rms(c)
DAV:   1    -0.703972749742E+03    0.26018E+00   -0.75277E+01 11008   0.132E+01    0.141E+00
RMM:   2    -0.704273598345E+03   -0.30085E+00   -0.31847E+00 13926   0.378E+00    0.524E-01
RMM:   3    -0.704335741830E+03   -0.62143E-01   -0.67915E-01 15185   0.138E+00    0.475E-01
RMM:   4    -0.704339791457E+03   -0.40496E-02   -0.79153E-02 15574   0.468E-01    0.350E-01
RMM:   5    -0.704337589208E+03    0.22022E-02   -0.19664E-02 14734   0.214E-01    0.101E-01
RMM:   6    -0.704337795718E+03   -0.20651E-03   -0.38757E-03 15531   0.949E-02    0.763E-02
RMM:   7    -0.704337778460E+03    0.17259E-04   -0.12140E-03 14637   0.447E-02    0.286E-02
RMM:   8    -0.704337788931E+03   -0.10471E-04   -0.28571E-04 12339   0.232E-02    0.172E-02
RMM:   9    -0.704337791194E+03   -0.22633E-05   -0.10006E-04 10065   0.136E-02    0.545E-03
RMM:  10    -0.704337793568E+03   -0.23738E-05   -0.31401E-05  8815   0.841E-03
  15 F= -.70433779E+03 E0= -.70433686E+03  d E =-.527400E+00
       N       E                     dE             d eps       ncg     rms          rms(c)
DAV:   1    -0.704181284771E+03    0.15651E+00   -0.11109E+02 11440   0.157E+01    0.137E+00
RMM:   2    -0.704558117155E+03   -0.37683E+00   -0.39912E+00 13471   0.436E+00    0.572E-01
RMM:   3    -0.704653042472E+03   -0.94925E-01   -0.10008E+00 15048   0.167E+00    0.526E-01
RMM:   4    -0.704661345267E+03   -0.83028E-02   -0.11975E-01 15448   0.559E-01    0.408E-01
RMM:   5    -0.704658702460E+03    0.26428E-02   -0.25404E-02 14821   0.242E-01    0.113E-01
RMM:   6    -0.704659067843E+03   -0.36538E-03   -0.55017E-03 14254   0.114E-01    0.110E-01
RMM:   7    -0.704658962246E+03    0.10560E-03   -0.20148E-03 14449   0.607E-02    0.326E-02
RMM:   8    -0.704658986625E+03   -0.24379E-04   -0.41107E-04 13105   0.284E-02    0.278E-02
RMM:   9    -0.704658980946E+03    0.56794E-05   -0.13156E-04 10549   0.157E-02    0.686E-03
RMM:  10    -0.704658984307E+03   -0.33610E-05   -0.43548E-05  8898   0.905E-03
  16 F= -.70465898E+03 E0= -.70465893E+03  d E =-.321191E+00
       N       E                     dE             d eps       ncg     rms          rms(c)
DAV:   1    -0.704155418167E+03    0.50356E+00   -0.15384E+02 11328   0.178E+01    0.161E+00
RMM:   2    -0.704660289562E+03   -0.50487E+00   -0.53422E+00 13373   0.503E+00    0.659E-01
RMM:   3    -0.704798858652E+03   -0.13857E+00   -0.14607E+00 15133   0.198E+00    0.616E-01
RMM:   4    -0.704811247030E+03   -0.12388E-01   -0.17341E-01 15408   0.661E-01    0.469E-01
RMM:   5    -0.704807908639E+03    0.33384E-02   -0.34681E-02 14968   0.288E-01    0.124E-01
RMM:   6    -0.704808495967E+03   -0.58733E-03   -0.84529E-03 14058   0.140E-01    0.128E-01
RMM:   7    -0.704808379353E+03    0.11661E-03   -0.29522E-03 14574   0.746E-02    0.377E-02
RMM:   8    -0.704808420525E+03   -0.41172E-04   -0.63063E-04 13453   0.338E-02    0.332E-02
RMM:   9    -0.704808412232E+03    0.82932E-05   -0.19285E-04 11065   0.188E-02    0.714E-03
RMM:  10    -0.704808417822E+03   -0.55900E-05   -0.65649E-05  9255   0.105E-02
  17 F= -.70480842E+03 E0= -.70480842E+03  d E =-.470624E+00
       N       E                     dE             d eps       ncg     rms          rms(c)
DAV:   1    -0.704516688610E+03    0.29172E+00   -0.13064E+02 11176   0.165E+01    0.183E+00
RMM:   2    -0.704959159798E+03   -0.44247E+00   -0.47121E+00 13461   0.470E+00    0.725E-01
RMM:   3    -0.705078196549E+03   -0.11904E+00   -0.12760E+00 15277   0.185E+00    0.566E-01
RMM:   4    -0.705088097083E+03   -0.99005E-02   -0.14902E-01 15480   0.621E-01    0.394E-01
RMM:   5    -0.705086311187E+03    0.17859E-02   -0.28925E-02 15051   0.268E-01    0.918E-02
RMM:   6    -0.705086805137E+03   -0.49395E-03   -0.66223E-03 14821   0.125E-01    0.722E-02
RMM:   7    -0.705086880784E+03   -0.75647E-04   -0.18843E-03 14892   0.592E-02    0.286E-02
RMM:   8    -0.705086910549E+03   -0.29765E-04   -0.44922E-04 12204   0.268E-02    0.202E-02
RMM:   9    -0.705086915042E+03   -0.44924E-05   -0.15515E-04 10562   0.161E-02    0.560E-03
RMM:  10    -0.705086919062E+03   -0.40198E-05   -0.51495E-05  9313   0.926E-03
  18 F= -.70508692E+03 E0= -.70508692E+03  d E =-.278501E+00
       N       E                     dE             d eps       ncg     rms          rms(c)
DAV:   1    -0.704921749342E+03    0.16517E+00   -0.50804E+01 11536   0.102E+01    0.116E+00
RMM:   2    -0.705090520131E+03   -0.16877E+00   -0.17949E+00 13408   0.285E+00    0.446E-01
RMM:   3    -0.705136870513E+03   -0.46350E-01   -0.49869E-01 15278   0.113E+00    0.346E-01
RMM:   4    -0.705140485548E+03   -0.36150E-02   -0.55435E-02 15412   0.376E-01    0.238E-01
RMM:   5    -0.705139861486E+03    0.62406E-03   -0.11224E-02 14825   0.167E-01    0.605E-02
RMM:   6    -0.705140052730E+03   -0.19124E-03   -0.26596E-03 15454   0.770E-02    0.422E-02
RMM:   7    -0.705140080806E+03   -0.28076E-04   -0.65852E-04 14399   0.338E-02    0.178E-02
RMM:   8    -0.705140089891E+03   -0.90842E-05   -0.16638E-04 10884   0.182E-02    0.979E-03
RMM:   9    -0.705140092801E+03   -0.29108E-05   -0.59915E-05  9645   0.107E-02
  19 F= -.70514009E+03 E0= -.70514009E+03  d E =-.331675E+00
       N       E                     dE             d eps       ncg     rms          rms(c)
DAV:   1    -0.704976699088E+03    0.16339E+00   -0.72123E+01 10856   0.125E+01    0.172E+00
RMM:   2    -0.705227477429E+03   -0.25078E+00   -0.27562E+00 13387   0.349E+00    0.635E-01
RMM:   3    -0.705288825811E+03   -0.61348E-01   -0.68252E-01 15403   0.136E+00    0.483E-01
RMM:   4    -0.705293062412E+03   -0.42366E-02   -0.78449E-02 15502   0.459E-01    0.316E-01
RMM:   5    -0.705292033742E+03    0.10287E-02   -0.17901E-02 14806   0.208E-01    0.737E-02
RMM:   6    -0.705292325862E+03   -0.29212E-03   -0.41322E-03 15268   0.980E-02    0.482E-02
RMM:   7    -0.705292402477E+03   -0.76615E-04   -0.11970E-03 15085   0.446E-02    0.206E-02
RMM:   8    -0.705292422432E+03   -0.19956E-04   -0.29250E-04 11199   0.217E-02    0.790E-03
RMM:   9    -0.705292430821E+03   -0.83892E-05   -0.10863E-04 10104   0.126E-02    0.400E-03
RMM:  10    -0.705292433217E+03   -0.23960E-05   -0.34310E-05  8736   0.770E-03
  20 F= -.70529243E+03 E0= -.70529243E+03  d E =-.152340E+00
       N       E                     dE             d eps       ncg     rms          rms(c)
DAV:   1    -0.705236217411E+03    0.56213E-01   -0.18809E+01 11432   0.636E+00    0.874E-01
RMM:   2    -0.705299288340E+03   -0.63071E-01   -0.69203E-01 13329   0.174E+00    0.331E-01
RMM:   3    -0.705314267828E+03   -0.14979E-01   -0.16868E-01 15396   0.674E-01    0.248E-01
RMM:   4    -0.705315282830E+03   -0.10150E-02   -0.19336E-02 15474   0.227E-01    0.159E-01
RMM:   5    -0.705315059294E+03    0.22354E-03   -0.45185E-03 14757   0.103E-01    0.384E-02
RMM:   6    -0.705315130949E+03   -0.71655E-04   -0.10420E-03 15161   0.486E-02    0.246E-02
RMM:   7    -0.705315149530E+03   -0.18581E-04   -0.30498E-04 12579   0.223E-02    0.104E-02
RMM:   8    -0.705315154323E+03   -0.47929E-05   -0.81045E-05  9855   0.133E-02
  21 F= -.70531515E+03 E0= -.70531515E+03  d E =-.175062E+00
       N       E                     dE             d eps       ncg     rms          rms(c)
DAV:   1    -0.705122867345E+03    0.19228E+00   -0.81471E+01 10582   0.131E+01    0.178E+00
RMM:   2    -0.705404055027E+03   -0.28119E+00   -0.31125E+00 13290   0.360E+00    0.597E-01
RMM:   3    -0.705471664305E+03   -0.67609E-01   -0.73477E-01 15399   0.141E+00    0.518E-01
RMM:   4    -0.705476726620E+03   -0.50623E-02   -0.83416E-02 15486   0.471E-01    0.376E-01
RMM:   5    -0.705475338130E+03    0.13885E-02   -0.20169E-02 14354   0.219E-01    0.928E-02
RMM:   6    -0.705475666227E+03   -0.32810E-03   -0.47447E-03 14871   0.107E-01    0.654E-02
RMM:   7    -0.705475737824E+03   -0.71597E-04   -0.14971E-03 14681   0.500E-02    0.233E-02
RMM:   8    -0.705475763480E+03   -0.25656E-04   -0.33262E-04 12148   0.253E-02    0.825E-03
RMM:   9    -0.705475773980E+03   -0.10500E-04   -0.12174E-04 10068   0.132E-02    0.498E-03
RMM:  10    -0.705475776604E+03   -0.26245E-05   -0.37014E-05  8743   0.819E-03
  22 F= -.70547578E+03 E0= -.70547578E+03  d E =-.160622E+00
       N       E                     dE             d eps       ncg     rms          rms(c)
DAV:   1    -0.704539862026E+03    0.93591E+00   -0.22382E+02 10646   0.219E+01    0.348E+00
RMM:   2    -0.705388362319E+03   -0.84850E+00   -0.92193E+00 13410   0.617E+00    0.107E+00
RMM:   3    -0.705584167700E+03   -0.19581E+00   -0.21421E+00 15464   0.242E+00    0.934E-01
RMM:   4    -0.705597363321E+03   -0.13196E-01   -0.24820E-01 15519   0.814E-01    0.616E-01
RMM:   5    -0.705595211432E+03    0.21519E-02   -0.53580E-02 15079   0.359E-01    0.140E-01
RMM:   6    -0.705596190998E+03   -0.97957E-03   -0.12376E-02 14222   0.175E-01    0.960E-02
RMM:   7    -0.705596501016E+03   -0.31002E-03   -0.43261E-03 15253   0.891E-02    0.386E-02
RMM:   8    -0.705596566442E+03   -0.65425E-04   -0.89855E-04 13213   0.378E-02    0.160E-02
RMM:   9    -0.705596591481E+03   -0.25039E-04   -0.30426E-04 10848   0.200E-02    0.589E-03
RMM:  10    -0.705596600344E+03   -0.88632E-05   -0.10095E-04  9839   0.122E-02    0.368E-03
RMM:  11    -0.705596603423E+03   -0.30791E-05   -0.37733E-05  8740   0.773E-03
  23 F= -.70559660E+03 E0= -.70559660E+03  d E =-.281449E+00
       N       E                     dE             d eps       ncg     rms          rms(c)
DAV:   1    -0.705553732534E+03    0.42868E-01   -0.32373E+01 10776   0.815E+00    0.149E+00
RMM:   2    -0.705667524598E+03   -0.11379E+00   -0.12187E+00 13184   0.216E+00    0.465E-01
RMM:   3    -0.705691918890E+03   -0.24394E-01   -0.27743E-01 15391   0.853E-01    0.298E-01
RMM:   4    -0.705693547641E+03   -0.16288E-02   -0.31063E-02 15487   0.286E-01    0.157E-01
RMM:   5    -0.705693682045E+03   -0.13440E-03   -0.65052E-03 15409   0.120E-01    0.368E-02
RMM:   6    -0.705693814232E+03   -0.13219E-03   -0.14927E-03 15216   0.561E-02    0.236E-02
RMM:   7    -0.705693853777E+03   -0.39546E-04   -0.43580E-04 13026   0.271E-02    0.103E-02
RMM:   8    -0.705693863336E+03   -0.95591E-05   -0.12268E-04 10222   0.150E-02    0.320E-03
RMM:   9    -0.705693866971E+03   -0.36345E-05   -0.44969E-05  9109   0.926E-03
  24 F= -.70569387E+03 E0= -.70569387E+03  d E =-.972635E-01
       N       E                     dE             d eps       ncg     rms          rms(c)
DAV:   1    -0.705538184045E+03    0.15568E+00   -0.47767E+01 10360   0.986E+00    0.213E+00
RMM:   2    -0.705712900613E+03   -0.17472E+00   -0.18614E+00 13312   0.263E+00    0.626E-01
RMM:   3    -0.705746691880E+03   -0.33791E-01   -0.40015E-01 15394   0.102E+00    0.371E-01
RMM:   4    -0.705748792452E+03   -0.21006E-02   -0.44819E-02 15471   0.342E-01    0.186E-01
RMM:   5    -0.705748984424E+03   -0.19197E-03   -0.91271E-03 15376   0.142E-01    0.397E-02
RMM:   6    -0.705749169408E+03   -0.18498E-03   -0.20482E-03 15291   0.656E-02    0.263E-02
RMM:   7    -0.705749223032E+03   -0.53625E-04   -0.58438E-04 13432   0.314E-02    0.102E-02
RMM:   8    -0.705749237502E+03   -0.14470E-04   -0.16744E-04 10499   0.169E-02    0.345E-03
RMM:   9    -0.705749242636E+03   -0.51338E-05   -0.60562E-05  9472   0.103E-02
  25 F= -.70574924E+03 E0= -.70574924E+03  d E =-.152639E+00
       N       E                     dE             d eps       ncg     rms          rms(c)
DAV:   1    -0.705798506794E+03   -0.49269E-01   -0.69397E+00 11136   0.394E+00    0.445E-01
RMM:   2    -0.705824433212E+03   -0.25926E-01   -0.27625E-01 13531   0.109E+00    0.160E-01
RMM:   3    -0.705829261331E+03   -0.48281E-02   -0.55374E-02 15448   0.399E-01    0.160E-01
RMM:   4    -0.705829292072E+03   -0.30741E-04   -0.63458E-03 15517   0.139E-01    0.785E-02
RMM:   5    -0.705829229127E+03    0.62945E-04   -0.17281E-03 14931   0.647E-02    0.272E-02
RMM:   6    -0.705829252966E+03   -0.23839E-04   -0.34469E-04 14242   0.285E-02    0.194E-02
RMM:   7    -0.705829255030E+03   -0.20641E-05   -0.11442E-04 10952   0.167E-02    0.833E-03
RMM:   8    -0.705829255986E+03   -0.95570E-06   -0.31502E-05  8676   0.971E-03
  26 F= -.70582926E+03 E0= -.70582926E+03  d E =-.800133E-01
       N       E                     dE             d eps       ncg     rms          rms(c)
DAV:   1    -0.705782370440E+03    0.46885E-01   -0.27173E+01 10600   0.780E+00    0.876E-01
RMM:   2    -0.705885298982E+03   -0.10293E+00   -0.10956E+00 13530   0.219E+00    0.315E-01
RMM:   3    -0.705904899834E+03   -0.19601E-01   -0.22441E-01 15458   0.804E-01    0.315E-01
RMM:   4    -0.705905141816E+03   -0.24198E-03   -0.25635E-02 15557   0.279E-01    0.158E-01
RMM:   5    -0.705904870340E+03    0.27148E-03   -0.69335E-03 14925   0.130E-01    0.538E-02
RMM:   6    -0.705904971401E+03   -0.10106E-03   -0.13964E-03 15513   0.575E-02    0.395E-02
RMM:   7    -0.705904980811E+03   -0.94104E-05   -0.45512E-04 13143   0.331E-02    0.185E-02
RMM:   8    -0.705904985953E+03   -0.51414E-05   -0.13031E-04 11657   0.168E-02    0.545E-03
RMM:   9    -0.705904988789E+03   -0.28360E-05   -0.38817E-05  8714   0.988E-03
  27 F= -.70590499E+03 E0= -.70590499E+03  d E =-.155746E+00
       N       E                     dE             d eps       ncg     rms          rms(c)
DAV:   1    -0.705902954011E+03    0.20319E-02   -0.93011E-01 11616   0.144E+00    0.162E-01
RMM:   2    -0.705906383217E+03   -0.34292E-02   -0.36596E-02 13524   0.397E-01    0.578E-02
RMM:   3    -0.705907013720E+03   -0.63050E-03   -0.72566E-03 15438   0.145E-01    0.572E-02
RMM:   4    -0.705907018609E+03   -0.48894E-05   -0.85019E-04 15048   0.507E-02    0.274E-02
RMM:   5    -0.705907010862E+03    0.77474E-05   -0.23136E-04 12848   0.240E-02    0.956E-03
RMM:   6    -0.705907013413E+03   -0.25513E-05   -0.43758E-05  9304   0.114E-02
  28 F= -.70590701E+03 E0= -.70590701E+03  d E =-.157771E+00
       N       E                     dE             d eps       ncg     rms          rms(c)
DAV:   1    -0.705914808600E+03   -0.77977E-02   -0.99451E+00 10472   0.465E+00    0.540E-01
RMM:   2    -0.705948528337E+03   -0.33720E-01   -0.35865E-01 13299   0.124E+00    0.173E-01
RMM:   3    -0.705955394945E+03   -0.68666E-02   -0.77560E-02 15298   0.468E-01    0.172E-01
RMM:   4    -0.705955591383E+03   -0.19644E-03   -0.83546E-03 15377   0.155E-01    0.945E-02
RMM:   5    -0.705955456183E+03    0.13520E-03   -0.22419E-03 14612   0.723E-02    0.348E-02
RMM:   6    -0.705955483447E+03   -0.27264E-04   -0.46451E-04 14740   0.326E-02    0.226E-02
RMM:   7    -0.705955489808E+03   -0.63617E-05   -0.15903E-04 10819   0.175E-02    0.158E-02
RMM:   8    -0.705955489021E+03    0.78731E-06   -0.43886E-05  9012   0.105E-02
  29 F= -.70595549E+03 E0= -.70595549E+03  d E =-.484756E-01
       N       E                     dE             d eps       ncg     rms          rms(c)
DAV:   1    -0.705926117569E+03    0.29372E-01   -0.13060E+01 10760   0.533E+00    0.620E-01
RMM:   2    -0.705970335119E+03   -0.44218E-01   -0.47026E-01 13308   0.141E+00    0.198E-01
RMM:   3    -0.705979372280E+03   -0.90372E-02   -0.10197E-01 15300   0.536E-01    0.197E-01
RMM:   4    -0.705979637096E+03   -0.26482E-03   -0.10999E-02 15414   0.178E-01    0.108E-01
RMM:   5    -0.705979458943E+03    0.17815E-03   -0.29273E-03 14629   0.823E-02    0.397E-02
RMM:   6    -0.705979494909E+03   -0.35966E-04   -0.60625E-04 15097   0.373E-02    0.259E-02
RMM:   7    -0.705979503452E+03   -0.85432E-05   -0.20972E-04 11787   0.197E-02    0.179E-02
RMM:   8    -0.705979502683E+03    0.76950E-06   -0.55951E-05  9265   0.112E-02
  30 F= -.70597950E+03 E0= -.70597950E+03  d E =-.724893E-01
       N       E                     dE             d eps       ncg     rms          rms(c)
DAV:   1    -0.705976844775E+03    0.26587E-02   -0.86735E+00 10680   0.432E+00    0.562E-01
RMM:   2    -0.706006148835E+03   -0.29304E-01   -0.30903E-01 13269   0.114E+00    0.183E-01
RMM:   3    -0.706012343918E+03   -0.61951E-02   -0.68690E-02 15259   0.436E-01    0.156E-01
RMM:   4    -0.706012598774E+03   -0.25486E-03   -0.75530E-03 15338   0.146E-01    0.788E-02
RMM:   5    -0.706012571256E+03    0.27518E-04   -0.17031E-03 14873   0.644E-02    0.236E-02
RMM:   6    -0.706012598580E+03   -0.27324E-04   -0.37320E-04 14018   0.292E-02    0.158E-02
RMM:   7    -0.706012606150E+03   -0.75703E-05   -0.11603E-04 10335   0.152E-02    0.114E-02
RMM:   8    -0.706012606175E+03   -0.24898E-07   -0.33531E-05  8722   0.961E-03
  31 F= -.70601261E+03 E0= -.70601261E+03  d E =-.331035E-01
       N       E                     dE             d eps       ncg     rms          rms(c)
DAV:   1    -0.705994705634E+03    0.17901E-01   -0.75675E+00 10928   0.403E+00    0.525E-01
RMM:   2    -0.706020190361E+03   -0.25485E-01   -0.26876E-01 13268   0.106E+00    0.172E-01
RMM:   3    -0.706025610253E+03   -0.54199E-02   -0.60032E-02 15257   0.406E-01    0.146E-01
RMM:   4    -0.706025839808E+03   -0.22955E-03   -0.65866E-03 15305   0.136E-01    0.755E-02
RMM:   5    -0.706025811449E+03    0.28359E-04   -0.14945E-03 14819   0.601E-02    0.221E-02
RMM:   6    -0.706025835304E+03   -0.23855E-04   -0.32944E-04 13521   0.274E-02    0.148E-02
RMM:   7    -0.706025842233E+03   -0.69291E-05   -0.10213E-04 10154   0.142E-02    0.107E-02
RMM:   8    -0.706025842251E+03   -0.17913E-07   -0.29612E-05  8503   0.905E-03
  32 F= -.70602584E+03 E0= -.70602584E+03  d E =-.463396E-01
       N       E                     dE             d eps       ncg     rms          rms(c)
DAV:   1    -0.706024462172E+03    0.13801E-02   -0.50667E-01 11128   0.104E+00    0.136E-01
RMM:   2    -0.706026138952E+03   -0.16768E-02   -0.17682E-02 13245   0.270E-01    0.442E-02
RMM:   3    -0.706026490231E+03   -0.35128E-03   -0.38968E-03 15193   0.103E-01    0.379E-02
RMM:   4    -0.706026504468E+03   -0.14237E-04   -0.42947E-04 14504   0.351E-02    0.198E-02
RMM:   5    -0.706026502708E+03    0.17600E-05   -0.10363E-04 10815   0.165E-02    0.597E-03
RMM:   6    -0.706026504035E+03   -0.13266E-05   -0.23914E-05  8004   0.882E-03
  33 F= -.70602650E+03 E0= -.70602650E+03  d E =-.470014E-01
       N       E                     dE             d eps       ncg     rms          rms(c)
DAV:   1    -0.706001329679E+03    0.25173E-01   -0.12002E+01 10896   0.511E+00    0.548E-01
RMM:   2    -0.706039526123E+03   -0.38196E-01   -0.39935E-01 13127   0.134E+00    0.182E-01
RMM:   3    -0.706049252779E+03   -0.97267E-02   -0.10250E-01 15107   0.533E-01    0.171E-01
RMM:   4    -0.706049949274E+03   -0.69649E-03   -0.11288E-02 15360   0.176E-01    0.107E-01
RMM:   5    -0.706049838334E+03    0.11094E-03   -0.24745E-03 14283   0.767E-02    0.435E-02
RMM:   6    -0.706049870102E+03   -0.31768E-04   -0.54733E-04 14961   0.357E-02    0.272E-02
RMM:   7    -0.706049878472E+03   -0.83706E-05   -0.18920E-04 11417   0.180E-02    0.187E-02
RMM:   8    -0.706049877140E+03    0.13323E-05   -0.44864E-05  8965   0.106E-02
  34 F= -.70604988E+03 E0= -.70604988E+03  d E =-.233731E-01
       N       E                     dE             d eps       ncg     rms          rms(c)
DAV:   1    -0.706033399471E+03    0.16479E-01   -0.58522E+00 11136   0.357E+00    0.382E-01
RMM:   2    -0.706051732593E+03   -0.18333E-01   -0.19170E-01 13112   0.932E-01    0.127E-01
RMM:   3    -0.706056409722E+03   -0.46771E-02   -0.49239E-02 15082   0.370E-01    0.117E-01
RMM:   4    -0.706056757192E+03   -0.34747E-03   -0.56164E-03 15295   0.124E-01    0.735E-02
RMM:   5    -0.706056709994E+03    0.47198E-04   -0.12013E-03 14287   0.535E-02    0.288E-02
RMM:   6    -0.706056726487E+03   -0.16493E-04   -0.27190E-04 13388   0.250E-02    0.180E-02
RMM:   7    -0.706056730891E+03   -0.44044E-05   -0.89873E-05  9999   0.133E-02
  35 F= -.70605673E+03 E0= -.70605673E+03  d E =-.302269E-01
       N       E                     dE             d eps       ncg     rms          rms(c)
DAV:   1    -0.706045497001E+03    0.11229E-01   -0.61908E+00 11000   0.371E+00    0.441E-01
RMM:   2    -0.706066948191E+03   -0.21451E-01   -0.22460E-01 13302   0.101E+00    0.147E-01
RMM:   3    -0.706071813545E+03   -0.48654E-02   -0.52979E-02 15195   0.387E-01    0.128E-01
RMM:   4    -0.706072048540E+03   -0.23499E-03   -0.59800E-03 15322   0.130E-01    0.644E-02
RMM:   5    -0.706072023232E+03    0.25308E-04   -0.12860E-03 14774   0.567E-02    0.222E-02
RMM:   6    -0.706072043601E+03   -0.20369E-04   -0.28586E-04 13332   0.257E-02    0.142E-02
RMM:   7    -0.706072048650E+03   -0.50487E-05   -0.85283E-05 10120   0.137E-02
  36 F= -.70607205E+03 E0= -.70607205E+03  d E =-.153178E-01
       N       E                     dE             d eps       ncg     rms          rms(c)
DAV:   1    -0.706069739410E+03    0.23042E-02   -0.11031E+00 11504   0.157E+00    0.184E-01
RMM:   2    -0.706073522840E+03   -0.37834E-02   -0.39604E-02 13294   0.423E-01    0.612E-02
RMM:   3    -0.706074359507E+03   -0.83667E-03   -0.91475E-03 15152   0.162E-01    0.536E-02
RMM:   4    -0.706074400478E+03   -0.40972E-04   -0.10660E-03 14984   0.551E-02    0.266E-02
RMM:   5    -0.706074397773E+03    0.27056E-05   -0.23450E-04 12889   0.249E-02    0.899E-03
RMM:   6    -0.706074400854E+03   -0.30815E-05   -0.47715E-05  9490   0.116E-02
  37 F= -.70607440E+03 E0= -.70607440E+03  d E =-.176700E-01
       N       E                     dE             d eps       ncg     rms          rms(c)
DAV:   1    -0.706073983141E+03    0.41463E-03   -0.15654E-01 11742   0.591E-01    0.676E-02
RMM:   2    -0.706074533397E+03   -0.55026E-03   -0.57566E-03 13294   0.162E-01    0.230E-02
RMM:   3    -0.706074653967E+03   -0.12057E-03   -0.13344E-03 15025   0.618E-02    0.212E-02
RMM:   4    -0.706074659047E+03   -0.50803E-05   -0.15669E-04 12664   0.219E-02    0.106E-02
RMM:   5    -0.706074658365E+03    0.68179E-06   -0.39110E-05  9314   0.122E-02
  38 F= -.70607466E+03 E0= -.70607466E+03  d E =-.179275E-01
       N       E                     dE             d eps       ncg     rms          rms(c)
DAV:   1    -0.706056866652E+03    0.17792E-01   -0.72084E+00 10982   0.398E+00    0.426E-01
RMM:   2    -0.706079487322E+03   -0.22621E-01   -0.23751E-01 12954   0.104E+00    0.144E-01
RMM:   3    -0.706085216226E+03   -0.57289E-02   -0.60431E-02 15029   0.417E-01    0.134E-01
RMM:   4    -0.706085670799E+03   -0.45457E-03   -0.70419E-03 15405   0.140E-01    0.902E-02
RMM:   5    -0.706085597778E+03    0.73021E-04   -0.14481E-03 13838   0.597E-02    0.332E-02
RMM:   6    -0.706085617379E+03   -0.19601E-04   -0.32729E-04 14316   0.284E-02    0.224E-02
RMM:   7    -0.706085619580E+03   -0.22013E-05   -0.10868E-04 10447   0.144E-02    0.126E-02
RMM:   8    -0.706085619272E+03    0.30811E-06   -0.26168E-05  8260   0.897E-03
  39 F= -.70608562E+03 E0= -.70608562E+03  d E =-.109609E-01
       N       E                     dE             d eps       ncg     rms          rms(c)
DAV:   1    -0.706079448804E+03    0.61708E-02   -0.22147E+00 11304   0.220E+00    0.234E-01
RMM:   2    -0.706086320993E+03   -0.68722E-02   -0.72149E-02 12949   0.572E-01    0.794E-02
RMM:   3    -0.706088017934E+03   -0.16969E-02   -0.17937E-02 15007   0.228E-01    0.737E-02
RMM:   4    -0.706088149104E+03   -0.13117E-03   -0.21018E-03 15243   0.766E-02    0.487E-02
RMM:   5    -0.706088130837E+03    0.18267E-04   -0.45826E-04 13294   0.336E-02    0.186E-02
RMM:   6    -0.706088134780E+03   -0.39426E-05   -0.89503E-05 10779   0.156E-02
  40 F= -.70608813E+03 E0= -.70608813E+03  d E =-.134764E-01
       N       E                     dE             d eps       ncg     rms          rms(c)
DAV:   1    -0.706071986630E+03    0.16144E-01   -0.64369E+00 10871   0.375E+00    0.430E-01
RMM:   2    -0.706092919031E+03   -0.20932E-01   -0.22003E-01 12982   0.972E-01    0.148E-01
RMM:   3    -0.706097612391E+03   -0.46934E-02   -0.50624E-02 15207   0.383E-01    0.134E-01
RMM:   4    -0.706097893293E+03   -0.28090E-03   -0.56642E-03 15290   0.127E-01    0.834E-02
RMM:   5    -0.706097840513E+03    0.52779E-04   -0.12996E-03 14241   0.571E-02    0.269E-02
RMM:   6    -0.706097860821E+03   -0.20308E-04   -0.29925E-04 13781   0.268E-02    0.177E-02
RMM:   7    -0.706097865565E+03   -0.47436E-05   -0.94075E-05 10129   0.134E-02
  41 F= -.70609787E+03 E0= -.70609787E+03  d E =-.973078E-02
       N       E                     dE             d eps       ncg     rms          rms(c)
DAV:   1    -0.706096717470E+03    0.11434E-02   -0.54609E-01 11688   0.109E+00    0.123E-01
RMM:   2    -0.706098455839E+03   -0.17384E-02   -0.18278E-02 12939   0.280E-01    0.426E-02
RMM:   3    -0.706098850522E+03   -0.39468E-03   -0.42696E-03 15144   0.111E-01    0.388E-02
RMM:   4    -0.706098874383E+03   -0.23861E-04   -0.48939E-04 14600   0.372E-02    0.237E-02
RMM:   5    -0.706098871722E+03    0.26611E-05   -0.12275E-04 11178   0.181E-02    0.789E-03
RMM:   6    -0.706098872801E+03   -0.10788E-05   -0.25507E-05  8280   0.918E-03
  42 F= -.70609887E+03 E0= -.70609887E+03  d E =-.107380E-01
       N       E                     dE             d eps       ncg     rms          rms(c)
DAV:   1    -0.706089641843E+03    0.92299E-02   -0.21861E+00 11008   0.219E+00    0.250E-01
RMM:   2    -0.706096662573E+03   -0.70207E-02   -0.73835E-02 12946   0.560E-01    0.863E-02
RMM:   3    -0.706098233942E+03   -0.15714E-02   -0.16993E-02 15195   0.221E-01    0.784E-02
RMM:   4    -0.706098326942E+03   -0.93000E-04   -0.19111E-03 15129   0.735E-02    0.489E-02
RMM:   5    -0.706098310142E+03    0.16800E-04   -0.45439E-04 13452   0.338E-02    0.154E-02
RMM:   6    -0.706098315583E+03   -0.54411E-05   -0.92049E-05 10741   0.158E-02
  43 F= -.70609832E+03 E0= -.70609832E+03  d E =-.101808E-01
       N       E                     dE             d eps       ncg     rms          rms(c)
DAV:   1    -0.706094507233E+03    0.38029E-02   -0.11673E+00 10824   0.160E+00    0.189E-01
RMM:   2    -0.706098187493E+03   -0.36803E-02   -0.38765E-02 12944   0.406E-01    0.637E-02
RMM:   3    -0.706099015014E+03   -0.82752E-03   -0.89245E-03 15165   0.160E-01    0.551E-02
RMM:   4    -0.706099065799E+03   -0.50786E-04   -0.98067E-04 14990   0.532E-02    0.347E-02
RMM:   5    -0.706099057795E+03    0.80046E-05   -0.23499E-04 12746   0.247E-02    0.113E-02
RMM:   6    -0.706099059786E+03   -0.19917E-05   -0.43916E-05  9472   0.114E-02
  44 F= -.70609906E+03 E0= -.70609906E+03  d E =-.109250E-01
       N       E                     dE             d eps       ncg     rms          rms(c)
DAV:   1    -0.706077137666E+03    0.21920E-01   -0.73892E+00 11119   0.403E+00    0.470E-01
RMM:   2    -0.706099860524E+03   -0.22723E-01   -0.23779E-01 12897   0.103E+00    0.151E-01
RMM:   3    -0.706105285941E+03   -0.54254E-02   -0.57305E-02 15017   0.410E-01    0.127E-01
RMM:   4    -0.706105700591E+03   -0.41465E-03   -0.68498E-03 15399   0.138E-01    0.816E-02
RMM:   5    -0.706105651798E+03    0.48792E-04   -0.13172E-03 14501   0.557E-02    0.267E-02
RMM:   6    -0.706105671588E+03   -0.19790E-04   -0.28898E-04 13372   0.258E-02    0.166E-02
RMM:   7    -0.706105676944E+03   -0.53562E-05   -0.92297E-05 10120   0.137E-02
  45 F= -.70610568E+03 E0= -.70610568E+03  d E =-.661716E-02
       N       E                     dE             d eps       ncg     rms          rms(c)
DAV:   1    -0.706103531741E+03    0.21398E-02   -0.76730E-01 11720   0.130E+00    0.147E-01
RMM:   2    -0.706105858712E+03   -0.23270E-02   -0.24355E-02 12876   0.331E-01    0.475E-02
RMM:   3    -0.706106426540E+03   -0.56783E-03   -0.60308E-03 14969   0.132E-01    0.419E-02
RMM:   4    -0.706106470485E+03   -0.43945E-04   -0.73015E-04 14925   0.451E-02    0.269E-02
RMM:   5    -0.706106467117E+03    0.33677E-05   -0.16165E-04 11692   0.201E-02    0.901E-03
RMM:   6    -0.706106468535E+03   -0.14172E-05   -0.32432E-05  8680   0.100E-02
  46 F= -.70610647E+03 E0= -.70610647E+03  d E =-.740875E-02
       N       E                     dE             d eps       ncg     rms          rms(c)
DAV:   1    -0.706088257383E+03    0.18210E-01   -0.58493E+00 11143   0.361E+00    0.385E-01
RMM:   2    -0.706106958247E+03   -0.18701E-01   -0.19595E-01 13076   0.964E-01    0.129E-01
RMM:   3    -0.706111810227E+03   -0.48520E-02   -0.51133E-02 15166   0.382E-01    0.119E-01
RMM:   4    -0.706112175774E+03   -0.36555E-03   -0.57347E-03 15339   0.126E-01    0.794E-02
RMM:   5    -0.706112116182E+03    0.59592E-04   -0.12243E-03 14161   0.554E-02    0.267E-02
RMM:   6    -0.706112137443E+03   -0.21261E-04   -0.28798E-04 13815   0.264E-02    0.198E-02
RMM:   7    -0.706112139895E+03   -0.24525E-05   -0.91343E-05 10446   0.137E-02
  47 F= -.70611214E+03 E0= -.70611214E+03  d E =-.567136E-02
       N       E                     dE             d eps       ncg     rms          rms(c)
DAV:   1    -0.706112078642E+03    0.58801E-04   -0.44680E-02 12000   0.315E-01    0.292E-02
RMM:   2    -0.706112221031E+03   -0.14239E-03   -0.14959E-03 13070   0.843E-02    0.111E-02
RMM:   3    -0.706112255911E+03   -0.34880E-04   -0.38590E-04 13815   0.335E-02    0.114E-02
RMM:   4    -0.706112258683E+03   -0.27718E-05   -0.53408E-05  9652   0.146E-02
  48 F= -.70611226E+03 E0= -.70611226E+03  d E =-.579015E-02
       N       E                     dE             d eps       ncg     rms          rms(c)
DAV:   1    -0.706104267876E+03    0.79880E-02   -0.28325E+00 11208   0.253E+00    0.255E-01
RMM:   2    -0.706112948354E+03   -0.86805E-02   -0.91273E-02 12983   0.662E-01    0.903E-02
RMM:   3    -0.706115211701E+03   -0.22633E-02   -0.23785E-02 15063   0.266E-01    0.803E-02
RMM:   4    -0.706115403117E+03   -0.19142E-03   -0.28040E-03 15320   0.892E-02    0.553E-02
RMM:   5    -0.706115377423E+03    0.25694E-04   -0.56943E-04 13976   0.388E-02    0.168E-02
RMM:   6    -0.706115388249E+03   -0.10826E-04   -0.13810E-04 12193   0.190E-02    0.140E-02
RMM:   7    -0.706115388481E+03   -0.23197E-06   -0.41404E-05  9255   0.109E-02
  49 F= -.70611539E+03 E0= -.70611539E+03  d E =-.312980E-02
       N       E                     dE             d eps       ncg     rms          rms(c)
DAV:   1    -0.706115249410E+03    0.13884E-03   -0.94163E-02 11968   0.461E-01    0.434E-02
RMM:   2    -0.706115537835E+03   -0.28842E-03   -0.30279E-03 12954   0.119E-01    0.161E-02
RMM:   3    -0.706115609925E+03   -0.72090E-04   -0.77789E-04 14747   0.480E-02    0.154E-02
RMM:   4    -0.706115616081E+03   -0.61564E-05   -0.99008E-05 11848   0.175E-02
  50 F= -.70611562E+03 E0= -.70611562E+03  d E =-.335740E-02
       N       E                     dE             d eps       ncg     rms          rms(c)
DAV:   1    -0.706109579965E+03    0.60300E-02   -0.21907E+00 11048   0.223E+00    0.239E-01
RMM:   2    -0.706116335581E+03   -0.67556E-02   -0.70705E-02 12993   0.580E-01    0.798E-02
RMM:   3    -0.706118039220E+03   -0.17036E-02   -0.17993E-02 15062   0.233E-01    0.703E-02
RMM:   4    -0.706118180551E+03   -0.14133E-03   -0.20991E-03 15242   0.777E-02    0.507E-02
RMM:   5    -0.706118157302E+03    0.23249E-04   -0.43465E-04 13787   0.338E-02    0.152E-02
RMM:   6    -0.706118164150E+03   -0.68474E-05   -0.96193E-05 11090   0.164E-02
  51 F= -.70611816E+03 E0= -.70611816E+03  d E =-.254807E-02
       N       E                     dE             d eps       ncg     rms          rms(c)
DAV:   1    -0.706118027707E+03    0.12959E-03   -0.84043E-02 12040   0.438E-01    0.418E-02
RMM:   2    -0.706118300800E+03   -0.27309E-03   -0.28581E-03 13010   0.117E-01    0.154E-02
RMM:   3    -0.706118365315E+03   -0.64514E-04   -0.69638E-04 14818   0.465E-02    0.163E-02
RMM:   4    -0.706118369851E+03   -0.45363E-05   -0.92363E-05 12002   0.175E-02
  52 F= -.70611837E+03 E0= -.70611837E+03  d E =-.275377E-02
       N       E                     dE             d eps       ncg     rms          rms(c)
DAV:   1    -0.706117232556E+03    0.11328E-02   -0.32956E-01 11224   0.866E-01    0.937E-02
RMM:   2    -0.706118231246E+03   -0.99869E-03   -0.10460E-02 12996   0.219E-01    0.313E-02
RMM:   3    -0.706118472012E+03   -0.24077E-03   -0.25526E-03 15007   0.875E-02    0.267E-02
RMM:   4    -0.706118491404E+03   -0.19392E-04   -0.30144E-04 13509   0.296E-02    0.189E-02
RMM:   5    -0.706118489084E+03    0.23201E-05   -0.74553E-05 10473   0.155E-02
  53 F= -.70611849E+03 E0= -.70611849E+03  d E =-.287300E-02
       N       E                     dE             d eps       ncg     rms          rms(c)
DAV:   1    -0.706115628521E+03    0.28629E-02   -0.10741E+00 11584   0.156E+00    0.152E-01
RMM:   2    -0.706118751099E+03   -0.31226E-02   -0.32531E-02 12817   0.401E-01    0.514E-02
RMM:   3    -0.706119594432E+03   -0.84333E-03   -0.86535E-03 14825   0.163E-01    0.447E-02
RMM:   4    -0.706119678708E+03   -0.84276E-04   -0.11004E-03 15159   0.563E-02    0.337E-02
RMM:   5    -0.706119673378E+03    0.53297E-05   -0.21937E-04 12648   0.244E-02    0.113E-02
RMM:   6    -0.706119676137E+03   -0.27590E-05   -0.44439E-05  9165   0.118E-02
  54 F= -.70611968E+03 E0= -.70611968E+03  d E =-.118705E-02
       N       E                     dE             d eps       ncg     rms          rms(c)
DAV:   1    -0.706119414307E+03    0.25907E-03   -0.14302E-01 11904   0.572E-01    0.531E-02
RMM:   2    -0.706119842829E+03   -0.42852E-03   -0.44594E-03 12843   0.148E-01    0.184E-02
RMM:   3    -0.706119955699E+03   -0.11287E-03   -0.11710E-03 14747   0.601E-02    0.177E-02
RMM:   4    -0.706119966287E+03   -0.10588E-04   -0.14981E-04 12738   0.212E-02    0.134E-02
RMM:   5    -0.706119965288E+03    0.99929E-06   -0.36804E-05  8727   0.116E-02
  55 F= -.70611997E+03 E0= -.70611997E+03  d E =-.147620E-02
       N       E                     dE             d eps       ncg     rms          rms(c)
DAV:   1    -0.706118180313E+03    0.17860E-02   -0.56750E-01 11584   0.114E+00    0.111E-01
RMM:   2    -0.706119828560E+03   -0.16482E-02   -0.17177E-02 12819   0.292E-01    0.376E-02
RMM:   3    -0.706120282463E+03   -0.45390E-03   -0.46366E-03 14823   0.119E-01    0.324E-02
RMM:   4    -0.706120327727E+03   -0.45265E-04   -0.58828E-04 15004   0.413E-02    0.245E-02
RMM:   5    -0.706120325428E+03    0.22997E-05   -0.12269E-04 11314   0.186E-02    0.833E-03
RMM:   6    -0.706120326789E+03   -0.13617E-05   -0.26039E-05  7948   0.950E-03
  56 F= -.70612033E+03 E0= -.70612033E+03  d E =-.183771E-02
       N       E                     dE             d eps       ncg     rms          rms(c)
DAV:   1    -0.706120179401E+03    0.14603E-03   -0.30698E-01 10920   0.849E-01    0.936E-02
RMM:   2    -0.706121276103E+03   -0.10967E-02   -0.11592E-02 13398   0.236E-01    0.333E-02
RMM:   3    -0.706121528277E+03   -0.25217E-03   -0.27788E-03 15273   0.905E-02    0.305E-02
RMM:   4    -0.706121540472E+03   -0.12195E-04   -0.31547E-04 14361   0.312E-02    0.169E-02
RMM:   5    -0.706121537960E+03    0.25125E-05   -0.77095E-05 10941   0.158E-02
  57 F= -.70612154E+03 E0= -.70612154E+03  d E =-.121117E-02
       N       E                     dE             d eps       ncg     rms          rms(c)
DAV:   1    -0.706121534024E+03    0.64487E-05   -0.48009E-02 11480   0.336E-01    0.392E-02
RMM:   2    -0.706121712410E+03   -0.17839E-03   -0.18905E-03 13421   0.963E-02    0.133E-02
RMM:   3    -0.706121754394E+03   -0.41984E-04   -0.46141E-04 14703   0.372E-02    0.116E-02
RMM:   4    -0.706121757151E+03   -0.27565E-05   -0.59144E-05 10705   0.148E-02
  58 F= -.70612176E+03 E0= -.70612176E+03  d E =-.143036E-02
       N       E                     dE             d eps       ncg     rms          rms(c)
DAV:   1    -0.706120896029E+03    0.85837E-03   -0.19089E-01 10920   0.670E-01    0.746E-02
RMM:   2    -0.706121575433E+03   -0.67940E-03   -0.71865E-03 13445   0.183E-01    0.266E-02
RMM:   3    -0.706121722190E+03   -0.14676E-03   -0.16232E-03 15169   0.694E-02    0.234E-02
RMM:   4    -0.706121729208E+03   -0.70183E-05   -0.19336E-04 13043   0.243E-02    0.122E-02
RMM:   5    -0.706121728102E+03    0.11058E-05   -0.46521E-05  9923   0.127E-02
  59 F= -.70612173E+03 E0= -.70612173E+03  d E =-.140131E-02
       N       E                     dE             d eps       ncg     rms          rms(c)
DAV:   1    -0.706121443499E+03    0.28571E-03   -0.85631E-02 10792   0.449E-01    0.486E-02
RMM:   2    -0.706121745482E+03   -0.30198E-03   -0.31951E-03 13413   0.123E-01    0.177E-02
RMM:   3    -0.706121810422E+03   -0.64940E-04   -0.73051E-04 15084   0.466E-02    0.161E-02
RMM:   4    -0.706121812975E+03   -0.25532E-05   -0.84497E-05 11970   0.166E-02
  60 F= -.70612181E+03 E0= -.70612181E+03  d E =-.148619E-02
       N       E                     dE             d eps       ncg     rms          rms(c)
DAV:   1    -0.706121698815E+03    0.11161E-03   -0.21532E-02 11088   0.227E-01    0.238E-02
RMM:   2    -0.706121783325E+03   -0.84511E-04   -0.89524E-04 13329   0.664E-02    0.877E-03
RMM:   3    -0.706121802648E+03   -0.19323E-04   -0.21788E-04 13918   0.260E-02    0.894E-03
RMM:   4    -0.706121803309E+03   -0.66076E-06   -0.28687E-05  6476   0.114E-02
  61 F= -.70612180E+03 E0= -.70612180E+03  d E =-.147652E-02
       N       E                     dE             d eps       ncg     rms          rms(c)
DAV:   1    -0.706121785460E+03    0.17187E-04   -0.65694E-03 10944   0.125E-01    0.135E-02
RMM:   2    -0.706121811069E+03   -0.25608E-04   -0.27001E-04 13412   0.356E-02    0.471E-03
RMM:   3    -0.706121815780E+03   -0.47117E-05   -0.58212E-05  8824   0.137E-02
  62 F= -.70612182E+03 E0= -.70612182E+03  d E =-.148899E-02
       N       E                     dE             d eps       ncg     rms          rms(c)
DAV:   1    -0.706121544989E+03    0.26608E-03   -0.19793E-01 11192   0.683E-01    0.749E-02
RMM:   2    -0.706122181187E+03   -0.63620E-03   -0.66869E-03 13045   0.185E-01    0.239E-02
RMM:   3    -0.706122352041E+03   -0.17085E-03   -0.18407E-03 15068   0.748E-02    0.223E-02
RMM:   4    -0.706122364000E+03   -0.11959E-04   -0.19281E-04 12994   0.251E-02    0.158E-02
RMM:   5    -0.706122361376E+03    0.26239E-05   -0.55959E-05 10427   0.151E-02
  63 F= -.70612236E+03 E0= -.70612236E+03  d E =-.545595E-03
       N       E                     dE             d eps       ncg     rms          rms(c)
DAV:   1    -0.706122098697E+03    0.26530E-03   -0.11249E-01 11376   0.515E-01    0.581E-02
RMM:   2    -0.706122459367E+03   -0.36067E-03   -0.37951E-03 13069   0.139E-01    0.183E-02
RMM:   3    -0.706122556482E+03   -0.97115E-04   -0.10350E-03 14954   0.562E-02    0.163E-02
RMM:   4    -0.706122563966E+03   -0.74836E-05   -0.11845E-04 12381   0.198E-02    0.116E-02
RMM:   5    -0.706122562569E+03    0.13963E-05   -0.32112E-05  8779   0.120E-02
  64 F= -.70612256E+03 E0= -.70612256E+03  d E =-.746789E-03
       N       E                     dE             d eps       ncg     rms          rms(c)
DAV:   1    -0.706122124902E+03    0.43906E-03   -0.24307E-01 11096   0.750E-01    0.744E-02
RMM:   2    -0.706122924444E+03   -0.79954E-03   -0.83938E-03 13105   0.202E-01    0.257E-02
RMM:   3    -0.706123127097E+03   -0.20265E-03   -0.21773E-03 15152   0.805E-02    0.251E-02
RMM:   4    -0.706123140812E+03   -0.13715E-04   -0.23719E-04 13320   0.271E-02    0.172E-02
RMM:   5    -0.706123137903E+03    0.29084E-05   -0.70697E-05 10779   0.159E-02
  65 F= -.70612314E+03 E0= -.70612314E+03  d E =-.575334E-03
       N       E                     dE             d eps       ncg     rms          rms(c)
DAV:   1    -0.706123118024E+03    0.22788E-04   -0.23331E-02 11712   0.232E-01    0.258E-02
RMM:   2    -0.706123198378E+03   -0.80355E-04   -0.84674E-04 13081   0.641E-02    0.828E-03
RMM:   3    -0.706123218179E+03   -0.19801E-04   -0.21779E-04 13123   0.259E-02    0.718E-03
RMM:   4    -0.706123220227E+03   -0.20477E-05   -0.33531E-05  7065   0.128E-02
  66 F= -.70612322E+03 E0= -.70612322E+03  d E =-.657658E-03
       N       E                     dE             d eps       ncg     rms          rms(c)
DAV:   1    -0.706122859269E+03    0.35891E-03   -0.92361E-02 11160   0.462E-01    0.457E-02
RMM:   2    -0.706123162185E+03   -0.30292E-03   -0.31828E-03 13089   0.126E-01    0.159E-02
RMM:   3    -0.706123239000E+03   -0.76815E-04   -0.82796E-04 14985   0.499E-02    0.151E-02
RMM:   4    -0.706123244500E+03   -0.54997E-05   -0.96876E-05 12201   0.177E-02
  67 F= -.70612324E+03 E0= -.70612324E+03  d E =-.681931E-03
       N       E                     dE             d eps       ncg     rms          rms(c)
DAV:   1    -0.706123035796E+03    0.20320E-03   -0.46181E-02 11176   0.329E-01    0.301E-02
RMM:   2    -0.706123202965E+03   -0.16717E-03   -0.17586E-03 13159   0.936E-02    0.113E-02
RMM:   3    -0.706123244276E+03   -0.41310E-04   -0.44894E-04 14639   0.373E-02    0.126E-02
RMM:   4    -0.706123246755E+03   -0.24791E-05   -0.58168E-05  9738   0.148E-02
  68 F= -.70612325E+03 E0= -.70612325E+03  d E =-.684185E-03
       N       E                     dE             d eps       ncg     rms          rms(c)
DAV:   1    -0.706123202567E+03    0.41709E-04   -0.11549E-02 11080   0.164E-01    0.150E-02
RMM:   2    -0.706123248867E+03   -0.46300E-04   -0.48175E-04 13705   0.464E-02    0.549E-03
RMM:   3    -0.706123256824E+03   -0.79566E-05   -0.96720E-05 12187   0.174E-02
  69 F= -.70612326E+03 E0= -.70612326E+03  d E =-.694254E-03
       N       E                     dE             d eps       ncg     rms          rms(c)
DAV:   1    -0.706123245438E+03    0.34290E-05   -0.20957E-03 11280   0.702E-02    0.973E-03
RMM:   2    -0.706123254351E+03   -0.89125E-05   -0.95126E-05 11096   0.195E-02
  70 F= -.70612325E+03 E0= -.70612325E+03  d E =-.691781E-03
       N       E                     dE             d eps       ncg     rms          rms(c)
DAV:   1    -0.706123253566E+03   -0.81278E-05   -0.76125E-04 10886   0.415E-02    0.487E-03
RMM:   2    -0.706123255807E+03   -0.22413E-05   -0.24695E-05  6086   0.115E-02
  71 F= -.70612326E+03 E0= -.70612326E+03  d E =-.693238E-03
       N       E                     dE             d eps       ncg     rms          rms(c)
DAV:   1    -0.706123254990E+03   -0.14235E-05   -0.18309E-04 11480   0.231E-02    0.267E-03
RMM:   2    -0.706123256353E+03   -0.13638E-05   -0.15968E-05  5305   0.916E-03
  72 F= -.70612326E+03 E0= -.70612326E+03  d E =-.693784E-03
       N       E                     dE             d eps       ncg     rms          rms(c)
DAV:   1    -0.706123255859E+03   -0.86908E-06   -0.36816E-05  8614   0.140E-02    0.121E-03
RMM:   2    -0.706123256645E+03   -0.78583E-06   -0.82535E-06  5134   0.625E-03
  73 F= -.70612326E+03 E0= -.70612326E+03  d E =-.694075E-03
       N       E                     dE             d eps       ncg     rms          rms(c)
DAV:   1    -0.706122717962E+03    0.53790E-03   -0.24203E-01 11373   0.749E-01    0.722E-02
RMM:   2    -0.706123429342E+03   -0.71138E-03   -0.74428E-03 12845   0.192E-01    0.246E-02
RMM:   3    -0.706123614223E+03   -0.18488E-03   -0.19427E-03 14846   0.778E-02    0.227E-02
RMM:   4    -0.706123630180E+03   -0.15957E-04   -0.23216E-04 13391   0.267E-02    0.166E-02
RMM:   5    -0.706123628609E+03    0.15709E-05   -0.60814E-05 10096   0.148E-02
  74 F= -.70612363E+03 E0= -.70612363E+03  d E =-.371965E-03
       N       E                     dE             d eps       ncg     rms          rms(c)
DAV:   1    -0.706123601230E+03    0.28950E-04   -0.29937E-02 11792   0.264E-01    0.281E-02
RMM:   2    -0.706123693419E+03   -0.92189E-04   -0.96510E-04 12831   0.695E-02    0.898E-03
RMM:   3    -0.706123717931E+03   -0.24512E-04   -0.25973E-04 13125   0.286E-02    0.745E-03
RMM:   4    -0.706123720718E+03   -0.27875E-05   -0.39588E-05  7804   0.137E-02
  75 F= -.70612372E+03 E0= -.70612372E+03  d E =-.464074E-03
       N       E                     dE             d eps       ncg     rms          rms(c)
DAV:   1    -0.706123398935E+03    0.31900E-03   -0.11890E-01 11504   0.525E-01    0.509E-02
RMM:   2    -0.706123747611E+03   -0.34868E-03   -0.36454E-03 12866   0.135E-01    0.173E-02
RMM:   3    -0.706123839075E+03   -0.91464E-04   -0.95645E-04 14718   0.546E-02    0.155E-02
RMM:   4    -0.706123846943E+03   -0.78681E-05   -0.11638E-04 12433   0.193E-02    0.109E-02
RMM:   5    -0.706123846418E+03    0.52537E-06   -0.32124E-05  8461   0.117E-02
  76 F= -.70612385E+03 E0= -.70612385E+03  d E =-.589773E-03
       N       E                     dE             d eps       ncg     rms          rms(c)
DAV:   1    -0.706123070911E+03    0.77603E-03   -0.31363E-01 11223   0.855E-01    0.878E-02
RMM:   2    -0.706124070490E+03   -0.99958E-03   -0.10442E-02 13022   0.227E-01    0.295E-02
RMM:   3    -0.706124336963E+03   -0.26647E-03   -0.28166E-03 15101   0.918E-02    0.278E-02
RMM:   4    -0.706124357620E+03   -0.20657E-04   -0.30618E-04 14081   0.307E-02    0.201E-02
RMM:   5    -0.706124354474E+03    0.31462E-05   -0.82473E-05 10878   0.166E-02
  77 F= -.70612435E+03 E0= -.70612435E+03  d E =-.508056E-03
       N       E                     dE             d eps       ncg     rms          rms(c)
DAV:   1    -0.706124334688E+03    0.22932E-04   -0.17615E-02 11880   0.203E-01    0.244E-02
RMM:   2    -0.706124395064E+03   -0.60376E-04   -0.63563E-04 12985   0.567E-02    0.773E-03
RMM:   3    -0.706124411066E+03   -0.16002E-04   -0.17430E-04 12977   0.234E-02    0.588E-03
RMM:   4    -0.706124412897E+03   -0.18309E-05   -0.26965E-05  6463   0.115E-02
  78 F= -.70612441E+03 E0= -.70612441E+03  d E =-.566479E-03
       N       E                     dE             d eps       ncg     rms          rms(c)
DAV:   1    -0.706124167123E+03    0.24394E-03   -0.69901E-02 11280   0.404E-01    0.413E-02
RMM:   2    -0.706124390540E+03   -0.22342E-03   -0.23352E-03 13030   0.108E-01    0.140E-02
RMM:   3    -0.706124449647E+03   -0.59106E-04   -0.63010E-04 14879   0.437E-02    0.129E-02
RMM:   4    -0.706124454267E+03   -0.46198E-05   -0.72236E-05 11433   0.155E-02
  79 F= -.70612445E+03 E0= -.70612445E+03  d E =-.607849E-03
       N       E                     dE             d eps       ncg     rms          rms(c)
DAV:   1    -0.706124327800E+03    0.12185E-03   -0.25213E-02 11472   0.244E-01    0.231E-02
RMM:   2    -0.706124419431E+03   -0.91631E-04   -0.95796E-04 13208   0.681E-02    0.817E-03
RMM:   3    -0.706124439857E+03   -0.20426E-04   -0.22716E-04 13619   0.268E-02    0.907E-03
RMM:   4    -0.706124441219E+03   -0.13622E-05   -0.32685E-05  6960   0.124E-02
  80 F= -.70612444E+03 E0= -.70612444E+03  d E =-.594801E-03
       N       E                     dE             d eps       ncg     rms          rms(c)
DAV:   1    -0.706124410545E+03    0.29312E-04   -0.98600E-03 11248   0.152E-01    0.150E-02
RMM:   2    -0.706124445379E+03   -0.34835E-04   -0.36425E-04 13176   0.413E-02    0.504E-03
RMM:   3    -0.706124452607E+03   -0.72273E-05   -0.83219E-05 11866   0.163E-02
  81 F= -.70612445E+03 E0= -.70612445E+03  d E =-.606189E-03
       N       E                     dE             d eps       ncg     rms          rms(c)
DAV:   1    -0.706124437675E+03    0.77044E-05   -0.23853E-03 11240   0.751E-02    0.991E-03
RMM:   2    -0.706124447466E+03   -0.97906E-05   -0.10272E-04 11278   0.204E-02    0.279E-03
RMM:   3    -0.706124448188E+03   -0.72244E-06   -0.18034E-05  5905   0.909E-03
  82 F= -.70612445E+03 E0= -.70612445E+03  d E =-.601770E-03
       N       E                     dE             d eps       ncg     rms          rms(c)
DAV:   1    -0.706124447676E+03   -0.21000E-06   -0.96061E-04 10932   0.475E-02    0.590E-03
RMM:   2    -0.706124451723E+03   -0.40473E-05   -0.42211E-05  8994   0.133E-02
  83 F= -.70612445E+03 E0= -.70612445E+03  d E =-.605305E-03
       N       E                     dE             d eps       ncg     rms          rms(c)
DAV:   1    -0.706124449890E+03   -0.22149E-05   -0.22811E-04 10608   0.229E-02    0.282E-03
RMM:   2    -0.706124450598E+03   -0.70762E-06   -0.76558E-06  5287   0.601E-03
  84 F= -.70612445E+03 E0= -.70612445E+03  d E =-.604181E-03
       N       E                     dE             d eps       ncg     rms          rms(c)
DAV:   1    -0.706124451012E+03   -0.11219E-05   -0.68226E-05 10234   0.142E-02    0.170E-03
RMM:   2    -0.706124451617E+03   -0.60422E-06   -0.71640E-06  5133   0.618E-03
  85 F= -.70612445E+03 E0= -.70612445E+03  d E =-.605199E-03
       N       E                     dE             d eps       ncg     rms          rms(c)
DAV:   1    -0.706123541653E+03    0.90936E-03   -0.32832E-01 11315   0.873E-01    0.799E-02
RMM:   2    -0.706124513297E+03   -0.97164E-03   -0.10137E-02 13004   0.230E-01    0.288E-02
RMM:   3    -0.706124787720E+03   -0.27442E-03   -0.28617E-03 14915   0.932E-02    0.259E-02
RMM:   4    -0.706124812176E+03   -0.24456E-04   -0.32276E-04 14131   0.315E-02    0.194E-02
RMM:   5    -0.706124810296E+03    0.18801E-05   -0.80775E-05 10753   0.164E-02
  86 F= -.70612481E+03 E0= -.70612481E+03  d E =-.358679E-03
       N       E                     dE             d eps       ncg     rms          rms(c)
DAV:   1    -0.706124807367E+03    0.48088E-05   -0.88689E-03 12032   0.144E-01    0.171E-02
RMM:   2    -0.706124836904E+03   -0.29537E-04   -0.31234E-04 12946   0.407E-02    0.576E-03
RMM:   3    -0.706124845481E+03   -0.85767E-05   -0.96000E-05 11834   0.172E-02
  87 F= -.70612485E+03 E0= -.70612485E+03  d E =-.393864E-03
       N       E                     dE             d eps       ncg     rms          rms(c)
DAV:   1    -0.706124532580E+03    0.30432E-03   -0.12597E-01 10919   0.544E-01    0.555E-02
RMM:   2    -0.706124972712E+03   -0.44013E-03   -0.46103E-03 13283   0.153E-01    0.203E-02
RMM:   3    -0.706125084967E+03   -0.11225E-03   -0.12275E-03 15085   0.604E-02    0.188E-02
RMM:   4    -0.706125091660E+03   -0.66928E-05   -0.13713E-04 12504   0.210E-02    0.111E-02
RMM:   5    -0.706125090390E+03    0.12702E-05   -0.34552E-05  9005   0.122E-02
  88 F= -.70612509E+03 E0= -.70612509E+03  d E =-.244909E-03
       N       E                     dE             d eps       ncg     rms          rms(c)
DAV:   1    -0.706125092450E+03   -0.78951E-06   -0.26526E-04 11152   0.255E-02    0.443E-03
RMM:   2    -0.706125093663E+03   -0.12134E-05   -0.13692E-05  5868   0.867E-03
  89 F= -.70612509E+03 E0= -.70612509E+03  d E =-.248182E-03
       N       E                     dE             d eps       ncg     rms          rms(c)
DAV:   1    -0.706124948687E+03    0.14376E-03   -0.69135E-02 11336   0.402E-01    0.366E-02
RMM:   2    -0.706125157955E+03   -0.20927E-03   -0.21869E-03 13007   0.109E-01    0.134E-02
RMM:   3    -0.706125218974E+03   -0.61019E-04   -0.64422E-04 14617   0.444E-02    0.121E-02
RMM:   4    -0.706125223707E+03   -0.47331E-05   -0.72234E-05 11102   0.159E-02
  90 F= -.70612522E+03 E0= -.70612522E+03  d E =-.130044E-03
       N       E                     dE             d eps       ncg     rms          rms(c)
DAV:   1    -0.706125228247E+03   -0.92734E-05   -0.50894E-04 13960   0.391E-02    0.554E-03
RMM:   2    -0.706125230746E+03   -0.24987E-05   -0.28759E-05  7328   0.122E-02
  91 F= -.70612523E+03 E0= -.70612523E+03  d E =-.137083E-03
       N       E                     dE             d eps       ncg     rms          rms(c)
DAV:   1    -0.706125235898E+03   -0.76506E-05   -0.20955E-03 11724   0.714E-02    0.707E-03
RMM:   2    -0.706125244584E+03   -0.86867E-05   -0.91077E-05 11483   0.219E-02
  92 F= -.70612524E+03 E0= -.70612524E+03  d E =-.150921E-03
       N       E                     dE             d eps       ncg     rms          rms(c)
DAV:   1    -0.706125078371E+03    0.15753E-03   -0.76142E-02 11248   0.422E-01    0.414E-02
RMM:   2    -0.706125315365E+03   -0.23699E-03   -0.24850E-03 13057   0.115E-01    0.155E-02
RMM:   3    -0.706125380794E+03   -0.65429E-04   -0.70413E-04 14710   0.464E-02    0.133E-02
RMM:   4    -0.706125385889E+03   -0.50949E-05   -0.79930E-05 11614   0.165E-02
  93 F= -.70612539E+03 E0= -.70612539E+03  d E =-.141305E-03
       N       E                     dE             d eps       ncg     rms          rms(c)
DAV:   1    -0.706125388804E+03   -0.80095E-05   -0.18877E-04 15040   0.257E-02    0.436E-03
RMM:   2    -0.706125389629E+03   -0.82522E-06   -0.10007E-05  5900   0.663E-03
  94 F= -.70612539E+03 E0= -.70612539E+03  d E =-.145045E-03
       N       E                     dE             d eps       ncg     rms          rms(c)
DAV:   1    -0.706125393219E+03   -0.44149E-05   -0.71077E-04 11356   0.418E-02    0.489E-03
RMM:   2    -0.706125396199E+03   -0.29799E-05   -0.31724E-05  7264   0.131E-02
  95 F= -.70612540E+03 E0= -.70612540E+03  d E =-.151614E-03
       N       E                     dE             d eps       ncg     rms          rms(c)
DAV:   1    -0.706125399088E+03   -0.58690E-05   -0.10666E-04 12280   0.181E-02    0.209E-03
RMM:   2    -0.706125399800E+03   -0.71195E-06   -0.86800E-06  5163   0.716E-03
  96 F= -.70612540E+03 E0= -.70612540E+03  d E =-.155215E-03
       N       E                     dE             d eps       ncg     rms          rms(c)
DAV:   1    -0.706125401534E+03   -0.24465E-05   -0.33074E-04 10800   0.297E-02    0.287E-03
RMM:   2    -0.706125403533E+03   -0.19990E-05   -0.21732E-05  5356   0.121E-02
  97 F= -.70612540E+03 E0= -.70612540E+03  d E =-.158949E-03
       N       E                     dE             d eps       ncg     rms          rms(c)
DAV:   1    -0.706125207929E+03    0.19361E-03   -0.85496E-02 11452   0.443E-01    0.405E-02
RMM:   2    -0.706125447385E+03   -0.23946E-03   -0.25083E-03 12811   0.112E-01    0.148E-02
RMM:   3    -0.706125511936E+03   -0.64551E-04   -0.68780E-04 14637   0.458E-02    0.135E-02
RMM:   4    -0.706125517046E+03   -0.51103E-05   -0.82668E-05 11536   0.165E-02
  98 F= -.70612552E+03 E0= -.70612552E+03  d E =-.113513E-03
       N       E                     dE             d eps       ncg     rms          rms(c)
DAV:   1    -0.706125520673E+03   -0.87377E-05   -0.24758E-04 14320   0.274E-02    0.459E-03
RMM:   2    -0.706125521501E+03   -0.82776E-06   -0.10169E-05  5918   0.691E-03
  99 F= -.70612552E+03 E0= -.70612552E+03  d E =-.117968E-03
       N       E                     dE             d eps       ncg     rms          rms(c)
DAV:   1    -0.706125525399E+03   -0.47258E-05   -0.97941E-04 11342   0.483E-02    0.510E-03
RMM:   2    -0.706125529192E+03   -0.37932E-05   -0.40181E-05  7617   0.145E-02
 100 F= -.70612553E+03 E0= -.70612553E+03  d E =-.125659E-03
       N       E                     dE             d eps       ncg     rms          rms(c)
DAV:   1    -0.706125375100E+03    0.15030E-03   -0.62370E-02 11358   0.381E-01    0.344E-02
RMM:   2    -0.706125564568E+03   -0.18947E-03   -0.19830E-03 13065   0.102E-01    0.132E-02
RMM:   3    -0.706125615677E+03   -0.51109E-04   -0.54981E-04 14641   0.410E-02    0.118E-02
RMM:   4    -0.706125619606E+03   -0.39290E-05   -0.63793E-05 10497   0.150E-02
 101 F= -.70612562E+03 E0= -.70612562E+03  d E =-.904133E-04
       N       E                     dE             d eps       ncg     rms          rms(c)
DAV:   1    -0.706125618969E+03   -0.32920E-05   -0.21002E-05  7895   0.186E-02    0.331E-03
RMM:   2    -0.706125620103E+03   -0.11344E-05   -0.13802E-05  5754   0.803E-03
 102 F= -.70612562E+03 E0= -.70612562E+03  d E =-.909107E-04
       N       E                     dE             d eps       ncg     rms          rms(c)
DAV:   1    -0.706125469472E+03    0.14950E-03   -0.61019E-02 11428   0.372E-01    0.367E-02
RMM:   2    -0.706125644946E+03   -0.17547E-03   -0.18394E-03 12834   0.953E-02    0.125E-02
RMM:   3    -0.706125691352E+03   -0.46406E-04   -0.49449E-04 14254   0.388E-02    0.110E-02
RMM:   4    -0.706125695125E+03   -0.37733E-05   -0.62175E-05 10313   0.152E-02
 103 F= -.70612570E+03 E0= -.70612570E+03  d E =-.750221E-04
       N       E                     dE             d eps       ncg     rms          rms(c)
DAV:   1    -0.706125695999E+03   -0.46471E-05   -0.32696E-05  8424   0.152E-02    0.311E-03
RMM:   2    -0.706125697049E+03   -0.10495E-05   -0.12395E-05  5730   0.818E-03
 104 F= -.70612570E+03 E0= -.70612570E+03  d E =-.769455E-04
       N       E                     dE             d eps       ncg     rms          rms(c)
DAV:   1    -0.706125632580E+03    0.63419E-04   -0.30094E-02 11295   0.263E-01    0.269E-02
RMM:   2    -0.706125724467E+03   -0.91887E-04   -0.96414E-04 12905   0.697E-02    0.921E-03
RMM:   3    -0.706125748686E+03   -0.24219E-04   -0.26406E-04 13305   0.285E-02    0.816E-03
RMM:   4    -0.706125750881E+03   -0.21952E-05   -0.36900E-05  7366   0.131E-02
 105 F= -.70612575E+03 E0= -.70612575E+03  d E =-.538328E-04
