<?xml version="1.0" encoding="ISO-8859-1"?>
<modeling>
 <generator>
  <i name="program" type="string">vasp </i>
  <i name="version" type="string">6.4.2  </i>
  <i name="subversion" type="string">20Jul23 (build Nov 12 2023 22:16:35) complex                          parallel </i>
  <i name="platform" type="string">LinuxNV </i>
  <i name="date" type="string">2025 03 13 </i>
  <i name="time" type="string">01:13:28 </i>
 </generator>
 <incar>
  <i type="int" name="ISTART">     0</i>
  <i type="string" name="PREC">Normal</i>
  <i type="string" name="ALGO">Fast</i>
  <i type="int" name="ISPIN">     1</i>
  <i type="int" name="ICHARG">     2</i>
  <i type="int" name="IBRION">     2</i>
  <i name="EDIFF">      0.00001000</i>
  <i name="EDIFFG">     -0.00500000</i>
  <i type="int" name="NSW">   300</i>
  <i type="int" name="ISIF">     2</i>
  <i name="ENCUT">    450.00000000</i>
  <i type="string" name="LREAL">Auto</i>
  <i type="logical" name="LPLANE"> T  </i>
  <i type="int" name="ISMEAR">     0</i>
  <i name="SIGMA">      0.05000000</i>
  <i type="logical" name="LWAVE"> F  </i>
  <i type="logical" name="LCHARG"> F  </i>
 </incar>
 <primitive_cell>
  <structure name="primitive_cell" >
   <crystal>
    <varray name="basis" >
     <v>       0.00000000      12.28047342       0.00000000 </v>
     <v>       9.14270205       0.00000000       0.00000000 </v>
     <v>       0.00000000      -2.76826177     -11.30069772 </v>
    </varray>
    <i name="volume">   1268.80515525 </i>
    <varray name="rec_basis" >
     <v>       0.00000000       0.08143009      -0.01994742 </v>
     <v>       0.10937686      -0.00000000       0.00000000 </v>
     <v>       0.00000000       0.00000000      -0.08849011 </v>
    </varray>
   </crystal>
   <varray name="positions" >
    <v>       0.65883830       0.00000000       0.15736517 </v>
    <v>       0.65883830       0.00000000       0.65736517 </v>
    <v>       0.65883830       0.33333333       0.15736517 </v>
    <v>       0.65883830       0.33333333       0.65736517 </v>
    <v>       0.65883830       0.66666667       0.15736517 </v>
    <v>       0.65883830       0.66666667       0.65736517 </v>
    <v>       0.84116170       0.16666667       0.34263483 </v>
    <v>       0.84116170       0.16666667       0.84263483 </v>
    <v>       0.84116170       0.50000000       0.34263483 </v>
    <v>       0.84116170       0.50000000       0.84263483 </v>
    <v>       0.84116170       0.83333333       0.34263483 </v>
    <v>       0.84116170       0.83333333       0.84263483 </v>
    <v>       0.59047440       0.16666667       0.39739300 </v>
    <v>       0.59047440       0.16666667       0.89739300 </v>
    <v>       0.59047440       0.50000000       0.39739300 </v>
    <v>       0.59047440       0.50000000       0.89739300 </v>
    <v>       0.59047440       0.83333333       0.39739300 </v>
    <v>       0.59047440       0.83333333       0.89739300 </v>
    <v>       0.90952560       0.00000000       0.10260700 </v>
    <v>       0.90952560       0.00000000       0.60260700 </v>
    <v>       0.90952560       0.33333333       0.10260700 </v>
    <v>       0.90952560       0.33333333       0.60260700 </v>
    <v>       0.90952560       0.66666667       0.10260700 </v>
    <v>       0.90952560       0.66666667       0.60260700 </v>
    <v>       0.15883830       0.16666667       0.65736517 </v>
    <v>       0.15883830       0.50000000       0.15736517 </v>
    <v>       0.15883830       0.50000000       0.65736517 </v>
    <v>       0.15883830       0.83333333       0.15736517 </v>
    <v>       0.15883830       0.83333333       0.65736517 </v>
    <v>       0.34116170       0.00000000       0.34263483 </v>
    <v>       0.34116170       0.00000000       0.84263483 </v>
    <v>       0.34116170       0.33333333       0.34263483 </v>
    <v>       0.34116170       0.33333333       0.84263483 </v>
    <v>       0.34116170       0.66666667       0.34263483 </v>
    <v>       0.34116170       0.66666667       0.84263483 </v>
    <v>       0.09047440       0.00000000       0.39739300 </v>
    <v>       0.09047440       0.00000000       0.89739300 </v>
    <v>       0.09047440       0.33333333       0.39739300 </v>
    <v>       0.09047440       0.33333333       0.89739300 </v>
    <v>       0.09047440       0.66666667       0.39739300 </v>
    <v>       0.09047440       0.66666667       0.89739300 </v>
    <v>       0.40952560       0.16666667       0.10260700 </v>
    <v>       0.40952560       0.16666667       0.60260700 </v>
    <v>       0.40952560       0.50000000       0.10260700 </v>
    <v>       0.40952560       0.50000000       0.60260700 </v>
    <v>       0.40952560       0.83333333       0.10260700 </v>
    <v>       0.40952560       0.83333333       0.60260700 </v>
    <v>       0.99646913       0.16666667       0.12833205 </v>
    <v>       0.99646913       0.16666667       0.62833205 </v>
    <v>       0.99646913       0.50000000       0.12833205 </v>
    <v>       0.99646913       0.50000000       0.62833205 </v>
    <v>       0.99646913       0.83333333       0.12833205 </v>
    <v>       0.99646913       0.83333333       0.62833205 </v>
    <v>       0.50353087       0.00000000       0.37166795 </v>
    <v>       0.50353087       0.00000000       0.87166795 </v>
    <v>       0.50353087       0.33333333       0.37166795 </v>
    <v>       0.50353087       0.33333333       0.87166795 </v>
    <v>       0.50353087       0.66666667       0.37166795 </v>
    <v>       0.50353087       0.66666667       0.87166795 </v>
    <v>       0.67337106       0.16666667       0.28161508 </v>
    <v>       0.67337106       0.16666667       0.78161508 </v>
    <v>       0.67337106       0.50000000       0.28161508 </v>
    <v>       0.67337106       0.50000000       0.78161508 </v>
    <v>       0.67337106       0.83333333       0.28161508 </v>
    <v>       0.67337106       0.83333333       0.78161508 </v>
    <v>       0.82662894       0.00000000       0.21838492 </v>
    <v>       0.82662894       0.00000000       0.71838492 </v>
    <v>       0.82662894       0.33333333       0.21838492 </v>
    <v>       0.82662894       0.33333333       0.71838492 </v>
    <v>       0.82662894       0.66666667       0.21838492 </v>
    <v>       0.82662894       0.66666667       0.71838492 </v>
    <v>       0.83549502       0.00000000       0.44542296 </v>
    <v>       0.83549502       0.00000000       0.94542296 </v>
    <v>       0.83549502       0.33333333       0.44542296 </v>
    <v>       0.83549502       0.33333333       0.94542296 </v>
    <v>       0.83549502       0.66666667       0.44542296 </v>
    <v>       0.83549502       0.66666667       0.94542296 </v>
    <v>       0.66450498       0.16666667       0.05457704 </v>
    <v>       0.66450498       0.16666667       0.55457704 </v>
    <v>       0.66450498       0.50000000       0.05457704 </v>
    <v>       0.66450498       0.50000000       0.55457704 </v>
    <v>       0.66450498       0.83333333       0.05457704 </v>
    <v>       0.66450498       0.83333333       0.55457704 </v>
    <v>       0.49646913       0.00000000       0.12833205 </v>
    <v>       0.49646913       0.00000000       0.62833205 </v>
    <v>       0.49646913       0.33333333       0.12833205 </v>
    <v>       0.49646913       0.33333333       0.62833205 </v>
    <v>       0.49646913       0.66666667       0.12833205 </v>
    <v>       0.49646913       0.66666667       0.62833205 </v>
    <v>       0.00353087       0.16666667       0.37166795 </v>
    <v>       0.00353087       0.16666667       0.87166795 </v>
    <v>       0.00353087       0.50000000       0.37166795 </v>
    <v>       0.00353087       0.50000000       0.87166795 </v>
    <v>       0.00353087       0.83333333       0.37166795 </v>
    <v>       0.00353087       0.83333333       0.87166795 </v>
    <v>       0.17337106       0.00000000       0.78161508 </v>
    <v>       0.17337106       0.33333333       0.28161508 </v>
    <v>       0.17337106       0.33333333       0.78161508 </v>
    <v>       0.17337106       0.66666667       0.28161508 </v>
    <v>       0.17337106       0.66666667       0.78161508 </v>
    <v>       0.32662894       0.16666667       0.21838492 </v>
    <v>       0.32662894       0.16666667       0.71838492 </v>
    <v>       0.32662894       0.50000000       0.21838492 </v>
    <v>       0.32662894       0.50000000       0.71838492 </v>
    <v>       0.32662894       0.83333333       0.21838492 </v>
    <v>       0.32662894       0.83333333       0.71838492 </v>
    <v>       0.33549502       0.16666667       0.44542296 </v>
    <v>       0.33549502       0.16666667       0.94542296 </v>
    <v>       0.33549502       0.50000000       0.44542296 </v>
    <v>       0.33549502       0.50000000       0.94542296 </v>
    <v>       0.33549502       0.83333333       0.44542296 </v>
    <v>       0.33549502       0.83333333       0.94542296 </v>
    <v>       0.16450498       0.00000000       0.05457704 </v>
    <v>       0.16450498       0.00000000       0.55457704 </v>
    <v>       0.16450498       0.33333333       0.05457704 </v>
    <v>       0.16450498       0.33333333       0.55457704 </v>
    <v>       0.16450498       0.66666667       0.05457704 </v>
    <v>       0.16450498       0.66666667       0.55457704 </v>
    <v>       0.17337106       0.00000000       0.28161508 </v>
   </varray>
  </structure>
  <varray name="primitive_index" >
   <v type="int" >        1 </v>
   <v type="int" >        2 </v>
   <v type="int" >        3 </v>
   <v type="int" >        4 </v>
   <v type="int" >        5 </v>
   <v type="int" >        6 </v>
   <v type="int" >        7 </v>
   <v type="int" >        8 </v>
   <v type="int" >        9 </v>
   <v type="int" >       10 </v>
   <v type="int" >       11 </v>
   <v type="int" >       12 </v>
   <v type="int" >       13 </v>
   <v type="int" >       14 </v>
   <v type="int" >       15 </v>
   <v type="int" >       16 </v>
   <v type="int" >       17 </v>
   <v type="int" >       18 </v>
   <v type="int" >       19 </v>
   <v type="int" >       20 </v>
   <v type="int" >       21 </v>
   <v type="int" >       22 </v>
   <v type="int" >       23 </v>
   <v type="int" >       24 </v>
   <v type="int" >       25 </v>
   <v type="int" >       26 </v>
   <v type="int" >       27 </v>
   <v type="int" >       28 </v>
   <v type="int" >       29 </v>
   <v type="int" >       30 </v>
   <v type="int" >       31 </v>
   <v type="int" >       32 </v>
   <v type="int" >       33 </v>
   <v type="int" >       34 </v>
   <v type="int" >       35 </v>
   <v type="int" >       36 </v>
   <v type="int" >       37 </v>
   <v type="int" >       38 </v>
   <v type="int" >       39 </v>
   <v type="int" >       40 </v>
   <v type="int" >       41 </v>
   <v type="int" >       42 </v>
   <v type="int" >       43 </v>
   <v type="int" >       44 </v>
   <v type="int" >       45 </v>
   <v type="int" >       46 </v>
   <v type="int" >       47 </v>
   <v type="int" >       48 </v>
   <v type="int" >       49 </v>
   <v type="int" >       50 </v>
   <v type="int" >       51 </v>
   <v type="int" >       52 </v>
   <v type="int" >       53 </v>
   <v type="int" >       54 </v>
   <v type="int" >       55 </v>
   <v type="int" >       56 </v>
   <v type="int" >       57 </v>
   <v type="int" >       58 </v>
   <v type="int" >       59 </v>
   <v type="int" >       60 </v>
   <v type="int" >       61 </v>
   <v type="int" >       62 </v>
   <v type="int" >       63 </v>
   <v type="int" >       64 </v>
   <v type="int" >       65 </v>
   <v type="int" >       66 </v>
   <v type="int" >       67 </v>
   <v type="int" >       68 </v>
   <v type="int" >       69 </v>
   <v type="int" >       70 </v>
   <v type="int" >       71 </v>
   <v type="int" >       72 </v>
   <v type="int" >       73 </v>
   <v type="int" >       74 </v>
   <v type="int" >       75 </v>
   <v type="int" >       76 </v>
   <v type="int" >       77 </v>
   <v type="int" >       78 </v>
   <v type="int" >       79 </v>
   <v type="int" >       80 </v>
   <v type="int" >       81 </v>
   <v type="int" >       82 </v>
   <v type="int" >       83 </v>
   <v type="int" >       84 </v>
   <v type="int" >       85 </v>
   <v type="int" >       86 </v>
   <v type="int" >       87 </v>
   <v type="int" >       88 </v>
   <v type="int" >       89 </v>
   <v type="int" >       90 </v>
   <v type="int" >       91 </v>
   <v type="int" >       92 </v>
   <v type="int" >       93 </v>
   <v type="int" >       94 </v>
   <v type="int" >       95 </v>
   <v type="int" >       96 </v>
   <v type="int" >       97 </v>
   <v type="int" >       98 </v>
   <v type="int" >       99 </v>
   <v type="int" >      100 </v>
   <v type="int" >      101 </v>
   <v type="int" >      102 </v>
   <v type="int" >      103 </v>
   <v type="int" >      104 </v>
   <v type="int" >      105 </v>
   <v type="int" >      106 </v>
   <v type="int" >      107 </v>
   <v type="int" >      108 </v>
   <v type="int" >      109 </v>
   <v type="int" >      110 </v>
   <v type="int" >      111 </v>
   <v type="int" >      112 </v>
   <v type="int" >      113 </v>
   <v type="int" >      114 </v>
   <v type="int" >      115 </v>
   <v type="int" >      116 </v>
   <v type="int" >      117 </v>
   <v type="int" >      118 </v>
   <v type="int" >      119 </v>
  </varray>
 </primitive_cell>
 <kpoints>
  <generation param="Gamma">
   <v type="int" name="divisions">       2        2        2 </v>
   <v name="usershift">      0.00000000       0.00000000       0.00000000 </v>
   <v name="genvec1">      0.50000000       0.00000000       0.00000000 </v>
   <v name="genvec2">      0.00000000       0.50000000       0.00000000 </v>
   <v name="genvec3">      0.00000000       0.00000000       0.50000000 </v>
   <v name="shift">      0.00000000       0.00000000       0.00000000 </v>
  </generation>
  <varray name="kpointlist" >
   <v>       0.00000000       0.00000000       0.00000000 </v>
   <v>       0.50000000       0.00000000       0.00000000 </v>
   <v>       0.00000000       0.50000000       0.00000000 </v>
   <v>       0.50000000       0.50000000       0.00000000 </v>
   <v>       0.00000000       0.00000000       0.50000000 </v>
   <v>       0.50000000       0.00000000       0.50000000 </v>
   <v>       0.00000000       0.50000000       0.50000000 </v>
   <v>       0.50000000       0.50000000       0.50000000 </v>
  </varray>
  <varray name="weights" >
   <v>       0.12500000 </v>
   <v>       0.12500000 </v>
   <v>       0.12500000 </v>
   <v>       0.12500000 </v>
   <v>       0.12500000 </v>
   <v>       0.12500000 </v>
   <v>       0.12500000 </v>
   <v>       0.12500000 </v>
  </varray>
 </kpoints>
 <parameters>
  <separator name="general" >
   <i type="string" name="SYSTEM">unknown system</i>
   <i type="logical" name="LCOMPAT"> F  </i>
  </separator>
  <separator name="electronic" >
   <i type="string" name="PREC">normal</i>
   <i name="ENMAX">    450.00000000</i>
   <i name="ENAUG">    605.39200000</i>
   <i name="EDIFF">      0.00001000</i>
   <i type="int" name="IALGO">    68</i>
   <i type="int" name="IWAVPR">    11</i>
   <i type="int" name="NBANDS">   625</i>
   <i type="int" name="NBANDSLOW">    -1</i>
   <i type="int" name="NBANDSHIGH">    -1</i>
   <i name="NELECT">   1042.00000000</i>
   <i type="int" name="TURBO">     0</i>
   <i type="int" name="IRESTART">     0</i>
   <i type="int" name="NREBOOT">     0</i>
   <i type="int" name="NMIN">     0</i>
   <i name="EREF">      0.00000000</i>
   <separator name="electronic smearing" >
    <i type="int" name="ISMEAR">     0</i>
    <i name="SIGMA">      0.05000000</i>
    <i name="KSPACING">      0.50000000</i>
    <i type="logical" name="KGAMMA"> T  </i>
    <i type="logical" name="KBLOWUP"> T  </i>
   </separator>
   <separator name="electronic projectors" >
    <i type="logical" name="LREAL"> T  </i>
    <v name="ROPT">     -0.00050000     -0.00050000     -0.00050000</v>
    <i type="int" name="LMAXPAW">  -100</i>
    <i type="int" name="LMAXMIX">     2</i>
    <i type="logical" name="NLSPLINE"> F  </i>
   </separator>
   <separator name="electronic startup" >
    <i type="int" name="ISTART">     0</i>
    <i type="int" name="ICHARG">     2</i>
    <i type="int" name="INIWAV">     1</i>
   </separator>
   <separator name="electronic spin" >
    <i type="int" name="ISPIN">     1</i>
    <i type="logical" name="LNONCOLLINEAR"> F  </i>
    <v name="MAGMOM">      1.00000000      1.00000000      1.00000000      1.00000000      1.00000000      1.00000000      1.00000000      1.00000000      1.00000000      1.00000000      1.00000000      1.00000000      1.00000000      1.00000000      1.00000000      1.00000000      1.00000000      1.00000000      1.00000000      1.00000000
      1.00000000      1.00000000      1.00000000      1.00000000      1.00000000      1.00000000      1.00000000      1.00000000      1.00000000      1.00000000      1.00000000      1.00000000      1.00000000      1.00000000      1.00000000      1.00000000      1.00000000      1.00000000      1.00000000      1.00000000
      1.00000000      1.00000000      1.00000000      1.00000000      1.00000000      1.00000000      1.00000000      1.00000000      1.00000000      1.00000000      1.00000000      1.00000000      1.00000000      1.00000000      1.00000000      1.00000000      1.00000000      1.00000000      1.00000000      1.00000000
      1.00000000      1.00000000      1.00000000      1.00000000      1.00000000      1.00000000      1.00000000      1.00000000      1.00000000      1.00000000      1.00000000      1.00000000      1.00000000      1.00000000      1.00000000      1.00000000      1.00000000      1.00000000      1.00000000      1.00000000
      1.00000000      1.00000000      1.00000000      1.00000000      1.00000000      1.00000000      1.00000000      1.00000000      1.00000000      1.00000000      1.00000000      1.00000000      1.00000000      1.00000000      1.00000000      1.00000000      1.00000000      1.00000000      1.00000000      1.00000000
      1.00000000      1.00000000      1.00000000      1.00000000      1.00000000      1.00000000      1.00000000      1.00000000      1.00000000      1.00000000      1.00000000      1.00000000      1.00000000      1.00000000      1.00000000      1.00000000      1.00000000      1.00000000      1.00000000</v>
    <i name="NUPDOWN">     -1.00000000</i>
    <i type="logical" name="LSORBIT"> F  </i>
    <v name="SAXIS">      0.00000000      0.00000000      1.00000000</v>
    <i type="logical" name="LSPIRAL"> F  </i>
    <v name="QSPIRAL">      0.00000000      0.00000000      0.00000000</v>
    <i type="logical" name="LZEROZ"> F  </i>
   </separator>
   <separator name="electronic exchange-correlation" >
    <i type="logical" name="LASPH"> F  </i>
    <i type="logical" name="LMETAGGA"> F  </i>
   </separator>
   <separator name="electronic convergence" >
    <i type="int" name="NELM">    60</i>
    <i type="int" name="NELMDL">    -5</i>
    <i type="int" name="NELMIN">     2</i>
    <i name="ENINI">    450.00000000</i>
    <separator name="electronic convergence detail" >
     <i type="logical" name="LDIAG"> T  </i>
     <i type="logical" name="LSUBROT"> F  </i>
     <i name="WEIMIN">      0.00100000</i>
     <i name="EBREAK">      0.00000000</i>
     <i name="DEPER">      0.30000000</i>
     <i type="int" name="NRMM">     4</i>
     <i name="TIME">      0.40000000</i>
    </separator>
   </separator>
   <separator name="electronic mixer" >
    <i name="AMIX">      0.40000000</i>
    <i name="BMIX">      1.00000000</i>
    <i name="AMIN">      0.10000000</i>
    <i name="AMIX_MAG">      1.60000000</i>
    <i name="BMIX_MAG">      1.00000000</i>
    <separator name="electronic mixer details" >
     <i type="int" name="IMIX">     4</i>
     <i type="logical" name="MIXFIRST"> F  </i>
     <i type="int" name="MAXMIX">   -45</i>
     <i name="WC">    100.00000000</i>
     <i type="int" name="INIMIX">     1</i>
     <i type="int" name="MIXPRE">     1</i>
     <i type="int" name="MREMOVE">     5</i>
    </separator>
   </separator>
   <separator name="electronic dipolcorrection" >
    <i type="logical" name="LDIPOL"> F  </i>
    <i type="logical" name="LMONO"> F  </i>
    <i type="int" name="IDIPOL">     0</i>
    <i name="EPSILON">      1.00000000</i>
    <v name="DIPOL">   -100.00000000   -100.00000000   -100.00000000</v>
    <i name="EFIELD">      0.00000000</i>
   </separator>
  </separator>
  <separator name="grids" >
   <i type="int" name="NGX">    64</i>
   <i type="int" name="NGY">    48</i>
   <i type="int" name="NGZ">    60</i>
   <i type="int" name="NGXF">   128</i>
   <i type="int" name="NGYF">    96</i>
   <i type="int" name="NGZF">   120</i>
   <i type="logical" name="ADDGRID"> F  </i>
  </separator>
  <separator name="ionic" >
   <i type="int" name="NSW">   300</i>
   <i type="int" name="IBRION">     2</i>
   <i type="int" name="MDALGO">     0</i>
   <i type="int" name="ISIF">     2</i>
   <i name="PSTRESS">      0.00000000</i>
   <i name="EDIFFG">     -0.00500000</i>
   <i type="int" name="NFREE">     1</i>
   <i name="POTIM">      0.50000000</i>
   <i name="SMASS">     -3.00000000</i>
   <i name="SCALEE">      1.00000000</i>
  </separator>
  <separator name="ionic md" >
   <i name="TEBEG">      0.00010000</i>
   <i name="TEEND">      0.00010000</i>
   <i type="int" name="NBLOCK">     1</i>
   <i type="int" name="KBLOCK">   300</i>
   <i type="int" name="NPACO">   256</i>
   <i name="APACO">     10.00000000</i>
  </separator>
  <separator name="symmetry" >
   <i type="int" name="ISYM">     2</i>
   <i name="SYMPREC">      0.00001000</i>
  </separator>
  <separator name="dos" >
   <i type="int" name="LORBIT">     0</i>
   <v name="RWIGS">     -1.00000000     -1.00000000     -1.00000000</v>
   <i type="int" name="NEDOS">   301</i>
   <i name="EMIN">     10.00000000</i>
   <i name="EMAX">    -10.00000000</i>
   <i name="EFERMI">      0.00000000</i>
  </separator>
  <separator name="writing" >
   <i type="int" name="NWRITE">     2</i>
   <i type="logical" name="LWAVE"> F  </i>
   <i type="logical" name="LDOWNSAMPLE"> F  </i>
   <i type="logical" name="LCHARG"> F  </i>
   <i type="logical" name="LPARD"> F  </i>
   <i type="logical" name="LVTOT"> F  </i>
   <i type="logical" name="LVHAR"> F  </i>
   <i type="logical" name="LELF"> F  </i>
   <i type="logical" name="LOPTICS"> F  </i>
   <v name="STM">      0.00000000      0.00000000      0.00000000      0.00000000      0.00000000      0.00000000      0.00000000</v>
  </separator>
  <separator name="performance" >
   <i type="int" name="NPAR">     1</i>
   <i type="int" name="NSIM">     4</i>
   <i type="int" name="NBLK">    -1</i>
   <i type="logical" name="LPLANE"> T  </i>
   <i type="logical" name="LSCALAPACK"> T  </i>
   <i type="logical" name="LSCAAWARE"> F  </i>
   <i type="logical" name="LSCALU"> F  </i>
   <i type="logical" name="LASYNC"> F  </i>
   <i type="logical" name="LORBITALREAL"> F  </i>
  </separator>
  <separator name="miscellaneous" >
   <i type="int" name="IDIOT">     3</i>
   <i type="int" name="PHON_NSTRUCT">    -1</i>
   <i type="logical" name="LMUSIC"> F  </i>
   <v name="POMASS">     69.72300000     16.00000000     30.97400000</v>
   <v name="DARWINR">      0.00000000      0.00000000      0.00000000</v>
   <v name="DARWINV">      1.00000000      1.00000000      1.00000000</v>
   <i type="logical" name="LCORR"> T  </i>
  </separator>
  <i type="logical" name="GGA_COMPAT"> T  </i>
  <i type="logical" name="LBERRY"> F  </i>
  <i type="int" name="ICORELEVEL">     0</i>
  <i type="logical" name="LDAU"> F  </i>
  <i type="int" name="I_CONSTRAINED_M">     0</i>
  <separator name="electronic exchange-correlation" >
   <i type="string" name="GGA">--</i>
   <i type="int" name="VOSKOWN">     0</i>
   <i type="logical" name="LHFCALC"> F  </i>
   <i type="string" name="PRECFOCK"></i>
   <i type="logical" name="LSYMGRAD"> F  </i>
   <i type="logical" name="LHFONE"> F  </i>
   <i type="logical" name="LRHFCALC"> F  </i>
   <i type="logical" name="LTHOMAS"> F  </i>
   <i type="logical" name="LMODELHF"> F  </i>
   <i type="logical" name="LFOCKACE"> F  </i>
   <i name="ENCUT4O">     -1.00000000</i>
   <i type="int" name="EXXOEP">     0</i>
   <i type="int" name="FOURORBIT">     0</i>
   <i name="AEXX">      0.00000000</i>
   <i name="HFALPHA">      0.00000000</i>
   <i name="MCALPHA">      0.00000000</i>
   <i name="ALDAX">      1.00000000</i>
   <i name="AGGAX">      1.00000000</i>
   <i name="ALDAC">      1.00000000</i>
   <i name="AGGAC">      1.00000000</i>
   <i type="int" name="NKREDX">     1</i>
   <i type="int" name="NKREDY">     1</i>
   <i type="int" name="NKREDZ">     1</i>
   <i type="logical" name="SHIFTRED"> F  </i>
   <i type="logical" name="ODDONLY"> F  </i>
   <i type="logical" name="EVENONLY"> F  </i>
   <i type="int" name="LMAXFOCK">     0</i>
   <i type="int" name="NMAXFOCKAE">     0</i>
   <i type="logical" name="LFOCKAEDFT"> F  </i>
   <i name="HFSCREEN">      0.00000000</i>
   <i name="HFSCREENC">      0.00000000</i>
   <i type="int" name="NBANDSGWLOW">     0</i>
  </separator>
  <separator name="vdW DFT" >
   <i type="logical" name="LUSE_VDW"> F  </i>
   <i type="int" name="IVDW_NL">     1</i>
   <i type="logical" name="LSPIN_VDW"> F  </i>
   <i name="Zab_VDW">     -0.84910000</i>
   <i name="PARAM1">      0.12340000</i>
   <i name="PARAM2">      1.00000000</i>
   <i name="PARAM3">      0.00000000</i>
  </separator>
  <separator name="model GW" >
   <i type="int" name="MODEL_GW">     0</i>
   <i name="MODEL_EPS0">      6.39733692</i>
   <i name="MODEL_ALPHA">      1.00000000</i>
  </separator>
  <separator name="linear response parameters" >
   <i type="logical" name="LEPSILON"> F  </i>
   <i type="logical" name="LRPA"> F  </i>
   <i type="logical" name="LNABLA"> F  </i>
   <i type="logical" name="LVEL"> F  </i>
   <i name="CSHIFT">      0.10000000</i>
   <i name="OMEGAMAX">     -1.00000000</i>
   <i name="DEG_THRESHOLD">      0.00200000</i>
   <i name="RTIME">     -0.10000000</i>
   <i name="WPLASMAI">      0.00000000</i>
   <v name="DFIELD">      0.00000000      0.00000000      0.00000000</v>
   <v name="WPLASMA">      0.00000000      0.00000000      0.00000000      0.00000000      0.00000000      0.00000000      0.00000000      0.00000000      0.00000000</v>
  </separator>
  <separator name="orbital magnetization" >
   <i type="logical" name="NUCIND"> F  </i>
   <v name="MAGPOS">      0.00000000      0.00000000      0.00000000</v>
   <i type="logical" name="LNICSALL"> T  </i>
   <i type="logical" name="ORBITALMAG"> F  </i>
   <i type="logical" name="LMAGBLOCH"> F  </i>
   <i type="logical" name="LCHIMAG"> F  </i>
   <i type="logical" name="LGAUGE"> T  </i>
   <i type="int" name="MAGATOM">     0</i>
   <v name="MAGDIPOL">      0.00000000      0.00000000      0.00000000</v>
   <v name="AVECCONST">      0.00000000      0.00000000      0.00000000</v>
  </separator>
  <separator name="response functions" >
   <i type="logical" name="LALL_IN_ONE"> F  </i>
   <i type="int" name="IALL_IN_ONE">    -1</i>
   <i type="int" name="NBANDS_WAVE">    -1</i>
   <i type="logical" name="LFINITE_TEMPERATURE"> F  </i>
   <i type="logical" name="LADDER"> F  </i>
   <i type="logical" name="LRPAFORCE"> F  </i>
   <i type="logical" name="LFXC"> F  </i>
   <i type="logical" name="LHARTREE"> T  </i>
   <i type="int" name="IBSE">     0</i>
   <v type="int" name="KPOINT">    -1     0     0     0</v>
   <i type="logical" name="LTCTC"> F  </i>
   <i type="logical" name="LTCTE"> F  </i>
   <i type="logical" name="LTETE"> F  </i>
   <i type="logical" name="LTRIPLET"> F  </i>
   <i type="logical" name="LFXCEPS"> F  </i>
   <i type="logical" name="LFXHEG"> F  </i>
   <i type="int" name="NATURALO">     2</i>
   <i type="logical" name="LHOLEGF"> F  </i>
   <i type="logical" name="L2ORDER"> F  </i>
   <i type="logical" name="LDMP1"> F  </i>
   <i type="logical" name="LMP2LT"> F  </i>
   <i type="logical" name="LSMP2LT"> F  </i>
   <i type="logical" name="LGWLF"> F  </i>
   <i name="ENCUTGW">     -1.60000002</i>
   <i name="ENCUTGWSOFT">     -1.60000002</i>
   <i name="ENCUTLF">     -1.00000000</i>
   <i type="logical" name="LESF_SPLINES"> F  </i>
   <i type="int" name="LMAXMP2">    -1</i>
   <i name="SCISSOR">      0.00000000</i>
   <i type="int" name="NOMEGA">     0</i>
   <i type="int" name="NOMEGAR">     0</i>
   <i type="int" name="NBANDSGW">    -1</i>
   <i type="int" name="NBANDSO">    -1</i>
   <i type="int" name="NBANDSV">    -1</i>
   <i type="int" name="NELMGW">     1</i>
   <i type="int" name="NELMHF">     1</i>
   <i type="int" name="DIM">     3</i>
   <i type="int" name="IESPILON">     4</i>
   <i type="int" name="ANTIRES">     0</i>
   <i name="OMEGAMAX">    -30.00000000</i>
   <i name="OMEGAMIN">    -30.00000000</i>
   <i name="OMEGATL">   -200.00000000</i>
   <i type="int" name="OMEGAGRID">     0</i>
   <i name="CSHIFT">     -0.10000000</i>
   <i type="logical" name="LSELFENERGY"> F  </i>
   <i type="logical" name="LSPECTRAL"> F  </i>
   <i type="logical" name="LSPECTRALGW"> F  </i>
   <i type="logical" name="LSINGLES"> F  </i>
   <i type="logical" name="LFERMIGW"> F  </i>
   <i type="logical" name="ODDONLYGW"> F  </i>
   <i type="logical" name="EVENONLYGW"> F  </i>
   <i type="int" name="NKREDLFX">     1</i>
   <i type="int" name="NKREDLFY">     1</i>
   <i type="int" name="NKREDLFZ">     1</i>
   <i type="int" name="MAXMEM">  2800</i>
   <i type="int" name="TELESCOPE">     0</i>
   <i type="int" name="NTAUPAR">    -1</i>
   <i type="int" name="NOMEGAPAR">    -1</i>
   <i name="DAMP_NEWTON">      0.80000001</i>
   <i name="LAMBDA">      1.00000000</i>
  </separator>
  <separator name="External order field" >
   <i name="OFIELD_KAPPA">      0.00000000</i>
   <v name="OFIELD_K">      0.00000000      0.00000000      0.00000000</v>
   <i name="OFIELD_Q6_NEAR">      0.00000000</i>
   <i name="OFIELD_Q6_FAR">      0.00000000</i>
   <i name="OFIELD_A">      0.00000000</i>
  </separator>
  <separator name="optional k-points parameters" >
   <i type="int" name="KPOINTS_OPT_MODE">     1</i>
   <i type="logical" name="LKPOINTS_OPT"> F  </i>
  </separator>
 </parameters>
 <atominfo>
  <atoms>     119 </atoms>
  <types>       3 </types>
  <array name="atoms" >
   <dimension dim="1">ion</dimension>
   <field type="string">element</field>
   <field type="int">atomtype</field>
   <set>
    <rc><c>Ga</c><c>   1</c></rc>
    <rc><c>Ga</c><c>   1</c></rc>
    <rc><c>Ga</c><c>   1</c></rc>
    <rc><c>Ga</c><c>   1</c></rc>
    <rc><c>Ga</c><c>   1</c></rc>
    <rc><c>Ga</c><c>   1</c></rc>
    <rc><c>Ga</c><c>   1</c></rc>
    <rc><c>Ga</c><c>   1</c></rc>
    <rc><c>Ga</c><c>   1</c></rc>
    <rc><c>Ga</c><c>   1</c></rc>
    <rc><c>Ga</c><c>   1</c></rc>
    <rc><c>Ga</c><c>   1</c></rc>
    <rc><c>Ga</c><c>   1</c></rc>
    <rc><c>Ga</c><c>   1</c></rc>
    <rc><c>Ga</c><c>   1</c></rc>
    <rc><c>Ga</c><c>   1</c></rc>
    <rc><c>Ga</c><c>   1</c></rc>
    <rc><c>Ga</c><c>   1</c></rc>
    <rc><c>Ga</c><c>   1</c></rc>
    <rc><c>Ga</c><c>   1</c></rc>
    <rc><c>Ga</c><c>   1</c></rc>
    <rc><c>Ga</c><c>   1</c></rc>
    <rc><c>Ga</c><c>   1</c></rc>
    <rc><c>Ga</c><c>   1</c></rc>
    <rc><c>Ga</c><c>   1</c></rc>
    <rc><c>Ga</c><c>   1</c></rc>
    <rc><c>Ga</c><c>   1</c></rc>
    <rc><c>Ga</c><c>   1</c></rc>
    <rc><c>Ga</c><c>   1</c></rc>
    <rc><c>Ga</c><c>   1</c></rc>
    <rc><c>Ga</c><c>   1</c></rc>
    <rc><c>Ga</c><c>   1</c></rc>
    <rc><c>Ga</c><c>   1</c></rc>
    <rc><c>Ga</c><c>   1</c></rc>
    <rc><c>Ga</c><c>   1</c></rc>
    <rc><c>Ga</c><c>   1</c></rc>
    <rc><c>Ga</c><c>   1</c></rc>
    <rc><c>Ga</c><c>   1</c></rc>
    <rc><c>Ga</c><c>   1</c></rc>
    <rc><c>Ga</c><c>   1</c></rc>
    <rc><c>Ga</c><c>   1</c></rc>
    <rc><c>Ga</c><c>   1</c></rc>
    <rc><c>Ga</c><c>   1</c></rc>
    <rc><c>Ga</c><c>   1</c></rc>
    <rc><c>Ga</c><c>   1</c></rc>
    <rc><c>Ga</c><c>   1</c></rc>
    <rc><c>Ga</c><c>   1</c></rc>
    <rc><c>O </c><c>   2</c></rc>
    <rc><c>O </c><c>   2</c></rc>
    <rc><c>O </c><c>   2</c></rc>
    <rc><c>O </c><c>   2</c></rc>
    <rc><c>O </c><c>   2</c></rc>
    <rc><c>O </c><c>   2</c></rc>
    <rc><c>O </c><c>   2</c></rc>
    <rc><c>O </c><c>   2</c></rc>
    <rc><c>O </c><c>   2</c></rc>
    <rc><c>O </c><c>   2</c></rc>
    <rc><c>O </c><c>   2</c></rc>
    <rc><c>O </c><c>   2</c></rc>
    <rc><c>O </c><c>   2</c></rc>
    <rc><c>O </c><c>   2</c></rc>
    <rc><c>O </c><c>   2</c></rc>
    <rc><c>O </c><c>   2</c></rc>
    <rc><c>O </c><c>   2</c></rc>
    <rc><c>O </c><c>   2</c></rc>
    <rc><c>O </c><c>   2</c></rc>
    <rc><c>O </c><c>   2</c></rc>
    <rc><c>O </c><c>   2</c></rc>
    <rc><c>O </c><c>   2</c></rc>
    <rc><c>O </c><c>   2</c></rc>
    <rc><c>O </c><c>   2</c></rc>
    <rc><c>O </c><c>   2</c></rc>
    <rc><c>O </c><c>   2</c></rc>
    <rc><c>O </c><c>   2</c></rc>
    <rc><c>O </c><c>   2</c></rc>
    <rc><c>O </c><c>   2</c></rc>
    <rc><c>O </c><c>   2</c></rc>
    <rc><c>O </c><c>   2</c></rc>
    <rc><c>O </c><c>   2</c></rc>
    <rc><c>O </c><c>   2</c></rc>
    <rc><c>O </c><c>   2</c></rc>
    <rc><c>O </c><c>   2</c></rc>
    <rc><c>O </c><c>   2</c></rc>
    <rc><c>O </c><c>   2</c></rc>
    <rc><c>O </c><c>   2</c></rc>
    <rc><c>O </c><c>   2</c></rc>
    <rc><c>O </c><c>   2</c></rc>
    <rc><c>O </c><c>   2</c></rc>
    <rc><c>O </c><c>   2</c></rc>
    <rc><c>O </c><c>   2</c></rc>
    <rc><c>O </c><c>   2</c></rc>
    <rc><c>O </c><c>   2</c></rc>
    <rc><c>O </c><c>   2</c></rc>
    <rc><c>O </c><c>   2</c></rc>
    <rc><c>O </c><c>   2</c></rc>
    <rc><c>O </c><c>   2</c></rc>
    <rc><c>O </c><c>   2</c></rc>
    <rc><c>O </c><c>   2</c></rc>
    <rc><c>O </c><c>   2</c></rc>
    <rc><c>O </c><c>   2</c></rc>
    <rc><c>O </c><c>   2</c></rc>
    <rc><c>O </c><c>   2</c></rc>
    <rc><c>O </c><c>   2</c></rc>
    <rc><c>O </c><c>   2</c></rc>
    <rc><c>O </c><c>   2</c></rc>
    <rc><c>O </c><c>   2</c></rc>
    <rc><c>O </c><c>   2</c></rc>
    <rc><c>O </c><c>   2</c></rc>
    <rc><c>O </c><c>   2</c></rc>
    <rc><c>O </c><c>   2</c></rc>
    <rc><c>O </c><c>   2</c></rc>
    <rc><c>O </c><c>   2</c></rc>
    <rc><c>O </c><c>   2</c></rc>
    <rc><c>O </c><c>   2</c></rc>
    <rc><c>O </c><c>   2</c></rc>
    <rc><c>O </c><c>   2</c></rc>
    <rc><c>O </c><c>   2</c></rc>
    <rc><c>O </c><c>   2</c></rc>
    <rc><c>P </c><c>   3</c></rc>
   </set>
  </array>
  <array name="atomtypes" >
   <dimension dim="1">type</dimension>
   <field type="int">atomspertype</field>
   <field type="string">element</field>
   <field>mass</field>
   <field>valence</field>
   <field type="string">pseudopotential</field>
   <set>
    <rc><c>  47</c><c>Ga</c><c>     69.72300000</c><c>     13.00000000</c><c>  PAW_PBE Ga_d 06Jul2010                </c></rc>
    <rc><c>  71</c><c>O </c><c>     16.00000000</c><c>      6.00000000</c><c>   PAW_PBE O 08Apr2002                  </c></rc>
    <rc><c>   1</c><c>P </c><c>     30.97400000</c><c>      5.00000000</c><c>  PAW_PBE P 06Sep2000                   </c></rc>
   </set>
  </array>
 </atominfo>
 <structure name="initialpos" >
  <crystal>
   <varray name="basis" >
    <v>       0.00000000      12.28047342       0.00000000 </v>
    <v>       9.14270205       0.00000000       0.00000000 </v>
    <v>       0.00000000      -2.76826177     -11.30069772 </v>
   </varray>
   <i name="volume">   1268.80515525 </i>
   <varray name="rec_basis" >
    <v>       0.00000000       0.08143009      -0.01994742 </v>
    <v>       0.10937686      -0.00000000       0.00000000 </v>
    <v>       0.00000000       0.00000000      -0.08849011 </v>
   </varray>
  </crystal>
  <varray name="positions" >
   <v>       0.65883830       0.00000000       0.15736517 </v>
   <v>       0.65883830       0.00000000       0.65736517 </v>
   <v>       0.65883830       0.33333333       0.15736517 </v>
   <v>       0.65883830       0.33333333       0.65736517 </v>
   <v>       0.65883830       0.66666667       0.15736517 </v>
   <v>       0.65883830       0.66666667       0.65736517 </v>
   <v>       0.84116170       0.16666667       0.34263483 </v>
   <v>       0.84116170       0.16666667       0.84263483 </v>
   <v>       0.84116170       0.50000000       0.34263483 </v>
   <v>       0.84116170       0.50000000       0.84263483 </v>
   <v>       0.84116170       0.83333333       0.34263483 </v>
   <v>       0.84116170       0.83333333       0.84263483 </v>
   <v>       0.59047440       0.16666667       0.39739300 </v>
   <v>       0.59047440       0.16666667       0.89739300 </v>
   <v>       0.59047440       0.50000000       0.39739300 </v>
   <v>       0.59047440       0.50000000       0.89739300 </v>
   <v>       0.59047440       0.83333333       0.39739300 </v>
   <v>       0.59047440       0.83333333       0.89739300 </v>
   <v>       0.90952560       0.00000000       0.10260700 </v>
   <v>       0.90952560       0.00000000       0.60260700 </v>
   <v>       0.90952560       0.33333333       0.10260700 </v>
   <v>       0.90952560       0.33333333       0.60260700 </v>
   <v>       0.90952560       0.66666667       0.10260700 </v>
   <v>       0.90952560       0.66666667       0.60260700 </v>
   <v>       0.15883830       0.16666667       0.65736517 </v>
   <v>       0.15883830       0.50000000       0.15736517 </v>
   <v>       0.15883830       0.50000000       0.65736517 </v>
   <v>       0.15883830       0.83333333       0.15736517 </v>
   <v>       0.15883830       0.83333333       0.65736517 </v>
   <v>       0.34116170       0.00000000       0.34263483 </v>
   <v>       0.34116170       0.00000000       0.84263483 </v>
   <v>       0.34116170       0.33333333       0.34263483 </v>
   <v>       0.34116170       0.33333333       0.84263483 </v>
   <v>       0.34116170       0.66666667       0.34263483 </v>
   <v>       0.34116170       0.66666667       0.84263483 </v>
   <v>       0.09047440       0.00000000       0.39739300 </v>
   <v>       0.09047440       0.00000000       0.89739300 </v>
   <v>       0.09047440       0.33333333       0.39739300 </v>
   <v>       0.09047440       0.33333333       0.89739300 </v>
   <v>       0.09047440       0.66666667       0.39739300 </v>
   <v>       0.09047440       0.66666667       0.89739300 </v>
   <v>       0.40952560       0.16666667       0.10260700 </v>
   <v>       0.40952560       0.16666667       0.60260700 </v>
   <v>       0.40952560       0.50000000       0.10260700 </v>
   <v>       0.40952560       0.50000000       0.60260700 </v>
   <v>       0.40952560       0.83333333       0.10260700 </v>
   <v>       0.40952560       0.83333333       0.60260700 </v>
   <v>       0.99646913       0.16666667       0.12833205 </v>
   <v>       0.99646913       0.16666667       0.62833205 </v>
   <v>       0.99646913       0.50000000       0.12833205 </v>
   <v>       0.99646913       0.50000000       0.62833205 </v>
   <v>       0.99646913       0.83333333       0.12833205 </v>
   <v>       0.99646913       0.83333333       0.62833205 </v>
   <v>       0.50353087       0.00000000       0.37166795 </v>
   <v>       0.50353087       0.00000000       0.87166795 </v>
   <v>       0.50353087       0.33333333       0.37166795 </v>
   <v>       0.50353087       0.33333333       0.87166795 </v>
   <v>       0.50353087       0.66666667       0.37166795 </v>
   <v>       0.50353087       0.66666667       0.87166795 </v>
   <v>       0.67337106       0.16666667       0.28161508 </v>
   <v>       0.67337106       0.16666667       0.78161508 </v>
   <v>       0.67337106       0.50000000       0.28161508 </v>
   <v>       0.67337106       0.50000000       0.78161508 </v>
   <v>       0.67337106       0.83333333       0.28161508 </v>
   <v>       0.67337106       0.83333333       0.78161508 </v>
   <v>       0.82662894       0.00000000       0.21838492 </v>
   <v>       0.82662894       0.00000000       0.71838492 </v>
   <v>       0.82662894       0.33333333       0.21838492 </v>
   <v>       0.82662894       0.33333333       0.71838492 </v>
   <v>       0.82662894       0.66666667       0.21838492 </v>
   <v>       0.82662894       0.66666667       0.71838492 </v>
   <v>       0.83549502       0.00000000       0.44542296 </v>
   <v>       0.83549502       0.00000000       0.94542296 </v>
   <v>       0.83549502       0.33333333       0.44542296 </v>
   <v>       0.83549502       0.33333333       0.94542296 </v>
   <v>       0.83549502       0.66666667       0.44542296 </v>
   <v>       0.83549502       0.66666667       0.94542296 </v>
   <v>       0.66450498       0.16666667       0.05457704 </v>
   <v>       0.66450498       0.16666667       0.55457704 </v>
   <v>       0.66450498       0.50000000       0.05457704 </v>
   <v>       0.66450498       0.50000000       0.55457704 </v>
   <v>       0.66450498       0.83333333       0.05457704 </v>
   <v>       0.66450498       0.83333333       0.55457704 </v>
   <v>       0.49646913       0.00000000       0.12833205 </v>
   <v>       0.49646913       0.00000000       0.62833205 </v>
   <v>       0.49646913       0.33333333       0.12833205 </v>
   <v>       0.49646913       0.33333333       0.62833205 </v>
   <v>       0.49646913       0.66666667       0.12833205 </v>
   <v>       0.49646913       0.66666667       0.62833205 </v>
   <v>       0.00353087       0.16666667       0.37166795 </v>
   <v>       0.00353087       0.16666667       0.87166795 </v>
   <v>       0.00353087       0.50000000       0.37166795 </v>
   <v>       0.00353087       0.50000000       0.87166795 </v>
   <v>       0.00353087       0.83333333       0.37166795 </v>
   <v>       0.00353087       0.83333333       0.87166795 </v>
   <v>       0.17337106       0.00000000       0.78161508 </v>
   <v>       0.17337106       0.33333333       0.28161508 </v>
   <v>       0.17337106       0.33333333       0.78161508 </v>
   <v>       0.17337106       0.66666667       0.28161508 </v>
   <v>       0.17337106       0.66666667       0.78161508 </v>
   <v>       0.32662894       0.16666667       0.21838492 </v>
   <v>       0.32662894       0.16666667       0.71838492 </v>
   <v>       0.32662894       0.50000000       0.21838492 </v>
   <v>       0.32662894       0.50000000       0.71838492 </v>
   <v>       0.32662894       0.83333333       0.21838492 </v>
   <v>       0.32662894       0.83333333       0.71838492 </v>
   <v>       0.33549502       0.16666667       0.44542296 </v>
   <v>       0.33549502       0.16666667       0.94542296 </v>
   <v>       0.33549502       0.50000000       0.44542296 </v>
   <v>       0.33549502       0.50000000       0.94542296 </v>
   <v>       0.33549502       0.83333333       0.44542296 </v>
   <v>       0.33549502       0.83333333       0.94542296 </v>
   <v>       0.16450498       0.00000000       0.05457704 </v>
   <v>       0.16450498       0.00000000       0.55457704 </v>
   <v>       0.16450498       0.33333333       0.05457704 </v>
   <v>       0.16450498       0.33333333       0.55457704 </v>
   <v>       0.16450498       0.66666667       0.05457704 </v>
   <v>       0.16450498       0.66666667       0.55457704 </v>
   <v>       0.17337106       0.00000000       0.28161508 </v>
  </varray>
 </structure>
 <calculation>
  <scstep>
   <time name="dav">    1.75    1.75</time>
   <time name="total">    1.88    1.88</time>
   <energy>
    <i name="alphaZ">   5376.25786726 </i>
    <i name="ewald"> -86376.40887860 </i>
    <i name="hartreedc"> -33518.23041624 </i>
    <i name="XCdc">   4078.58145449 </i>
    <i name="pawpsdc"> 100093.09196360 </i>
    <i name="pawaedc">-115889.62880893 </i>
    <i name="eentropy">     -0.00317225 </i>
    <i name="bandstr">  16052.15439634 </i>
    <i name="atom"> 131866.99277783 </i>
    <i name="e_fr_energy">  21682.80718350 </i>
    <i name="e_wo_entrp">  21682.81035575 </i>
    <i name="e_0_energy">  21682.80876962 </i>
   </energy>
  </scstep>
  <scstep>
   <time name="dav">    1.68    1.68</time>
   <time name="total">    1.69    1.69</time>
   <energy>
    <i name="e_fr_energy">   4806.58597770 </i>
    <i name="e_wo_entrp">   4806.60730555 </i>
    <i name="e_0_energy">   4806.59664162 </i>
   </energy>
  </scstep>
  <scstep>
   <time name="dav">    2.09    2.09</time>
   <time name="total">    2.09    2.09</time>
   <energy>
    <i name="e_fr_energy">   -142.15362033 </i>
    <i name="e_wo_entrp">   -142.15310572 </i>
    <i name="e_0_energy">   -142.15336302 </i>
   </energy>
  </scstep>
  <scstep>
   <time name="dav">    2.01    2.01</time>
   <time name="total">    2.02    2.02</time>
   <energy>
    <i name="e_fr_energy">   -760.39820989 </i>
    <i name="e_wo_entrp">   -760.39820989 </i>
    <i name="e_0_energy">   -760.39820989 </i>
   </energy>
  </scstep>
  <scstep>
   <time name="dav">    2.27    2.27</time>
   <time name="total">    2.53    2.53</time>
   <energy>
    <i name="e_fr_energy">   -804.00097829 </i>
    <i name="e_wo_entrp">   -804.00097829 </i>
    <i name="e_0_energy">   -804.00097829 </i>
   </energy>
  </scstep>
  <scstep>
   <time name="diag">    0.24    0.24</time>
   <time name="diis">    2.47    2.47</time>
   <time name="orth">    0.03    0.03</time>
   <time name="total">    3.12    3.12</time>
   <energy>
    <i name="e_fr_energy">   -697.00109467 </i>
    <i name="e_wo_entrp">   -697.00013375 </i>
    <i name="e_0_energy">   -697.00061421 </i>
   </energy>
  </scstep>
  <scstep>
   <time name="diag">    0.24    0.24</time>
   <time name="diis">    2.63    2.63</time>
   <time name="orth">    0.03    0.03</time>
   <time name="total">    3.27    3.27</time>
   <energy>
    <i name="e_fr_energy">   -706.46067032 </i>
    <i name="e_wo_entrp">   -706.45687662 </i>
    <i name="e_0_energy">   -706.45877347 </i>
   </energy>
  </scstep>
  <scstep>
   <time name="diag">    0.24    0.24</time>
   <time name="diis">    2.79    2.79</time>
   <time name="orth">    0.03    0.03</time>
   <time name="total">    3.44    3.44</time>
   <energy>
    <i name="e_fr_energy">   -699.12810761 </i>
    <i name="e_wo_entrp">   -699.11803871 </i>
    <i name="e_0_energy">   -699.12307316 </i>
   </energy>
  </scstep>
  <scstep>
   <time name="diag">    0.24    0.24</time>
   <time name="diis">    2.64    2.64</time>
   <time name="orth">    0.03    0.03</time>
   <time name="total">    3.29    3.29</time>
   <energy>
    <i name="e_fr_energy">   -697.27845596 </i>
    <i name="e_wo_entrp">   -697.27809186 </i>
    <i name="e_0_energy">   -697.27827391 </i>
   </energy>
  </scstep>
  <scstep>
   <time name="diag">    0.24    0.24</time>
   <time name="diis">    2.37    2.37</time>
   <time name="orth">    0.03    0.03</time>
   <time name="total">    3.02    3.02</time>
   <energy>
    <i name="e_fr_energy">   -704.88131792 </i>
    <i name="e_wo_entrp">   -704.88131791 </i>
    <i name="e_0_energy">   -704.88131792 </i>
   </energy>
  </scstep>
  <scstep>
   <time name="diag">    0.24    0.24</time>
   <time name="diis">    2.58    2.58</time>
   <time name="orth">    0.03    0.03</time>
   <time name="total">    3.23    3.23</time>
   <energy>
    <i name="e_fr_energy">   -696.47894562 </i>
    <i name="e_wo_entrp">   -696.47282861 </i>
    <i name="e_0_energy">   -696.47588711 </i>
   </energy>
  </scstep>
  <scstep>
   <time name="diag">    0.24    0.24</time>
   <time name="diis">    2.55    2.55</time>
   <time name="orth">    0.03    0.03</time>
   <time name="total">    3.20    3.20</time>
   <energy>
    <i name="e_fr_energy">   -696.47476212 </i>
    <i name="e_wo_entrp">   -696.46970993 </i>
    <i name="e_0_energy">   -696.47223603 </i>
   </energy>
  </scstep>
  <scstep>
   <time name="diag">    0.24    0.24</time>
   <time name="diis">    2.56    2.56</time>
   <time name="orth">    0.03    0.03</time>
   <time name="total">    3.22    3.22</time>
   <energy>
    <i name="e_fr_energy">   -696.17492831 </i>
    <i name="e_wo_entrp">   -696.15961716 </i>
    <i name="e_0_energy">   -696.16727274 </i>
   </energy>
  </scstep>
  <scstep>
   <time name="diag">    0.24    0.24</time>
   <time name="diis">    2.66    2.66</time>
   <time name="orth">    0.03    0.03</time>
   <time name="total">    3.31    3.31</time>
   <energy>
    <i name="e_fr_energy">   -695.71392889 </i>
    <i name="e_wo_entrp">   -695.70619866 </i>
    <i name="e_0_energy">   -695.71006378 </i>
   </energy>
  </scstep>
  <scstep>
   <time name="diag">    0.24    0.24</time>
   <time name="diis">    2.72    2.72</time>
   <time name="orth">    0.03    0.03</time>
   <time name="total">    3.38    3.38</time>
   <energy>
    <i name="e_fr_energy">   -695.52121225 </i>
    <i name="e_wo_entrp">   -695.50816380 </i>
    <i name="e_0_energy">   -695.51468802 </i>
   </energy>
  </scstep>
  <scstep>
   <time name="diag">    0.24    0.24</time>
   <time name="diis">    2.63    2.63</time>
   <time name="orth">    0.03    0.03</time>
   <time name="total">    3.29    3.29</time>
   <energy>
    <i name="e_fr_energy">   -695.41929836 </i>
    <i name="e_wo_entrp">   -695.40584751 </i>
    <i name="e_0_energy">   -695.41257294 </i>
   </energy>
  </scstep>
  <scstep>
   <time name="diag">    0.24    0.24</time>
   <time name="diis">    2.51    2.51</time>
   <time name="orth">    0.03    0.03</time>
   <time name="total">    3.17    3.17</time>
   <energy>
    <i name="e_fr_energy">   -695.31013568 </i>
    <i name="e_wo_entrp">   -695.28697839 </i>
    <i name="e_0_energy">   -695.29855703 </i>
   </energy>
  </scstep>
  <scstep>
   <time name="diag">    0.24    0.24</time>
   <time name="diis">    2.19    2.19</time>
   <time name="orth">    0.03    0.03</time>
   <time name="total">    2.86    2.86</time>
   <energy>
    <i name="e_fr_energy">   -695.35538542 </i>
    <i name="e_wo_entrp">   -695.33805610 </i>
    <i name="e_0_energy">   -695.34672076 </i>
   </energy>
  </scstep>
  <scstep>
   <time name="diag">    0.24    0.24</time>
   <time name="diis">    2.64    2.64</time>
   <time name="orth">    0.03    0.03</time>
   <time name="total">    3.31    3.31</time>
   <energy>
    <i name="e_fr_energy">   -695.30833798 </i>
    <i name="e_wo_entrp">   -695.28713513 </i>
    <i name="e_0_energy">   -695.29773655 </i>
   </energy>
  </scstep>
  <scstep>
   <time name="diag">    0.24    0.24</time>
   <time name="diis">    2.88    2.88</time>
   <time name="orth">    0.03    0.03</time>
   <time name="total">    3.55    3.55</time>
   <energy>
    <i name="e_fr_energy">   -695.30258205 </i>
    <i name="e_wo_entrp">   -695.28241761 </i>
    <i name="e_0_energy">   -695.29249983 </i>
   </energy>
  </scstep>
  <scstep>
   <time name="diag">    0.24    0.24</time>
   <time name="diis">    2.51    2.51</time>
   <time name="orth">    0.03    0.03</time>
   <time name="total">    3.18    3.18</time>
   <energy>
    <i name="e_fr_energy">   -695.29853297 </i>
    <i name="e_wo_entrp">   -695.27917069 </i>
    <i name="e_0_energy">   -695.28885183 </i>
   </energy>
  </scstep>
  <scstep>
   <time name="diag">    0.24    0.24</time>
   <time name="diis">    2.50    2.50</time>
   <time name="orth">    0.03    0.03</time>
   <time name="total">    3.18    3.18</time>
   <energy>
    <i name="e_fr_energy">   -695.28388549 </i>
    <i name="e_wo_entrp">   -695.26137254 </i>
    <i name="e_0_energy">   -695.27262902 </i>
   </energy>
  </scstep>
  <scstep>
   <time name="diag">    0.24    0.24</time>
   <time name="diis">    2.31    2.31</time>
   <time name="orth">    0.03    0.03</time>
   <time name="total">    2.98    2.98</time>
   <energy>
    <i name="e_fr_energy">   -695.28795570 </i>
    <i name="e_wo_entrp">   -695.26484063 </i>
    <i name="e_0_energy">   -695.27639817 </i>
   </energy>
  </scstep>
  <scstep>
   <time name="diag">    0.24    0.24</time>
   <time name="diis">    2.38    2.38</time>
   <time name="orth">    0.03    0.03</time>
   <time name="total">    3.06    3.06</time>
   <energy>
    <i name="e_fr_energy">   -695.28852492 </i>
    <i name="e_wo_entrp">   -695.26424468 </i>
    <i name="e_0_energy">   -695.27638480 </i>
   </energy>
  </scstep>
  <scstep>
   <time name="diag">    0.24    0.24</time>
   <time name="diis">    2.13    2.13</time>
   <time name="orth">    0.03    0.03</time>
   <time name="total">    2.82    2.82</time>
   <energy>
    <i name="e_fr_energy">   -695.28762290 </i>
    <i name="e_wo_entrp">   -695.26310129 </i>
    <i name="e_0_energy">   -695.27536210 </i>
   </energy>
  </scstep>
  <scstep>
   <time name="diag">    0.24    0.24</time>
   <time name="diis">    1.92    1.92</time>
   <time name="orth">    0.03    0.03</time>
   <time name="total">    2.61    2.61</time>
   <energy>
    <i name="e_fr_energy">   -695.28776480 </i>
    <i name="e_wo_entrp">   -695.26333302 </i>
    <i name="e_0_energy">   -695.27554891 </i>
   </energy>
  </scstep>
  <scstep>
   <time name="diag">    0.24    0.24</time>
   <time name="diis">    2.03    2.03</time>
   <time name="orth">    0.03    0.03</time>
   <time name="total">    2.72    2.72</time>
   <energy>
    <i name="e_fr_energy">   -695.28786076 </i>
    <i name="e_wo_entrp">   -695.26361591 </i>
    <i name="e_0_energy">   -695.27573833 </i>
   </energy>
  </scstep>
  <scstep>
   <time name="diag">    0.24    0.24</time>
   <time name="diis">    1.15    1.15</time>
   <time name="orth">    0.03    0.03</time>
   <time name="total">    1.85    1.85</time>
   <energy>
    <i name="e_fr_energy">   -695.28788365 </i>
    <i name="e_wo_entrp">   -695.26360972 </i>
    <i name="e_0_energy">   -695.27574669 </i>
   </energy>
  </scstep>
  <scstep>
   <time name="diag">    0.24    0.24</time>
   <time name="diis">    1.10    1.10</time>
   <time name="orth">    0.03    0.03</time>
   <time name="total">    1.48    1.48</time>
   <energy>
    <i name="alphaZ">   5376.25786726 </i>
    <i name="ewald"> -86376.40887860 </i>
    <i name="hartreedc"> -33970.69577794 </i>
    <i name="XCdc">   4137.34648877 </i>
    <i name="pawpsdc"> 118494.55137774 </i>
    <i name="pawaedc">-134543.20071058 </i>
    <i name="eentropy">     -0.02424739 </i>
    <i name="bandstr">  -5680.10677969 </i>
    <i name="atom"> 131866.99277783 </i>
    <i name="e_fr_energy">   -695.28788259 </i>
    <i name="e_wo_entrp">   -695.26363520 </i>
    <i name="e_0_energy">   -695.27575890 </i>
   </energy>
  </scstep>
  <structure>
   <crystal>
    <varray name="basis" >
     <v>       0.00000000      12.28047342       0.00000000 </v>
     <v>       9.14270205       0.00000000       0.00000000 </v>
     <v>       0.00000000      -2.76826177     -11.30069772 </v>
    </varray>
    <i name="volume">   1268.80515525 </i>
    <varray name="rec_basis" >
     <v>       0.00000000       0.08143009      -0.01994742 </v>
     <v>       0.10937686      -0.00000000       0.00000000 </v>
     <v>       0.00000000       0.00000000      -0.08849011 </v>
    </varray>
   </crystal>
   <varray name="positions" >
    <v>       0.65883830       0.00000000       0.15736517 </v>
    <v>       0.65883830       0.00000000       0.65736517 </v>
    <v>       0.65883830       0.33333333       0.15736517 </v>
    <v>       0.65883830       0.33333333       0.65736517 </v>
    <v>       0.65883830       0.66666667       0.15736517 </v>
    <v>       0.65883830       0.66666667       0.65736517 </v>
    <v>       0.84116170       0.16666667       0.34263483 </v>
    <v>       0.84116170       0.16666667       0.84263483 </v>
    <v>       0.84116170       0.50000000       0.34263483 </v>
    <v>       0.84116170       0.50000000       0.84263483 </v>
    <v>       0.84116170       0.83333333       0.34263483 </v>
    <v>       0.84116170       0.83333333       0.84263483 </v>
    <v>       0.59047440       0.16666667       0.39739300 </v>
    <v>       0.59047440       0.16666667       0.89739300 </v>
    <v>       0.59047440       0.50000000       0.39739300 </v>
    <v>       0.59047440       0.50000000       0.89739300 </v>
    <v>       0.59047440       0.83333333       0.39739300 </v>
    <v>       0.59047440       0.83333333       0.89739300 </v>
    <v>       0.90952560       0.00000000       0.10260700 </v>
    <v>       0.90952560       0.00000000       0.60260700 </v>
    <v>       0.90952560       0.33333333       0.10260700 </v>
    <v>       0.90952560       0.33333333       0.60260700 </v>
    <v>       0.90952560       0.66666667       0.10260700 </v>
    <v>       0.90952560       0.66666667       0.60260700 </v>
    <v>       0.15883830       0.16666667       0.65736517 </v>
    <v>       0.15883830       0.50000000       0.15736517 </v>
    <v>       0.15883830       0.50000000       0.65736517 </v>
    <v>       0.15883830       0.83333333       0.15736517 </v>
    <v>       0.15883830       0.83333333       0.65736517 </v>
    <v>       0.34116170       0.00000000       0.34263483 </v>
    <v>       0.34116170       0.00000000       0.84263483 </v>
    <v>       0.34116170       0.33333333       0.34263483 </v>
    <v>       0.34116170       0.33333333       0.84263483 </v>
    <v>       0.34116170       0.66666667       0.34263483 </v>
    <v>       0.34116170       0.66666667       0.84263483 </v>
    <v>       0.09047440       0.00000000       0.39739300 </v>
    <v>       0.09047440       0.00000000       0.89739300 </v>
    <v>       0.09047440       0.33333333       0.39739300 </v>
    <v>       0.09047440       0.33333333       0.89739300 </v>
    <v>       0.09047440       0.66666667       0.39739300 </v>
    <v>       0.09047440       0.66666667       0.89739300 </v>
    <v>       0.40952560       0.16666667       0.10260700 </v>
    <v>       0.40952560       0.16666667       0.60260700 </v>
    <v>       0.40952560       0.50000000       0.10260700 </v>
    <v>       0.40952560       0.50000000       0.60260700 </v>
    <v>       0.40952560       0.83333333       0.10260700 </v>
    <v>       0.40952560       0.83333333       0.60260700 </v>
    <v>       0.99646913       0.16666667       0.12833205 </v>
    <v>       0.99646913       0.16666667       0.62833205 </v>
    <v>       0.99646913       0.50000000       0.12833205 </v>
    <v>       0.99646913       0.50000000       0.62833205 </v>
    <v>       0.99646913       0.83333333       0.12833205 </v>
    <v>       0.99646913       0.83333333       0.62833205 </v>
    <v>       0.50353087       0.00000000       0.37166795 </v>
    <v>       0.50353087       0.00000000       0.87166795 </v>
    <v>       0.50353087       0.33333333       0.37166795 </v>
    <v>       0.50353087       0.33333333       0.87166795 </v>
    <v>       0.50353087       0.66666667       0.37166795 </v>
    <v>       0.50353087       0.66666667       0.87166795 </v>
    <v>       0.67337106       0.16666667       0.28161508 </v>
    <v>       0.67337106       0.16666667       0.78161508 </v>
    <v>       0.67337106       0.50000000       0.28161508 </v>
    <v>       0.67337106       0.50000000       0.78161508 </v>
    <v>       0.67337106       0.83333333       0.28161508 </v>
    <v>       0.67337106       0.83333333       0.78161508 </v>
    <v>       0.82662894       0.00000000       0.21838492 </v>
    <v>       0.82662894       0.00000000       0.71838492 </v>
    <v>       0.82662894       0.33333333       0.21838492 </v>
    <v>       0.82662894       0.33333333       0.71838492 </v>
    <v>       0.82662894       0.66666667       0.21838492 </v>
    <v>       0.82662894       0.66666667       0.71838492 </v>
    <v>       0.83549502       0.00000000       0.44542296 </v>
    <v>       0.83549502       0.00000000       0.94542296 </v>
    <v>       0.83549502       0.33333333       0.44542296 </v>
    <v>       0.83549502       0.33333333       0.94542296 </v>
    <v>       0.83549502       0.66666667       0.44542296 </v>
    <v>       0.83549502       0.66666667       0.94542296 </v>
    <v>       0.66450498       0.16666667       0.05457704 </v>
    <v>       0.66450498       0.16666667       0.55457704 </v>
    <v>       0.66450498       0.50000000       0.05457704 </v>
    <v>       0.66450498       0.50000000       0.55457704 </v>
    <v>       0.66450498       0.83333333       0.05457704 </v>
    <v>       0.66450498       0.83333333       0.55457704 </v>
    <v>       0.49646913       0.00000000       0.12833205 </v>
    <v>       0.49646913       0.00000000       0.62833205 </v>
    <v>       0.49646913       0.33333333       0.12833205 </v>
    <v>       0.49646913       0.33333333       0.62833205 </v>
    <v>       0.49646913       0.66666667       0.12833205 </v>
    <v>       0.49646913       0.66666667       0.62833205 </v>
    <v>       0.00353087       0.16666667       0.37166795 </v>
    <v>       0.00353087       0.16666667       0.87166795 </v>
    <v>       0.00353087       0.50000000       0.37166795 </v>
    <v>       0.00353087       0.50000000       0.87166795 </v>
    <v>       0.00353087       0.83333333       0.37166795 </v>
    <v>       0.00353087       0.83333333       0.87166795 </v>
    <v>       0.17337106       0.00000000       0.78161508 </v>
    <v>       0.17337106       0.33333333       0.28161508 </v>
    <v>       0.17337106       0.33333333       0.78161508 </v>
    <v>       0.17337106       0.66666667       0.28161508 </v>
    <v>       0.17337106       0.66666667       0.78161508 </v>
    <v>       0.32662894       0.16666667       0.21838492 </v>
    <v>       0.32662894       0.16666667       0.71838492 </v>
    <v>       0.32662894       0.50000000       0.21838492 </v>
    <v>       0.32662894       0.50000000       0.71838492 </v>
    <v>       0.32662894       0.83333333       0.21838492 </v>
    <v>       0.32662894       0.83333333       0.71838492 </v>
    <v>       0.33549502       0.16666667       0.44542296 </v>
    <v>       0.33549502       0.16666667       0.94542296 </v>
    <v>       0.33549502       0.50000000       0.44542296 </v>
    <v>       0.33549502       0.50000000       0.94542296 </v>
    <v>       0.33549502       0.83333333       0.44542296 </v>
    <v>       0.33549502       0.83333333       0.94542296 </v>
    <v>       0.16450498       0.00000000       0.05457704 </v>
    <v>       0.16450498       0.00000000       0.55457704 </v>
    <v>       0.16450498       0.33333333       0.05457704 </v>
    <v>       0.16450498       0.33333333       0.55457704 </v>
    <v>       0.16450498       0.66666667       0.05457704 </v>
    <v>       0.16450498       0.66666667       0.55457704 </v>
    <v>       0.17337106       0.00000000       0.28161508 </v>
   </varray>
  </structure>
  <varray name="forces" >
   <v>       0.02745774      -0.07343558       0.09026828 </v>
   <v>       0.01003173       0.07190816      -0.02239431 </v>
   <v>      -0.03711842       0.01554969       0.04448186 </v>
   <v>      -0.01354335       0.06062536      -0.00129234 </v>
   <v>       0.00584739      -0.04525752       0.07235147 </v>
   <v>       0.00438287       0.08100622      -0.00912126 </v>
   <v>       0.05754300       0.07545377       0.07634854 </v>
   <v>       0.00011292       0.25441680      -0.19419674 </v>
   <v>      -0.08618903       0.10137760       0.04323071 </v>
   <v>      -0.04504996       0.22912204      -0.12272843 </v>
   <v>       0.03858552      -0.16342893       0.07213849 </v>
   <v>       0.05578024       0.14071104      -0.11236347 </v>
   <v>       0.06923281      -0.00997320       0.08054680 </v>
   <v>      -0.00838333       0.01016869      -0.09847768 </v>
   <v>      -0.06378138       0.01268694       0.00997135 </v>
   <v>      -0.01543167      -0.00204719      -0.07030534 </v>
   <v>      -0.00265929       0.08715093       0.01611428 </v>
   <v>       0.02435109       0.01157366      -0.08367736 </v>
   <v>       0.66518061       0.17470965       0.21088008 </v>
   <v>       0.01995701      -0.02357515      -0.04901581 </v>
   <v>      -0.38268660       0.49132661      -0.14501623 </v>
   <v>       0.01966897       0.01672152      -0.02479033 </v>
   <v>      -0.23241636       0.01615739       0.06435241 </v>
   <v>      -0.03922582       0.01633300      -0.06428407 </v>
   <v>       0.19292914      -0.09757091      -0.09936740 </v>
   <v>      -1.57900781      -0.03948890       0.32984306 </v>
   <v>      -0.12249910      -0.09671743      -0.03511811 </v>
   <v>      -3.05702648       0.60541000       4.09170388 </v>
   <v>      -0.06090388      -0.13481620      -0.11359014 </v>
   <v>       0.79325617       6.23386583      -1.20410609 </v>
   <v>       0.09171208      -0.00846596      -0.16781257 </v>
   <v>      -0.45518121      -0.69846348       1.12635528 </v>
   <v>      -0.06561377      -0.09613556      -0.12131046 </v>
   <v>      -0.44173416       0.29171775       0.30650571 </v>
   <v>      -0.02232879      -0.01446781      -0.08633833 </v>
   <v>       0.62511050      -7.21599816      -6.91464236 </v>
   <v>       0.29481349      -0.19528779      -0.60919271 </v>
   <v>       0.03441301       0.53030846       0.56496633 </v>
   <v>      -0.18581898       0.07759147      -0.84114889 </v>
   <v>      -0.37196639      -0.18435156      -0.16134956 </v>
   <v>      -0.06572132      -0.11861664      -0.07881963 </v>
   <v>      -0.08379292      -0.92209502      -0.30038028 </v>
   <v>       0.04811175      -0.04763071      -0.18607786 </v>
   <v>      -0.08729083      -0.13067386      -0.06545246 </v>
   <v>      -0.04532873      -0.06907930       0.00452217 </v>
   <v>       0.10153411       0.02136918       0.03628103 </v>
   <v>       0.01223896       0.05386786      -0.44602944 </v>
   <v>      -0.49318634       0.15071211      -0.25253526 </v>
   <v>      -0.03764052       0.01523897       0.01627526 </v>
   <v>       0.26298208      -0.19825723      -0.03752020 </v>
   <v>       0.02861550      -0.00976925       0.00455843 </v>
   <v>      -0.23432052      -0.34628541       0.09037784 </v>
   <v>       0.00742796       0.02876446       0.02041512 </v>
   <v>      -0.14256123      -0.20866981      -0.05937764 </v>
   <v>      -0.01715640       0.01225137       0.07343207 </v>
   <v>       0.03444071       0.06511170      -0.07158636 </v>
   <v>       0.01856990       0.01461762       0.06298232 </v>
   <v>       0.08148827      -0.07707727      -0.01738353 </v>
   <v>      -0.00484056      -0.00640580       0.06198216 </v>
   <v>      -0.01791197      -0.04697788      -0.03861069 </v>
   <v>      -0.00340083      -0.06487299       0.06967518 </v>
   <v>       0.03857827      -0.05683187      -0.02247336 </v>
   <v>       0.01471730      -0.07000817       0.05709193 </v>
   <v>      -0.02040197      -0.04092080      -0.03927816 </v>
   <v>      -0.01574830      -0.07038213       0.07168291 </v>
   <v>      -0.15602634      -0.11357757      -0.19331487 </v>
   <v>      -0.01902186      -0.01921519       0.06699104 </v>
   <v>       0.10480104      -0.18073049      -0.17291806 </v>
   <v>       0.00776771      -0.03314721       0.06347720 </v>
   <v>       0.04539048      -0.00925420      -0.07321896 </v>
   <v>       0.01129836      -0.03239547       0.04897584 </v>
   <v>      -0.04993423      -0.14597997      -0.03894553 </v>
   <v>      -0.16560841      -0.25887195       0.12379968 </v>
   <v>       0.01559670      -0.19337520      -0.06178220 </v>
   <v>       0.06573530      -0.25868225       0.10273541 </v>
   <v>       0.05681618      -0.15362090      -0.01612879 </v>
   <v>       0.04460239      -0.22184083      -0.02449535 </v>
   <v>       0.00713967       0.13800065       0.04686052 </v>
   <v>      -0.02174982       0.13680941       0.03827783 </v>
   <v>       0.01792094       0.15431795       0.04030234 </v>
   <v>       0.02461107       0.14599532       0.02424705 </v>
   <v>      -0.03149041       0.17312711       0.03751314 </v>
   <v>      -0.00327212       0.13450583       0.04427183 </v>
   <v>      -0.14636842       0.15726348      -0.01590605 </v>
   <v>      -0.05818470      -0.08248276       0.05111845 </v>
   <v>       0.10070207       0.10026492      -0.01399082 </v>
   <v>      -0.03060483      -0.03379591      -0.00187749 </v>
   <v>      -0.01086419       0.04373537      -0.03155693 </v>
   <v>       0.09827598      -0.08293912       0.04826488 </v>
   <v>       0.18810655      -0.75457958      -0.19808735 </v>
   <v>      -0.03553375      -0.21071053       0.29836313 </v>
   <v>       0.20474649      -0.13166289      -0.01762541 </v>
   <v>       0.21298943      -0.22060135       0.22087046 </v>
   <v>      -0.22408500      -0.23630259      -0.12793219 </v>
   <v>      -0.12594649      -0.14159218       0.15997819 </v>
   <v>      -0.02395216       0.07095800       0.17411777 </v>
   <v>       0.53740250      -0.08746327      -0.95225079 </v>
   <v>      -0.00727040       0.09785105       0.22507622 </v>
   <v>       0.17381007      -0.05640744      -0.25945098 </v>
   <v>       0.02547909       0.05628102       0.08526182 </v>
   <v>      -0.02705571       0.58072563      -0.64719993 </v>
   <v>      -0.04037715       0.08449184       0.08155935 </v>
   <v>       0.28023970       0.14896480      -0.11722440 </v>
   <v>       0.03322242       0.08220062       0.01824644 </v>
   <v>      -0.78545793       0.85847398       0.11101555 </v>
   <v>       0.00970463       0.07634805       0.10438173 </v>
   <v>       0.04709983      -0.09823530      -0.56412875 </v>
   <v>      -0.02690711      -0.05323266       0.18094994 </v>
   <v>       0.18273184      -0.10787993      -0.15934773 </v>
   <v>       0.01694601      -0.13234380      -0.00394812 </v>
   <v>      -0.11596743      -0.37782690      -0.00712602 </v>
   <v>      -0.02348111      -0.14324587       0.03107485 </v>
   <v>      -0.62901603       0.39869709      -0.31308417 </v>
   <v>      -0.08611372       0.05063362      -0.15035111 </v>
   <v>       0.70367844       0.30351100       0.37101691 </v>
   <v>      -0.03775442       0.15038811      -0.11003067 </v>
   <v>       0.21736149       0.15737862      -0.20806751 </v>
   <v>       0.08318911       0.21291467       0.10189456 </v>
   <v>       4.24347540       1.67436479       6.77717798 </v>
  </varray>
  <varray name="stress" >
   <v>      72.40679947      -3.22627195      -9.76088249 </v>
   <v>      -3.22627202      89.46229918       7.57862165 </v>
   <v>      -9.76088205       7.57862162      77.57012473 </v>
  </varray>
  <energy>
   <i name="e_fr_energy">   -695.28788259 </i>
   <i name="e_wo_entrp">   -695.26363520 </i>
   <i name="e_0_energy">   -695.27575890 </i>
  </energy>
  <time name="totalsc">   92.61   92.61</time>
 </calculation>
 <calculation>
  <scstep>
   <time name="dav">    1.86    1.86</time>
   <time name="total">    2.23    2.23</time>
   <energy>
    <i name="alphaZ">   5376.25786726 </i>
    <i name="ewald"> -86135.29110861 </i>
    <i name="hartreedc"> -34211.08675062 </i>
    <i name="XCdc">   4137.40611622 </i>
    <i name="pawpsdc"> 118494.46568127 </i>
    <i name="pawaedc">-134543.11514014 </i>
    <i name="eentropy">     -0.00133306 </i>
    <i name="bandstr">  -5640.26000518 </i>
    <i name="atom"> 131866.99277783 </i>
    <i name="e_fr_energy">   -654.63189504 </i>
    <i name="e_wo_entrp">   -654.63056198 </i>
    <i name="e_0_energy">   -654.63122851 </i>
   </energy>
  </scstep>
  <scstep>
   <time name="diag">    0.24    0.24</time>
   <time name="diis">    2.64    2.64</time>
   <time name="orth">    0.03    0.03</time>
   <time name="total">    3.28    3.28</time>
   <energy>
    <i name="e_fr_energy">   -685.42610740 </i>
    <i name="e_wo_entrp">   -685.42014650 </i>
    <i name="e_0_energy">   -685.42312695 </i>
   </energy>
  </scstep>
  <scstep>
   <time name="diag">    0.24    0.24</time>
   <time name="diis">    2.91    2.91</time>
   <time name="orth">    0.03    0.03</time>
   <time name="total">    3.56    3.56</time>
   <energy>
    <i name="e_fr_energy">   -685.51850159 </i>
    <i name="e_wo_entrp">   -685.51206421 </i>
    <i name="e_0_energy">   -685.51528290 </i>
   </energy>
  </scstep>
  <scstep>
   <time name="diag">    0.24    0.24</time>
   <time name="diis">    3.34    3.34</time>
   <time name="orth">    0.03    0.03</time>
   <time name="total">    3.98    3.98</time>
   <energy>
    <i name="e_fr_energy">   -685.27534889 </i>
    <i name="e_wo_entrp">   -685.26801296 </i>
    <i name="e_0_energy">   -685.27168093 </i>
   </energy>
  </scstep>
  <scstep>
   <time name="diag">    0.24    0.24</time>
   <time name="diis">    3.45    3.45</time>
   <time name="orth">    0.03    0.03</time>
   <time name="total">    4.09    4.09</time>
   <energy>
    <i name="e_fr_energy">   -685.27546601 </i>
    <i name="e_wo_entrp">   -685.26295200 </i>
    <i name="e_0_energy">   -685.26920900 </i>
   </energy>
  </scstep>
  <scstep>
   <time name="diag">    0.24    0.24</time>
   <time name="diis">    3.37    3.37</time>
   <time name="orth">    0.03    0.03</time>
   <time name="total">    4.02    4.02</time>
   <energy>
    <i name="e_fr_energy">   -685.25693002 </i>
    <i name="e_wo_entrp">   -685.24152902 </i>
    <i name="e_0_energy">   -685.24922952 </i>
   </energy>
  </scstep>
  <scstep>
   <time name="diag">    0.24    0.24</time>
   <time name="diis">    3.38    3.38</time>
   <time name="orth">    0.03    0.03</time>
   <time name="total">    4.03    4.03</time>
   <energy>
    <i name="e_fr_energy">   -684.94622654 </i>
    <i name="e_wo_entrp">   -684.92996731 </i>
    <i name="e_0_energy">   -684.93809692 </i>
   </energy>
  </scstep>
  <scstep>
   <time name="diag">    0.24    0.24</time>
   <time name="diis">    3.46    3.46</time>
   <time name="orth">    0.03    0.03</time>
   <time name="total">    4.11    4.11</time>
   <energy>
    <i name="e_fr_energy">   -685.04302168 </i>
    <i name="e_wo_entrp">   -685.02151263 </i>
    <i name="e_0_energy">   -685.03226716 </i>
   </energy>
  </scstep>
  <scstep>
   <time name="diag">    0.24    0.24</time>
   <time name="diis">    3.51    3.51</time>
   <time name="orth">    0.03    0.03</time>
   <time name="total">    4.16    4.16</time>
   <energy>
    <i name="e_fr_energy">   -684.96290790 </i>
    <i name="e_wo_entrp">   -684.93906510 </i>
    <i name="e_0_energy">   -684.95098650 </i>
   </energy>
  </scstep>
  <scstep>
   <time name="diag">    0.24    0.24</time>
   <time name="diis">    3.52    3.52</time>
   <time name="orth">    0.03    0.03</time>
   <time name="total">    4.17    4.17</time>
   <energy>
    <i name="e_fr_energy">   -684.89634204 </i>
    <i name="e_wo_entrp">   -684.87253058 </i>
    <i name="e_0_energy">   -684.88443631 </i>
   </energy>
  </scstep>
  <scstep>
   <time name="diag">    0.24    0.24</time>
   <time name="diis">    3.49    3.49</time>
   <time name="orth">    0.03    0.03</time>
   <time name="total">    4.14    4.14</time>
   <energy>
    <i name="e_fr_energy">   -684.86011415 </i>
    <i name="e_wo_entrp">   -684.83608635 </i>
    <i name="e_0_energy">   -684.84810025 </i>
   </energy>
  </scstep>
  <scstep>
   <time name="diag">    0.24    0.24</time>
   <time name="diis">    3.52    3.52</time>
   <time name="orth">    0.03    0.03</time>
   <time name="total">    4.18    4.18</time>
   <energy>
    <i name="e_fr_energy">   -684.92206769 </i>
    <i name="e_wo_entrp">   -684.89918069 </i>
    <i name="e_0_energy">   -684.91062419 </i>
   </energy>
  </scstep>
  <scstep>
   <time name="diag">    0.24    0.24</time>
   <time name="diis">    3.48    3.48</time>
   <time name="orth">    0.03    0.03</time>
   <time name="total">    4.14    4.14</time>
   <energy>
    <i name="e_fr_energy">   -684.87325145 </i>
    <i name="e_wo_entrp">   -684.84994230 </i>
    <i name="e_0_energy">   -684.86159688 </i>
   </energy>
  </scstep>
  <scstep>
   <time name="diag">    0.24    0.24</time>
   <time name="diis">    3.49    3.49</time>
   <time name="orth">    0.03    0.03</time>
   <time name="total">    4.15    4.15</time>
   <energy>
    <i name="e_fr_energy">   -684.89321678 </i>
    <i name="e_wo_entrp">   -684.86977987 </i>
    <i name="e_0_energy">   -684.88149833 </i>
   </energy>
  </scstep>
  <scstep>
   <time name="diag">    0.24    0.24</time>
   <time name="diis">    3.51    3.51</time>
   <time name="orth">    0.03    0.03</time>
   <time name="total">    4.17    4.17</time>
   <energy>
    <i name="e_fr_energy">   -684.80093040 </i>
    <i name="e_wo_entrp">   -684.77745309 </i>
    <i name="e_0_energy">   -684.78919174 </i>
   </energy>
  </scstep>
  <scstep>
   <time name="diag">    0.24    0.24</time>
   <time name="diis">    3.50    3.50</time>
   <time name="orth">    0.03    0.03</time>
   <time name="total">    4.17    4.17</time>
   <energy>
    <i name="e_fr_energy">   -684.77202718 </i>
    <i name="e_wo_entrp">   -684.74826819 </i>
    <i name="e_0_energy">   -684.76014769 </i>
   </energy>
  </scstep>
  <scstep>
   <time name="diag">    0.24    0.24</time>
   <time name="diis">    3.44    3.44</time>
   <time name="orth">    0.03    0.03</time>
   <time name="total">    4.11    4.11</time>
   <energy>
    <i name="e_fr_energy">   -684.75306137 </i>
    <i name="e_wo_entrp">   -684.72931071 </i>
    <i name="e_0_energy">   -684.74118604 </i>
   </energy>
  </scstep>
  <scstep>
   <time name="diag">    0.24    0.24</time>
   <time name="diis">    3.17    3.17</time>
   <time name="orth">    0.03    0.03</time>
   <time name="total">    3.84    3.84</time>
   <energy>
    <i name="e_fr_energy">   -684.74864742 </i>
    <i name="e_wo_entrp">   -684.72503068 </i>
    <i name="e_0_energy">   -684.73683905 </i>
   </energy>
  </scstep>
  <scstep>
   <time name="diag">    0.24    0.24</time>
   <time name="diis">    3.49    3.49</time>
   <time name="orth">    0.03    0.03</time>
   <time name="total">    4.17    4.17</time>
   <energy>
    <i name="e_fr_energy">   -684.71072035 </i>
    <i name="e_wo_entrp">   -684.68726691 </i>
    <i name="e_0_energy">   -684.69899363 </i>
   </energy>
  </scstep>
  <scstep>
   <time name="diag">    0.24    0.24</time>
   <time name="diis">    3.50    3.50</time>
   <time name="orth">    0.03    0.03</time>
   <time name="total">    4.18    4.18</time>
   <energy>
    <i name="e_fr_energy">   -684.71374916 </i>
    <i name="e_wo_entrp">   -684.69019602 </i>
    <i name="e_0_energy">   -684.70197259 </i>
   </energy>
  </scstep>
  <scstep>
   <time name="diag">    0.24    0.24</time>
   <time name="diis">    3.45    3.45</time>
   <time name="orth">    0.03    0.03</time>
   <time name="total">    4.13    4.13</time>
   <energy>
    <i name="e_fr_energy">   -684.70354988 </i>
    <i name="e_wo_entrp">   -684.68000098 </i>
    <i name="e_0_energy">   -684.69177543 </i>
   </energy>
  </scstep>
  <scstep>
   <time name="diag">    0.24    0.24</time>
   <time name="diis">    3.10    3.10</time>
   <time name="orth">    0.03    0.03</time>
   <time name="total">    3.78    3.78</time>
   <energy>
    <i name="e_fr_energy">   -684.69628028 </i>
    <i name="e_wo_entrp">   -684.67272027 </i>
    <i name="e_0_energy">   -684.68450028 </i>
   </energy>
  </scstep>
  <scstep>
   <time name="diag">    0.24    0.24</time>
   <time name="diis">    3.06    3.06</time>
   <time name="orth">    0.03    0.03</time>
   <time name="total">    3.75    3.75</time>
   <energy>
    <i name="e_fr_energy">   -684.68404144 </i>
    <i name="e_wo_entrp">   -684.66048597 </i>
    <i name="e_0_energy">   -684.67226370 </i>
   </energy>
  </scstep>
  <scstep>
   <time name="diag">    0.24    0.24</time>
   <time name="diis">    3.01    3.01</time>
   <time name="orth">    0.03    0.03</time>
   <time name="total">    3.70    3.70</time>
   <energy>
    <i name="e_fr_energy">   -684.68417300 </i>
    <i name="e_wo_entrp">   -684.66059669 </i>
    <i name="e_0_energy">   -684.67238484 </i>
   </energy>
  </scstep>
  <scstep>
   <time name="diag">    0.24    0.24</time>
   <time name="diis">    2.32    2.32</time>
   <time name="orth">    0.03    0.03</time>
[...]
       <r>   -10.6774     0.0000   142.0000 </r>
       <r>   -10.5651     0.0000   142.0000 </r>
       <r>   -10.4529     0.0000   142.0000 </r>
       <r>   -10.3406     0.0000   142.0000 </r>
       <r>   -10.2283     0.0000   142.0000 </r>
       <r>   -10.1161     0.0000   142.0000 </r>
       <r>   -10.0038     0.0000   142.0000 </r>
       <r>    -9.8915     0.0000   142.0000 </r>
       <r>    -9.7793     0.0000   142.0000 </r>
       <r>    -9.6670     0.0000   142.0000 </r>
       <r>    -9.5547     0.0000   142.0000 </r>
       <r>    -9.4425     0.2703   142.0303 </r>
       <r>    -9.3302    41.0410   146.6380 </r>
       <r>    -9.2179    92.9374   157.0719 </r>
       <r>    -9.1057   232.7620   183.2037 </r>
       <r>    -8.9934   375.9843   225.4148 </r>
       <r>    -8.8811   583.8301   290.9604 </r>
       <r>    -8.7689   674.5306   366.6887 </r>
       <r>    -8.6566   616.6141   435.9149 </r>
       <r>    -8.5443   567.8255   499.6637 </r>
       <r>    -8.4321   271.1657   530.1070 </r>
       <r>    -8.3198   166.2560   548.7723 </r>
       <r>    -8.2075   131.4439   563.5293 </r>
       <r>    -8.0952   121.9906   577.2250 </r>
       <r>    -7.9830   111.8306   589.7800 </r>
       <r>    -7.8707   107.8182   601.8846 </r>
       <r>    -7.7584    73.0815   610.0893 </r>
       <r>    -7.6462    16.8678   611.9830 </r>
       <r>    -7.5339     0.1514   612.0000 </r>
       <r>    -7.4216     0.0000   612.0000 </r>
       <r>    -7.3094     0.0000   612.0000 </r>
       <r>    -7.1971     0.0000   612.0000 </r>
       <r>    -7.0848     0.0000   612.0000 </r>
       <r>    -6.9726     0.0000   612.0000 </r>
       <r>    -6.8603     0.0000   612.0000 </r>
       <r>    -6.7480     0.0000   612.0000 </r>
       <r>    -6.6358     0.0000   612.0000 </r>
       <r>    -6.5235     0.0000   612.0000 </r>
       <r>    -6.4112     0.0000   612.0000 </r>
       <r>    -6.2990     0.0000   612.0000 </r>
       <r>    -6.1867     0.0000   612.0000 </r>
       <r>    -6.0744     0.0000   612.0000 </r>
       <r>    -5.9622     0.0000   612.0000 </r>
       <r>    -5.8499     0.0000   612.0000 </r>
       <r>    -5.7376     0.0000   612.0000 </r>
       <r>    -5.6253     0.0000   612.0000 </r>
       <r>    -5.5131     0.0000   612.0000 </r>
       <r>    -5.4008     0.0000   612.0000 </r>
       <r>    -5.2885     0.0000   612.0000 </r>
       <r>    -5.1763     0.0004   612.0000 </r>
       <r>    -5.0640     3.0162   612.3387 </r>
       <r>    -4.9517    14.5482   613.9720 </r>
       <r>    -4.8395     0.2498   614.0000 </r>
       <r>    -4.7272     0.0000   614.0000 </r>
       <r>    -4.6149     0.0000   614.0000 </r>
       <r>    -4.5027     0.0000   614.0000 </r>
       <r>    -4.3904     0.0000   614.0000 </r>
       <r>    -4.2781     0.0000   614.0000 </r>
       <r>    -4.1659     0.0000   614.0000 </r>
       <r>    -4.0536     0.0000   614.0000 </r>
       <r>    -3.9413     0.0000   614.0000 </r>
       <r>    -3.8291     0.0000   614.0000 </r>
       <r>    -3.7168     0.0000   614.0000 </r>
       <r>    -3.6045     0.0000   614.0000 </r>
       <r>    -3.4922     0.0000   614.0000 </r>
       <r>    -3.3800     0.0000   614.0000 </r>
       <r>    -3.2677     0.0861   614.0097 </r>
       <r>    -3.1554     6.9263   614.7873 </r>
       <r>    -3.0432    20.9315   617.1372 </r>
       <r>    -2.9309    29.4894   620.4479 </r>
       <r>    -2.8186    33.7930   624.2418 </r>
       <r>    -2.7064    38.3136   628.5432 </r>
       <r>    -2.5941    38.6185   632.8789 </r>
       <r>    -2.4818    44.9532   637.9257 </r>
       <r>    -2.3696    39.2952   642.3373 </r>
       <r>    -2.2573    52.9071   648.2771 </r>
       <r>    -2.1450    51.7183   654.0834 </r>
       <r>    -2.0328    48.9768   659.5819 </r>
       <r>    -1.9205    44.8713   664.6196 </r>
       <r>    -1.8082    56.5111   670.9640 </r>
       <r>    -1.6960    35.7460   674.9771 </r>
       <r>    -1.5837    33.2539   678.7105 </r>
       <r>    -1.4714    27.7492   681.8258 </r>
       <r>    -1.3592    36.8264   685.9602 </r>
       <r>    -1.2469    37.0888   690.1241 </r>
       <r>    -1.1346    32.7617   693.8022 </r>
       <r>    -1.0223    43.1737   698.6493 </r>
       <r>    -0.9101    38.8562   703.0116 </r>
       <r>    -0.7978    30.8046   706.4700 </r>
       <r>    -0.6855    37.8158   710.7155 </r>
       <r>    -0.5733    36.9499   714.8638 </r>
       <r>    -0.4610    43.2660   719.7212 </r>
       <r>    -0.3487    48.0961   725.1209 </r>
       <r>    -0.2365    43.1440   729.9646 </r>
       <r>    -0.1242    39.5443   734.4041 </r>
       <r>    -0.0119    57.6017   740.8710 </r>
       <r>     0.1003    62.5448   747.8928 </r>
       <r>     0.2126    75.3340   756.3504 </r>
       <r>     0.3249    66.3574   763.8002 </r>
       <r>     0.4371    67.8150   771.4137 </r>
       <r>     0.5494    60.4850   778.2042 </r>
       <r>     0.6617    57.1649   784.6220 </r>
       <r>     0.7739    61.9148   791.5731 </r>
       <r>     0.8862    73.4794   799.8225 </r>
       <r>     0.9985    78.6997   808.6580 </r>
       <r>     1.1108    79.8671   817.6245 </r>
       <r>     1.2230    75.6839   826.1214 </r>
       <r>     1.3353    64.6716   833.3820 </r>
       <r>     1.4476    69.4327   841.1771 </r>
       <r>     1.5598    72.1750   849.2801 </r>
       <r>     1.6721    79.9341   858.2541 </r>
       <r>     1.7844    88.6168   868.2030 </r>
       <r>     1.8966    85.3452   877.7845 </r>
       <r>     2.0089    60.3869   884.5641 </r>
       <r>     2.1212    63.2421   891.6641 </r>
       <r>     2.2334    72.1832   899.7680 </r>
       <r>     2.3457    82.5069   909.0309 </r>
       <r>     2.4580    90.7670   919.2212 </r>
       <r>     2.5702    99.5958   930.4026 </r>
       <r>     2.6825    90.6280   940.5773 </r>
       <r>     2.7948   102.7304   952.1106 </r>
       <r>     2.9070   107.3227   964.1596 </r>
       <r>     3.0193   105.7613   976.0332 </r>
       <r>     3.1316   128.6255   990.4738 </r>
       <r>     3.2438   113.2091  1003.1836 </r>
       <r>     3.3561    87.3462  1012.9898 </r>
       <r>     3.4684    60.6689  1019.8010 </r>
       <r>     3.5807    47.1023  1025.0891 </r>
       <r>     3.6929    60.8181  1031.9170 </r>
       <r>     3.8052    45.0061  1036.9698 </r>
       <r>     3.9175     9.1546  1037.9975 </r>
       <r>     4.0297     0.0219  1038.0000 </r>
       <r>     4.1420     0.0002  1038.0000 </r>
       <r>     4.2543     0.6223  1038.0699 </r>
       <r>     4.3665     1.6791  1038.2584 </r>
       <r>     4.4788     5.5257  1038.8788 </r>
       <r>     4.5911     8.6788  1039.8531 </r>
       <r>     4.7033     1.3080  1040.0000 </r>
       <r>     4.8156     0.0004  1040.0000 </r>
       <r>     4.9279     0.0000  1040.0000 </r>
       <r>     5.0401     0.0000  1040.0000 </r>
       <r>     5.1524     0.0000  1040.0000 </r>
       <r>     5.2647     0.0000  1040.0000 </r>
       <r>     5.3769     0.0000  1040.0000 </r>
       <r>     5.4892     0.0014  1040.0002 </r>
       <r>     5.6015     2.9199  1040.3280 </r>
       <r>     5.7137    11.5312  1041.6226 </r>
       <r>     5.8260     3.3524  1041.9989 </r>
       <r>     5.9383     0.0095  1042.0000 </r>
       <r>     6.0506     0.0000  1042.0000 </r>
       <r>     6.1628     0.0000  1042.0000 </r>
       <r>     6.2751     0.0755  1042.0085 </r>
       <r>     6.3874     1.9539  1042.2278 </r>
       <r>     6.4996     0.1973  1042.2500 </r>
       <r>     6.6119     0.0000  1042.2500 </r>
       <r>     6.7242     0.0375  1042.2542 </r>
       <r>     6.8364     1.9104  1042.4687 </r>
       <r>     6.9487     2.2266  1042.7187 </r>
       <r>     7.0610     0.3130  1042.7538 </r>
       <r>     7.1732     3.2468  1043.1183 </r>
       <r>     7.2855     3.8055  1043.5455 </r>
       <r>     7.3978     3.0541  1043.8884 </r>
       <r>     7.5100     2.1656  1044.1315 </r>
       <r>     7.6223     8.4431  1045.0794 </r>
       <r>     7.7346     5.1797  1045.6610 </r>
       <r>     7.8468     1.2933  1045.8061 </r>
       <r>     7.9591     4.8335  1046.3488 </r>
       <r>     8.0714    13.4045  1047.8537 </r>
       <r>     8.1837     7.7605  1048.7250 </r>
       <r>     8.2959     9.6252  1049.8056 </r>
       <r>     8.4082     7.9528  1050.6984 </r>
       <r>     8.5205    10.6027  1051.8887 </r>
       <r>     8.6327     7.3182  1052.7103 </r>
       <r>     8.7450     5.3787  1053.3142 </r>
       <r>     8.8573    10.9376  1054.5422 </r>
       <r>     8.9695    16.8175  1056.4302 </r>
       <r>     9.0818    18.1295  1058.4656 </r>
       <r>     9.1941    10.2710  1059.6187 </r>
       <r>     9.3063    21.2188  1062.0009 </r>
       <r>     9.4186    28.7902  1065.2331 </r>
       <r>     9.5309    24.1843  1067.9483 </r>
       <r>     9.6431    25.7170  1070.8354 </r>
       <r>     9.7554    45.4075  1075.9333 </r>
       <r>     9.8677    44.3950  1080.9174 </r>
       <r>     9.9799    36.5104  1085.0164 </r>
       <r>    10.0922    33.2965  1088.7545 </r>
       <r>    10.2045    39.5676  1093.1967 </r>
       <r>    10.3167    29.8252  1096.5451 </r>
       <r>    10.4290    27.5284  1099.6357 </r>
       <r>    10.5413    34.1665  1103.4715 </r>
       <r>    10.6536    39.0578  1107.8565 </r>
       <r>    10.7658    39.5659  1112.2985 </r>
       <r>    10.8781    39.1363  1116.6922 </r>
       <r>    10.9904    31.6888  1120.2499 </r>
       <r>    11.1026    30.5415  1123.6787 </r>
       <r>    11.2149    42.9676  1128.5026 </r>
       <r>    11.3272    34.0680  1132.3274 </r>
       <r>    11.4394    37.8428  1136.5759 </r>
       <r>    11.5517    42.8431  1141.3858 </r>
       <r>    11.6640    29.5585  1144.7043 </r>
       <r>    11.7762    24.8250  1147.4914 </r>
       <r>    11.8885    18.9765  1149.6218 </r>
       <r>    12.0008    23.6937  1152.2819 </r>
       <r>    12.1130    26.8675  1155.2982 </r>
       <r>    12.2253    36.9508  1159.4466 </r>
       <r>    12.3376    37.0092  1163.6016 </r>
       <r>    12.4498    32.9272  1167.2983 </r>
       <r>    12.5621    51.7814  1173.1117 </r>
       <r>    12.6744    40.6853  1177.6794 </r>
       <r>    12.7867    36.5131  1181.7786 </r>
       <r>    12.8989    42.9871  1186.6047 </r>
       <r>    13.0112    34.1024  1190.4333 </r>
       <r>    13.1235    34.4159  1194.2972 </r>
       <r>    13.2357    39.4053  1198.7211 </r>
       <r>    13.3480    42.8751  1203.5346 </r>
       <r>    13.4603    50.3459  1209.1869 </r>
       <r>    13.5725    41.4863  1213.8445 </r>
       <r>    13.6848    36.3478  1217.9252 </r>
       <r>    13.7971    33.7583  1221.7152 </r>
       <r>    13.9093    35.2573  1225.6735 </r>
       <r>    14.0216    38.8839  1230.0389 </r>
       <r>    14.1339    30.2986  1233.4405 </r>
       <r>    14.2461    28.8825  1236.6831 </r>
       <r>    14.3584    28.9264  1239.9306 </r>
       <r>    14.4707    34.2658  1243.7775 </r>
       <r>    14.5829    40.5118  1248.3257 </r>
       <r>    14.6952    14.7549  1249.9822 </r>
       <r>    14.8075     0.1583  1250.0000 </r>
       <r>    14.9197     0.0000  1250.0000 </r>
       <r>    15.0320     0.0000  1250.0000 </r>
       <r>    15.1443     0.0000  1250.0000 </r>
       <r>    15.2566     0.0000  1250.0000 </r>
       <r>    15.3688     0.0000  1250.0000 </r>
       <r>    15.4811     0.0000  1250.0000 </r>
       <r>    15.5934     0.0000  1250.0000 </r>
       <r>    15.7056     0.0000  1250.0000 </r>
       <r>    15.8179     0.0000  1250.0000 </r>
       <r>    15.9302     0.0000  1250.0000 </r>
       <r>    16.0424     0.0000  1250.0000 </r>
       <r>    16.1547     0.0000  1250.0000 </r>
      </set>
     </set>
    </array>
   </total>
  </dos>
 </calculation>
 <structure name="finalpos" >
  <crystal>
   <varray name="basis" >
    <v>       0.00000000      12.28047342       0.00000000 </v>
    <v>       9.14270205       0.00000000       0.00000000 </v>
    <v>       0.00000000      -2.76826177     -11.30069772 </v>
   </varray>
   <i name="volume">   1268.80515525 </i>
   <varray name="rec_basis" >
    <v>       0.00000000       0.08143009      -0.01994742 </v>
    <v>       0.10937686      -0.00000000       0.00000000 </v>
    <v>       0.00000000       0.00000000      -0.08849011 </v>
   </varray>
  </crystal>
  <varray name="positions" >
   <v>       0.66034400      -0.00105703       0.15879501 </v>
   <v>       0.65868450      -0.00151682       0.65585433 </v>
   <v>       0.66078668       0.33114162       0.15883978 </v>
   <v>       0.65789788       0.33218000       0.65627947 </v>
   <v>       0.66091696       0.66597312       0.15837748 </v>
   <v>       0.65826366       0.66486602       0.65771060 </v>
   <v>       0.84896102       0.16268191       0.34462140 </v>
   <v>       0.83745788       0.16499296       0.84068190 </v>
   <v>       0.84142735       0.49837046       0.34564271 </v>
   <v>       0.84054264       0.49916101       0.84264926 </v>
   <v>       0.84517952       0.83174891       0.34576620 </v>
   <v>       0.83963370       0.83054547       0.84191523 </v>
   <v>       0.59327103       0.16692771       0.39731735 </v>
   <v>       0.59066791       0.16480661       0.89870803 </v>
   <v>       0.59047111       0.49916509       0.39821552 </v>
   <v>       0.59138519       0.49846394       0.89949752 </v>
   <v>       0.59426269       0.83233464       0.39870271 </v>
   <v>       0.59136545       0.83128710       0.89931686 </v>
   <v>       0.90219882      -0.00393281       0.09883072 </v>
   <v>       0.91001211      -0.00221055       0.60084049 </v>
   <v>       0.90393798       0.33758455       0.09946537 </v>
   <v>       0.90939537       0.33079415       0.60297725 </v>
   <v>       0.90866706       0.66573554       0.10279565 </v>
   <v>       0.90982048       0.66466945       0.60418350 </v>
   <v>       0.15956328       0.16127759       0.65134504 </v>
   <v>       0.15905582       0.50295447       0.16862926 </v>
   <v>       0.15926645       0.49740618       0.66046899 </v>
   <v>       0.15667563       0.83471511       0.17326306 </v>
   <v>       0.15929651       0.83320619       0.65362968 </v>
   <v>       0.34515772       0.00320035       0.34414744 </v>
   <v>       0.34078116      -0.00133749       0.84539282 </v>
   <v>       0.33945369       0.33093575       0.34253356 </v>
   <v>       0.34081128       0.33049490       0.84603497 </v>
   <v>       0.34329147       0.66538383       0.34837117 </v>
   <v>       0.33954237       0.66491590       0.84562334 </v>
   <v>       0.11444562      -0.00996415       0.37783348 </v>
   <v>       0.08553540      -0.00200230       0.88992432 </v>
   <v>       0.09074541       0.32923411       0.39971739 </v>
   <v>       0.08776504       0.32831031       0.89441804 </v>
   <v>       0.08804960       0.66490397       0.40262300 </v>
   <v>       0.09393998       0.66461884       0.90380243 </v>
   <v>       0.41211114       0.16571632       0.10697501 </v>
   <v>       0.40826935       0.16511396       0.60360422 </v>
   <v>       0.41118589       0.50005889       0.10397394 </v>
   <v>       0.40974229       0.49855259       0.60602611 </v>
   <v>       0.40885285       0.83299917       0.10414875 </v>
   <v>       0.40953111       0.83258494       0.60508880 </v>
   <v>      -0.00866035       0.16624986       0.10799038 </v>
   <v>       0.99699879       0.16458380       0.62619711 </v>
   <v>      -0.00360477       0.49877355       0.12758612 </v>
   <v>       0.99655951       0.49756650       0.63201362 </v>
   <v>       0.99458742       0.83465245       0.12698815 </v>
   <v>       0.99698514       0.83111674       0.63131858 </v>
   <v>       0.50743376      -0.00125830       0.37573253 </v>
   <v>       0.50341922      -0.00228622       0.87473956 </v>
   <v>       0.50445799       0.33242223       0.37456770 </v>
   <v>       0.50350205       0.33192187       0.87520682 </v>
   <v>       0.50480199       0.66740915       0.37053897 </v>
   <v>       0.50277980       0.66488777       0.87682282 </v>
   <v>       0.67529583       0.16578852       0.28094743 </v>
   <v>       0.67123509       0.16480865       0.78033812 </v>
   <v>       0.67409998       0.49826921       0.28218187 </v>
   <v>       0.67162501       0.49876719       0.78116996 </v>
   <v>       0.67560417       0.83188947       0.28160810 </v>
   <v>       0.67172018       0.83095862       0.78106306 </v>
   <v>       0.82862370      -0.00011616       0.21963453 </v>
   <v>       0.82723648      -0.00286833       0.71830311 </v>
   <v>       0.82971509       0.33053179       0.22011458 </v>
   <v>       0.82670567       0.33285616       0.71917881 </v>
   <v>       0.82894576       0.66465807       0.22087267 </v>
   <v>       0.82769450       0.66411270       0.72095615 </v>
   <v>       0.83130710      -0.00117686       0.44555312 </v>
   <v>       0.82910137      -0.00231759       0.94284022 </v>
   <v>       0.83536934       0.32887084       0.44577647 </v>
   <v>       0.82947627       0.33273030       0.94354808 </v>
   <v>       0.83243224       0.66503073       0.44799451 </v>
   <v>       0.83216764       0.66496530       0.94636915 </v>
   <v>       0.66961310       0.16506877       0.05471002 </v>
   <v>       0.66845653       0.16599563       0.55484611 </v>
   <v>       0.66991859       0.49867213       0.05593683 </v>
   <v>       0.66750512       0.49925064       0.55486405 </v>
   <v>       0.67069825       0.83229261       0.05533130 </v>
   <v>       0.66859896       0.83075694       0.55575422 </v>
   <v>       0.49841583      -0.00266873       0.12778359 </v>
   <v>       0.49660980      -0.00060596       0.62898198 </v>
   <v>       0.49859012       0.33368079       0.12742979 </v>
   <v>       0.49622323       0.33104627       0.63008034 </v>
   <v>       0.49748049       0.66749517       0.12824667 </v>
   <v>       0.49662525       0.66576739       0.63068437 </v>
   <v>       0.01143639       0.15707498       0.36466716 </v>
   <v>      -0.00117225       0.16419903       0.86603068 </v>
   <v>       0.00227029       0.49710411       0.37642969 </v>
   <v>       0.00545935       0.49753143       0.87963026 </v>
   <v>       0.00514243       0.83355788       0.37572443 </v>
   <v>       0.00342344       0.82960075       0.87657929 </v>
   <v>       0.17279665      -0.00152700       0.78045808 </v>
   <v>       0.17637667       0.35790324       0.29172052 </v>
   <v>       0.17318047       0.32970387       0.78325692 </v>
   <v>       0.17420181       0.66722785       0.28847066 </v>
   <v>       0.17233816       0.66452003       0.78405462 </v>
   <v>       0.33832657       0.16480953       0.22774945 </v>
   <v>       0.32759669       0.16451905       0.72169952 </v>
   <v>       0.32728031       0.50115982       0.21811795 </v>
   <v>       0.32795506       0.49764936       0.72310576 </v>
   <v>       0.32350385       0.84062669       0.21949151 </v>
   <v>       0.32769101       0.83129432       0.72209640 </v>
   <v>       0.32893143       0.16542280       0.44738025 </v>
   <v>       0.33275221       0.16437175       0.95006665 </v>
   <v>       0.33977655       0.49960549       0.44870982 </v>
   <v>       0.32871317       0.49715034       0.94920593 </v>
   <v>       0.33668594       0.83398502       0.44707053 </v>
   <v>       0.32841912       0.83288566       0.94866815 </v>
   <v>       0.15218156       0.01841404       0.05491585 </v>
   <v>       0.16705324      -0.00373588       0.55061036 </v>
   <v>       0.15466989       0.30559509       0.05953410 </v>
   <v>       0.16765620       0.33254992       0.55690977 </v>
   <v>       0.16486111       0.66873423       0.06264132 </v>
   <v>       0.16927007       0.66254365       0.55765026 </v>
   <v>       0.13741302       0.16031413       0.14162819 </v>
  </varray>
 </structure>
</modeling>
