 running    4 mpi-ranks, on    1 nodes
 distrk:  each k-point on    1 cores,    4 groups
 distr:  one band on    1 cores,    1 groups
 OpenACC runtime initialized ...    4 GPUs detected
 vasp.6.4.2 20Jul23 (build Nov 12 2023 22:16:35) complex                         
 POSCAR found type information on POSCAR GaO P 
 POSCAR found :  3 types and     120 ions
 scaLAPACK will be used selectively (only on CPU)
 LDA part: xc-table for Pade appr. of Perdew
 POSCAR, INCAR and KPOINTS ok, starting setup
 FFT: planning ... GRIDC
 FFT: planning ... GRID_SOFT
 FFT: planning ... GRID
 WAVECAR not read
 initial charge from wavefunction
 entering main loop
       N       E                     dE             d eps       ncg     rms          ort
DAV:   1    -0.187368476313E+05   -0.18737E+05   -0.54348E+05  5064   0.747E+03
DAV:   2    -0.631180465070E+05   -0.44381E+05   -0.42946E+05  5064   0.122E+03
DAV:   3    -0.680069042923E+05   -0.48889E+04   -0.43762E+04  5064   0.367E+02
DAV:   4    -0.686633484424E+05   -0.65644E+03   -0.57657E+03  5064   0.112E+02
DAV:   5    -0.384920271860E+05    0.30171E+05   -0.91544E+02  5064   0.567E+01
 gam= 0.000 g(H,U,f)=  0.789E+05 0.386E+05 0.938E+05 ort(H,U,f) = 0.000E+00 0.000E+00 0.000E+00
SDA:   6     0.288831335802E+05    0.67375E+05   -0.91544E+02  5064   0.211E+06 0.000E+00
 gam= 0.000 trial= 0.400  step= 0.259 mean= 0.400
 gam= 0.270 g(H,U,f)=  0.220E+05 0.243E+05 0.107E+05 ort(H,U,f) = 0.182E+05-0.293E+05-0.147E+05
CGA:   7     0.612003688960E+04   -0.22763E+05   -0.27320E+05  5064   0.570E+05-0.258E+05
 gam= 0.270 trial= 0.393  step= 0.230 mean= 0.393
 gam= 0.188 g(H,U,f)=  0.535E+04 0.328E+04 0.208E+04 ort(H,U,f) = 0.320E+04 0.266E+03-0.145E+03
CGA:   8     0.168123993866E+04   -0.44388E+04   -0.57677E+04  5064   0.107E+05 0.332E+04
 gam= 0.188 trial= 0.385  step= 0.197 mean= 0.385
 gam= 0.647 g(H,U,f)=  0.452E+04 0.225E+04 0.154E+03 ort(H,U,f) = 0.966E+03-0.109E+04-0.119E+03
CGA:   9     0.919451859984E+03   -0.76179E+03   -0.11167E+04  5064   0.692E+04-0.241E+03
 gam= 0.647 trial= 0.375  step= 0.242 mean= 0.375
 gam= 0.517 g(H,U,f)=  0.191E+04 0.160E+04 0.615E+02 ort(H,U,f) =-0.418E+02 0.299E+03 0.248E+02
CGA:  10     0.223746195188E+03   -0.69571E+03   -0.81908E+03  5064   0.358E+04 0.282E+03
 gam= 0.517 trial= 0.369  step= 0.208 mean= 0.369
 gam= 1.168 g(H,U,f)=  0.146E+04 0.251E+04 0.203E+03 ort(H,U,f) = 0.171E+03-0.595E+03-0.649E+02
CGA:  11    -0.137153779712E+03   -0.36090E+03   -0.38665E+03  5064   0.418E+04-0.489E+03
 gam= 1.168 trial= 0.361  step= 0.211 mean= 0.361
 gam= 0.295 g(H,U,f)=  0.884E+03 0.345E+03 0.177E+01 ort(H,U,f) =-0.240E+03 0.216E+03 0.759E+00
CGA:  12    -0.468455579868E+03   -0.33130E+03   -0.38079E+03  5064   0.123E+04-0.231E+02
 gam= 0.295 trial= 0.353  step= 0.366 mean= 0.353
 gam= 0.347 g(H,U,f)=  0.350E+03 0.762E+02 0.946E+00 ort(H,U,f) =-0.100E+02 0.112E+03 0.231E+01
CGA:  13    -0.694018864118E+03   -0.22556E+03   -0.22415E+03  5064   0.427E+03 0.104E+03
 gam= 0.347 trial= 0.354  step= 0.557 mean= 0.354
 gam= 0.457 g(H,U,f)=  0.161E+03 0.322E+02 0.211E+01 ort(H,U,f) =-0.258E+02 0.420E+02 0.952E+00
CGA:  14    -0.824897014988E+03   -0.13088E+03   -0.12892E+03  5064   0.195E+03 0.172E+02
 gam= 0.457 trial= 0.364  step= 0.646 mean= 0.364
 gam= 0.560 g(H,U,f)=  0.937E+02 0.155E+02 0.941E-01 ort(H,U,f) =-0.361E+02 0.207E+02-0.933E-01
CGA:  15    -0.888121971106E+03   -0.63225E+02   -0.65630E+02  5064   0.109E+03-0.154E+02
 gam= 0.560 trial= 0.378  step= 0.709 mean= 0.378
 gam= 0.523 g(H,U,f)=  0.519E+02 0.529E+01 0.816E-02 ort(H,U,f) =-0.241E+02 0.450E+01 0.262E-01
CGA:  16    -0.919915869692E+03   -0.31794E+02   -0.35673E+02  5064   0.572E+02-0.196E+02
 gam= 0.523 trial= 0.395  step= 0.532 mean= 0.395
 gam= 0.485 g(H,U,f)=  0.242E+02 0.349E+01 0.802E-02 ort(H,U,f) =-0.675E+00-0.353E+00 0.121E-01
CGA:  17    -0.932325643180E+03   -0.12410E+02   -0.12480E+02  5064   0.277E+02-0.102E+01
 gam= 0.485 trial= 0.402  step= 0.588 mean= 0.402
 gam= 0.510 g(H,U,f)=  0.114E+02 0.273E+01 0.112E-04 ort(H,U,f) =-0.127E+01 0.104E+01 0.205E-03
CGA:  18    -0.940306887850E+03   -0.79812E+01   -0.80004E+01  5064   0.141E+02-0.235E+00
 gam= 0.510 trial= 0.411  step= 0.824 mean= 0.411
 gam= 0.875 g(H,U,f)=  0.107E+02 0.160E+01 0.858E-02 ort(H,U,f) =-0.703E+01 0.942E+00-0.197E-01
CGA:  19    -0.944322466630E+03   -0.40156E+01   -0.57710E+01  5064   0.124E+02-0.611E+01
 gam= 0.875 trial= 0.432  step= 0.423 mean= 0.432
 gam= 0.691 g(H,U,f)=  0.778E+01 0.743E+00 0.472E-02 ort(H,U,f) =-0.100E+01 0.864E+00 0.225E-01
CGA:  20    -0.945806482615E+03   -0.14840E+01   -0.14830E+01  5064   0.853E+01-0.117E+00
 gam= 0.691 trial= 0.431  step= 0.411 mean= 0.431
 gam= 0.477 g(H,U,f)=  0.357E+01 0.501E+00 0.942E-03 ort(H,U,f) = 0.555E-01-0.590E-01 0.142E-02
CGA:  21    -0.947541865802E+03   -0.17354E+01   -0.17346E+01  5064   0.407E+01-0.217E-02
 gam= 0.477 trial= 0.430  step= 0.487 mean= 0.430
 gam= 0.649 g(H,U,f)=  0.215E+01 0.488E+00 0.357E-02 ort(H,U,f) =-0.753E-02 0.474E-01 0.886E-02
CGA:  22    -0.948532650318E+03   -0.99078E+00   -0.98980E+00  5064   0.264E+01 0.487E-01
 gam= 0.649 trial= 0.433  step= 0.488 mean= 0.433
 gam= 0.566 g(H,U,f)=  0.120E+01 0.287E+00 0.381E-02 ort(H,U,f) =-0.187E+00 0.201E+00 0.286E-01
CGA:  23    -0.949186110780E+03   -0.65346E+00   -0.65226E+00  5064   0.150E+01 0.430E-01
 gam= 0.566 trial= 0.436  step= 0.467 mean= 0.436
 gam= 0.588 g(H,U,f)=  0.735E+00 0.140E+00 0.443E-02 ort(H,U,f) =-0.151E+00 0.148E+00 0.124E-01
CGA:  24    -0.949541042568E+03   -0.35493E+00   -0.35485E+00  5064   0.880E+00 0.964E-02
 gam= 0.588 trial= 0.437  step= 0.490 mean= 0.437
 gam= 0.685 g(H,U,f)=  0.509E+00 0.906E-01 0.366E-02 ort(H,U,f) =-0.523E-01 0.681E-01-0.763E-02
CGA:  25    -0.949758133520E+03   -0.21709E+00   -0.21683E+00  5064   0.603E+00 0.819E-02
 gam= 0.685 trial= 0.440  step= 0.475 mean= 0.440
 gam= 0.592 g(H,U,f)=  0.296E+00 0.574E-01 0.400E-02 ort(H,U,f) =-0.396E-01 0.429E-01-0.166E-02
CGA:  26    -0.949902685490E+03   -0.14455E+00   -0.14451E+00  5064   0.357E+00 0.169E-02
 gam= 0.592 trial= 0.442  step= 0.448 mean= 0.442
 gam= 0.555 g(H,U,f)=  0.168E+00 0.271E-01 0.311E-02 ort(H,U,f) =-0.304E-01 0.274E-01 0.245E-02
CGA:  27    -0.949982898474E+03   -0.80213E-01   -0.80217E-01  5064   0.198E+00-0.584E-03
 gam= 0.555 trial= 0.442  step= 0.482 mean= 0.442
 gam= 0.625 g(H,U,f)=  0.107E+00 0.151E-01 0.192E-02 ort(H,U,f) =-0.120E-01 0.827E-02 0.323E-02
CGA:  28    -0.950030541901E+03   -0.47643E-01   -0.47661E-01  5064   0.124E+00-0.501E-03
 gam= 0.625 trial= 0.444  step= 0.494 mean= 0.444
 gam= 0.585 g(H,U,f)=  0.609E-01 0.106E-01 0.918E-03 ort(H,U,f) =-0.491E-02 0.235E-02 0.251E-02
CGA:  29    -0.950061060399E+03   -0.30518E-01   -0.30523E-01  5064   0.724E-01-0.558E-04
 gam= 0.585 trial= 0.447  step= 0.489 mean= 0.447
 gam= 0.557 g(H,U,f)=  0.332E-01 0.677E-02 0.330E-03 ort(H,U,f) =-0.423E-02 0.299E-02 0.127E-02
CGA:  30    -0.950078752980E+03   -0.17693E-01   -0.17693E-01  5064   0.403E-01 0.289E-04
 gam= 0.557 trial= 0.449  step= 0.529 mean= 0.449
 gam= 0.635 g(H,U,f)=  0.209E-01 0.461E-02 0.949E-04 ort(H,U,f) =-0.323E-02 0.295E-02 0.240E-03
CGA:  31    -0.950089428051E+03   -0.10675E-01   -0.10678E-01  5064   0.256E-01-0.415E-04
 gam= 0.635 trial= 0.453  step= 0.539 mean= 0.453
 gam= 0.650 g(H,U,f)=  0.137E-01 0.282E-02 0.102E-03 ort(H,U,f) =-0.217E-02 0.240E-02-0.267E-03
CGA:  32    -0.950096318473E+03   -0.68904E-02   -0.68931E-02  5064   0.166E-01-0.426E-04
 gam= 0.650 trial= 0.457  step= 0.507 mean= 0.457
 gam= 0.628 g(H,U,f)=  0.876E-02 0.152E-02 0.173E-03 ort(H,U,f) =-0.927E-03 0.122E-02-0.284E-03
CGA:  33    -0.950100530842E+03   -0.42124E-02   -0.42123E-02  5064   0.104E-01 0.130E-04
 gam= 0.628 trial= 0.459  step= 0.486 mean= 0.459
 gam= 0.638 g(H,U,f)=  0.540E-02 0.109E-02 0.186E-03 ort(H,U,f) =-0.322E-03 0.423E-03-0.588E-04
CGA:  34    -0.950103073378E+03   -0.25425E-02   -0.25420E-02  5064   0.667E-02 0.421E-04
 gam= 0.638 trial= 0.461  step= 0.480 mean= 0.461
 gam= 0.629 g(H,U,f)=  0.332E-02 0.734E-03 0.139E-03 ort(H,U,f) =-0.388E-03 0.315E-03 0.108E-03
CGA:  35    -0.950104681698E+03   -0.16083E-02   -0.16080E-02  5064   0.420E-02 0.362E-04
 gam= 0.629 trial= 0.462  step= 0.474 mean= 0.462
 gam= 0.601 g(H,U,f)=  0.206E-02 0.385E-03 0.742E-04 ort(H,U,f) =-0.329E-03 0.201E-03 0.139E-03
CGA:  36    -0.950105682573E+03   -0.10009E-02   -0.10008E-02  5064   0.252E-02 0.108E-04
 gam= 0.601 trial= 0.462  step= 0.493 mean= 0.462
 gam= 0.000 g(H,U,f)=  0.129E-02 0.247E-03 0.269E-04 ort(H,U,f) =-0.166E-03 0.693E-04 0.835E-04
SDA:  37    -0.950106306076E+03   -0.62350E-03   -0.62371E-03  5064   0.156E-02-0.130E-04
 gam= 0.000 trial= 0.464  step= 0.952 mean= 0.464
 gam= 0.394 g(H,U,f)=  0.493E-03 0.112E-03 0.101E-04 ort(H,U,f) =-0.149E-03 0.110E-03 0.162E-04
CGA:  38    -0.950107043101E+03   -0.73702E-03   -0.74264E-03  5064   0.616E-03-0.231E-04
 gam= 0.394 trial= 0.488  step= 0.711 mean= 0.488
 gam= 0.429 g(H,U,f)=  0.230E-03 0.313E-04 0.310E-05 ort(H,U,f) =-0.988E-04 0.840E-04 0.899E-05
CGA:  39    -0.950107258024E+03   -0.21492E-03   -0.21557E-03  5064   0.264E-03-0.579E-05
 gam= 0.429 trial= 0.499  step= 0.562 mean= 0.499
 gam= 0.333 g(H,U,f)=  0.790E-04 0.837E-05 0.838E-06 ort(H,U,f) =-0.340E-04 0.290E-04 0.357E-05
CGA:  40    -0.950107331610E+03   -0.73586E-04   -0.73629E-04  5064   0.882E-04-0.137E-05
 gam= 0.333 trial= 0.503  step= 0.614 mean= 0.503
 gam= 0.410 g(H,U,f)=  0.341E-04 0.191E-05 0.156E-06 ort(H,U,f) =-0.990E-05 0.776E-05 0.854E-06
CGA:  41    -0.950107358469E+03   -0.26859E-04   -0.26930E-04  5064   0.362E-04-0.128E-05
 gam= 0.410 trial= 0.508  step= 0.541 mean= 0.508
 gam= 0.281 g(H,U,f)=  0.986E-05 0.284E-06 0.186E-07 ort(H,U,f) =-0.350E-05 0.152E-05 0.154E-06
CGA:  42    -0.950107368086E+03   -0.96161E-05   -0.96467E-05  5064   0.102E-04-0.182E-05
 gam= 0.281 trial= 0.510  step= 0.646 mean= 0.510
 final diagonalization
   1 F= -.95010737E+03 E0= -.95009707E+03  d E =-.206042E-01
 writing wavefunctions
Warning: ieee_invalid is signaling
Warning: ieee_divide_by_zero is signaling
Warning: ieee_underflow is signaling
Warning: ieee_inexact is signaling
FORTRAN STOP
Warning: ieee_invalid is signaling
Warning: ieee_divide_by_zero is signaling
Warning: ieee_underflow is signaling
Warning: ieee_inexact is signaling
FORTRAN STOP
Warning: ieee_invalid is signaling
Warning: ieee_divide_by_zero is signaling
Warning: ieee_underflow is signaling
Warning: ieee_inexact is signaling
FORTRAN STOP
Warning: ieee_invalid is signaling
Warning: ieee_divide_by_zero is signaling
Warning: ieee_underflow is signaling
Warning: ieee_inexact is signaling
FORTRAN STOP
