       N       E                     dE             d eps       ncg     rms          ort
DAV:   1    -0.187368476313E+05   -0.18737E+05   -0.54348E+05  5064   0.747E+03
DAV:   2    -0.631180465070E+05   -0.44381E+05   -0.42946E+05  5064   0.122E+03
DAV:   3    -0.680069042923E+05   -0.48889E+04   -0.43762E+04  5064   0.367E+02
DAV:   4    -0.686633484424E+05   -0.65644E+03   -0.57657E+03  5064   0.112E+02
DAV:   5    -0.384920271860E+05    0.30171E+05   -0.91544E+02  5064   0.567E+01
SDA:   6     0.288831335802E+05    0.67375E+05   -0.91544E+02  5064   0.211E+06 0.000E+00
CGA:   7     0.612003688960E+04   -0.22763E+05   -0.27320E+05  5064   0.570E+05-0.258E+05
CGA:   8     0.168123993866E+04   -0.44388E+04   -0.57677E+04  5064   0.107E+05 0.332E+04
CGA:   9     0.919451859984E+03   -0.76179E+03   -0.11167E+04  5064   0.692E+04-0.241E+03
CGA:  10     0.223746195188E+03   -0.69571E+03   -0.81908E+03  5064   0.358E+04 0.282E+03
CGA:  11    -0.137153779712E+03   -0.36090E+03   -0.38665E+03  5064   0.418E+04-0.489E+03
CGA:  12    -0.468455579868E+03   -0.33130E+03   -0.38079E+03  5064   0.123E+04-0.231E+02
CGA:  13    -0.694018864118E+03   -0.22556E+03   -0.22415E+03  5064   0.427E+03 0.104E+03
CGA:  14    -0.824897014988E+03   -0.13088E+03   -0.12892E+03  5064   0.195E+03 0.172E+02
CGA:  15    -0.888121971106E+03   -0.63225E+02   -0.65630E+02  5064   0.109E+03-0.154E+02
CGA:  16    -0.919915869692E+03   -0.31794E+02   -0.35673E+02  5064   0.572E+02-0.196E+02
CGA:  17    -0.932325643180E+03   -0.12410E+02   -0.12480E+02  5064   0.277E+02-0.102E+01
CGA:  18    -0.940306887850E+03   -0.79812E+01   -0.80004E+01  5064   0.141E+02-0.235E+00
CGA:  19    -0.944322466630E+03   -0.40156E+01   -0.57710E+01  5064   0.124E+02-0.611E+01
CGA:  20    -0.945806482615E+03   -0.14840E+01   -0.14830E+01  5064   0.853E+01-0.117E+00
CGA:  21    -0.947541865802E+03   -0.17354E+01   -0.17346E+01  5064   0.407E+01-0.217E-02
CGA:  22    -0.948532650318E+03   -0.99078E+00   -0.98980E+00  5064   0.264E+01 0.487E-01
CGA:  23    -0.949186110780E+03   -0.65346E+00   -0.65226E+00  5064   0.150E+01 0.430E-01
CGA:  24    -0.949541042568E+03   -0.35493E+00   -0.35485E+00  5064   0.880E+00 0.964E-02
CGA:  25    -0.949758133520E+03   -0.21709E+00   -0.21683E+00  5064   0.603E+00 0.819E-02
CGA:  26    -0.949902685490E+03   -0.14455E+00   -0.14451E+00  5064   0.357E+00 0.169E-02
CGA:  27    -0.949982898474E+03   -0.80213E-01   -0.80217E-01  5064   0.198E+00-0.584E-03
CGA:  28    -0.950030541901E+03   -0.47643E-01   -0.47661E-01  5064   0.124E+00-0.501E-03
CGA:  29    -0.950061060399E+03   -0.30518E-01   -0.30523E-01  5064   0.724E-01-0.558E-04
CGA:  30    -0.950078752980E+03   -0.17693E-01   -0.17693E-01  5064   0.403E-01 0.289E-04
CGA:  31    -0.950089428051E+03   -0.10675E-01   -0.10678E-01  5064   0.256E-01-0.415E-04
CGA:  32    -0.950096318473E+03   -0.68904E-02   -0.68931E-02  5064   0.166E-01-0.426E-04
CGA:  33    -0.950100530842E+03   -0.42124E-02   -0.42123E-02  5064   0.104E-01 0.130E-04
CGA:  34    -0.950103073378E+03   -0.25425E-02   -0.25420E-02  5064   0.667E-02 0.421E-04
CGA:  35    -0.950104681698E+03   -0.16083E-02   -0.16080E-02  5064   0.420E-02 0.362E-04
CGA:  36    -0.950105682573E+03   -0.10009E-02   -0.10008E-02  5064   0.252E-02 0.108E-04
SDA:  37    -0.950106306076E+03   -0.62350E-03   -0.62371E-03  5064   0.156E-02-0.130E-04
CGA:  38    -0.950107043101E+03   -0.73702E-03   -0.74264E-03  5064   0.616E-03-0.231E-04
CGA:  39    -0.950107258024E+03   -0.21492E-03   -0.21557E-03  5064   0.264E-03-0.579E-05
CGA:  40    -0.950107331610E+03   -0.73586E-04   -0.73629E-04  5064   0.882E-04-0.137E-05
CGA:  41    -0.950107358469E+03   -0.26859E-04   -0.26930E-04  5064   0.362E-04-0.128E-05
CGA:  42    -0.950107368086E+03   -0.96161E-05   -0.96467E-05  5064   0.102E-04-0.182E-05
   1 F= -.95010737E+03 E0= -.95009707E+03  d E =-.206042E-01
