 vasp.6.4.2 20Jul23 (build Nov 12 2023 22:16:35) complex                         
 executed on              LinuxNV date 2025.03.17  11:32:13
 running    4 mpi-ranks, on    1 nodes
 distrk:  each k-point on    1 cores,    4 groups
 distr:  one band on NCORE=   1 cores,    1 groups
 OpenACC runtime initialized ...    4 GPUs detected


--------------------------------------------------------------------------------------------------------


 INCAR:
   PREC = Normal
   ENCUT = 450
   NELM = 500
   IBRION = -1
   ISPIN = 1
   NSW = 0
   ISIF = 2
   EDIFF = 1E-5
   EDIFFG = -5E-3
   ISTART = 0
   ICHARG = 0
   ISMEAR = 0
   SIGMA = 0.05
   LWAVE = .T.
   LCHARG = .T.
   LREAL = Auto
   LPLANE = .TRUE.
   NPAR = 1
   KPAR = 4
   NCORE = 1
   ALGO = All
   LHFCALC = .TRUE.
   HSE06 = .TRUE.
   HFSCREEN = 0.2
   TIME = 0.4
   AEXX = 0.32
   LMAXFOCK = 4
   PRECFOCK = Fast

 POTCAR:    PAW_PBE Ga_d 06Jul2010                
 POTCAR:     PAW_PBE O 08Apr2002                  
 POTCAR:    PAW_PBE P 06Sep2000                   
 POTCAR:    PAW_PBE Ga_d 06Jul2010                
   SHA256 =  a60ddf36e14f00ea098d9e3914b3745f1b7105e68786148f49ae384e44b4226c Ga_d/POTCAR           
   COPYR  = (c) Copyright 06Jul2010 Georg Kresse                                                    
   COPYR  = This file is part of the software VASP. Any use, copying, and all other rights are regul
   COPYR  = If you do not have a valid VASP license, you may not use, copy or distribute this file. 
   VRHFIN =Ga: s2p1                                                                                 
   LEXCH  = PE                                                                                      
   EATOM  =  2148.8298 eV,  157.9345 Ry                                                             
                                                                                                    
   TITEL  = PAW_PBE Ga_d 06Jul2010                                                                  
   LULTRA =        F    use ultrasoft PP ?                                                          
   IUNSCR =        1    unscreen: 0-lin 1-nonlin 2-no                                               
   RPACOR =    1.700    partial core radius                                                         
   POMASS =   69.723; ZVAL   =   13.000    mass and valenz                                          
   RCORE  =    2.300    outmost cutoff radius                                                       
   RWIGS  =    2.300; RWIGS  =    1.217    wigner-seitz radius (au A)                               
   ENMAX  =  282.691; ENMIN  =  212.018 eV                                                          
   ICORE  =        3    local potential                                                             
   LCOR   =        T    correct aug charges                                                         
   LPAW   =        T    paw PP                                                                      
   EAUG   =  490.690                                                                                
   DEXC   =    0.000                                                                                
   RMAX   =    2.341    core radius for proj-oper                                                   
   RAUG   =    1.300    factor for augmentation sphere                                              
   RDEP   =    2.413    radius for radial grids                                                     
   RDEPT  =    1.856    core radius for aug-charge                                                  
                                                                                                    
   Atomic configuration                                                                             
    9 entries                                                                                       
     n  l   j            E        occ.                                                              
     1  0  0.50    -10228.7831   2.0000                                                             
     2  0  0.50     -1262.1604   2.0000                                                             
     2  1  1.50     -1098.6333   6.0000                                                             
     3  0  0.50      -148.1110   2.0000                                                             
     3  1  1.50       -98.8436   6.0000                                                             
     3  2  2.50       -19.1549  10.0000                                                             
     4  0  0.50        -8.9483   2.0000                                                             
     4  1  0.50        -2.5791   1.0000                                                             
     4  3  2.50        -2.7416   0.0000                                                             
   Description                                                                                      
     l       E           TYP  RCUT    TYP  RCUT                                                     
     2    -19.1549037     23  2.300                                                                 
     2     -5.4423304     23  2.300                                                                 
     0     -8.9483111     23  2.300                                                                 
     0     68.0291300     23  2.300                                                                 
     1     -2.5790802     23  2.100                                                                 
     1     81.6349560     23  2.300                                                                 
     3      6.8029130     23  2.300                                                                 
  local pseudopotential read in
  partial core-charges read in
  partial kinetic energy density read in
  atomic valenz-charges read in
  non local Contribution for L=            2  read in
    real space projection operators read in
  non local Contribution for L=            2  read in
    real space projection operators read in
  non local Contribution for L=            0  read in
    real space projection operators read in
  non local Contribution for L=            0  read in
    real space projection operators read in
  non local Contribution for L=            1  read in
    real space projection operators read in
  non local Contribution for L=            1  read in
    real space projection operators read in
    PAW grid and wavefunctions read in
 
   number of l-projection  operators is LMAX  =            6
   number of lm-projection operators is LMMAX =           18
 
 POTCAR:     PAW_PBE O 08Apr2002                  
   SHA256 =  818f92134a0a090dccd8ba1447fa70422a3b330e708bb4f08108d8ae51209ddf O/POTCAR              
   COPYR  = (c) Copyright 08Apr2002 Georg Kresse                                                    
   COPYR  = This file is part of the software VASP. Any use, copying, and all other rights are regul
   COPYR  = If you do not have a valid VASP license, you may not use, copy or distribute this file. 
   VRHFIN =O: s2p4                                                                                  
   LEXCH  = PE                                                                                      
   EATOM  =   432.3788 eV,   31.7789 Ry                                                             
                                                                                                    
   TITEL  = PAW_PBE O 08Apr2002                                                                     
   LULTRA =        F    use ultrasoft PP ?                                                          
   IUNSCR =        1    unscreen: 0-lin 1-nonlin 2-no                                               
   RPACOR =    1.200    partial core radius                                                         
   POMASS =   16.000; ZVAL   =    6.000    mass and valenz                                          
   RCORE  =    1.520    outmost cutoff radius                                                       
   RWIGS  =    1.550; RWIGS  =    0.820    wigner-seitz radius (au A)                               
   ENMAX  =  400.000; ENMIN  =  300.000 eV                                                          
   ICORE  =        2    local potential                                                             
   LCOR   =        T    correct aug charges                                                         
   LPAW   =        T    paw PP                                                                      
   EAUG   =  605.392                                                                                
   DEXC   =    0.000                                                                                
   RMAX   =    1.553    core radius for proj-oper                                                   
   RAUG   =    1.300    factor for augmentation sphere                                              
   RDEP   =    1.550    radius for radial grids                                                     
   RDEPT  =    1.329    core radius for aug-charge                                                  
                                                                                                    
   Atomic configuration                                                                             
    4 entries                                                                                       
     n  l   j            E        occ.                                                              
     1  0  0.50      -514.6923   2.0000                                                             
     2  0  0.50       -23.9615   2.0000                                                             
     2  1  0.50        -9.0305   4.0000                                                             
     3  2  1.50        -9.5241   0.0000                                                             
   Description                                                                                      
     l       E           TYP  RCUT    TYP  RCUT                                                     
     0    -23.9615318     23  1.200                                                                 
     0     -9.5240782     23  1.200                                                                 
     1     -9.0304911     23  1.520                                                                 
     1      8.1634956     23  1.520                                                                 
     2     -9.5240782      7  1.500                                                                 
  local pseudopotential read in
  partial core-charges read in
  partial kinetic energy density read in
  kinetic energy density of atom read in
  atomic valenz-charges read in
  non local Contribution for L=            0  read in
    real space projection operators read in
  non local Contribution for L=            0  read in
    real space projection operators read in
  non local Contribution for L=            1  read in
    real space projection operators read in
  non local Contribution for L=            1  read in
    real space projection operators read in
    PAW grid and wavefunctions read in
 
   number of l-projection  operators is LMAX  =            4
   number of lm-projection operators is LMMAX =            8
 
 POTCAR:    PAW_PBE P 06Sep2000                   
   SHA256 =  df60c54a93efe35c9e85ae94c010c75e9f6960a95d5595d7cdba4096d109af88 P/POTCAR              
   COPYR  = (c) Copyright 06Sep2000 Georg Kresse                                                    
   COPYR  = This file is part of the software VASP. Any use, copying, and all other rights are regul
   COPYR  = If you do not have a valid VASP license, you may not use, copy or distribute this file. 
   VRHFIN =P : s2p3                                                                                 
   LEXCH  = PE                                                                                      
   EATOM  =   176.0430 eV,   12.9388 Ry                                                             
                                                                                                    
   TITEL  = PAW_PBE P 06Sep2000                                                                     
   LULTRA =        F    use ultrasoft PP ?                                                          
   IUNSCR =        1    unscreen: 0-lin 1-nonlin 2-no                                               
   RPACOR =    1.500    partial core radius                                                         
   POMASS =   30.974; ZVAL   =    5.000    mass and valenz                                          
   RCORE  =    1.900    outmost cutoff radius                                                       
   RWIGS  =    2.330; RWIGS  =    1.233    wigner-seitz radius (au A)                               
   ENMAX  =  255.040; ENMIN  =  191.280 eV                                                          
   ICORE  =        2    local potential                                                             
   LCOR   =        T    correct aug charges                                                         
   LPAW   =        T    paw PP                                                                      
   EAUG   =  342.924                                                                                
   DEXC   =    0.000                                                                                
   RMAX   =    1.935    core radius for proj-oper                                                   
   RAUG   =    1.300    factor for augmentation sphere                                              
   RDEP   =    1.931    radius for radial grids                                                     
   RDEPT  =    1.794    core radius for aug-charge                                                  
                                                                                                    
   Atomic configuration                                                                             
    6 entries                                                                                       
     n  l   j            E        occ.                                                              
     1  0  0.50     -2084.0982   2.0000                                                             
     2  0  0.50      -173.9859   2.0000                                                             
     2  1  1.50      -124.4865   6.0000                                                             
     3  0  0.50       -13.9692   2.0000                                                             
     3  1  0.50        -5.5067   3.0000                                                             
     3  2  1.50        -5.4423   0.0000                                                             
   Description                                                                                      
     l       E           TYP  RCUT    TYP  RCUT                                                     
     0    -13.9691527     23  1.900                                                                 
     0    -11.7794650     23  1.900                                                                 
     1     -5.5066937     23  1.900                                                                 
     1     -0.2556953     23  1.900                                                                 
     2     -5.4423304     23  1.900                                                                 
  local pseudopotential read in
  partial core-charges read in
  partial kinetic energy density read in
  atomic valenz-charges read in
  non local Contribution for L=            0  read in
    real space projection operators read in
  non local Contribution for L=            0  read in
    real space projection operators read in
  non local Contribution for L=            1  read in
    real space projection operators read in
  non local Contribution for L=            1  read in
    real space projection operators read in
    PAW grid and wavefunctions read in
 
   number of l-projection  operators is LMAX  =            4
   number of lm-projection operators is LMMAX =            8
 
 Optimization of the real space projectors (new method)

 maximal supplied QI-value         = 16.25
 optimisation between [QCUT,QGAM] = [ 10.73, 21.61] = [ 32.22,130.83] Ry 
 Optimized for a Real-space Cutoff    1.42 Angstroem

   l    n(q)    QCUT    max X(q) W(low)/X(q) W(high)/X(q)  e(spline) 
   2      8    10.726     7.143    0.22E-03    0.16E-03    0.73E-07
   2      8    10.726     5.586    0.40E-03    0.26E-03    0.10E-06
   0      9    10.726    12.382    0.25E-04    0.21E-05    0.37E-07
   0      9    10.726     6.622    0.42E-04    0.48E-05    0.77E-07
   1      9    10.726     7.935    0.27E-03    0.13E-04    0.16E-06
   1      9    10.726     2.425    0.23E-03    0.15E-04    0.14E-06
 Optimization of the real space projectors (new method)

 maximal supplied QI-value         = 24.76
 optimisation between [QCUT,QGAM] = [ 10.64, 21.54] = [ 31.73,129.89] Ry 
 Optimized for a Real-space Cutoff    1.23 Angstroem

   l    n(q)    QCUT    max X(q) W(low)/X(q) W(high)/X(q)  e(spline) 
   0      8    10.645    20.381    0.38E-03    0.60E-03    0.15E-06
   0      8    10.645    15.268    0.40E-03    0.65E-03    0.17E-06
   1      7    10.645     5.964    0.30E-03    0.63E-03    0.18E-06
   1      7    10.645     5.382    0.24E-03    0.53E-03    0.16E-06
 Optimization of the real space projectors (new method)

 maximal supplied QI-value         = 19.84
 optimisation between [QCUT,QGAM] = [ 10.71, 21.63] = [ 32.15,130.99] Ry 
 Optimized for a Real-space Cutoff    1.19 Angstroem

   l    n(q)    QCUT    max X(q) W(low)/X(q) W(high)/X(q)  e(spline) 
   0      8    10.715   160.924    0.37E-03    0.37E-04    0.63E-07
   0      8    10.715   130.086    0.37E-03    0.36E-04    0.63E-07
   1      7    10.715    74.434    0.19E-03    0.56E-03    0.65E-07
   1      7    10.715    49.120    0.19E-03    0.55E-03    0.63E-07
  PAW_PBE Ga_d 06Jul2010                :
 energy of atom  1       EATOM=-2148.8298
 kinetic energy error for atom=    0.0038 (will be added to EATOM!!)
   PAW_PBE O 08Apr2002                  :
 energy of atom  2       EATOM= -432.3788
 kinetic energy error for atom=    0.0389 (will be added to EATOM!!)
  PAW_PBE P 06Sep2000                   :
 energy of atom  3       EATOM= -176.0430
 kinetic energy error for atom=    0.0019 (will be added to EATOM!!)
 
 
 POSCAR: Ga48 O72
  positions in direct lattice
  velocities in cartesian coordinates
 exchange correlation table for  LEXCH =        8
   RHO(1)=    0.500       N(1)  =     2000
   RHO(2)=  100.500       N(2)  =     4000
 


--------------------------------------------------------------------------------------------------------


 ion  position               nearest neighbor table
   1  0.658  0.997  0.153-  85 1.93  83 1.94  79 1.96  67 1.96  65 2.08  61 2.13
   2  0.659  1.000  0.657-  84 1.94  86 1.95  80 1.96  68 2.03  66 2.07  62 2.08
   3  0.658  0.337  0.153-  87 1.93  81 1.94  79 1.96  69 1.96  63 2.08  61 2.13
   4  0.659  0.334  0.657-  82 1.94  88 1.95  80 1.96  70 2.03  64 2.07  62 2.08
   5  0.659  0.667  0.156-  89 1.94  81 1.95  83 1.95  71 2.03  63 2.06  65 2.06
   6  0.658  0.667  0.657-  82 1.94  84 1.94  90 1.95  72 2.04  64 2.07  66 2.07
   7  0.817  0.167  0.361-  61 1.88  73 1.92  75 1.92 120 2.19  67 2.38  69 2.38
   8  0.841  0.167  0.844-  91 1.95  74 1.95  76 1.95  62 2.02  68 2.07  70 2.07
   9  0.841  0.501  0.341-  92 1.95  77 1.96  75 1.98  69 2.01  63 2.05  71 2.06
  10  0.841  0.500  0.844-  93 1.94  78 1.95  76 1.96  64 2.02  72 2.08  70 2.08
  11  0.841  0.832  0.341-  94 1.95  77 1.96  73 1.98  67 2.01  65 2.05  71 2.06
  12  0.841  0.833  0.844-  95 1.94  78 1.95  74 1.96  66 2.02  72 2.08  68 2.08
  13  0.584  0.167  0.400-  55 1.83  57 1.83  80 1.84  61 1.89
  14  0.591  0.167  0.898-  79 1.84  56 1.84  58 1.84  62 1.87
  15  0.594  0.502  0.398-  82 1.84  59 1.85  57 1.85  63 1.86
  16  0.590  0.500  0.896-  81 1.83  60 1.84  58 1.84  64 1.87
  17  0.594  0.832  0.398-  84 1.84  59 1.85  55 1.85  65 1.86
  18  0.590  0.833  0.896-  83 1.83  60 1.84  56 1.84  66 1.87
  19  0.907  0.997  0.104-  74 1.84  53 1.85  67 1.85  49 1.89
  20  0.909  0.998  0.603-  54 1.84  73 1.85  50 1.86  68 1.87
  21  0.907  0.337  0.104-  76 1.84  51 1.85  69 1.85  49 1.89
  22  0.909  0.336  0.603-  52 1.84  75 1.85  50 1.86  70 1.87
  23  0.911  0.667  0.104-  78 1.85  51 1.85  53 1.85  71 1.87
  24  0.908  0.667  0.601-  77 1.84  52 1.85  54 1.85  72 1.88
  25  0.163  0.167  0.157- 114 1.94 116 1.94  49 2.00 102 2.01  96 2.09  98 2.09
  26  0.161  0.167  0.656- 115 1.96 117 1.96  50 1.97 103 2.02  97 2.07  99 2.07
  27  0.161  0.501  0.156- 118 1.95  51 1.95 116 1.96 104 2.03  98 2.03 100 2.08
  28  0.161  0.501  0.660- 117 1.94  52 1.95 119 1.95 105 2.02 101 2.06  99 2.07
  29  0.161  0.833  0.156- 118 1.95  53 1.95 114 1.96 106 2.03  96 2.03 100 2.08
  30  0.161  0.832  0.660- 115 1.94  54 1.95 119 1.95 107 2.02 101 2.06  97 2.07
  31  0.343  0.998  0.343-  55 1.92 112 1.96 108 1.96  96 1.97 106 2.08 102 2.09
  32  0.341  0.000  0.843-  56 1.94 109 1.95 113 1.95  97 2.04 107 2.06 103 2.07
  33  0.343  0.335  0.343-  57 1.92 110 1.96 108 1.96  98 1.97 104 2.08 102 2.09
  34  0.341  0.333  0.843-  58 1.94 109 1.95 111 1.95  99 2.04 105 2.06 103 2.07
  35  0.343  0.667  0.343-  59 1.93 110 1.96 112 1.96 100 2.02 104 2.06 106 2.06
  36  0.341  0.667  0.845-  60 1.93 111 1.95 113 1.95 101 2.03 105 2.06 107 2.06
  37  0.103  0.985  0.402- 115 1.84  94 1.86  96 1.89 120 2.17  41 2.91
  38  0.091  0.000  0.898- 114 1.84  95 1.84  91 1.85  97 1.87
  39  0.103  0.348  0.402- 117 1.84  92 1.86  98 1.89 120 2.17  41 2.91
  40  0.091  0.333  0.898- 116 1.84  93 1.84  91 1.85  99 1.87
  41  0.095  0.667  0.400-  92 1.82  94 1.82 119 1.85 100 1.88  39 2.91  37 2.91
  42  0.090  0.667  0.898- 118 1.84  93 1.84  95 1.84 101 1.87
  43  0.410  0.167  0.101- 109 1.84  85 1.84  87 1.84 102 1.87
  44  0.409  0.167  0.602- 108 1.84  86 1.85  88 1.85 103 1.87
  45  0.410  0.501  0.102-  89 1.84 111 1.84  87 1.84 104 1.86
  46  0.408  0.500  0.603- 110 1.84  90 1.85  88 1.85 105 1.88
  47  0.410  0.833  0.102-  89 1.84 113 1.84  85 1.84 106 1.86
  48  0.408  0.833  0.603- 112 1.84  90 1.85  86 1.85 107 1.88
  49  0.996  0.167  0.131-  19 1.89  21 1.89  25 2.00
  50  0.996  0.167  0.615-  20 1.86  22 1.86  26 1.97
  51  0.998  0.500  0.128-  23 1.85  21 1.85  27 1.95
  52  0.997  0.501  0.627-  22 1.84  24 1.85  28 1.95
  53  0.998  0.834  0.128-  23 1.85  19 1.85  29 1.95
  54  0.997  0.833  0.627-  20 1.84  24 1.85  30 1.95
  55  0.504  0.997  0.373-  13 1.83  17 1.85  31 1.92
  56  0.504  0.001  0.873-  18 1.84  14 1.84  32 1.94
  57  0.504  0.337  0.373-  13 1.83  15 1.85  33 1.92
  58  0.504  0.333  0.873-  16 1.84  14 1.84  34 1.94
  59  0.504  0.667  0.374-  15 1.85  17 1.85  35 1.93
  60  0.503  0.667  0.871-  16 1.84  18 1.84  36 1.93
  61  0.665  0.167  0.281-   7 1.88  13 1.89   1 2.13   3 2.13
  62  0.673  0.167  0.781-  14 1.87   8 2.02   2 2.08   4 2.08
  63  0.670  0.502  0.279-  15 1.86   9 2.05   5 2.06   3 2.08
  64  0.673  0.500  0.781-  16 1.87  10 2.02   4 2.07   6 2.07
  65  0.670  0.831  0.279-  17 1.86  11 2.05   5 2.06   1 2.08
  66  0.673  0.833  0.781-  18 1.87  12 2.02   2 2.07   6 2.07
  67  0.821  0.987  0.215-  19 1.85   1 1.96  11 2.01   7 2.38
  68  0.828  0.001  0.720-  20 1.87   2 2.03   8 2.07  12 2.08
  69  0.821  0.346  0.215-  21 1.85   3 1.96   9 2.01   7 2.38
  70  0.828  0.333  0.720-  22 1.87   4 2.03   8 2.07  10 2.08
  71  0.828  0.667  0.219-  23 1.87   5 2.03   9 2.06  11 2.06
  72  0.828  0.667  0.719-  24 1.88   6 2.04  10 2.08  12 2.08
  73  0.819  0.989  0.451-  20 1.85   7 1.92  11 1.98
  74  0.834  0.000  0.946-  19 1.84   8 1.95  12 1.96
  75  0.819  0.344  0.451-  22 1.85   7 1.92   9 1.98
  76  0.834  0.333  0.946-  21 1.84   8 1.95  10 1.96
  77  0.830  0.667  0.445-  24 1.84   9 1.96  11 1.96
  78  0.835  0.667  0.947-  23 1.85  10 1.95  12 1.95
  79  0.668  0.167  0.055-  14 1.84   1 1.96   3 1.96
  80  0.666  0.167  0.554-  13 1.84   2 1.96   4 1.96
  81  0.666  0.502  0.051-  16 1.83   3 1.94   5 1.95
  82  0.666  0.501  0.556-  15 1.84   6 1.94   4 1.94
  83  0.666  0.831  0.051-  18 1.83   1 1.94   5 1.95
  84  0.666  0.833  0.556-  17 1.84   6 1.94   2 1.94
  85  0.497  1.000  0.126-  43 1.84  47 1.84   1 1.93
  86  0.496  1.000  0.628-  44 1.85  48 1.85   2 1.95
  87  0.497  0.333  0.126-  43 1.84  45 1.84   3 1.93
  88  0.496  0.334  0.628-  44 1.85  46 1.85   4 1.95
  89  0.497  0.667  0.125-  45 1.84  47 1.84   5 1.94
  90  0.496  0.667  0.628-  46 1.85  48 1.85   6 1.95
  91  0.003  0.167  0.870-  38 1.85  40 1.85   8 1.95
  92  0.005  0.506  0.377-  41 1.82  39 1.86   9 1.95
  93  0.004  0.500  0.872-  42 1.84  40 1.84  10 1.94
  94  0.005  0.828  0.377-  41 1.82  37 1.86  11 1.95
  95  0.004  0.834  0.872-  42 1.84  38 1.84  12 1.94
  96  0.179  0.995  0.279-  37 1.89  31 1.97  29 2.03  25 2.09
  97  0.172  0.001  0.780-  38 1.87  32 2.04  30 2.07  26 2.07
  98  0.179  0.339  0.279-  39 1.89  33 1.97  27 2.03  25 2.09
  99  0.172  0.332  0.780-  40 1.87  34 2.04  28 2.07  26 2.07
 100  0.174  0.667  0.281-  41 1.88  35 2.02  27 2.08  29 2.08
 101  0.173  0.667  0.782-  42 1.87  36 2.03  28 2.06  30 2.06
 102  0.330  0.167  0.219-  43 1.87  25 2.01  31 2.09  33 2.09
 103  0.328  0.167  0.721-  44 1.87  26 2.02  32 2.07  34 2.07
 104  0.330  0.502  0.219-  45 1.86  27 2.03  35 2.06  33 2.08
 105  0.329  0.501  0.722-  46 1.88  28 2.02  34 2.06  36 2.06
 106  0.330  0.831  0.219-  47 1.86  29 2.03  35 2.06  31 2.08
 107  0.329  0.833  0.722-  48 1.88  30 2.02  32 2.06  36 2.06
 108  0.335  0.167  0.445-  44 1.84  31 1.96  33 1.96
 109  0.331  0.167  0.945-  43 1.84  32 1.95  34 1.95
 110  0.331  0.500  0.446-  46 1.84  33 1.96  35 1.96
 111  0.331  0.499  0.946-  45 1.84  34 1.95  36 1.95
 112  0.331  0.833  0.446-  48 1.84  31 1.96  35 1.96
 113  0.331  0.834  0.946-  47 1.84  32 1.95  36 1.95
 114  0.168  0.001  0.054-  38 1.84  25 1.94  29 1.96
 115  0.177  0.996  0.559-  37 1.84  30 1.94  26 1.96
 116  0.168  0.332  0.054-  40 1.84  25 1.94  27 1.96
 117  0.177  0.337  0.559-  39 1.84  28 1.94  26 1.96
 118  0.168  0.667  0.054-  42 1.84  27 1.95  29 1.95
 119  0.172  0.667  0.557-  41 1.85  28 1.95  30 1.95
 120  0.990  0.167  0.342-  37 2.17  39 2.17   7 2.19
 
  LATTYP: Found a simple monoclinic cell.
 ALAT       =    11.6348202465
 B/A-ratio  =     0.7858051831
 C/A-ratio  =     1.0554931797
 COS(beta)  =    -0.2379290539
  
  Lattice vectors:
  
 A1 = (   0.0000000000,  -2.7682617730, -11.3006977184)
 A2 = (  -9.1427020537,   0.0000000000,   0.0000000000)
 A3 = (   0.0000000000,  12.2804734172,   0.0000000000)


Analysis of symmetry for initial positions (statically):
=====================================================================
 Subroutine PRICEL returns:
 Original cell was already a primitive cell.
 

 Routine SETGRP: Setting up the symmetry group for a 
 simple monoclinic supercell.


 Subroutine GETGRP returns: Found  2 space group operations
 (whereof  1 operations were pure point group operations)
 out of a pool of  4 trial point group operations.


The static configuration has the point symmetry C_1 .
 The point group associated with its full space group is C_1h.


Analysis of symmetry for dynamics (positions and initial velocities):
=====================================================================
 Subroutine PRICEL returns:
 Original cell was already a primitive cell.
 

 Routine SETGRP: Setting up the symmetry group for a 
 simple monoclinic supercell.


 Subroutine GETGRP returns: Found  2 space group operations
 (whereof  1 operations were pure point group operations)
 out of a pool of  4 trial point group operations.


The dynamic configuration has the point symmetry C_1 .
 The point group associated with its full space group is C_1h.


 Subroutine INISYM returns: Found  2 space group operations
 (whereof  1 operations are pure point group operations),
 and found     1 'primitive' translations


----------------------------------------------------------------------------------------

                                     Primitive cell                                     

  volume of cell :    1268.8052

  direct lattice vectors                    reciprocal lattice vectors
     0.000000000 12.280473417  0.000000000     0.000000000  0.081430085 -0.019947423
     9.142702054  0.000000000  0.000000000     0.109376855 -0.000000000  0.000000000
     0.000000000 -2.768261773-11.300697718     0.000000000  0.000000000 -0.088490111

  length of vectors
    12.280473417  9.142702054 11.634820246     0.083837691  0.109376855  0.088490111

  position of ions in fractional coordinates (direct lattice)
     0.657806462  0.996542277  0.153463907
     0.658646179  0.999589861  0.657045707
     0.657806462  0.336791056  0.153463907
     0.658646179  0.333743472  0.657045707
     0.658926563  0.666666667  0.155604377
     0.658356400  0.666666667  0.657359268
     0.817017404  0.166666667  0.361289873
     0.840943863  0.166666667  0.843799361
     0.841197618  0.501192371  0.341040580
     0.841309927  0.500305122  0.843740806
     0.841197618  0.832140962  0.341040580
     0.841309927  0.833028212  0.843740806
     0.583665104  0.166666667  0.399576537
     0.591335287  0.166666667  0.897926216
     0.593681830  0.501617421  0.398326673
     0.589561493  0.500456481  0.895748745
     0.593681830  0.831715912  0.398326673
     0.589561493  0.832876852  0.895748745
     0.906658246  0.996688939  0.103796878
     0.908854670  0.997712440  0.603119189
     0.906658246  0.336644395  0.103796878
     0.908854670  0.335620893  0.603119189
     0.911179821  0.666666667  0.103587276
     0.908276460  0.666666667  0.600576480
     0.163110238  0.166666667  0.157201738
     0.160739889  0.166666667  0.655890883
     0.161193796  0.500546410  0.156352054
     0.160545206  0.501294918  0.659762847
     0.161193796  0.832786923  0.156352054
     0.160545206  0.832038415  0.659762847
     0.343329368  0.998233124  0.342527912
     0.341150551  0.000029351  0.843330186
     0.343329368  0.335100210  0.342527912
     0.341150551  0.333303983  0.843330186
     0.342666448  0.666666667  0.343033993
     0.341331147  0.666666667  0.844589669
     0.103309203  0.985068629  0.402059207
     0.091107597  0.000237276  0.897626437
     0.103309203  0.348264705  0.402059207
     0.091107597  0.333096057  0.897626437
     0.094926251  0.666666667  0.400118694
     0.090193575  0.666666667  0.897997187
     0.409937746  0.166666667  0.100814467
     0.408528161  0.166666667  0.602362626
     0.409901140  0.500570296  0.101639377
     0.408032420  0.500175808  0.602615974
     0.409901140  0.832763037  0.101639377
     0.408032420  0.833157526  0.602615974
     0.995996369  0.166666667  0.131089260
     0.995537285  0.166666667  0.615174151
     0.998324324  0.499628429  0.128432009
     0.997383478  0.500558319  0.627020127
     0.998324324  0.833704904  0.128432009
     0.997383478  0.832775015  0.627020127
     0.503644094  0.996544379  0.372830255
     0.503566536  0.000545999  0.872813853
     0.503644094  0.336788955  0.372830255
     0.503566536  0.332787334  0.872813853
     0.504470743  0.666666667  0.374339898
     0.502501092  0.666666667  0.870987613
     0.665188743  0.166666667  0.280531276
     0.672740316  0.166666667  0.780738713
     0.670422945  0.502485037  0.278652517
     0.673243917  0.499966498  0.780988482
     0.670422945  0.830848297  0.278652517
     0.673243917  0.833366835  0.780988482
     0.820690543  0.986982976  0.214773942
     0.827875778  0.000796266  0.720171847
     0.820690543  0.346350357  0.214773942
     0.827875778  0.332537068  0.720171847
     0.827741761  0.666666667  0.218627437
     0.828016903  0.666666667  0.719366357
     0.819435696  0.989310073  0.450808537
     0.833724771  0.000305458  0.946253917
     0.819435696  0.344023260  0.450808537
     0.833724771  0.333027876  0.946253917
     0.829836925  0.666666667  0.444717196
     0.834516280  0.666666667  0.946580949
     0.667915505  0.166666667  0.054720368
     0.666144890  0.166666667  0.554055669
     0.665951479  0.502299550  0.051212926
     0.666335740  0.500712755  0.555837213
     0.665951479  0.831033783  0.051212926
     0.666335740  0.832620578  0.555837213
     0.496529267  0.999854009  0.126059216
     0.495924152  0.999808051  0.627633939
     0.496529267  0.333479325  0.126059216
     0.495924152  0.333525282  0.627633939
     0.496632841  0.666666667  0.125079748
     0.495615970  0.666666667  0.628005560
     0.003478702  0.166666667  0.870386455
     0.004984470  0.505749694  0.377132691
     0.003825364  0.499583584  0.872449494
     0.004984470  0.827583639  0.377132691
     0.003825364  0.833749749  0.872449494
     0.179328490  0.994741297  0.278875824
     0.171739877  0.001082601  0.780021231
     0.179328490  0.338592036  0.278875824
     0.171739877  0.332250732  0.780021231
     0.174258900  0.666666667  0.280851122
     0.172615135  0.666666667  0.781855654
     0.330284569  0.166666667  0.218952797
     0.328312869  0.166666667  0.720510397
     0.329894133  0.502401496  0.218849025
     0.328864820  0.500530323  0.721961372
     0.329894133  0.830931838  0.218849025
     0.328864820  0.832803010  0.721961372
     0.335007563  0.166666667  0.444621964
     0.331377601  0.166666667  0.945269373
     0.331345719  0.500493922  0.445867485
     0.331120754  0.499347355  0.945895801
     0.331345719  0.832839412  0.445867485
     0.331120754  0.833985978  0.945895801
     0.167728041  0.000947504  0.053804127
     0.176874054  0.996157874  0.558842109
     0.167728041  0.332385829  0.053804127
     0.176874054  0.337175459  0.558842109
     0.168224947  0.666666667  0.053821283
     0.172076806  0.666666667  0.556988590
     0.990284632  0.166666667  0.342230691

  ion indices of the primitive-cell ions
   primitive index   ion index
                 1           1
                 2           2
                 3           3
                 4           4
                 5           5
                 6           6
                 7           7
                 8           8
                 9           9
                10          10
                11          11
                12          12
                13          13
                14          14
                15          15
                16          16
                17          17
                18          18
                19          19
                20          20
                21          21
                22          22
                23          23
                24          24
                25          25
                26          26
                27          27
                28          28
                29          29
                30          30
                31          31
                32          32
                33          33
                34          34
                35          35
                36          36
                37          37
                38          38
                39          39
                40          40
                41          41
                42          42
                43          43
                44          44
                45          45
                46          46
                47          47
                48          48
                49          49
                50          50
                51          51
                52          52
                53          53
                54          54
                55          55
                56          56
                57          57
                58          58
                59          59
                60          60
                61          61
                62          62
                63          63
                64          64
                65          65
                66          66
                67          67
                68          68
                69          69
                70          70
                71          71
                72          72
                73          73
                74          74
                75          75
                76          76
                77          77
                78          78
                79          79
                80          80
                81          81
                82          82
                83          83
                84          84
                85          85
                86          86
                87          87
                88          88
                89          89
                90          90
                91          91
                92          92
                93          93
                94          94
                95          95
                96          96
                97          97
                98          98
                99          99
               100         100
               101         101
               102         102
               103         103
               104         104
               105         105
               106         106
               107         107
               108         108
               109         109
               110         110
               111         111
               112         112
               113         113
               114         114
               115         115
               116         116
               117         117
               118         118
               119         119
               120         120

----------------------------------------------------------------------------------------

 
 
 KPOINTS: Automatic mesh                          

Automatic generation of k-mesh.
 Grid dimensions read from file:
 generate k-points for:    2    2    2

 Generating k-lattice:

  Cartesian coordinates                     Fractional coordinates (reciprocal lattice)
     0.000000000  0.040715043 -0.009973711     0.500000000  0.000000000  0.000000000
     0.054688428 -0.000000000  0.000000000     0.000000000  0.500000000  0.000000000
     0.000000000  0.000000000 -0.044245056     0.000000000  0.000000000  0.500000000

  Length of vectors
     0.041918846  0.054688428  0.044245056

  Shift w.r.t. Gamma in fractional coordinates (k-lattice)
     0.000000000  0.000000000  0.000000000

 
 Subroutine IBZKPT returns following result:
 ===========================================
 
 Found      8 irreducible k-points:
 
 Following reciprocal coordinates:
            Coordinates               Weight
  0.000000  0.000000  0.000000      1.000000
  0.500000  0.000000  0.000000      1.000000
  0.000000  0.500000  0.000000      1.000000
  0.500000  0.500000  0.000000      1.000000
  0.000000  0.000000  0.500000      1.000000
  0.500000  0.000000  0.500000      1.000000
  0.000000  0.500000  0.500000      1.000000
  0.500000  0.500000  0.500000      1.000000
 
 Following cartesian coordinates:
            Coordinates               Weight
  0.000000  0.000000 -0.000000      1.000000
  0.000000  0.040715 -0.009974      1.000000
  0.054688  0.000000 -0.000000      1.000000
  0.054688  0.040715 -0.009974      1.000000
  0.000000  0.000000 -0.044245      1.000000
  0.000000  0.040715 -0.054219      1.000000
  0.054688  0.000000 -0.044245      1.000000
  0.054688  0.040715 -0.054219      1.000000
 
 
 Subroutine IBZKPT_HF returns following result:
 ==============================================
 
 Found      8 k-points in 1st BZ
 the following      8 k-points will be used (e.g. in the exchange kernel)
 Following reciprocal coordinates:   # in IRBZ
  0.000000  0.000000  0.000000    0.12500000   1 t-inv F
  0.500000  0.000000  0.000000    0.12500000   2 t-inv F
  0.000000  0.500000  0.000000    0.12500000   3 t-inv F
  0.500000  0.500000  0.000000    0.12500000   4 t-inv F
  0.000000  0.000000  0.500000    0.12500000   5 t-inv F
  0.500000  0.000000  0.500000    0.12500000   6 t-inv F
  0.000000  0.500000  0.500000    0.12500000   7 t-inv F
  0.500000  0.500000  0.500000    0.12500000   8 t-inv F


--------------------------------------------------------------------------------------------------------




 Dimension of arrays:
   k-points           NKPTS =      8   k-points in BZ     NKDIM =      8   number of bands    NBANDS=    633
   number of dos      NEDOS =    301   number of ions     NIONS =    120
   non local maximal  LDIM  =      6   non local SUM 2l+1 LMDIM =     18
   total plane-waves  NPLWV = 184320
   max r-space proj   IRMAX =   1800   max aug-charges    IRDMAX=   5704
   dimension x,y,z NGX =    64 NGY =   48 NGZ =   60
   dimension x,y,z NGXF=   128 NGYF=   96 NGZF=  120
   support grid    NGXF=   128 NGYF=   96 NGZF=  120
   ions per type =              48  71   1
   NGX,Y,Z   is equivalent  to a cutoff of   8.66,  8.73,  8.57 a.u.
   NGXF,Y,Z  is equivalent  to a cutoff of  17.33, 17.46, 17.15 a.u.

 SYSTEM =  unknown system                          
 POSCAR =  Ga48 O72                                

 Startparameter for this run:
   NWRITE =      2    write-flag & timer
   PREC   = normal    normal or accurate (medium, high low for compatibility)
   ISTART =      0    job   : 0-new  1-cont  2-samecut
   ICHARG =      0    charge: 1-file 2-atom 10-const
   ISPIN  =      1    spin polarized calculation?
   LNONCOLLINEAR =      F non collinear calculations
   LSORBIT =      F    spin-orbit coupling
   INIWAV =      1    electr: 0-lowe 1-rand  2-diag
   LASPH  =      F    aspherical Exc in radial PAW
 Electronic Relaxation 1
   ENCUT  =  450.0 eV  33.07 Ry    5.75 a.u.  21.24 15.81 20.12*2*pi/ulx,y,z
   ENINI  =  450.0     initial cutoff
   ENAUG  =  605.4 eV  augmentation charge cutoff
   NELM   =    500;   NELMIN=  2; NELMDL= -5     # of ELM steps 
   EDIFF  = 0.1E-04   stopping-criterion for ELM
   LREAL  =      T    real-space projection
   NLSPLINE    = F    spline interpolate recip. space projectors
   LCOMPAT=      F    compatible to vasp.4.4
   GGA_COMPAT  = T    GGA compatible to vasp.4.4-vasp.4.6
   LMAXPAW     = -100 max onsite density
   LMAXMIX     =    2 max onsite mixed and CHGCAR
   VOSKOWN=      0    Vosko Wilk Nusair interpolation
   ROPT   =   -0.00050  -0.00050  -0.00050
 Ionic relaxation
   EDIFFG = -.5E-02   stopping-criterion for IOM
   NSW    =      0    number of steps for IOM
   NBLOCK =      1;   KBLOCK =      1    inner block; outer block 
   IBRION =     -1    ionic relax: 0-MD 1-quasi-New 2-CG
   NFREE  =      0    steps in history (QN), initial steepest desc. (CG)
   ISIF   =      2    stress and relaxation
   IWAVPR =     10    prediction:  0-non 1-charg 2-wave 3-comb
   ISYM   =      3    0-nonsym 1-usesym 2-fastsym
   LCORR  =      T    Harris-Foulkes like correction to forces

   POTIM  = 0.5000    time-step for ionic-motion
   TEIN   =    0.0    initial temperature
   TEBEG  =    0.0;   TEEND  =   0.0 temperature during run
   SMASS  =  -3.00    Nose mass-parameter (am)
   estimated Nose-frequenzy (Omega)   =  0.10E-29 period in steps = 0.13E+47 mass=  -0.345E-26a.u.
   SCALEE = 1.0000    scale energy and forces
   NPACO  =    256;   APACO  = 10.0  distance and # of slots for P.C.
   PSTRESS=    0.0 pullay stress

  Mass of Ions in am
   POMASS =  69.72 16.00 30.97
  Ionic Valenz
   ZVAL   =  13.00  6.00  5.00
  Atomic Wigner-Seitz radii
   RWIGS  =  -1.00 -1.00 -1.00
  virtual crystal weights 
   VCA    =   1.00  1.00  1.00
   NELECT =    1055.0000    total number of electrons
   NUPDOWN=      -1.0000    fix difference up-down

 DOS related values:
   EMIN   =  10.00;   EMAX   =-10.00  energy-range for DOS
   EFERMI =   0.00;   METHOD = LEGACY      
   ISMEAR =     0;   SIGMA  =   0.05  broadening in eV -4-tet -1-fermi 0-gaus

 Electronic relaxation 2 (details)
   IALGO  =     58    algorithm
   LDIAG  =      T    sub-space diagonalisation (order eigenvalues)
   LSUBROT=      F    optimize rotation matrix (better conditioning)
   TURBO    =      0    0=normal 1=particle mesh
   IRESTART =      0    0=no restart 2=restart with 2 vectors
   NREBOOT  =      0    no. of reboots
   NMIN     =      0    reboot dimension
   EREF     =   0.00    reference energy to select bands
   IMIX   =      4    mixing-type and parameters
     AMIX     =   0.40;   BMIX     =  1.00
     AMIX_MAG =   1.60;   BMIX_MAG =  1.00
     AMIN     =   0.10
     WC   =   100.;   INIMIX=   1;  MIXPRE=   1;  MAXMIX= -45

 Intra band minimization:
   WEIMIN = 0.0000     energy-eigenvalue tresh-hold
   EBREAK =  0.39E-08  absolut break condition
   DEPER  =   0.30     relativ break condition  

   TIME   =   0.40     timestep for ELM

  volume/ion in A,a.u.               =      10.57        71.35
  Fermi-wavevector in a.u.,A,eV,Ry     =   1.539433  2.909106 32.243803  2.369853
  Thomas-Fermi vector in A             =   2.645661
 
 Write flags
   LWAVE        =      T    write WAVECAR
   LDOWNSAMPLE  =      F    k-point downsampling of WAVECAR
   LCHARG       =      T    write CHGCAR
   LVTOT        =      F    write LOCPOT, total local potential
   LVHAR        =      F    write LOCPOT, Hartree potential only
   LELF         =      F    write electronic localiz. function (ELF)
   LORBIT       =      0    0 simple, 1 ext, 2 COOP (PROOUT), +10 PAW based schemes


 Dipole corrections
   LMONO  =      F    monopole corrections only (constant potential shift)
   LDIPOL =      F    correct potential (dipole corrections)
   IDIPOL =      0    1-x, 2-y, 3-z, 4-all directions 
   EPSILON=  1.0000000 bulk dielectric constant

 Exchange correlation treatment:
   GGA     =    --    GGA type
   LEXCH   =     8    internal setting for exchange type
   LIBXC   =     F    Libxc                    
   VOSKOWN =     0    Vosko Wilk Nusair interpolation
   EXXOEP  =     0    0=HF, 1=EXX-LHF (local Hartree Fock) 2=EXX OEP
   LHFCALC =     T    Hartree Fock is set to
   LSYMGRAD=     F    symmetrize gradient (conserves proper symmetry)
   PRECFOCK=fast      Normal, Fast or Accurate (Low or Medium for compatibility)
   LRHFCALC=     F    long range Hartree Fock
   LRSCOR  =     F    long range correlation only (use DFT for short range part)
   LTHOMAS =     F    Thomas Fermi screening in HF
   LMODELHF=     F    short range full HF, long range fraction AEXX
   FOCKCORR=     1    mode to apply convergence corrections
   LFOCKACE=     T    use Adeptively-Compressed-Exchange operator
   ENCUT4O =  -1.0   cutoff for four orbital integrals eV
   LMAXFOCK=     4    L truncation for augmentation on plane wave grid
   LMAXFOCKAE=  -1    L truncation for all-electron charge restoration on plane wave grid
   NMAXFOCKAE=   1    number of basis functions for all-electron charge restoration
   LFOCKAEDFT=     F  apply the AE augmentation even for DFT
   NKREDX  =     1    reduce k-point grid by
   NKREDY  =     1    reduce k-point grid by
   NKREDZ  =     1    reduce k-point grid by
   SHIFTRED=     F    shift reduced grid of Gamma
   HFKIDENT=     F    idential grid for each k-point
   ODDONLY =     F    use only odd q-grid points
   EVENONLY=     F    use only even q-grid points
   HFALPHA =   -1.0000 decay constant for conv. correction
   MCALPHA =    0.0000 extent of test-charge in conv. correction in multipole expansion
   AEXX    =    0.3200 exact exchange contribution
   HFSCREEN=    0.2000 screening length (either q_TF or 0.3 A-1)
   HFSCREENC=   0.2000 screening length for correlation (either q_TF or 0.3 A-1)
   HFRCUT  =    0.0000 spherical cutoff for potential kernel
   ALDAX   =    0.6800 LDA exchange part
   AGGAX   =    0.6800 GGA exchange part
   ALDAC   =    1.0000 LDA correlation
   AGGAC   =    1.0000 GGA correlation
   ENCUTFOCK=  -1.0 apply spherical cutoff to Coloumb kernel
   NBANDSGWLOW=     1    first orbital included in HF term
   NBLOCK_FOCK=    64    blocking factor in FOCK_ACC

 Linear response parameters
   LEPSILON=     F    determine dielectric tensor
   LRPA    =     F    only Hartree local field effects (RPA)
   LNABLA  =     F    use nabla operator in PAW spheres
   LVEL    =     F    velocity operator in full k-point grid
   CSHIFT  =0.1000    complex shift for real part using Kramers Kronig
   OMEGAMAX=  -1.0    maximum frequency
   DEG_THRESHOLD= 0.2000000E-02 threshold for treating states as degnerate
   RTIME   =   -0.100 relaxation time in fs
  (WPLASMAI=    0.000 imaginary part of plasma frequency in eV, 0.658/RTIME)
   DFIELD  = 0.0000000 0.0000000 0.0000000 field for delta impulse in time
 
  Optional k-point grid parameters
   LKPOINTS_OPT  =     F    use optional k-point grid
   KPOINTS_OPT_MODE=     1    mode for optional k-point grid
 
 Orbital magnetization related:
   ORBITALMAG=     F  switch on orbital magnetization
   LCHIMAG   =     F  perturbation theory with respect to B field
   DQ        =  0.001000  dq finite difference perturbation B field
   LLRAUG    =     F  two centre corrections for induced B field
   LBONE     =     F  B-component reconstruction in AE one-centre
   LVGVCALC  =     T  calculate vGv susceptibility
   LVGVAPPL  =     F  apply vGv susceptibility instead of pGv for G=0

 Random number generation:
   RANDOM_GENERATOR = DEFAULT
   PCG_SEED         = not used


--------------------------------------------------------------------------------------------------------


 Static calculation
 charge density and potential will be updated during run
 non-spin polarized calculation
 Conjugate gradient for all bands (Freysoldt, et al. PRB 79, 241103 (2009))
 preconditioned conjugated gradient                                        
 perform sub-space diagonalisation
    before iterative eigenvector-optimisation
 modified Broyden-mixing scheme, WC =      100.0
 initial mixing is a Kerker type mixing with AMIX =  0.4000 and BMIX =      1.0000
 Hartree-type preconditioning will be used
 using additional bands           105
 real space projection scheme for non local part
 use partial core corrections
 no Harris-corrections to forces 
 use gradient corrections 
 use of overlap-Matrix (Vanderbilt PP)
 Gauss-broadening in eV      SIGMA  =   0.05


--------------------------------------------------------------------------------------------------------


  energy-cutoff  :      450.00
  volume of cell :     1268.81
      direct lattice vectors                 reciprocal lattice vectors
     0.000000000 12.280473417  0.000000000     0.000000000  0.081430085 -0.019947423
     9.142702054  0.000000000  0.000000000     0.109376855 -0.000000000  0.000000000
     0.000000000 -2.768261773-11.300697718     0.000000000  0.000000000 -0.088490111

  length of vectors
    12.280473417  9.142702054 11.634820246     0.083837691  0.109376855  0.088490111


 
 k-points in units of 2pi/SCALE and weight: Automatic mesh                          
   0.00000000  0.00000000 -0.00000000       0.125
   0.00000000  0.04071504 -0.00997371       0.125
   0.05468843  0.00000000 -0.00000000       0.125
   0.05468843  0.04071504 -0.00997371       0.125
   0.00000000  0.00000000 -0.04424506       0.125
   0.00000000  0.04071504 -0.05421877       0.125
   0.05468843  0.00000000 -0.04424506       0.125
   0.05468843  0.04071504 -0.05421877       0.125
 
 k-points in reciprocal lattice and weights: Automatic mesh                          
   0.00000000  0.00000000  0.00000000       0.125
   0.50000000  0.00000000  0.00000000       0.125
   0.00000000  0.50000000  0.00000000       0.125
   0.50000000  0.50000000  0.00000000       0.125
   0.00000000  0.00000000  0.50000000       0.125
   0.50000000  0.00000000  0.50000000       0.125
   0.00000000  0.50000000  0.50000000       0.125
   0.50000000  0.50000000  0.50000000       0.125
 
 position of ions in fractional coordinates (direct lattice) 
   0.65780646  0.99654228  0.15346391
   0.65864618  0.99958986  0.65704571
   0.65780646  0.33679106  0.15346391
   0.65864618  0.33374347  0.65704571
   0.65892656  0.66666667  0.15560438
   0.65835640  0.66666667  0.65735927
   0.81701740  0.16666667  0.36128987
   0.84094386  0.16666667  0.84379936
   0.84119762  0.50119237  0.34104058
   0.84130993  0.50030512  0.84374081
   0.84119762  0.83214096  0.34104058
   0.84130993  0.83302821  0.84374081
   0.58366510  0.16666667  0.39957654
   0.59133529  0.16666667  0.89792622
   0.59368183  0.50161742  0.39832667
   0.58956149  0.50045648  0.89574874
   0.59368183  0.83171591  0.39832667
   0.58956149  0.83287685  0.89574874
   0.90665825  0.99668894  0.10379688
   0.90885467  0.99771244  0.60311919
   0.90665825  0.33664439  0.10379688
   0.90885467  0.33562089  0.60311919
   0.91117982  0.66666667  0.10358728
   0.90827646  0.66666667  0.60057648
   0.16311024  0.16666667  0.15720174
   0.16073989  0.16666667  0.65589088
   0.16119380  0.50054641  0.15635205
   0.16054521  0.50129492  0.65976285
   0.16119380  0.83278692  0.15635205
   0.16054521  0.83203842  0.65976285
   0.34332937  0.99823312  0.34252791
   0.34115055  0.00002935  0.84333019
   0.34332937  0.33510021  0.34252791
   0.34115055  0.33330398  0.84333019
   0.34266645  0.66666667  0.34303399
   0.34133115  0.66666667  0.84458967
   0.10330920  0.98506863  0.40205921
   0.09110760  0.00023728  0.89762644
   0.10330920  0.34826470  0.40205921
   0.09110760  0.33309606  0.89762644
   0.09492625  0.66666667  0.40011869
   0.09019358  0.66666667  0.89799719
   0.40993775  0.16666667  0.10081447
   0.40852816  0.16666667  0.60236263
   0.40990114  0.50057030  0.10163938
   0.40803242  0.50017581  0.60261597
   0.40990114  0.83276304  0.10163938
   0.40803242  0.83315753  0.60261597
   0.99599637  0.16666667  0.13108926
   0.99553729  0.16666667  0.61517415
   0.99832432  0.49962843  0.12843201
   0.99738348  0.50055832  0.62702013
   0.99832432  0.83370490  0.12843201
   0.99738348  0.83277501  0.62702013
   0.50364409  0.99654438  0.37283025
   0.50356654  0.00054600  0.87281385
   0.50364409  0.33678895  0.37283025
   0.50356654  0.33278733  0.87281385
   0.50447074  0.66666667  0.37433990
   0.50250109  0.66666667  0.87098761
   0.66518874  0.16666667  0.28053128
   0.67274032  0.16666667  0.78073871
   0.67042295  0.50248504  0.27865252
   0.67324392  0.49996650  0.78098848
   0.67042295  0.83084830  0.27865252
   0.67324392  0.83336684  0.78098848
   0.82069054  0.98698298  0.21477394
   0.82787578  0.00079627  0.72017185
   0.82069054  0.34635036  0.21477394
   0.82787578  0.33253707  0.72017185
   0.82774176  0.66666667  0.21862744
   0.82801690  0.66666667  0.71936636
   0.81943570  0.98931007  0.45080854
   0.83372477  0.00030546  0.94625392
   0.81943570  0.34402326  0.45080854
   0.83372477  0.33302788  0.94625392
   0.82983692  0.66666667  0.44471720
   0.83451628  0.66666667  0.94658095
   0.66791551  0.16666667  0.05472037
   0.66614489  0.16666667  0.55405567
   0.66595148  0.50229955  0.05121293
   0.66633574  0.50071276  0.55583721
   0.66595148  0.83103378  0.05121293
   0.66633574  0.83262058  0.55583721
   0.49652927  0.99985401  0.12605922
   0.49592415  0.99980805  0.62763394
   0.49652927  0.33347932  0.12605922
   0.49592415  0.33352528  0.62763394
   0.49663284  0.66666667  0.12507975
   0.49561597  0.66666667  0.62800556
   0.00347870  0.16666667  0.87038646
   0.00498447  0.50574969  0.37713269
   0.00382536  0.49958358  0.87244949
   0.00498447  0.82758364  0.37713269
   0.00382536  0.83374975  0.87244949
   0.17932849  0.99474130  0.27887582
   0.17173988  0.00108260  0.78002123
   0.17932849  0.33859204  0.27887582
   0.17173988  0.33225073  0.78002123
   0.17425890  0.66666667  0.28085112
   0.17261514  0.66666667  0.78185565
   0.33028457  0.16666667  0.21895280
   0.32831287  0.16666667  0.72051040
   0.32989413  0.50240150  0.21884902
   0.32886482  0.50053032  0.72196137
   0.32989413  0.83093184  0.21884902
   0.32886482  0.83280301  0.72196137
   0.33500756  0.16666667  0.44462196
   0.33137760  0.16666667  0.94526937
   0.33134572  0.50049392  0.44586749
   0.33112075  0.49934736  0.94589580
   0.33134572  0.83283941  0.44586749
   0.33112075  0.83398598  0.94589580
   0.16772804  0.00094750  0.05380413
   0.17687405  0.99615787  0.55884211
   0.16772804  0.33238583  0.05380413
   0.17687405  0.33717546  0.55884211
   0.16822495  0.66666667  0.05382128
   0.17207681  0.66666667  0.55698859
   0.99028463  0.16666667  0.34223069
 
 position of ions in cartesian coordinates  (Angst):
   9.11108913  7.65334650 -1.73424922
   9.13895228  6.26961238 -7.42507492
   3.07918028  7.65334650 -1.73424922
   3.05131713  6.26961238 -7.42507492
   6.09513470  7.66117649 -1.75843803
   6.09513470  6.26518573 -7.42861838
   1.52378368  9.03321556 -4.08282765
   1.52378368  7.99133124 -9.53552151
   4.58225252  9.38621539 -3.85399650
   4.57414066  7.99598877 -9.53485980
   7.60801688  9.38621539 -3.85399650
   7.61612874  7.99598877 -9.53485980
   1.52378368  6.06155135 -4.51549366
   1.52378368  4.77618245-10.14719275
   4.58613863  6.18802143 -4.50136932
   4.57552450  4.76042723-10.12258580
   7.60413078  6.18802143 -4.50136932
   7.61474491  4.76042723-10.12258580
   9.11243001 10.84685555 -1.17297714
   9.12178758  9.49157382 -6.81566764
   3.07783940 10.84685555 -1.17297714
   3.06848183  9.49157382 -6.81566764
   6.09513470 10.90296287 -1.17060849
   6.09513470  9.49151201 -6.78693325
   1.52378368  1.56789538 -1.77648932
   1.52378368  0.15828428 -7.41202460
   4.57634669  1.54671271 -1.76688730
   4.58319008  0.14517487 -7.45578050
   7.61392272  1.54671271 -1.76688730
   7.60707933  0.14517487 -7.45578050
   9.12654803  3.26804025 -3.87080439
   0.00026834  1.85493155 -9.53021951
   3.06372137  3.26804025 -3.87080439
   3.04729901  1.85493155 -9.53021951
   6.09513470  3.25849831 -3.87652346
   6.09513470  1.85366278 -9.54445254
   9.00618897  0.15568079 -4.54354957
   0.00216934 -1.36602053-10.14380503
   3.18408043  0.15568079 -4.54354957
   3.04539801 -1.36602053-10.14380503
   6.09513470  0.05810602 -4.52162042
   6.09513470 -1.37827148-10.14799477
   1.52378368  4.75514876 -1.13927382
   1.52378368  3.34942179 -6.80711795
   4.57656507  4.75241566 -1.14859588
   4.57295839  3.34263252 -6.80998097
   7.61370433  4.75241566 -1.14859588
   7.61731102  3.34263252 -6.80998097
   1.52378368 11.86841755 -1.48140010
   1.52378368 10.52270608 -6.95189712
   4.56795386 11.90436190 -1.45137131
   4.57645557 10.51258544 -7.08576492
   7.62231554 11.90436190 -1.45137131
   7.61381384 10.51258544 -7.08576492
   9.11110834  5.15289616 -4.21324201
   0.00499191  3.76785824 -9.86340552
   3.07916107  5.15289616 -4.21324201
   3.04257544  3.76785824 -9.86340552
   6.09513470  5.15886872 -4.23030203
   6.09513470  3.75982959 -9.84276773
   1.52378368  7.39224866 -3.17019915
   1.52378368  6.10028043 -8.82289219
   4.59407098  7.46172805 -3.14896787
   4.57104473  6.10577346 -8.82571475
   7.59619843  7.46172805 -3.14896787
   7.61922468  6.10577346 -8.82571475
   9.02369128  9.48391791 -2.42709540
   0.00728002  8.17308229 -8.13844435
   3.16657812  9.48391791 -2.42709540
   3.04028733  8.17308229 -8.13844435
   6.09513470  9.55984272 -2.47064258
   6.09513470  8.17704518 -8.12934174
   9.04496724  8.81510224 -5.09445101
   0.00279271  7.61905635-10.69332948
   3.14530217  8.81510224 -5.09445101
   3.04477464  7.61905635-10.69332948
   6.09513470  8.95969669 -5.02561460
   6.09513470  7.62787114-10.69702517
   1.52378368  8.05083831 -0.61837834
   1.52378368  6.64680349 -6.26121563
   4.59237513  8.03642865 -0.57874180
   4.57786754  6.64421543 -6.28134833
   7.59789428  8.03642865 -0.57874180
   7.61240187  6.64421543 -6.28134833
   9.14136730  5.74864955 -1.42455710
   9.14094712  4.35272833 -7.09270143
   3.04890211  5.74864955 -1.42455710
   3.04932228  4.35272833 -7.09270143
   6.09513470  5.75263292 -1.41348842
   6.09513470  4.34791496 -7.09690100
   1.52378368 -2.36673744 -9.83597423
   4.62391877 -0.98279035 -4.26186254
   4.56754386 -2.36819130 -9.85928801
   7.56635064 -0.98279035 -4.26186254
   7.62272554 -2.36819130 -9.85928801
   9.09462330  1.43023747 -3.15149139
   0.00989790 -0.05025596 -8.81478414
   3.09564611  1.43023747 -3.15149139
   3.03766945 -0.05025596 -8.81478414
   6.09513470  1.36251236 -3.17381363
   6.09513470 -0.04458554 -8.83551440
   1.52378368  3.44993221 -2.47431937
   1.52378368  2.03727606 -8.14227020
   4.59330719  3.44542474 -2.47314667
   4.57619961  2.04003761 -8.15866723
   7.59696222  3.44542474 -2.47314667
   7.61406979  2.04003761 -8.15866723
   1.52378368  2.88322149 -5.02453841
   1.52378368  1.45272075-10.68220345
   4.57586681  2.83480438 -5.03861367
   4.56538409  1.44783243-10.68928252
   7.61440260  2.83480438 -5.03861367
   7.62488531  1.44783243-10.68928252
   0.00866275  1.91083584 -0.60802417
   9.10757464  0.62507587 -6.31530575
   3.03890460  1.91083584 -0.60802417
   3.08269476  0.62507587 -6.31530575
   6.09513470  1.91689059 -0.60821805
   6.09513470  0.57129442 -6.29435969
   1.52378368 11.21377995 -3.86744559
 


--------------------------------------------------------------------------------------------------------


 k-point   1 :   0.0000 0.0000 0.0000  plane waves:   27533
 k-point   2 :   0.5000 0.0000 0.0000  plane waves:   27522
 k-point   3 :   0.0000 0.5000 0.0000  plane waves:   27488
 k-point   4 :   0.5000 0.5000 0.0000  plane waves:   27488
 k-point   5 :   0.0000 0.0000 0.5000  plane waves:   27482
 k-point   6 :   0.5000 0.0000 0.5000  plane waves:   27476
 k-point   7 :   0.0000 0.5000 0.5000  plane waves:   27468
 k-point   8 :   0.5000 0.5000 0.5000  plane waves:   27564

 maximum and minimum number of plane-waves per node :     27564    27468

 maximum number of plane-waves:     27564
 maximum index in each direction: 
   IXMAX=   21   IYMAX=   15   IZMAX=   20
   IXMIN=  -21   IYMIN=  -16   IZMIN=  -20


 serial   3D FFT for wavefunctions
 parallel 3D FFT for charge:
    minimum data exchange during FFTs selected (reduces bandwidth)


 FFT grid for exact exchange (Hartree Fock) 
  NGX = 48; NGY = 36; NGZ = 48

 
 Radii for the augmentation spheres in the non-local exchange
 for species   1 augmentation radius   1.392 (default was   1.031)
       energy cutoff for augmentation   1800.0
 for species   2 augmentation radius   0.974 (default was   0.722)
       energy cutoff for augmentation   1800.0
 for species   3 augmentation radius   1.294 (default was   0.959)
       energy cutoff for augmentation   1800.0
 Maximum index for augmentation-charges in exchange           748
  SETUP_FOCK is finished

 total amount of memory used by VASP MPI-rank0  7269075. kBytes
=======================================================================

   base      :      30000. kBytes
   nonlr-proj:      32970. kBytes
   fftplans  :      51012. kBytes
   grid      :     102973. kBytes
   one-center:       1866. kBytes
   HF        :        194. kBytes
   wavefun   :    7050060. kBytes
 
     INWAV:  cpu time      0.0001: real time      0.0001
 Broyden mixing: mesh for mixing (old mesh)
   NGX = 43   NGY = 31   NGZ = 41
  (NGX  =128   NGY  = 96   NGZ  =120)
  gives a total of  54653 points

 charge density for first step will be calculated from the start-wavefunctions


--------------------------------------------------------------------------------------------------------


 Maximum index for non-local projection operator          1715
 Maximum index for augmentation-charges          5360 (set IRDMAX)


--------------------------------------------------------------------------------------------------------


 initial charge from wavefunction
 First call to EWALD:  gamma=   0.164
 Maximum number of real-space cells 3x 3x 3
 Maximum number of reciprocal cells 3x 2x 3

    FEWALD:  cpu time      0.0732: real time      0.0733


--------------------------------------- Ionic step        1  -------------------------------------------




--------------------------------------- Iteration      1(   1)  ---------------------------------------


    POTLOK:  cpu time      0.0320: real time      0.0320
    SETDIJ:  cpu time      0.1225: real time      0.1225
    TRIAL :  cpu time      2.8445: real time      2.8482
    CORREC:  cpu time      0.0015: real time      0.0015
    --------------------------------------------
      LOOP:  cpu time      3.9203: real time      3.9237

 eigenvalue-minimisations  : 10616
 total energy-change (2. order) :-0.1873685E+05  (-0.5434794E+05)
 number of electron    1054.9999567 magnetization 
 augmentation part      121.7748080 magnetization 

 Free energy of the ion-electron system (eV)
  ---------------------------------------------------
  alpha Z        PSCENC =      5529.70323211
  Ewald energy   TEWEN  =    -88666.59958538
  -Hartree energ DENC   =     -2115.67934224
  -exchange      EXHF   =         0.00000000
  -V(xc)+E(xc)   XCENC  =      2791.99929965
  PAW double counting   =    343588.08822887  -372923.37852842
  entropy T*S    EENTRO =        -0.01625934
  eigenvalues    EBANDS =    -40587.89753642
  atomic energy  EATOM  =    133646.93285989
  ---------------------------------------------------
  free energy    TOTEN  =    -18736.84763129 eV

  energy without entropy =   -18736.83137195  energy(sigma->0) =   -18736.83950162
  exchange ACFDT corr.  =         0.00000000  see jH, gK, PRB 81, 115126


--------------------------------------------------------------------------------------------------------




--------------------------------------- Iteration      1(   2)  ---------------------------------------


    TRIAL :  cpu time      3.0948: real time      3.0944
    CORREC:  cpu time      0.0016: real time      0.0015
    --------------------------------------------
      LOOP:  cpu time      3.0966: real time      3.0970

 eigenvalue-minimisations  : 13288
 total energy-change (2. order) :-0.4438120E+05  (-0.4294602E+05)
 number of electron    1054.9999567 magnetization 
 augmentation part      121.7748080 magnetization 

 Free energy of the ion-electron system (eV)
  ---------------------------------------------------
  alpha Z        PSCENC =      5529.70323211
  Ewald energy   TEWEN  =    -88666.59958538
  -Hartree energ DENC   =     -2115.67934224
  -exchange      EXHF   =         0.00000000
  -V(xc)+E(xc)   XCENC  =      2791.99929965
  PAW double counting   =    343588.08822887  -372923.37852842
  entropy T*S    EENTRO =        -0.01690376
  eigenvalues    EBANDS =    -84969.09576768
  atomic energy  EATOM  =    133646.93285989
  ---------------------------------------------------
  free energy    TOTEN  =    -63118.04650696 eV

  energy without entropy =   -63118.02960320  energy(sigma->0) =   -63118.03805508
  exchange ACFDT corr.  =         0.00000000  see jH, gK, PRB 81, 115126


--------------------------------------------------------------------------------------------------------




--------------------------------------- Iteration      1(   3)  ---------------------------------------


    TRIAL :  cpu time      3.2809: real time      3.2804
    CORREC:  cpu time      0.0017: real time      0.0017
    --------------------------------------------
      LOOP:  cpu time      3.2827: real time      3.2826

 eigenvalue-minimisations  : 14444
 total energy-change (2. order) :-0.4888858E+04  (-0.4376186E+04)
 number of electron    1054.9999567 magnetization 
 augmentation part      121.7748080 magnetization 

 Free energy of the ion-electron system (eV)
  ---------------------------------------------------
  alpha Z        PSCENC =      5529.70323211
  Ewald energy   TEWEN  =    -88666.59958538
  -Hartree energ DENC   =     -2115.67934224
  -exchange      EXHF   =         0.00000000
  -V(xc)+E(xc)   XCENC  =      2791.99929965
  PAW double counting   =    343588.08822887  -372923.37852842
  entropy T*S    EENTRO =        -0.03405473
  eigenvalues    EBANDS =    -89857.93640204
  atomic energy  EATOM  =    133646.93285989
  ---------------------------------------------------
  free energy    TOTEN  =    -68006.90429230 eV

  energy without entropy =   -68006.87023756  energy(sigma->0) =   -68006.88726493
  exchange ACFDT corr.  =         0.00000000  see jH, gK, PRB 81, 115126


--------------------------------------------------------------------------------------------------------




--------------------------------------- Iteration      1(   4)  ---------------------------------------


    TRIAL :  cpu time      3.6713: real time      3.6708
    CORREC:  cpu time      0.0016: real time      0.0016
    --------------------------------------------
      LOOP:  cpu time      3.6731: real time      3.6731

 eigenvalue-minimisations  : 17352
 total energy-change (2. order) :-0.6564442E+03  (-0.5765720E+03)
 number of electron    1054.9999567 magnetization 
 augmentation part      121.7748080 magnetization 

 Free energy of the ion-electron system (eV)
  ---------------------------------------------------
  alpha Z        PSCENC =      5529.70323211
  Ewald energy   TEWEN  =    -88666.59958538
  -Hartree energ DENC   =     -2115.67934224
  -exchange      EXHF   =         0.00000000
  -V(xc)+E(xc)   XCENC  =      2791.99929965
  PAW double counting   =    343588.08822887  -372923.37852842
  entropy T*S    EENTRO =        -0.03213676
  eigenvalues    EBANDS =    -90514.38247010
  atomic energy  EATOM  =    133646.93285989
  ---------------------------------------------------
  free energy    TOTEN  =    -68663.34844238 eV

  energy without entropy =   -68663.31630562  energy(sigma->0) =   -68663.33237400
  exchange ACFDT corr.  =         0.00000000  see jH, gK, PRB 81, 115126


--------------------------------------------------------------------------------------------------------




--------------------------------------- Iteration      1(   5)  ---------------------------------------


    POTLOK:  cpu time      1.3710: real time      1.3709
    SETDIJ:  cpu time      0.4671: real time      0.4670
    TRIAL :  cpu time    234.5548: real time    234.5514
    CORREC:  cpu time      0.0016: real time      0.0016
    CHARGE:  cpu time      0.2072: real time      0.2072
    --------------------------------------------
      LOOP:  cpu time    236.6019: real time    236.5987

 eigenvalue-minimisations  : 19336
 total energy-change (2. order) : 0.3017132E+05  (-0.9154350E+02)
 number of electron    1054.9998612 magnetization 
 augmentation part      482.6254451 magnetization 

 Free energy of the ion-electron system (eV)
  ---------------------------------------------------
  alpha Z        PSCENC =      5529.70323211
  Ewald energy   TEWEN  =    -88666.59958538
  -Hartree energ DENC   =     -2115.67934224
  -exchange      EXHF   =      4740.93011581
  -V(xc)+E(xc)   XCENC  =      1929.52213008
  PAW double counting   =    344828.18180315  -346897.74397427
  entropy T*S    EENTRO =        -0.01973467
  eigenvalues    EBANDS =    -91487.25469052
  atomic energy  EATOM  =    133646.93285989
  ---------------------------------------------------
  free energy    TOTEN  =    -38492.02718604 eV

  energy without entropy =   -38492.00745137  energy(sigma->0) =   -38492.01731870
  exchange ACFDT corr.  =        -0.12536009  see jH, gK, PRB 81, 115126


--------------------------------------------------------------------------------------------------------




--------------------------------------- Iteration      1(   6)  ---------------------------------------


    POTLOK:  cpu time      1.4002: real time      1.3999
    SETDIJ:  cpu time      0.4679: real time      0.4678
    TRIAL :  cpu time    233.2141: real time    233.2125
    CORREC:  cpu time    235.7121: real time    235.6863
    CHARGE:  cpu time      0.2053: real time      0.2053
    --------------------------------------------
      LOOP:  cpu time    470.9998: real time    470.9725

 eigenvalue-minimisations  :     0
 total energy-change (2. order) : 0.6737516E+05  (-0.2731969E+05)
 number of electron    1054.9998792 magnetization 
 augmentation part      487.3148769 magnetization 

 Free energy of the ion-electron system (eV)
  ---------------------------------------------------
  alpha Z        PSCENC =      5529.70323211
  Ewald energy   TEWEN  =    -88666.59958538
  -Hartree energ DENC   =    -76423.82636836
  -exchange      EXHF   =      4835.18718975
  -V(xc)+E(xc)   XCENC  =      3749.56338046
  PAW double counting   =    150283.12223420  -175441.93862020
  entropy T*S    EENTRO =        -0.03286100
  eigenvalues    EBANDS =     71371.00899235
  atomic energy  EATOM  =    133646.93285989
  ---------------------------------------------------
  free energy    TOTEN  =     28883.13358015 eV

  energy without entropy =    28883.16644116  energy(sigma->0) =    28883.15001065
  exchange ACFDT corr.  =        -0.16727521  see jH, gK, PRB 81, 115126


--------------------------------------------------------------------------------------------------------




--------------------------------------- Iteration      1(   7)  ---------------------------------------


    POTLOK:  cpu time      1.4378: real time      1.4376
    SETDIJ:  cpu time      0.4921: real time      0.4920
    TRIAL :  cpu time    234.4812: real time    234.4671
    CORREC:  cpu time    235.3117: real time    235.3079
    CHARGE:  cpu time      0.2066: real time      0.2066
    --------------------------------------------
      LOOP:  cpu time    471.9306: real time    471.9182

 eigenvalue-minimisations  :     0
 total energy-change (2. order) :-0.2276310E+05  (-0.5767712E+04)
 number of electron    1054.9998718 magnetization 
 augmentation part      460.0680360 magnetization 

 Free energy of the ion-electron system (eV)
  ---------------------------------------------------
  alpha Z        PSCENC =      5529.70323211
  Ewald energy   TEWEN  =    -88666.59958538
  -Hartree energ DENC   =    -46655.57259541
  -exchange      EXHF   =      4183.88242554
  -V(xc)+E(xc)   XCENC  =      3225.67272878
  PAW double counting   =    129735.43884434  -149854.37733092
  entropy T*S    EENTRO =        -0.03590760
  eigenvalues    EBANDS =     14974.98917164
  atomic energy  EATOM  =    133646.93285989
  ---------------------------------------------------
  free energy    TOTEN  =      6120.03688960 eV

  energy without entropy =     6120.07279720  energy(sigma->0) =     6120.05484340
  exchange ACFDT corr.  =      -211.68501773  see jH, gK, PRB 81, 115126


--------------------------------------------------------------------------------------------------------




--------------------------------------- Iteration      1(   8)  ---------------------------------------


    POTLOK:  cpu time      1.4391: real time      1.4389
    SETDIJ:  cpu time      0.4666: real time      0.4665
    TRIAL :  cpu time    234.5514: real time    234.5437
    CORREC:  cpu time    236.4931: real time    236.4903
    CHARGE:  cpu time      0.2081: real time      0.2081
    --------------------------------------------
      LOOP:  cpu time    473.1585: real time    473.1482

 eigenvalue-minimisations  :     0
 total energy-change (2. order) :-0.4438797E+04  (-0.1116677E+04)
 number of electron    1054.9998813 magnetization 
 augmentation part      449.9751574 magnetization 

 Free energy of the ion-electron system (eV)
  ---------------------------------------------------
  alpha Z        PSCENC =      5529.70323211
  Ewald energy   TEWEN  =    -88666.59958538
  -Hartree energ DENC   =    -36232.36876952
  -exchange      EXHF   =      3821.60707230
  -V(xc)+E(xc)   XCENC  =      2938.92519383
  PAW double counting   =    126171.64276808  -143014.06698469
  entropy T*S    EENTRO =        -0.02570610
  eigenvalues    EBANDS =     -2514.49994037
  atomic energy  EATOM  =    133646.93285989
  ---------------------------------------------------
  free energy    TOTEN  =      1681.23993866 eV

  energy without entropy =     1681.26564475  energy(sigma->0) =     1681.25279171
  exchange ACFDT corr.  =       -80.13355008  see jH, gK, PRB 81, 115126


--------------------------------------------------------------------------------------------------------




--------------------------------------- Iteration      1(   9)  ---------------------------------------


    POTLOK:  cpu time      1.4978: real time      1.4976
    SETDIJ:  cpu time      0.4654: real time      0.4654
    TRIAL :  cpu time    234.1004: real time    234.1047
    CORREC:  cpu time    235.5466: real time    235.5446
    CHARGE:  cpu time      0.2065: real time      0.2065
    --------------------------------------------
      LOOP:  cpu time    471.8170: real time    471.8193

 eigenvalue-minimisations  :     0
 total energy-change (2. order) :-0.7617881E+03  (-0.8190828E+03)
 number of electron    1054.9998849 magnetization 
 augmentation part      444.5286709 magnetization 

 Free energy of the ion-electron system (eV)
  ---------------------------------------------------
  alpha Z        PSCENC =      5529.70323211
  Ewald energy   TEWEN  =    -88666.59958538
  -Hartree energ DENC   =    -34261.17822923
  -exchange      EXHF   =      3743.53431248
  -V(xc)+E(xc)   XCENC  =      2873.92392415
  PAW double counting   =    125226.87787614  -141037.94441880
  entropy T*S    EENTRO =        -0.00732234
  eigenvalues    EBANDS =     -6135.77240527
  atomic energy  EATOM  =    133646.93285989
  ---------------------------------------------------
  free energy    TOTEN  =       919.45185998 eV

  energy without entropy =      919.45918232  energy(sigma->0) =      919.45552115
  exchange ACFDT corr.  =       -80.10711879  see jH, gK, PRB 81, 115126


--------------------------------------------------------------------------------------------------------




--------------------------------------- Iteration      1(  10)  ---------------------------------------


    POTLOK:  cpu time      1.4751: real time      1.4749
    SETDIJ:  cpu time      0.4673: real time      0.4672
    TRIAL :  cpu time    234.2311: real time    234.2162
    CORREC:  cpu time    235.6783: real time    235.6803
    CHARGE:  cpu time      0.2052: real time      0.2052
    --------------------------------------------
      LOOP:  cpu time    472.0584: real time    472.0457

 eigenvalue-minimisations  :     0
 total energy-change (2. order) :-0.6957057E+03  (-0.3866528E+03)
 number of electron    1054.9998806 magnetization 
 augmentation part      447.0274566 magnetization 

 Free energy of the ion-electron system (eV)
  ---------------------------------------------------
  alpha Z        PSCENC =      5529.70323211
  Ewald energy   TEWEN  =    -88666.59958538
  -Hartree energ DENC   =    -33086.48146173
  -exchange      EXHF   =      3720.48273341
  -V(xc)+E(xc)   XCENC  =      2846.51310639
  PAW double counting   =    129692.57864921  -144871.77320358
  entropy T*S    EENTRO =        -0.02768442
  eigenvalues    EBANDS =     -8587.60281280
  atomic energy  EATOM  =    133646.93285989
  ---------------------------------------------------
  free energy    TOTEN  =       223.74619519 eV

  energy without entropy =      223.77387961  energy(sigma->0) =      223.76003740
  exchange ACFDT corr.  =       -33.16842098  see jH, gK, PRB 81, 115126


--------------------------------------------------------------------------------------------------------




--------------------------------------- Iteration      1(  11)  ---------------------------------------


    POTLOK:  cpu time      1.4797: real time      1.4795
    SETDIJ:  cpu time      0.4670: real time      0.4670
[...]
   0.136E+02 0.552E+02 -.310E+02   -.130E+02 -.536E+02 0.321E+02   -.519E+00 -.150E+01 -.111E+01
   0.101E+02 0.464E+02 -.375E+02   -.975E+01 -.439E+02 0.391E+02   -.289E+00 -.221E+01 -.151E+01
   -.136E+02 0.552E+02 -.310E+02   0.130E+02 -.536E+02 0.321E+02   0.519E+00 -.150E+01 -.111E+01
   -.101E+02 0.464E+02 -.375E+02   0.975E+01 -.439E+02 0.391E+02   0.289E+00 -.221E+01 -.151E+01
   0.105E-03 -.267E+01 0.576E+02   0.326E-10 0.100E+02 -.603E+02   0.000E+00 -.630E+01 0.248E+01
   0.788E-05 -.414E+02 -.583E+02   0.294E-10 0.497E+02 0.591E+02   0.000E+00 -.716E+01 -.741E+00
   0.259E+02 -.159E+02 0.287E+02   -.264E+02 0.237E+02 -.326E+02   0.405E+00 -.672E+01 0.342E+01
   0.154E+02 -.217E+02 -.798E+00   -.147E+02 0.295E+02 -.270E+01   -.592E+00 -.666E+01 0.301E+01
   -.259E+02 -.159E+02 0.287E+02   0.264E+02 0.237E+02 -.326E+02   -.405E+00 -.672E+01 0.342E+01
   -.154E+02 -.217E+02 -.798E+00   0.147E+02 0.295E+02 -.270E+01   0.592E+00 -.666E+01 0.301E+01
   0.126E+02 0.688E+01 -.180E+02   -.148E+02 -.129E+02 0.221E+02   0.190E+01 0.515E+01 -.353E+01
   -.641E+01 0.114E+02 -.122E+02   0.659E+01 -.187E+02 0.158E+02   -.153E+00 0.629E+01 -.313E+01
   -.126E+02 0.688E+01 -.180E+02   0.148E+02 -.129E+02 0.221E+02   -.190E+01 0.515E+01 -.353E+01
   0.641E+01 0.114E+02 -.122E+02   -.659E+01 -.187E+02 0.158E+02   0.153E+00 0.629E+01 -.313E+01
   -.869E-05 0.190E+02 -.109E+02   0.313E-10 -.262E+02 0.142E+02   0.000E+00 0.619E+01 -.289E+01
   -.101E-03 0.958E+01 -.143E+02   0.325E-10 -.166E+02 0.184E+02   0.000E+00 0.603E+01 -.350E+01
   -.119E-04 0.501E+02 -.185E+02   0.211E-10 -.547E+02 0.293E+02   0.000E+00 0.394E+01 -.936E+01
   -.361E-04 0.533E+02 0.440E+02   0.207E-10 -.514E+02 -.392E+02   0.000E+00 -.171E+01 -.411E+01
   0.114E+02 0.474E+02 0.365E+02   -.119E+02 -.444E+02 -.317E+02   0.435E+00 -.252E+01 -.415E+01
   0.414E+01 0.502E+02 0.452E+02   -.418E+01 -.479E+02 -.407E+02   0.377E-01 -.200E+01 -.392E+01
   -.114E+02 0.474E+02 0.365E+02   0.119E+02 -.444E+02 -.317E+02   -.435E+00 -.252E+01 -.415E+01
   -.414E+01 0.502E+02 0.452E+02   0.418E+01 -.479E+02 -.407E+02   -.377E-01 -.200E+01 -.392E+01
   -.804E+02 -.112E+03 0.176E+02   0.847E+02 0.110E+03 -.250E+02   -.369E+01 0.121E+01 0.639E+01
   -.824E+01 -.789E+02 -.344E+02   0.831E+01 0.764E+02 0.296E+02   -.602E-01 0.215E+01 0.417E+01
   0.804E+02 -.112E+03 0.176E+02   -.847E+02 0.110E+03 -.250E+02   0.369E+01 0.121E+01 0.639E+01
   0.824E+01 -.789E+02 -.344E+02   -.831E+01 0.764E+02 0.296E+02   0.602E-01 0.215E+01 0.417E+01
   0.311E-04 -.815E+02 -.365E+02   0.261E-10 0.791E+02 0.325E+02   0.000E+00 0.211E+01 0.344E+01
   0.273E-04 -.752E+02 -.368E+02   0.284E-10 0.732E+02 0.324E+02   0.000E+00 0.178E+01 0.379E+01
   0.467E+01 0.618E+02 0.400E+02   -.960E+01 -.757E+02 -.376E+02   0.425E+01 0.120E+02 -.205E+01
   -.123E+02 0.104E+03 0.770E+02   0.124E+02 -.115E+03 -.734E+02   -.640E-01 0.102E+02 -.313E+01
   -.467E+01 0.618E+02 0.400E+02   0.960E+01 -.757E+02 -.376E+02   -.425E+01 0.120E+02 -.205E+01
   0.123E+02 0.104E+03 0.770E+02   -.124E+02 -.115E+03 -.734E+02   0.640E-01 0.102E+02 -.313E+01
   -.465E-05 0.104E+03 0.628E+02   0.231E-10 -.117E+03 -.589E+02   0.000E+00 0.114E+02 -.339E+01
   0.805E-04 0.112E+03 0.700E+02   0.428E-10 -.125E+03 -.670E+02   0.000E+00 0.106E+02 -.254E+01
   -.926E-05 -.149E+03 -.377E+02   0.283E-10 0.162E+03 0.336E+02   0.000E+00 -.109E+02 0.352E+01
   -.248E-04 -.133E+03 -.504E+02   0.153E-10 0.146E+03 0.468E+02   0.000E+00 -.111E+02 0.311E+01
   0.314E+01 -.138E+03 -.602E+02   -.281E+01 0.151E+03 0.565E+02   -.283E+00 -.112E+02 0.319E+01
   0.150E+01 -.124E+03 -.578E+02   -.166E+01 0.136E+03 0.545E+02   0.137E+00 -.105E+02 0.285E+01
   -.314E+01 -.138E+03 -.602E+02   0.281E+01 0.151E+03 0.565E+02   0.283E+00 -.112E+02 0.319E+01
   -.150E+01 -.124E+03 -.578E+02   0.166E+01 0.136E+03 0.545E+02   -.137E+00 -.105E+02 0.285E+01
   -.698E+01 -.183E+02 0.182E+02   0.703E+01 0.250E+02 -.222E+02   -.426E-01 -.580E+01 0.349E+01
   -.162E+01 -.182E+02 0.168E+02   0.148E+01 0.254E+02 -.206E+02   0.121E+00 -.621E+01 0.327E+01
   0.698E+01 -.183E+02 0.182E+02   -.703E+01 0.250E+02 -.222E+02   0.426E-01 -.580E+01 0.349E+01
   0.162E+01 -.182E+02 0.168E+02   -.148E+01 0.254E+02 -.206E+02   -.121E+00 -.621E+01 0.327E+01
   -.918E-04 -.195E+02 0.149E+02   0.116E-10 0.274E+02 -.185E+02   0.000E+00 -.679E+01 0.314E+01
   0.606E-06 -.219E+02 0.135E+02   0.317E-10 0.294E+02 -.172E+02   0.000E+00 -.640E+01 0.324E+01
   -.262E-05 0.207E+02 -.175E+02   0.347E-10 -.280E+02 0.221E+02   0.000E+00 0.628E+01 -.394E+01
   0.646E+02 0.540E+02 -.181E+02   -.667E+02 -.635E+02 0.211E+02   0.183E+01 0.820E+01 -.262E+01
   0.913E+01 0.213E+02 -.144E+02   -.932E+01 -.287E+02 0.184E+02   0.162E+00 0.637E+01 -.345E+01
   -.646E+02 0.540E+02 -.181E+02   0.667E+02 -.635E+02 0.211E+02   -.183E+01 0.820E+01 -.262E+01
   -.913E+01 0.213E+02 -.144E+02   0.932E+01 -.287E+02 0.184E+02   -.162E+00 0.637E+01 -.345E+01
   -.474E+02 0.131E+03 0.361E+02   0.490E+02 -.132E+03 -.317E+02   -.144E+01 0.513E+00 -.386E+01
   -.144E+02 0.853E+02 0.257E+02   0.148E+02 -.832E+02 -.211E+02   -.300E+00 -.186E+01 -.393E+01
   0.474E+02 0.131E+03 0.361E+02   -.490E+02 -.132E+03 -.317E+02   0.144E+01 0.513E+00 -.386E+01
   0.144E+02 0.853E+02 0.257E+02   -.148E+02 -.832E+02 -.211E+02   0.300E+00 -.186E+01 -.393E+01
   -.309E-05 0.885E+02 0.267E+02   0.740E-11 -.868E+02 -.219E+02   0.000E+00 -.144E+01 -.421E+01
   -.115E-03 0.812E+02 0.402E+02   0.113E-10 -.791E+02 -.365E+02   0.000E+00 -.176E+01 -.323E+01
   0.628E-04 -.470E+02 -.330E+02   0.132E-10 0.455E+02 0.273E+02   0.000E+00 0.123E+01 0.487E+01
   0.753E-04 -.556E+02 -.414E+02   0.187E-10 0.540E+02 0.366E+02   0.000E+00 0.139E+01 0.414E+01
   0.429E+01 -.555E+02 -.402E+02   -.438E+01 0.532E+02 0.353E+02   0.782E-01 0.201E+01 0.423E+01
   0.492E+01 -.624E+02 -.389E+02   -.477E+01 0.609E+02 0.346E+02   -.133E+00 0.126E+01 0.376E+01
   -.429E+01 -.555E+02 -.402E+02   0.438E+01 0.532E+02 0.353E+02   -.782E-01 0.201E+01 0.423E+01
   -.492E+01 -.624E+02 -.389E+02   0.477E+01 0.609E+02 0.346E+02   0.133E+00 0.126E+01 0.376E+01
   0.147E-04 0.148E+03 0.508E+02   0.242E-10 -.160E+03 -.467E+02   0.000E+00 0.101E+02 -.354E+01
   0.187E-03 0.135E+03 0.614E+02   0.234E-10 -.148E+03 -.578E+02   0.000E+00 0.113E+02 -.311E+01
   0.439E+01 0.124E+03 0.600E+02   -.432E+01 -.136E+03 -.563E+02   -.619E-01 0.108E+02 -.315E+01
   0.644E+01 0.135E+03 0.630E+02   -.658E+01 -.148E+03 -.596E+02   0.126E+00 0.113E+02 -.297E+01
   -.439E+01 0.124E+03 0.600E+02   0.432E+01 -.136E+03 -.563E+02   0.619E-01 0.108E+02 -.315E+01
   -.644E+01 0.135E+03 0.630E+02   0.658E+01 -.148E+03 -.596E+02   -.126E+00 0.113E+02 -.297E+01
   -.836E+01 -.917E+02 -.577E+02   0.785E+01 0.104E+03 0.542E+02   0.441E+00 -.104E+02 0.307E+01
   -.448E+02 -.791E+02 -.920E+02   0.460E+02 0.923E+02 0.877E+02   -.105E+01 -.114E+02 0.374E+01
   0.836E+01 -.917E+02 -.577E+02   -.785E+01 0.104E+03 0.542E+02   -.441E+00 -.104E+02 0.307E+01
   0.448E+02 -.791E+02 -.920E+02   -.460E+02 0.923E+02 0.877E+02   0.105E+01 -.114E+02 0.374E+01
   -.566E-04 -.106E+03 -.650E+02   0.131E-10 0.118E+03 0.618E+02   0.000E+00 -.110E+02 0.272E+01
   -.214E-04 -.103E+03 -.691E+02   0.838E-11 0.116E+03 0.658E+02   0.000E+00 -.112E+02 0.290E+01
   -.514E-04 0.524E+00 -.146E+02   0.914E-11 -.142E+01 0.116E+02   0.000E+00 0.838E+00 0.273E+01
 -----------------------------------------------------------------------------------------------
   0.325E-03 -.115E+02 0.595E+01   0.387E-13 0.137E-11 -.956E-12   0.222E-15 0.107E+02 -.591E+01
 
 
 POSITION                                       TOTAL-FORCE (eV/Angst)
 -----------------------------------------------------------------------------------
      9.11109      7.65335     -1.73425        -0.063706      0.125490      0.017054
      9.13895      6.26961     -7.42507        -0.016885      0.069027      0.016498
      3.07918      7.65335     -1.73425         0.063706      0.125490      0.017054
      3.05132      6.26961     -7.42507         0.016885      0.069027      0.016498
      6.09513      7.66118     -1.75844         0.000000      0.049494     -0.006314
      6.09513      6.26519     -7.42862         0.000000      0.069435      0.035244
      1.52378      9.03322     -4.08283         0.000000     -0.390736     -0.005001
      1.52378      7.99133     -9.53552         0.000000     -0.050127     -0.018947
      4.58225      9.38622     -3.85400         0.032959     -0.119228      0.043947
      4.57414      7.99599     -9.53486        -0.000876     -0.068196     -0.018597
      7.60802      9.38622     -3.85400        -0.032959     -0.119228      0.043947
      7.61613      7.99599     -9.53486         0.000876     -0.068196     -0.018597
      1.52378      6.06155     -4.51549         0.000000     -0.002370      0.037502
      1.52378      4.77618    -10.14719         0.000000     -0.023992      0.010607
      4.58614      6.18802     -4.50137         0.004743     -0.037589      0.035347
      4.57552      4.76043    -10.12259         0.006613     -0.006265     -0.018082
      7.60413      6.18802     -4.50137        -0.004743     -0.037589      0.035347
      7.61474      4.76043    -10.12259        -0.006613     -0.006265     -0.018082
      9.11243     10.84686     -1.17298         0.001224      0.025326     -0.007456
      9.12179      9.49157     -6.81567        -0.031418     -0.022208     -0.005029
      3.07784     10.84686     -1.17298        -0.001224      0.025326     -0.007456
      3.06848      9.49157     -6.81567         0.031418     -0.022208     -0.005029
      6.09513     10.90296     -1.17061         0.000000      0.008048     -0.023489
      6.09513      9.49151     -6.78693         0.000000      0.012139      0.002117
      1.52378      1.56790     -1.77649         0.000000      0.085964      0.056894
      1.52378      0.15828     -7.41202         0.000000      0.112077     -0.028471
      4.57635      1.54671     -1.76689        -0.021048      0.065642     -0.013873
      4.58319      0.14517     -7.45578        -0.004924      0.096430      0.008783
      7.61392      1.54671     -1.76689         0.021048      0.065642     -0.013873
      7.60708      0.14517     -7.45578         0.004924      0.096430      0.008783
      9.12655      3.26804     -3.87080        -0.021049     -0.088237      0.007131
      0.00027      1.85493     -9.53022        -0.000376     -0.059474     -0.005867
      3.06372      3.26804     -3.87080         0.021049     -0.088237      0.007131
      3.04730      1.85493     -9.53022         0.000376     -0.059474     -0.005867
      6.09513      3.25850     -3.87652         0.000000     -0.051411      0.009407
      6.09513      1.85366     -9.54445         0.000000     -0.050686      0.006373
      9.00619      0.15568     -4.54355        -0.239897      0.131385     -0.009464
      0.00217     -1.36602    -10.14381         0.012829     -0.031097      0.009044
      3.18408      0.15568     -4.54355         0.239897      0.131385     -0.009464
      3.04540     -1.36602    -10.14381        -0.012829     -0.031097      0.009044
      6.09513      0.05811     -4.52162         0.000000     -0.109220      0.024332
      6.09513     -1.37827    -10.14799         0.000000     -0.011722      0.011686
      1.52378      4.75515     -1.13927         0.000000      0.021992     -0.026339
      1.52378      3.34942     -6.80712         0.000000      0.029765     -0.027704
      4.57657      4.75242     -1.14860         0.007837      0.020432     -0.031784
      4.57296      3.34263     -6.80998         0.006834      0.032624     -0.014914
      7.61370      4.75242     -1.14860        -0.007837      0.020432     -0.031784
      7.61731      3.34263     -6.80998        -0.006834      0.032624     -0.014914
      1.52378     11.86842     -1.48140         0.000000     -0.198408      0.098633
      1.52378     10.52271     -6.95190         0.000000     -0.221296     -0.044652
      4.56795     11.90436     -1.45137         0.023680     -0.189092      0.126271
      4.57646     10.51259     -7.08576        -0.014678     -0.179320      0.104755
      7.62232     11.90436     -1.45137        -0.023680     -0.189092      0.126271
      7.61381     10.51259     -7.08576         0.014678     -0.179320      0.104755
      9.11111      5.15290     -4.21324         0.074782      0.124422     -0.128096
      0.00499      3.76786     -9.86341        -0.007089      0.165727     -0.109339
      3.07916      5.15290     -4.21324        -0.074782      0.124422     -0.128096
      3.04258      3.76786     -9.86341         0.007089      0.165727     -0.109339
      6.09513      5.15887     -4.23030         0.000000      0.170129     -0.107987
      6.09513      3.75983     -9.84277         0.000000      0.158832     -0.122391
      1.52378      7.39225     -3.17020         0.000000      0.160613     -0.326820
      1.52378      6.10028     -8.82289         0.000000     -0.039225     -0.112075
      4.59407      7.46173     -3.14897         0.012945     -0.068864     -0.116469
      4.57104      6.10577     -8.82571         0.003407     -0.049557     -0.103760
      7.59620      7.46173     -3.14897        -0.012945     -0.068864     -0.116469
      7.61922      6.10577     -8.82571        -0.003407     -0.049557     -0.103760
      9.02369      9.48392     -2.42710        -0.147637     -0.005076      0.193276
      0.00728      8.17308     -8.13844        -0.007667      0.052424      0.121287
      3.16658      9.48392     -2.42710         0.147637     -0.005076      0.193276
      3.04029      8.17308     -8.13844         0.007667      0.052424      0.121287
      6.09513      9.55984     -2.47064         0.000000      0.057396      0.092253
      6.09513      8.17705     -8.12934         0.000000      0.041063      0.103597
      9.04497      8.81510     -5.09445         0.182896      0.436618     -0.044970
      0.00279      7.61906    -10.69333        -0.016996      0.365954     -0.065277
      3.14530      8.81510     -5.09445        -0.182896      0.436618     -0.044970
      3.04477      7.61906    -10.69333         0.016996      0.365954     -0.065277
      6.09513      8.95970     -5.02561         0.000000      0.419061     -0.088485
      6.09513      7.62787    -10.69703         0.000000      0.386182     -0.055328
      1.52378      8.05084     -0.61838         0.000000     -0.409864      0.109365
      1.52378      6.64680     -6.26122         0.000000     -0.405962      0.081495
      4.59238      8.03643     -0.57874        -0.018253     -0.406611      0.083373
      4.57787      6.64422     -6.28135         0.001464     -0.377699      0.060789
      7.59789      8.03643     -0.57874         0.018253     -0.406611      0.083373
      7.61240      6.64422     -6.28135        -0.001464     -0.377699      0.060789
      9.14137      5.74865     -1.42456        -0.002997     -0.157805      0.126257
      9.14095      4.35273     -7.09270         0.007704     -0.170727      0.118719
      3.04890      5.74865     -1.42456         0.002997     -0.157805      0.126257
      3.04932      4.35273     -7.09270        -0.007704     -0.170727      0.118719
      6.09513      5.75263     -1.41349         0.000000     -0.193208      0.113913
      6.09513      4.34791     -7.09690         0.000000     -0.175120      0.107544
      1.52378     -2.36674     -9.83597         0.000000      0.181243     -0.129090
      4.62392     -0.98279     -4.26186         0.042349      0.275940     -0.103125
      4.56754     -2.36819     -9.85929         0.010545      0.170137     -0.118207
      7.56635     -0.98279     -4.26186        -0.042349      0.275940     -0.103125
      7.62273     -2.36819     -9.85929        -0.010545      0.170137     -0.118207
      9.09462      1.43024     -3.15149        -0.042260      0.033447     -0.135892
      0.00990     -0.05026     -8.81478        -0.014449     -0.037247     -0.099203
      3.09565      1.43024     -3.15149         0.042260      0.033447     -0.135892
      3.03767     -0.05026     -8.81478         0.014449     -0.037247     -0.099203
      6.09513      1.36251     -3.17381         0.000000     -0.034314     -0.132472
      6.09513     -0.04459     -8.83551         0.000000     -0.034342     -0.076840
      1.52378      3.44993     -2.47432         0.000000      0.018916      0.136777
      1.52378      2.03728     -8.14227         0.000000      0.028395      0.117741
      4.59331      3.44542     -2.47315        -0.005514      0.036125      0.112565
      4.57620      2.04004     -8.15867        -0.007635      0.015609      0.106160
      7.59696      3.44542     -2.47315         0.005514      0.036125      0.112565
      7.61407      2.04004     -8.15867         0.007635      0.015609      0.106160
      1.52378      2.88322     -5.02454         0.000000      0.365626     -0.094274
      1.52378      1.45272    -10.68220         0.000000      0.415013     -0.071437
      4.57587      2.83480     -5.03861        -0.002773      0.395965     -0.081823
      4.56538      1.44783    -10.68928         0.009618      0.419479     -0.066801
      7.61440      2.83480     -5.03861         0.002773      0.395965     -0.081823
      7.62489      1.44783    -10.68928        -0.009618      0.419479     -0.066801
      0.00866      1.91084     -0.60802         0.005925     -0.369934      0.073531
      9.10757      0.62508     -6.31531        -0.033161     -0.425628      0.117528
      3.03890      1.91084     -0.60802        -0.005925     -0.369934      0.073531
      3.08269      0.62508     -6.31531         0.033161     -0.425628      0.117528
      6.09513      1.91689     -0.60822         0.000000     -0.397163      0.063062
      6.09513      0.57129     -6.29436         0.000000     -0.417317      0.083605
      1.52378     11.21378     -3.86745         0.000000      0.048397     -0.172604
 -----------------------------------------------------------------------------------
    total drift:                                0.000325      0.133199      0.013990


--------------------------------------------------------------------------------------------------------



  FREE ENERGIE OF THE ION-ELECTRON SYSTEM (eV)
  ---------------------------------------------------
  free  energy   TOTEN  =      -950.10736809 eV

  energy  without entropy=     -950.08676388  energy(sigma->0) =     -950.09706598
 


--------------------------------------------------------------------------------------------------------


    POTLOK:  cpu time      1.9368: real time      1.9447


--------------------------------------------------------------------------------------------------------


 writing wavefunctions
     LOOP+:  cpu time  18491.9712: real time  18494.0495
    4ORBIT:  cpu time      0.0000: real time      0.0000

 total amount of memory used by VASP MPI-rank0  7512547. kBytes
=======================================================================

   base      :      30000. kBytes
   nonlr-proj:      47172. kBytes
   fftplans  :      51012. kBytes
   grid      :     102973. kBytes
   one-center:       1866. kBytes
   HF        :        194. kBytes
   wavefun   :    7050060. kBytes
   fock_wrk  :     229270. kBytes
 
  
  
 General timing and accounting informations for this job:
 ========================================================
  
                  Total CPU time used (sec):    18524.271
                            User time (sec):    18505.561
                          System time (sec):       18.710
                         Elapsed time (sec):    18528.743
  
                   Maximum memory used (kb):    13340416.
                   Average memory used (kb):          N/A
  
                          Minor page faults:      9248791
                          Major page faults:            3
                 Voluntary context switches:       355993
