<?xml version="1.0" encoding="ISO-8859-1"?>
<modeling>
 <generator>
  <i name="program" type="string">vasp </i>
  <i name="version" type="string">6.4.2  </i>
  <i name="subversion" type="string">20Jul23 (build Nov 12 2023 22:16:35) complex                          parallel </i>
  <i name="platform" type="string">LinuxNV </i>
  <i name="date" type="string">2025 03 17 </i>
  <i name="time" type="string">11:32:13 </i>
 </generator>
 <incar>
  <i type="int" name="ISTART">     0</i>
  <i type="string" name="PREC">Normal</i>
  <i type="string" name="ALGO">All</i>
  <i type="int" name="ISPIN">     1</i>
  <i type="int" name="ICHARG">     0</i>
  <i type="int" name="NELM">   500</i>
  <i type="int" name="IBRION">    -1</i>
  <i name="EDIFF">      0.00001000</i>
  <i name="EDIFFG">     -0.00500000</i>
  <i type="int" name="NSW">     0</i>
  <i type="int" name="ISIF">     2</i>
  <i name="ENCUT">    450.00000000</i>
  <i type="string" name="LREAL">Auto</i>
  <i type="logical" name="LPLANE"> T  </i>
  <i name="TIME">      0.40000000</i>
  <i type="int" name="ISMEAR">     0</i>
  <i name="SIGMA">      0.05000000</i>
  <i type="logical" name="LWAVE"> T  </i>
  <i type="logical" name="LCHARG"> T  </i>
  <i name="HFSCREEN">      0.20000000</i>
  <i type="logical" name="LHFCALC"> T  </i>
  <i type="int" name="LMAXFOCK">     4</i>
  <i name="AEXX">      0.32000000</i>
  <i type="string" name="PRECFOCK">Fast</i>
 </incar>
 <primitive_cell>
  <structure name="primitive_cell" >
   <crystal>
    <varray name="basis" >
     <v>       0.00000000      12.28047342       0.00000000 </v>
     <v>       9.14270205       0.00000000       0.00000000 </v>
     <v>       0.00000000      -2.76826177     -11.30069772 </v>
    </varray>
    <i name="volume">   1268.80515525 </i>
    <varray name="rec_basis" >
     <v>       0.00000000       0.08143009      -0.01994742 </v>
     <v>       0.10937686      -0.00000000       0.00000000 </v>
     <v>       0.00000000       0.00000000      -0.08849011 </v>
    </varray>
   </crystal>
   <varray name="positions" >
    <v>       0.65780646       0.99654228       0.15346391 </v>
    <v>       0.65864618       0.99958986       0.65704571 </v>
    <v>       0.65780646       0.33679106       0.15346391 </v>
    <v>       0.65864618       0.33374347       0.65704571 </v>
    <v>       0.65892656       0.66666667       0.15560438 </v>
    <v>       0.65835640       0.66666667       0.65735927 </v>
    <v>       0.81701740       0.16666667       0.36128987 </v>
    <v>       0.84094386       0.16666667       0.84379936 </v>
    <v>       0.84119762       0.50119237       0.34104058 </v>
    <v>       0.84130993       0.50030512       0.84374081 </v>
    <v>       0.84119762       0.83214096       0.34104058 </v>
    <v>       0.84130993       0.83302821       0.84374081 </v>
    <v>       0.58366510       0.16666667       0.39957654 </v>
    <v>       0.59133529       0.16666667       0.89792622 </v>
    <v>       0.59368183       0.50161742       0.39832667 </v>
    <v>       0.58956149       0.50045648       0.89574874 </v>
    <v>       0.59368183       0.83171591       0.39832667 </v>
    <v>       0.58956149       0.83287685       0.89574874 </v>
    <v>       0.90665825       0.99668894       0.10379688 </v>
    <v>       0.90885467       0.99771244       0.60311919 </v>
    <v>       0.90665825       0.33664439       0.10379688 </v>
    <v>       0.90885467       0.33562089       0.60311919 </v>
    <v>       0.91117982       0.66666667       0.10358728 </v>
    <v>       0.90827646       0.66666667       0.60057648 </v>
    <v>       0.16311024       0.16666667       0.15720174 </v>
    <v>       0.16073989       0.16666667       0.65589088 </v>
    <v>       0.16119380       0.50054641       0.15635205 </v>
    <v>       0.16054521       0.50129492       0.65976285 </v>
    <v>       0.16119380       0.83278692       0.15635205 </v>
    <v>       0.16054521       0.83203842       0.65976285 </v>
    <v>       0.34332937       0.99823312       0.34252791 </v>
    <v>       0.34115055       0.00002935       0.84333019 </v>
    <v>       0.34332937       0.33510021       0.34252791 </v>
    <v>       0.34115055       0.33330398       0.84333019 </v>
    <v>       0.34266645       0.66666667       0.34303399 </v>
    <v>       0.34133115       0.66666667       0.84458967 </v>
    <v>       0.10330920       0.98506863       0.40205921 </v>
    <v>       0.09110760       0.00023728       0.89762644 </v>
    <v>       0.10330920       0.34826470       0.40205921 </v>
    <v>       0.09110760       0.33309606       0.89762644 </v>
    <v>       0.09492625       0.66666667       0.40011869 </v>
    <v>       0.09019358       0.66666667       0.89799719 </v>
    <v>       0.40993775       0.16666667       0.10081447 </v>
    <v>       0.40852816       0.16666667       0.60236263 </v>
    <v>       0.40990114       0.50057030       0.10163938 </v>
    <v>       0.40803242       0.50017581       0.60261597 </v>
    <v>       0.40990114       0.83276304       0.10163938 </v>
    <v>       0.40803242       0.83315753       0.60261597 </v>
    <v>       0.99599637       0.16666667       0.13108926 </v>
    <v>       0.99553729       0.16666667       0.61517415 </v>
    <v>       0.99832432       0.49962843       0.12843201 </v>
    <v>       0.99738348       0.50055832       0.62702013 </v>
    <v>       0.99832432       0.83370490       0.12843201 </v>
    <v>       0.99738348       0.83277501       0.62702013 </v>
    <v>       0.50364409       0.99654438       0.37283025 </v>
    <v>       0.50356654       0.00054600       0.87281385 </v>
    <v>       0.50364409       0.33678895       0.37283025 </v>
    <v>       0.50356654       0.33278733       0.87281385 </v>
    <v>       0.50447074       0.66666667       0.37433990 </v>
    <v>       0.50250109       0.66666667       0.87098761 </v>
    <v>       0.66518874       0.16666667       0.28053128 </v>
    <v>       0.67274032       0.16666667       0.78073871 </v>
    <v>       0.67042295       0.50248504       0.27865252 </v>
    <v>       0.67324392       0.49996650       0.78098848 </v>
    <v>       0.67042295       0.83084830       0.27865252 </v>
    <v>       0.67324392       0.83336684       0.78098848 </v>
    <v>       0.82069054       0.98698298       0.21477394 </v>
    <v>       0.82787578       0.00079627       0.72017185 </v>
    <v>       0.82069054       0.34635036       0.21477394 </v>
    <v>       0.82787578       0.33253707       0.72017185 </v>
    <v>       0.82774176       0.66666667       0.21862744 </v>
    <v>       0.82801690       0.66666667       0.71936636 </v>
    <v>       0.81943570       0.98931007       0.45080854 </v>
    <v>       0.83372477       0.00030546       0.94625392 </v>
    <v>       0.81943570       0.34402326       0.45080854 </v>
    <v>       0.83372477       0.33302788       0.94625392 </v>
    <v>       0.82983692       0.66666667       0.44471720 </v>
    <v>       0.83451628       0.66666667       0.94658095 </v>
    <v>       0.66791551       0.16666667       0.05472037 </v>
    <v>       0.66614489       0.16666667       0.55405567 </v>
    <v>       0.66595148       0.50229955       0.05121293 </v>
    <v>       0.66633574       0.50071276       0.55583721 </v>
    <v>       0.66595148       0.83103378       0.05121293 </v>
    <v>       0.66633574       0.83262058       0.55583721 </v>
    <v>       0.49652927       0.99985401       0.12605922 </v>
    <v>       0.49592415       0.99980805       0.62763394 </v>
    <v>       0.49652927       0.33347932       0.12605922 </v>
    <v>       0.49592415       0.33352528       0.62763394 </v>
    <v>       0.49663284       0.66666667       0.12507975 </v>
    <v>       0.49561597       0.66666667       0.62800556 </v>
    <v>       0.00347870       0.16666667       0.87038646 </v>
    <v>       0.00498447       0.50574969       0.37713269 </v>
    <v>       0.00382536       0.49958358       0.87244949 </v>
    <v>       0.00498447       0.82758364       0.37713269 </v>
    <v>       0.00382536       0.83374975       0.87244949 </v>
    <v>       0.17932849       0.99474130       0.27887582 </v>
    <v>       0.17173988       0.00108260       0.78002123 </v>
    <v>       0.17932849       0.33859204       0.27887582 </v>
    <v>       0.17173988       0.33225073       0.78002123 </v>
    <v>       0.17425890       0.66666667       0.28085112 </v>
    <v>       0.17261514       0.66666667       0.78185565 </v>
    <v>       0.33028457       0.16666667       0.21895280 </v>
    <v>       0.32831287       0.16666667       0.72051040 </v>
    <v>       0.32989413       0.50240150       0.21884902 </v>
    <v>       0.32886482       0.50053032       0.72196137 </v>
    <v>       0.32989413       0.83093184       0.21884902 </v>
    <v>       0.32886482       0.83280301       0.72196137 </v>
    <v>       0.33500756       0.16666667       0.44462196 </v>
    <v>       0.33137760       0.16666667       0.94526937 </v>
    <v>       0.33134572       0.50049392       0.44586749 </v>
    <v>       0.33112075       0.49934736       0.94589580 </v>
    <v>       0.33134572       0.83283941       0.44586749 </v>
    <v>       0.33112075       0.83398598       0.94589580 </v>
    <v>       0.16772804       0.00094750       0.05380413 </v>
    <v>       0.17687405       0.99615787       0.55884211 </v>
    <v>       0.16772804       0.33238583       0.05380413 </v>
    <v>       0.17687405       0.33717546       0.55884211 </v>
    <v>       0.16822495       0.66666667       0.05382128 </v>
    <v>       0.17207681       0.66666667       0.55698859 </v>
    <v>       0.99028463       0.16666667       0.34223069 </v>
   </varray>
  </structure>
  <varray name="primitive_index" >
   <v type="int" >        1 </v>
   <v type="int" >        2 </v>
   <v type="int" >        3 </v>
   <v type="int" >        4 </v>
   <v type="int" >        5 </v>
   <v type="int" >        6 </v>
   <v type="int" >        7 </v>
   <v type="int" >        8 </v>
   <v type="int" >        9 </v>
   <v type="int" >       10 </v>
   <v type="int" >       11 </v>
   <v type="int" >       12 </v>
   <v type="int" >       13 </v>
   <v type="int" >       14 </v>
   <v type="int" >       15 </v>
   <v type="int" >       16 </v>
   <v type="int" >       17 </v>
   <v type="int" >       18 </v>
   <v type="int" >       19 </v>
   <v type="int" >       20 </v>
   <v type="int" >       21 </v>
   <v type="int" >       22 </v>
   <v type="int" >       23 </v>
   <v type="int" >       24 </v>
   <v type="int" >       25 </v>
   <v type="int" >       26 </v>
   <v type="int" >       27 </v>
   <v type="int" >       28 </v>
   <v type="int" >       29 </v>
   <v type="int" >       30 </v>
   <v type="int" >       31 </v>
   <v type="int" >       32 </v>
   <v type="int" >       33 </v>
   <v type="int" >       34 </v>
   <v type="int" >       35 </v>
   <v type="int" >       36 </v>
   <v type="int" >       37 </v>
   <v type="int" >       38 </v>
   <v type="int" >       39 </v>
   <v type="int" >       40 </v>
   <v type="int" >       41 </v>
   <v type="int" >       42 </v>
   <v type="int" >       43 </v>
   <v type="int" >       44 </v>
   <v type="int" >       45 </v>
   <v type="int" >       46 </v>
   <v type="int" >       47 </v>
   <v type="int" >       48 </v>
   <v type="int" >       49 </v>
   <v type="int" >       50 </v>
   <v type="int" >       51 </v>
   <v type="int" >       52 </v>
   <v type="int" >       53 </v>
   <v type="int" >       54 </v>
   <v type="int" >       55 </v>
   <v type="int" >       56 </v>
   <v type="int" >       57 </v>
   <v type="int" >       58 </v>
   <v type="int" >       59 </v>
   <v type="int" >       60 </v>
   <v type="int" >       61 </v>
   <v type="int" >       62 </v>
   <v type="int" >       63 </v>
   <v type="int" >       64 </v>
   <v type="int" >       65 </v>
   <v type="int" >       66 </v>
   <v type="int" >       67 </v>
   <v type="int" >       68 </v>
   <v type="int" >       69 </v>
   <v type="int" >       70 </v>
   <v type="int" >       71 </v>
   <v type="int" >       72 </v>
   <v type="int" >       73 </v>
   <v type="int" >       74 </v>
   <v type="int" >       75 </v>
   <v type="int" >       76 </v>
   <v type="int" >       77 </v>
   <v type="int" >       78 </v>
   <v type="int" >       79 </v>
   <v type="int" >       80 </v>
   <v type="int" >       81 </v>
   <v type="int" >       82 </v>
   <v type="int" >       83 </v>
   <v type="int" >       84 </v>
   <v type="int" >       85 </v>
   <v type="int" >       86 </v>
   <v type="int" >       87 </v>
   <v type="int" >       88 </v>
   <v type="int" >       89 </v>
   <v type="int" >       90 </v>
   <v type="int" >       91 </v>
   <v type="int" >       92 </v>
   <v type="int" >       93 </v>
   <v type="int" >       94 </v>
   <v type="int" >       95 </v>
   <v type="int" >       96 </v>
   <v type="int" >       97 </v>
   <v type="int" >       98 </v>
   <v type="int" >       99 </v>
   <v type="int" >      100 </v>
   <v type="int" >      101 </v>
   <v type="int" >      102 </v>
   <v type="int" >      103 </v>
   <v type="int" >      104 </v>
   <v type="int" >      105 </v>
   <v type="int" >      106 </v>
   <v type="int" >      107 </v>
   <v type="int" >      108 </v>
   <v type="int" >      109 </v>
   <v type="int" >      110 </v>
   <v type="int" >      111 </v>
   <v type="int" >      112 </v>
   <v type="int" >      113 </v>
   <v type="int" >      114 </v>
   <v type="int" >      115 </v>
   <v type="int" >      116 </v>
   <v type="int" >      117 </v>
   <v type="int" >      118 </v>
   <v type="int" >      119 </v>
   <v type="int" >      120 </v>
  </varray>
 </primitive_cell>
 <kpoints>
  <generation param="Gamma">
   <v type="int" name="divisions">       2        2        2 </v>
   <v name="usershift">      0.00000000       0.00000000       0.00000000 </v>
   <v name="genvec1">      0.50000000       0.00000000       0.00000000 </v>
   <v name="genvec2">      0.00000000       0.50000000       0.00000000 </v>
   <v name="genvec3">      0.00000000       0.00000000       0.50000000 </v>
   <v name="shift">      0.00000000       0.00000000       0.00000000 </v>
  </generation>
  <varray name="kpointlist" >
   <v>       0.00000000       0.00000000       0.00000000 </v>
   <v>       0.50000000       0.00000000       0.00000000 </v>
   <v>       0.00000000       0.50000000       0.00000000 </v>
   <v>       0.50000000       0.50000000       0.00000000 </v>
   <v>       0.00000000       0.00000000       0.50000000 </v>
   <v>       0.50000000       0.00000000       0.50000000 </v>
   <v>       0.00000000       0.50000000       0.50000000 </v>
   <v>       0.50000000       0.50000000       0.50000000 </v>
  </varray>
  <varray name="weights" >
   <v>       0.12500000 </v>
   <v>       0.12500000 </v>
   <v>       0.12500000 </v>
   <v>       0.12500000 </v>
   <v>       0.12500000 </v>
   <v>       0.12500000 </v>
   <v>       0.12500000 </v>
   <v>       0.12500000 </v>
  </varray>
 </kpoints>
 <parameters>
  <separator name="general" >
   <i type="string" name="SYSTEM">unknown system</i>
   <i type="logical" name="LCOMPAT"> F  </i>
  </separator>
  <separator name="electronic" >
   <i type="string" name="PREC">normal</i>
   <i name="ENMAX">    450.00000000</i>
   <i name="ENAUG">    605.39200000</i>
   <i name="EDIFF">      0.00001000</i>
   <i type="int" name="IALGO">    58</i>
   <i type="int" name="IWAVPR">    10</i>
   <i type="int" name="NBANDS">   633</i>
   <i type="int" name="NBANDSLOW">    -1</i>
   <i type="int" name="NBANDSHIGH">    -1</i>
   <i name="NELECT">   1055.00000000</i>
   <i type="int" name="TURBO">     0</i>
   <i type="int" name="IRESTART">     0</i>
   <i type="int" name="NREBOOT">     0</i>
   <i type="int" name="NMIN">     0</i>
   <i name="EREF">      0.00000000</i>
   <separator name="electronic smearing" >
    <i type="int" name="ISMEAR">     0</i>
    <i name="SIGMA">      0.05000000</i>
    <i name="KSPACING">      0.50000000</i>
    <i type="logical" name="KGAMMA"> T  </i>
    <i type="logical" name="KBLOWUP"> T  </i>
   </separator>
   <separator name="electronic projectors" >
    <i type="logical" name="LREAL"> T  </i>
    <v name="ROPT">     -0.00050000     -0.00050000     -0.00050000</v>
    <i type="int" name="LMAXPAW">  -100</i>
    <i type="int" name="LMAXMIX">     2</i>
    <i type="logical" name="NLSPLINE"> F  </i>
   </separator>
   <separator name="electronic startup" >
    <i type="int" name="ISTART">     0</i>
    <i type="int" name="ICHARG">     0</i>
    <i type="int" name="INIWAV">     1</i>
   </separator>
   <separator name="electronic spin" >
    <i type="int" name="ISPIN">     1</i>
    <i type="logical" name="LNONCOLLINEAR"> F  </i>
    <v name="MAGMOM">      1.00000000      1.00000000      1.00000000      1.00000000      1.00000000      1.00000000      1.00000000      1.00000000      1.00000000      1.00000000      1.00000000      1.00000000      1.00000000      1.00000000      1.00000000      1.00000000      1.00000000      1.00000000      1.00000000      1.00000000
      1.00000000      1.00000000      1.00000000      1.00000000      1.00000000      1.00000000      1.00000000      1.00000000      1.00000000      1.00000000      1.00000000      1.00000000      1.00000000      1.00000000      1.00000000      1.00000000      1.00000000      1.00000000      1.00000000      1.00000000
      1.00000000      1.00000000      1.00000000      1.00000000      1.00000000      1.00000000      1.00000000      1.00000000      1.00000000      1.00000000      1.00000000      1.00000000      1.00000000      1.00000000      1.00000000      1.00000000      1.00000000      1.00000000      1.00000000      1.00000000
      1.00000000      1.00000000      1.00000000      1.00000000      1.00000000      1.00000000      1.00000000      1.00000000      1.00000000      1.00000000      1.00000000      1.00000000      1.00000000      1.00000000      1.00000000      1.00000000      1.00000000      1.00000000      1.00000000      1.00000000
      1.00000000      1.00000000      1.00000000      1.00000000      1.00000000      1.00000000      1.00000000      1.00000000      1.00000000      1.00000000      1.00000000      1.00000000      1.00000000      1.00000000      1.00000000      1.00000000      1.00000000      1.00000000      1.00000000      1.00000000
      1.00000000      1.00000000      1.00000000      1.00000000      1.00000000      1.00000000      1.00000000      1.00000000      1.00000000      1.00000000      1.00000000      1.00000000      1.00000000      1.00000000      1.00000000      1.00000000      1.00000000      1.00000000      1.00000000      1.00000000
</v>
    <i name="NUPDOWN">     -1.00000000</i>
    <i type="logical" name="LSORBIT"> F  </i>
    <v name="SAXIS">      0.00000000      0.00000000      1.00000000</v>
    <i type="logical" name="LSPIRAL"> F  </i>
    <v name="QSPIRAL">      0.00000000      0.00000000      0.00000000</v>
    <i type="logical" name="LZEROZ"> F  </i>
   </separator>
   <separator name="electronic exchange-correlation" >
    <i type="logical" name="LASPH"> F  </i>
    <i type="logical" name="LMETAGGA"> F  </i>
   </separator>
   <separator name="electronic convergence" >
    <i type="int" name="NELM">   500</i>
    <i type="int" name="NELMDL">    -5</i>
    <i type="int" name="NELMIN">     2</i>
    <i name="ENINI">    450.00000000</i>
    <separator name="electronic convergence detail" >
     <i type="logical" name="LDIAG"> T  </i>
     <i type="logical" name="LSUBROT"> F  </i>
     <i name="WEIMIN">      0.00000000</i>
     <i name="EBREAK">      0.00000000</i>
     <i name="DEPER">      0.30000000</i>
     <i type="int" name="NRMM">     4</i>
     <i name="TIME">      0.40000000</i>
    </separator>
   </separator>
   <separator name="electronic mixer" >
    <i name="AMIX">      0.40000000</i>
    <i name="BMIX">      1.00000000</i>
    <i name="AMIN">      0.10000000</i>
    <i name="AMIX_MAG">      1.60000000</i>
    <i name="BMIX_MAG">      1.00000000</i>
    <separator name="electronic mixer details" >
     <i type="int" name="IMIX">     4</i>
     <i type="logical" name="MIXFIRST"> F  </i>
     <i type="int" name="MAXMIX">   -45</i>
     <i name="WC">    100.00000000</i>
     <i type="int" name="INIMIX">     1</i>
     <i type="int" name="MIXPRE">     1</i>
     <i type="int" name="MREMOVE">     5</i>
    </separator>
   </separator>
   <separator name="electronic dipolcorrection" >
    <i type="logical" name="LDIPOL"> F  </i>
    <i type="logical" name="LMONO"> F  </i>
    <i type="int" name="IDIPOL">     0</i>
    <i name="EPSILON">      1.00000000</i>
    <v name="DIPOL">   -100.00000000   -100.00000000   -100.00000000</v>
    <i name="EFIELD">      0.00000000</i>
   </separator>
  </separator>
  <separator name="grids" >
   <i type="int" name="NGX">    64</i>
   <i type="int" name="NGY">    48</i>
   <i type="int" name="NGZ">    60</i>
   <i type="int" name="NGXF">   128</i>
   <i type="int" name="NGYF">    96</i>
   <i type="int" name="NGZF">   120</i>
   <i type="logical" name="ADDGRID"> F  </i>
  </separator>
  <separator name="ionic" >
   <i type="int" name="NSW">     0</i>
   <i type="int" name="IBRION">    -1</i>
   <i type="int" name="MDALGO">     0</i>
   <i type="int" name="ISIF">     2</i>
   <i name="PSTRESS">      0.00000000</i>
   <i name="EDIFFG">     -0.00500000</i>
   <i type="int" name="NFREE">     0</i>
   <i name="POTIM">      0.50000000</i>
   <i name="SMASS">     -3.00000000</i>
   <i name="SCALEE">      1.00000000</i>
  </separator>
  <separator name="ionic md" >
   <i name="TEBEG">      0.00010000</i>
   <i name="TEEND">      0.00010000</i>
   <i type="int" name="NBLOCK">     1</i>
   <i type="int" name="KBLOCK">     1</i>
   <i type="int" name="NPACO">   256</i>
   <i name="APACO">     10.00000000</i>
  </separator>
  <separator name="symmetry" >
   <i type="int" name="ISYM">     3</i>
   <i name="SYMPREC">      0.00001000</i>
  </separator>
  <separator name="dos" >
   <i type="int" name="LORBIT">     0</i>
   <v name="RWIGS">     -1.00000000     -1.00000000     -1.00000000</v>
   <i type="int" name="NEDOS">   301</i>
   <i name="EMIN">     10.00000000</i>
   <i name="EMAX">    -10.00000000</i>
   <i name="EFERMI">      0.00000000</i>
  </separator>
  <separator name="writing" >
   <i type="int" name="NWRITE">     2</i>
   <i type="logical" name="LWAVE"> T  </i>
   <i type="logical" name="LDOWNSAMPLE"> F  </i>
   <i type="logical" name="LCHARG"> T  </i>
   <i type="logical" name="LPARD"> F  </i>
   <i type="logical" name="LVTOT"> F  </i>
   <i type="logical" name="LVHAR"> F  </i>
   <i type="logical" name="LELF"> F  </i>
   <i type="logical" name="LOPTICS"> F  </i>
   <v name="STM">      0.00000000      0.00000000      0.00000000      0.00000000      0.00000000      0.00000000      0.00000000</v>
  </separator>
  <separator name="performance" >
   <i type="int" name="NPAR">     1</i>
   <i type="int" name="NSIM">     4</i>
   <i type="int" name="NBLK">    -1</i>
   <i type="logical" name="LPLANE"> T  </i>
   <i type="logical" name="LSCALAPACK"> T  </i>
   <i type="logical" name="LSCAAWARE"> F  </i>
   <i type="logical" name="LSCALU"> F  </i>
   <i type="logical" name="LASYNC"> F  </i>
   <i type="logical" name="LORBITALREAL"> F  </i>
  </separator>
  <separator name="miscellaneous" >
   <i type="int" name="IDIOT">     3</i>
   <i type="int" name="PHON_NSTRUCT">    -1</i>
   <i type="logical" name="LMUSIC"> F  </i>
   <v name="POMASS">     69.72300000     16.00000000     30.97400000</v>
   <v name="DARWINR">      0.00000000      0.00000000      0.00000000</v>
   <v name="DARWINV">      1.00000000      1.00000000      1.00000000</v>
   <i type="logical" name="LCORR"> T  </i>
  </separator>
  <i type="logical" name="GGA_COMPAT"> T  </i>
  <i type="logical" name="LBERRY"> F  </i>
  <i type="int" name="ICORELEVEL">     0</i>
  <i type="logical" name="LDAU"> F  </i>
  <i type="int" name="I_CONSTRAINED_M">     0</i>
  <separator name="electronic exchange-correlation" >
   <i type="string" name="GGA">--</i>
   <i type="int" name="VOSKOWN">     0</i>
   <i type="logical" name="LHFCALC"> T  </i>
   <i type="string" name="PRECFOCK">fast</i>
   <i type="logical" name="LSYMGRAD"> F  </i>
   <i type="logical" name="LHFONE"> F  </i>
   <i type="logical" name="LRHFCALC"> F  </i>
   <i type="logical" name="LTHOMAS"> F  </i>
   <i type="logical" name="LMODELHF"> F  </i>
   <i type="logical" name="LFOCKACE"> T  </i>
   <i name="ENCUT4O">     -1.00000000</i>
   <i type="int" name="EXXOEP">     0</i>
   <i type="int" name="FOURORBIT">     0</i>
   <i name="AEXX">      0.32000000</i>
   <i name="HFALPHA">     -1.00000000</i>
   <i name="MCALPHA">      0.00000000</i>
   <i name="ALDAX">      0.68000000</i>
   <i name="AGGAX">      0.68000000</i>
   <i name="ALDAC">      1.00000000</i>
   <i name="AGGAC">      1.00000000</i>
   <i type="int" name="NKREDX">     1</i>
   <i type="int" name="NKREDY">     1</i>
   <i type="int" name="NKREDZ">     1</i>
   <i type="logical" name="SHIFTRED"> F  </i>
   <i type="logical" name="ODDONLY"> F  </i>
   <i type="logical" name="EVENONLY"> F  </i>
   <i type="int" name="LMAXFOCK">     4</i>
   <i type="int" name="NMAXFOCKAE">     1</i>
   <i type="logical" name="LFOCKAEDFT"> F  </i>
   <i name="HFSCREEN">      0.20000000</i>
   <i name="HFSCREENC">      0.20000000</i>
   <i type="int" name="NBANDSGWLOW">     1</i>
  </separator>
  <separator name="vdW DFT" >
   <i type="logical" name="LUSE_VDW"> F  </i>
   <i type="int" name="IVDW_NL">     1</i>
   <i type="logical" name="LSPIN_VDW"> F  </i>
   <i name="Zab_VDW">     -0.84910000</i>
   <i name="PARAM1">      0.12340000</i>
   <i name="PARAM2">      1.00000000</i>
   <i name="PARAM3">      0.00000000</i>
  </separator>
  <separator name="model GW" >
   <i type="int" name="MODEL_GW">     0</i>
   <i name="MODEL_EPS0">      6.34402578</i>
   <i name="MODEL_ALPHA">      1.00000000</i>
  </separator>
  <separator name="linear response parameters" >
   <i type="logical" name="LEPSILON"> F  </i>
   <i type="logical" name="LRPA"> F  </i>
   <i type="logical" name="LNABLA"> F  </i>
   <i type="logical" name="LVEL"> F  </i>
   <i name="CSHIFT">      0.10000000</i>
   <i name="OMEGAMAX">     -1.00000000</i>
   <i name="DEG_THRESHOLD">      0.00200000</i>
   <i name="RTIME">     -0.10000000</i>
   <i name="WPLASMAI">      0.00000000</i>
   <v name="DFIELD">      0.00000000      0.00000000      0.00000000</v>
   <v name="WPLASMA">      0.00000000      0.00000000      0.00000000      0.00000000      0.00000000      0.00000000      0.00000000      0.00000000      0.00000000</v>
  </separator>
  <separator name="orbital magnetization" >
   <i type="logical" name="NUCIND"> F  </i>
   <v name="MAGPOS">      0.00000000      0.00000000      0.00000000</v>
   <i type="logical" name="LNICSALL"> T  </i>
   <i type="logical" name="ORBITALMAG"> F  </i>
   <i type="logical" name="LMAGBLOCH"> F  </i>
   <i type="logical" name="LCHIMAG"> F  </i>
   <i type="logical" name="LGAUGE"> T  </i>
   <i type="int" name="MAGATOM">     0</i>
   <v name="MAGDIPOL">      0.00000000      0.00000000      0.00000000</v>
   <v name="AVECCONST">      0.00000000      0.00000000      0.00000000</v>
  </separator>
  <separator name="response functions" >
   <i type="logical" name="LALL_IN_ONE"> F  </i>
   <i type="int" name="IALL_IN_ONE">    -1</i>
   <i type="int" name="NBANDS_WAVE">    -1</i>
   <i type="logical" name="LFINITE_TEMPERATURE"> F  </i>
   <i type="logical" name="LADDER"> F  </i>
   <i type="logical" name="LRPAFORCE"> F  </i>
   <i type="logical" name="LFXC"> F  </i>
   <i type="logical" name="LHARTREE"> T  </i>
   <i type="int" name="IBSE">     0</i>
   <v type="int" name="KPOINT">    -1     0     0     0</v>
   <i type="logical" name="LTCTC"> F  </i>
   <i type="logical" name="LTCTE"> F  </i>
   <i type="logical" name="LTETE"> F  </i>
   <i type="logical" name="LTRIPLET"> F  </i>
   <i type="logical" name="LFXCEPS"> F  </i>
   <i type="logical" name="LFXHEG"> F  </i>
   <i type="int" name="NATURALO">     2</i>
   <i type="logical" name="LHOLEGF"> F  </i>
   <i type="logical" name="L2ORDER"> F  </i>
   <i type="logical" name="LDMP1"> F  </i>
   <i type="logical" name="LMP2LT"> F  </i>
   <i type="logical" name="LSMP2LT"> F  </i>
   <i type="logical" name="LGWLF"> F  </i>
   <i name="ENCUTGW">     -1.60000002</i>
   <i name="ENCUTGWSOFT">     -1.60000002</i>
   <i name="ENCUTLF">     -1.00000000</i>
   <i type="logical" name="LESF_SPLINES"> F  </i>
   <i type="int" name="LMAXMP2">    -1</i>
   <i name="SCISSOR">      0.00000000</i>
   <i type="int" name="NOMEGA">     0</i>
   <i type="int" name="NOMEGAR">     0</i>
   <i type="int" name="NBANDSGW">    -1</i>
   <i type="int" name="NBANDSO">    -1</i>
   <i type="int" name="NBANDSV">    -1</i>
   <i type="int" name="NELMGW">     1</i>
   <i type="int" name="NELMHF">     1</i>
   <i type="int" name="DIM">     3</i>
   <i type="int" name="IESPILON">     4</i>
   <i type="int" name="ANTIRES">     0</i>
   <i name="OMEGAMAX">    -30.00000000</i>
   <i name="OMEGAMIN">    -30.00000000</i>
   <i name="OMEGATL">   -200.00000000</i>
   <i type="int" name="OMEGAGRID">     0</i>
   <i name="CSHIFT">     -0.10000000</i>
   <i type="logical" name="LSELFENERGY"> F  </i>
   <i type="logical" name="LSPECTRAL"> F  </i>
   <i type="logical" name="LSPECTRALGW"> F  </i>
   <i type="logical" name="LSINGLES"> F  </i>
   <i type="logical" name="LFERMIGW"> F  </i>
   <i type="logical" name="ODDONLYGW"> F  </i>
   <i type="logical" name="EVENONLYGW"> F  </i>
   <i type="int" name="NKREDLFX">     1</i>
   <i type="int" name="NKREDLFY">     1</i>
   <i type="int" name="NKREDLFZ">     1</i>
   <i type="int" name="MAXMEM">  2800</i>
   <i type="int" name="TELESCOPE">     0</i>
   <i type="int" name="NTAUPAR">    -1</i>
   <i type="int" name="NOMEGAPAR">    -1</i>
   <i name="DAMP_NEWTON">      0.80000001</i>
   <i name="LAMBDA">      1.00000000</i>
  </separator>
  <separator name="External order field" >
   <i name="OFIELD_KAPPA">      0.00000000</i>
   <v name="OFIELD_K">      0.00000000      0.00000000      0.00000000</v>
   <i name="OFIELD_Q6_NEAR">      0.00000000</i>
   <i name="OFIELD_Q6_FAR">      0.00000000</i>
   <i name="OFIELD_A">      0.00000000</i>
  </separator>
  <separator name="optional k-points parameters" >
   <i type="int" name="KPOINTS_OPT_MODE">     1</i>
   <i type="logical" name="LKPOINTS_OPT"> F  </i>
  </separator>
 </parameters>
 <atominfo>
  <atoms>     120 </atoms>
  <types>       3 </types>
  <array name="atoms" >
   <dimension dim="1">ion</dimension>
   <field type="string">element</field>
   <field type="int">atomtype</field>
   <set>
    <rc><c>Ga</c><c>   1</c></rc>
    <rc><c>Ga</c><c>   1</c></rc>
    <rc><c>Ga</c><c>   1</c></rc>
    <rc><c>Ga</c><c>   1</c></rc>
    <rc><c>Ga</c><c>   1</c></rc>
    <rc><c>Ga</c><c>   1</c></rc>
    <rc><c>Ga</c><c>   1</c></rc>
    <rc><c>Ga</c><c>   1</c></rc>
    <rc><c>Ga</c><c>   1</c></rc>
    <rc><c>Ga</c><c>   1</c></rc>
    <rc><c>Ga</c><c>   1</c></rc>
    <rc><c>Ga</c><c>   1</c></rc>
    <rc><c>Ga</c><c>   1</c></rc>
    <rc><c>Ga</c><c>   1</c></rc>
    <rc><c>Ga</c><c>   1</c></rc>
    <rc><c>Ga</c><c>   1</c></rc>
    <rc><c>Ga</c><c>   1</c></rc>
    <rc><c>Ga</c><c>   1</c></rc>
    <rc><c>Ga</c><c>   1</c></rc>
    <rc><c>Ga</c><c>   1</c></rc>
    <rc><c>Ga</c><c>   1</c></rc>
    <rc><c>Ga</c><c>   1</c></rc>
    <rc><c>Ga</c><c>   1</c></rc>
    <rc><c>Ga</c><c>   1</c></rc>
    <rc><c>Ga</c><c>   1</c></rc>
    <rc><c>Ga</c><c>   1</c></rc>
    <rc><c>Ga</c><c>   1</c></rc>
    <rc><c>Ga</c><c>   1</c></rc>
    <rc><c>Ga</c><c>   1</c></rc>
    <rc><c>Ga</c><c>   1</c></rc>
    <rc><c>Ga</c><c>   1</c></rc>
    <rc><c>Ga</c><c>   1</c></rc>
    <rc><c>Ga</c><c>   1</c></rc>
    <rc><c>Ga</c><c>   1</c></rc>
    <rc><c>Ga</c><c>   1</c></rc>
    <rc><c>Ga</c><c>   1</c></rc>
    <rc><c>Ga</c><c>   1</c></rc>
    <rc><c>Ga</c><c>   1</c></rc>
    <rc><c>Ga</c><c>   1</c></rc>
    <rc><c>Ga</c><c>   1</c></rc>
    <rc><c>Ga</c><c>   1</c></rc>
    <rc><c>Ga</c><c>   1</c></rc>
    <rc><c>Ga</c><c>   1</c></rc>
    <rc><c>Ga</c><c>   1</c></rc>
    <rc><c>Ga</c><c>   1</c></rc>
    <rc><c>Ga</c><c>   1</c></rc>
    <rc><c>Ga</c><c>   1</c></rc>
    <rc><c>Ga</c><c>   1</c></rc>
    <rc><c>O </c><c>   2</c></rc>
    <rc><c>O </c><c>   2</c></rc>
    <rc><c>O </c><c>   2</c></rc>
    <rc><c>O </c><c>   2</c></rc>
    <rc><c>O </c><c>   2</c></rc>
    <rc><c>O </c><c>   2</c></rc>
    <rc><c>O </c><c>   2</c></rc>
    <rc><c>O </c><c>   2</c></rc>
    <rc><c>O </c><c>   2</c></rc>
    <rc><c>O </c><c>   2</c></rc>
    <rc><c>O </c><c>   2</c></rc>
    <rc><c>O </c><c>   2</c></rc>
    <rc><c>O </c><c>   2</c></rc>
    <rc><c>O </c><c>   2</c></rc>
    <rc><c>O </c><c>   2</c></rc>
    <rc><c>O </c><c>   2</c></rc>
    <rc><c>O </c><c>   2</c></rc>
    <rc><c>O </c><c>   2</c></rc>
    <rc><c>O </c><c>   2</c></rc>
    <rc><c>O </c><c>   2</c></rc>
    <rc><c>O </c><c>   2</c></rc>
    <rc><c>O </c><c>   2</c></rc>
    <rc><c>O </c><c>   2</c></rc>
    <rc><c>O </c><c>   2</c></rc>
    <rc><c>O </c><c>   2</c></rc>
    <rc><c>O </c><c>   2</c></rc>
    <rc><c>O </c><c>   2</c></rc>
    <rc><c>O </c><c>   2</c></rc>
    <rc><c>O </c><c>   2</c></rc>
    <rc><c>O </c><c>   2</c></rc>
    <rc><c>O </c><c>   2</c></rc>
    <rc><c>O </c><c>   2</c></rc>
    <rc><c>O </c><c>   2</c></rc>
    <rc><c>O </c><c>   2</c></rc>
    <rc><c>O </c><c>   2</c></rc>
    <rc><c>O </c><c>   2</c></rc>
    <rc><c>O </c><c>   2</c></rc>
    <rc><c>O </c><c>   2</c></rc>
    <rc><c>O </c><c>   2</c></rc>
    <rc><c>O </c><c>   2</c></rc>
    <rc><c>O </c><c>   2</c></rc>
    <rc><c>O </c><c>   2</c></rc>
    <rc><c>O </c><c>   2</c></rc>
    <rc><c>O </c><c>   2</c></rc>
    <rc><c>O </c><c>   2</c></rc>
    <rc><c>O </c><c>   2</c></rc>
    <rc><c>O </c><c>   2</c></rc>
    <rc><c>O </c><c>   2</c></rc>
    <rc><c>O </c><c>   2</c></rc>
    <rc><c>O </c><c>   2</c></rc>
    <rc><c>O </c><c>   2</c></rc>
    <rc><c>O </c><c>   2</c></rc>
    <rc><c>O </c><c>   2</c></rc>
    <rc><c>O </c><c>   2</c></rc>
    <rc><c>O </c><c>   2</c></rc>
    <rc><c>O </c><c>   2</c></rc>
    <rc><c>O </c><c>   2</c></rc>
    <rc><c>O </c><c>   2</c></rc>
    <rc><c>O </c><c>   2</c></rc>
    <rc><c>O </c><c>   2</c></rc>
    <rc><c>O </c><c>   2</c></rc>
    <rc><c>O </c><c>   2</c></rc>
    <rc><c>O </c><c>   2</c></rc>
    <rc><c>O </c><c>   2</c></rc>
    <rc><c>O </c><c>   2</c></rc>
    <rc><c>O </c><c>   2</c></rc>
    <rc><c>O </c><c>   2</c></rc>
    <rc><c>O </c><c>   2</c></rc>
    <rc><c>O </c><c>   2</c></rc>
    <rc><c>O </c><c>   2</c></rc>
    <rc><c>O </c><c>   2</c></rc>
    <rc><c>P </c><c>   3</c></rc>
   </set>
  </array>
  <array name="atomtypes" >
   <dimension dim="1">type</dimension>
   <field type="int">atomspertype</field>
   <field type="string">element</field>
   <field>mass</field>
   <field>valence</field>
   <field type="string">pseudopotential</field>
   <set>
    <rc><c>  48</c><c>Ga</c><c>     69.72300000</c><c>     13.00000000</c><c>  PAW_PBE Ga_d 06Jul2010                </c></rc>
    <rc><c>  71</c><c>O </c><c>     16.00000000</c><c>      6.00000000</c><c>   PAW_PBE O 08Apr2002                  </c></rc>
    <rc><c>   1</c><c>P </c><c>     30.97400000</c><c>      5.00000000</c><c>  PAW_PBE P 06Sep2000                   </c></rc>
   </set>
  </array>
 </atominfo>
 <structure name="initialpos" >
  <crystal>
   <varray name="basis" >
    <v>       0.00000000      12.28047342       0.00000000 </v>
    <v>       9.14270205       0.00000000       0.00000000 </v>
    <v>       0.00000000      -2.76826177     -11.30069772 </v>
   </varray>
   <i name="volume">   1268.80515525 </i>
   <varray name="rec_basis" >
    <v>       0.00000000       0.08143009      -0.01994742 </v>
    <v>       0.10937686      -0.00000000       0.00000000 </v>
    <v>       0.00000000       0.00000000      -0.08849011 </v>
   </varray>
  </crystal>
  <varray name="positions" >
   <v>       0.65780646       0.99654228       0.15346391 </v>
   <v>       0.65864618       0.99958986       0.65704571 </v>
   <v>       0.65780646       0.33679106       0.15346391 </v>
   <v>       0.65864618       0.33374347       0.65704571 </v>
   <v>       0.65892656       0.66666667       0.15560438 </v>
   <v>       0.65835640       0.66666667       0.65735927 </v>
   <v>       0.81701740       0.16666667       0.36128987 </v>
   <v>       0.84094386       0.16666667       0.84379936 </v>
   <v>       0.84119762       0.50119237       0.34104058 </v>
   <v>       0.84130993       0.50030512       0.84374081 </v>
   <v>       0.84119762       0.83214096       0.34104058 </v>
   <v>       0.84130993       0.83302821       0.84374081 </v>
   <v>       0.58366510       0.16666667       0.39957654 </v>
   <v>       0.59133529       0.16666667       0.89792622 </v>
   <v>       0.59368183       0.50161742       0.39832667 </v>
   <v>       0.58956149       0.50045648       0.89574874 </v>
   <v>       0.59368183       0.83171591       0.39832667 </v>
   <v>       0.58956149       0.83287685       0.89574874 </v>
   <v>       0.90665825       0.99668894       0.10379688 </v>
   <v>       0.90885467       0.99771244       0.60311919 </v>
   <v>       0.90665825       0.33664439       0.10379688 </v>
   <v>       0.90885467       0.33562089       0.60311919 </v>
   <v>       0.91117982       0.66666667       0.10358728 </v>
   <v>       0.90827646       0.66666667       0.60057648 </v>
   <v>       0.16311024       0.16666667       0.15720174 </v>
   <v>       0.16073989       0.16666667       0.65589088 </v>
   <v>       0.16119380       0.50054641       0.15635205 </v>
   <v>       0.16054521       0.50129492       0.65976285 </v>
   <v>       0.16119380       0.83278692       0.15635205 </v>
   <v>       0.16054521       0.83203842       0.65976285 </v>
   <v>       0.34332937       0.99823312       0.34252791 </v>
   <v>       0.34115055       0.00002935       0.84333019 </v>
   <v>       0.34332937       0.33510021       0.34252791 </v>
   <v>       0.34115055       0.33330398       0.84333019 </v>
   <v>       0.34266645       0.66666667       0.34303399 </v>
   <v>       0.34133115       0.66666667       0.84458967 </v>
   <v>       0.10330920       0.98506863       0.40205921 </v>
   <v>       0.09110760       0.00023728       0.89762644 </v>
   <v>       0.10330920       0.34826470       0.40205921 </v>
   <v>       0.09110760       0.33309606       0.89762644 </v>
   <v>       0.09492625       0.66666667       0.40011869 </v>
   <v>       0.09019358       0.66666667       0.89799719 </v>
   <v>       0.40993775       0.16666667       0.10081447 </v>
   <v>       0.40852816       0.16666667       0.60236263 </v>
   <v>       0.40990114       0.50057030       0.10163938 </v>
   <v>       0.40803242       0.50017581       0.60261597 </v>
   <v>       0.40990114       0.83276304       0.10163938 </v>
   <v>       0.40803242       0.83315753       0.60261597 </v>
   <v>       0.99599637       0.16666667       0.13108926 </v>
   <v>       0.99553729       0.16666667       0.61517415 </v>
   <v>       0.99832432       0.49962843       0.12843201 </v>
   <v>       0.99738348       0.50055832       0.62702013 </v>
   <v>       0.99832432       0.83370490       0.12843201 </v>
   <v>       0.99738348       0.83277501       0.62702013 </v>
   <v>       0.50364409       0.99654438       0.37283025 </v>
   <v>       0.50356654       0.00054600       0.87281385 </v>
   <v>       0.50364409       0.33678895       0.37283025 </v>
   <v>       0.50356654       0.33278733       0.87281385 </v>
   <v>       0.50447074       0.66666667       0.37433990 </v>
   <v>       0.50250109       0.66666667       0.87098761 </v>
   <v>       0.66518874       0.16666667       0.28053128 </v>
   <v>       0.67274032       0.16666667       0.78073871 </v>
   <v>       0.67042295       0.50248504       0.27865252 </v>
   <v>       0.67324392       0.49996650       0.78098848 </v>
   <v>       0.67042295       0.83084830       0.27865252 </v>
   <v>       0.67324392       0.83336684       0.78098848 </v>
   <v>       0.82069054       0.98698298       0.21477394 </v>
   <v>       0.82787578       0.00079627       0.72017185 </v>
   <v>       0.82069054       0.34635036       0.21477394 </v>
   <v>       0.82787578       0.33253707       0.72017185 </v>
   <v>       0.82774176       0.66666667       0.21862744 </v>
   <v>       0.82801690       0.66666667       0.71936636 </v>
   <v>       0.81943570       0.98931007       0.45080854 </v>
   <v>       0.83372477       0.00030546       0.94625392 </v>
   <v>       0.81943570       0.34402326       0.45080854 </v>
   <v>       0.83372477       0.33302788       0.94625392 </v>
   <v>       0.82983692       0.66666667       0.44471720 </v>
   <v>       0.83451628       0.66666667       0.94658095 </v>
   <v>       0.66791551       0.16666667       0.05472037 </v>
   <v>       0.66614489       0.16666667       0.55405567 </v>
   <v>       0.66595148       0.50229955       0.05121293 </v>
   <v>       0.66633574       0.50071276       0.55583721 </v>
   <v>       0.66595148       0.83103378       0.05121293 </v>
   <v>       0.66633574       0.83262058       0.55583721 </v>
   <v>       0.49652927       0.99985401       0.12605922 </v>
   <v>       0.49592415       0.99980805       0.62763394 </v>
   <v>       0.49652927       0.33347932       0.12605922 </v>
   <v>       0.49592415       0.33352528       0.62763394 </v>
   <v>       0.49663284       0.66666667       0.12507975 </v>
   <v>       0.49561597       0.66666667       0.62800556 </v>
   <v>       0.00347870       0.16666667       0.87038646 </v>
   <v>       0.00498447       0.50574969       0.37713269 </v>
   <v>       0.00382536       0.49958358       0.87244949 </v>
   <v>       0.00498447       0.82758364       0.37713269 </v>
   <v>       0.00382536       0.83374975       0.87244949 </v>
   <v>       0.17932849       0.99474130       0.27887582 </v>
   <v>       0.17173988       0.00108260       0.78002123 </v>
   <v>       0.17932849       0.33859204       0.27887582 </v>
   <v>       0.17173988       0.33225073       0.78002123 </v>
   <v>       0.17425890       0.66666667       0.28085112 </v>
   <v>       0.17261514       0.66666667       0.78185565 </v>
   <v>       0.33028457       0.16666667       0.21895280 </v>
   <v>       0.32831287       0.16666667       0.72051040 </v>
   <v>       0.32989413       0.50240150       0.21884902 </v>
   <v>       0.32886482       0.50053032       0.72196137 </v>
   <v>       0.32989413       0.83093184       0.21884902 </v>
   <v>       0.32886482       0.83280301       0.72196137 </v>
   <v>       0.33500756       0.16666667       0.44462196 </v>
   <v>       0.33137760       0.16666667       0.94526937 </v>
   <v>       0.33134572       0.50049392       0.44586749 </v>
   <v>       0.33112075       0.49934736       0.94589580 </v>
   <v>       0.33134572       0.83283941       0.44586749 </v>
   <v>       0.33112075       0.83398598       0.94589580 </v>
   <v>       0.16772804       0.00094750       0.05380413 </v>
   <v>       0.17687405       0.99615787       0.55884211 </v>
   <v>       0.16772804       0.33238583       0.05380413 </v>
   <v>       0.17687405       0.33717546       0.55884211 </v>
   <v>       0.16822495       0.66666667       0.05382128 </v>
   <v>       0.17207681       0.66666667       0.55698859 </v>
   <v>       0.99028463       0.16666667       0.34223069 </v>
  </varray>
 </structure>
 <calculation>
  <scstep>
   <time name="total">    3.92    3.92</time>
   <energy>
    <i name="alphaZ">   5529.70323211 </i>
    <i name="ewald"> -88666.59958538 </i>
    <i name="hartreedc">  -2115.67934224 </i>
    <i name="XCdc">   2791.99929965 </i>
    <i name="pawpsdc"> 343588.08822887 </i>
    <i name="pawaedc">-372923.37852842 </i>
    <i name="eentropy">     -0.01625934 </i>
    <i name="bandstr"> -40587.89753642 </i>
    <i name="atom"> 133646.93285989 </i>
    <i name="e_fr_energy"> -18736.84763129 </i>
    <i name="e_wo_entrp"> -18736.83137195 </i>
    <i name="e_0_energy"> -18736.83950162 </i>
   </energy>
  </scstep>
  <scstep>
   <time name="total">    3.10    3.10</time>
   <energy>
    <i name="e_fr_energy"> -63118.04650696 </i>
    <i name="e_wo_entrp"> -63118.02960320 </i>
    <i name="e_0_energy"> -63118.03805508 </i>
   </energy>
  </scstep>
  <scstep>
   <time name="total">    3.28    3.28</time>
   <energy>
    <i name="e_fr_energy"> -68006.90429230 </i>
    <i name="e_wo_entrp"> -68006.87023756 </i>
    <i name="e_0_energy"> -68006.88726493 </i>
   </energy>
  </scstep>
  <scstep>
   <time name="total">    3.67    3.67</time>
   <energy>
    <i name="e_fr_energy"> -68663.34844238 </i>
    <i name="e_wo_entrp"> -68663.31630562 </i>
    <i name="e_0_energy"> -68663.33237400 </i>
   </energy>
  </scstep>
  <scstep>
   <time name="total">  236.60  236.60</time>
   <energy>
    <i name="e_fr_energy"> -38492.02718604 </i>
    <i name="e_wo_entrp"> -38492.00745137 </i>
    <i name="e_0_energy"> -38492.01731870 </i>
   </energy>
  </scstep>
  <scstep>
   <time name="total">  471.00  470.97</time>
   <energy>
    <i name="e_fr_energy">  28883.13358015 </i>
    <i name="e_wo_entrp">  28883.16644116 </i>
    <i name="e_0_energy">  28883.15001065 </i>
   </energy>
  </scstep>
  <scstep>
   <time name="total">  471.93  471.92</time>
   <energy>
    <i name="e_fr_energy">   6120.03688960 </i>
    <i name="e_wo_entrp">   6120.07279720 </i>
    <i name="e_0_energy">   6120.05484340 </i>
   </energy>
  </scstep>
  <scstep>
   <time name="total">  473.16  473.15</time>
   <energy>
    <i name="e_fr_energy">   1681.23993866 </i>
    <i name="e_wo_entrp">   1681.26564475 </i>
    <i name="e_0_energy">   1681.25279171 </i>
   </energy>
  </scstep>
  <scstep>
   <time name="total">  471.82  471.82</time>
   <energy>
    <i name="e_fr_energy">    919.45185998 </i>
    <i name="e_wo_entrp">    919.45918232 </i>
    <i name="e_0_energy">    919.45552115 </i>
   </energy>
  </scstep>
  <scstep>
   <time name="total">  472.06  472.05</time>
   <energy>
    <i name="e_fr_energy">    223.74619519 </i>
    <i name="e_wo_entrp">    223.77387961 </i>
    <i name="e_0_energy">    223.76003740 </i>
   </energy>
  </scstep>
  <scstep>
   <time name="total">  471.95  471.96</time>
   <energy>
    <i name="e_fr_energy">   -137.15377971 </i>
    <i name="e_wo_entrp">   -137.14967724 </i>
    <i name="e_0_energy">   -137.15172848 </i>
   </energy>
  </scstep>
  <scstep>
   <time name="total">  471.05  471.06</time>
   <energy>
    <i name="e_fr_energy">   -468.45557987 </i>
    <i name="e_wo_entrp">   -468.44585013 </i>
    <i name="e_0_energy">   -468.45071500 </i>
   </energy>
  </scstep>
  <scstep>
   <time name="total">  471.20  471.20</time>
   <energy>
    <i name="e_fr_energy">   -694.01886412 </i>
    <i name="e_wo_entrp">   -694.00864406 </i>
    <i name="e_0_energy">   -694.01375409 </i>
   </energy>
  </scstep>
  <scstep>
   <time name="total">  470.68  470.65</time>
   <energy>
    <i name="e_fr_energy">   -824.89701499 </i>
    <i name="e_wo_entrp">   -824.88986634 </i>
    <i name="e_0_energy">   -824.89344067 </i>
   </energy>
  </scstep>
  <scstep>
   <time name="total">  470.41  470.39</time>
   <energy>
    <i name="e_fr_energy">   -888.12197111 </i>
    <i name="e_wo_entrp">   -888.11670705 </i>
    <i name="e_0_energy">   -888.11933908 </i>
   </energy>
  </scstep>
  <scstep>
   <time name="total">  470.27  470.25</time>
   <energy>
    <i name="e_fr_energy">   -919.91586969 </i>
    <i name="e_wo_entrp">   -919.91392186 </i>
    <i name="e_0_energy">   -919.91489578 </i>
   </energy>
  </scstep>
  <scstep>
   <time name="total">  470.01  469.99</time>
   <energy>
    <i name="e_fr_energy">   -932.32564318 </i>
    <i name="e_wo_entrp">   -932.32031303 </i>
    <i name="e_0_energy">   -932.32297810 </i>
   </energy>
  </scstep>
  <scstep>
   <time name="total">  470.46  470.44</time>
   <energy>
    <i name="e_fr_energy">   -940.30688785 </i>
    <i name="e_wo_entrp">   -940.30567265 </i>
    <i name="e_0_energy">   -940.30628025 </i>
   </energy>
  </scstep>
  <scstep>
   <time name="total">  470.29  470.29</time>
   <energy>
    <i name="e_fr_energy">   -944.32246663 </i>
    <i name="e_wo_entrp">   -944.31827073 </i>
    <i name="e_0_energy">   -944.32036868 </i>
   </energy>
  </scstep>
  <scstep>
   <time name="total">  470.45  470.44</time>
   <energy>
    <i name="e_fr_energy">   -945.80648261 </i>
    <i name="e_wo_entrp">   -945.79896007 </i>
    <i name="e_0_energy">   -945.80272134 </i>
   </energy>
  </scstep>
  <scstep>
   <time name="total">  470.66  470.68</time>
   <energy>
    <i name="e_fr_energy">   -947.54186580 </i>
    <i name="e_wo_entrp">   -947.53220339 </i>
    <i name="e_0_energy">   -947.53703460 </i>
   </energy>
  </scstep>
  <scstep>
   <time name="total">  471.08  471.06</time>
   <energy>
    <i name="e_fr_energy">   -948.53265032 </i>
    <i name="e_wo_entrp">   -948.51318736 </i>
    <i name="e_0_energy">   -948.52291884 </i>
   </energy>
  </scstep>
  <scstep>
   <time name="total">  470.42  470.42</time>
   <energy>
    <i name="e_fr_energy">   -949.18611078 </i>
    <i name="e_wo_entrp">   -949.16236847 </i>
    <i name="e_0_energy">   -949.17423963 </i>
   </energy>
  </scstep>
  <scstep>
   <time name="total">  470.50  470.49</time>
   <energy>
    <i name="e_fr_energy">   -949.54104257 </i>
    <i name="e_wo_entrp">   -949.52166439 </i>
    <i name="e_0_energy">   -949.53135348 </i>
   </energy>
  </scstep>
  <scstep>
   <time name="total">  470.52  470.49</time>
   <energy>
    <i name="e_fr_energy">   -949.75813352 </i>
    <i name="e_wo_entrp">   -949.74108054 </i>
    <i name="e_0_energy">   -949.74960703 </i>
   </energy>
  </scstep>
  <scstep>
   <time name="total">  470.30  470.31</time>
   <energy>
    <i name="e_fr_energy">   -949.90268549 </i>
    <i name="e_wo_entrp">   -949.88583685 </i>
    <i name="e_0_energy">   -949.89426117 </i>
   </energy>
  </scstep>
  <scstep>
   <time name="total">  470.65  470.63</time>
   <energy>
    <i name="e_fr_energy">   -949.98289847 </i>
    <i name="e_wo_entrp">   -949.96569967 </i>
    <i name="e_0_energy">   -949.97429907 </i>
   </energy>
  </scstep>
  <scstep>
   <time name="total">  470.46  470.45</time>
   <energy>
    <i name="e_fr_energy">   -950.03054190 </i>
    <i name="e_wo_entrp">   -950.01278446 </i>
    <i name="e_0_energy">   -950.02166318 </i>
   </energy>
  </scstep>
  <scstep>
   <time name="total">  470.64  470.65</time>
   <energy>
    <i name="e_fr_energy">   -950.06106040 </i>
    <i name="e_wo_entrp">   -950.04262162 </i>
    <i name="e_0_energy">   -950.05184101 </i>
   </energy>
  </scstep>
  <scstep>
   <time name="total">  470.52  470.51</time>
   <energy>
    <i name="e_fr_energy">   -950.07875298 </i>
    <i name="e_wo_entrp">   -950.05955366 </i>
    <i name="e_0_energy">   -950.06915332 </i>
   </energy>
  </scstep>
  <scstep>
   <time name="total">  470.58  470.60</time>
   <energy>
    <i name="e_fr_energy">   -950.08942805 </i>
    <i name="e_wo_entrp">   -950.06946294 </i>
    <i name="e_0_energy">   -950.07944549 </i>
   </energy>
  </scstep>
  <scstep>
   <time name="total">  470.38  470.39</time>
   <energy>
    <i name="e_fr_energy">   -950.09631847 </i>
    <i name="e_wo_entrp">   -950.07574414 </i>
    <i name="e_0_energy">   -950.08603131 </i>
   </energy>
  </scstep>
  <scstep>
   <time name="total">  470.49  470.49</time>
   <energy>
    <i name="e_fr_energy">   -950.10053084 </i>
    <i name="e_wo_entrp">   -950.07956780 </i>
    <i name="e_0_energy">   -950.09004932 </i>
   </energy>
  </scstep>
  <scstep>
   <time name="total">  470.70  470.69</time>
   <energy>
    <i name="e_fr_energy">   -950.10307338 </i>
    <i name="e_wo_entrp">   -950.08192202 </i>
    <i name="e_0_energy">   -950.09249770 </i>
   </energy>
  </scstep>
  <scstep>
   <time name="total">  470.72  470.70</time>
   <energy>
    <i name="e_fr_energy">   -950.10468170 </i>
    <i name="e_wo_entrp">   -950.08351407 </i>
    <i name="e_0_energy">   -950.09409788 </i>
   </energy>
  </scstep>
  <scstep>
   <time name="total">  470.30  470.30</time>
   <energy>
    <i name="e_fr_energy">   -950.10568257 </i>
    <i name="e_wo_entrp">   -950.08461771 </i>
    <i name="e_0_energy">   -950.09515014 </i>
   </energy>
  </scstep>
  <scstep>
   <time name="total">  470.97  470.95</time>
   <energy>
    <i name="e_fr_energy">   -950.10630608 </i>
    <i name="e_wo_entrp">   -950.08540588 </i>
    <i name="e_0_energy">   -950.09585598 </i>
   </energy>
  </scstep>
  <scstep>
   <time name="total">  470.67  470.68</time>
   <energy>
    <i name="e_fr_energy">   -950.10704310 </i>
    <i name="e_wo_entrp">   -950.08627015 </i>
    <i name="e_0_energy">   -950.09665663 </i>
   </energy>
  </scstep>
  <scstep>
   <time name="total">  470.74  470.75</time>
   <energy>
    <i name="e_fr_energy">   -950.10725802 </i>
    <i name="e_wo_entrp">   -950.08656404 </i>
    <i name="e_0_energy">   -950.09691103 </i>
   </energy>
  </scstep>
  <scstep>
   <time name="total">  470.55  470.55</time>
   <energy>
    <i name="e_fr_energy">   -950.10733161 </i>
    <i name="e_wo_entrp">   -950.08668761 </i>
    <i name="e_0_energy">   -950.09700961 </i>
   </energy>
  </scstep>
  <scstep>
   <time name="total">  470.32  470.31</time>
   <energy>
    <i name="e_fr_energy">   -950.10735847 </i>
    <i name="e_wo_entrp">   -950.08674127 </i>
    <i name="e_0_energy">   -950.09704987 </i>
   </energy>
  </scstep>
  <scstep>
   <time name="total">  701.58  701.61</time>
   <energy>
    <i name="alphaZ">   5529.70323211 </i>
    <i name="ewald"> -88666.59958538 </i>
    <i name="hartreedc"> -33939.26836679 </i>
    <i name="XCdc">   2901.52905836 </i>
    <i name="pawpsdc"> 122058.66305012 </i>
    <i name="pawaedc">-137625.67175007 </i>
    <i name="eentropy">     -0.02060420 </i>
    <i name="bandstr">  -8736.07195115 </i>
    <i name="atom"> 133646.93285989 </i>
    <i name="e_fr_energy">   -950.10736809 </i>
    <i name="e_wo_entrp">   -950.08676388 </i>
    <i name="e_0_energy">   -950.09706598 </i>
   </energy>
  </scstep>
  <structure>
   <crystal>
    <varray name="basis" >
     <v>       0.00000000      12.28047342       0.00000000 </v>
     <v>       9.14270205       0.00000000       0.00000000 </v>
     <v>       0.00000000      -2.76826177     -11.30069772 </v>
    </varray>
    <i name="volume">   1268.80515525 </i>
    <varray name="rec_basis" >
     <v>       0.00000000       0.08143009      -0.01994742 </v>
     <v>       0.10937686      -0.00000000       0.00000000 </v>
     <v>       0.00000000       0.00000000      -0.08849011 </v>
    </varray>
   </crystal>
   <varray name="positions" >
    <v>       0.65780646       0.99654228       0.15346391 </v>
    <v>       0.65864618       0.99958986       0.65704571 </v>
    <v>       0.65780646       0.33679106       0.15346391 </v>
    <v>       0.65864618       0.33374347       0.65704571 </v>
    <v>       0.65892656       0.66666667       0.15560438 </v>
    <v>       0.65835640       0.66666667       0.65735927 </v>
    <v>       0.81701740       0.16666667       0.36128987 </v>
    <v>       0.84094386       0.16666667       0.84379936 </v>
    <v>       0.84119762       0.50119237       0.34104058 </v>
    <v>       0.84130993       0.50030512       0.84374081 </v>
    <v>       0.84119762       0.83214096       0.34104058 </v>
    <v>       0.84130993       0.83302821       0.84374081 </v>
    <v>       0.58366510       0.16666667       0.39957654 </v>
    <v>       0.59133529       0.16666667       0.89792622 </v>
    <v>       0.59368183       0.50161742       0.39832667 </v>
    <v>       0.58956149       0.50045648       0.89574874 </v>
    <v>       0.59368183       0.83171591       0.39832667 </v>
    <v>       0.58956149       0.83287685       0.89574874 </v>
    <v>       0.90665825       0.99668894       0.10379688 </v>
    <v>       0.90885467       0.99771244       0.60311919 </v>
    <v>       0.90665825       0.33664439       0.10379688 </v>
    <v>       0.90885467       0.33562089       0.60311919 </v>
    <v>       0.91117982       0.66666667       0.10358728 </v>
    <v>       0.90827646       0.66666667       0.60057648 </v>
    <v>       0.16311024       0.16666667       0.15720174 </v>
    <v>       0.16073989       0.16666667       0.65589088 </v>
    <v>       0.16119380       0.50054641       0.15635205 </v>
    <v>       0.16054521       0.50129492       0.65976285 </v>
    <v>       0.16119380       0.83278692       0.15635205 </v>
    <v>       0.16054521       0.83203842       0.65976285 </v>
    <v>       0.34332937       0.99823312       0.34252791 </v>
    <v>       0.34115055       0.00002935       0.84333019 </v>
    <v>       0.34332937       0.33510021       0.34252791 </v>
    <v>       0.34115055       0.33330398       0.84333019 </v>
    <v>       0.34266645       0.66666667       0.34303399 </v>
    <v>       0.34133115       0.66666667       0.84458967 </v>
    <v>       0.10330920       0.98506863       0.40205921 </v>
    <v>       0.09110760       0.00023728       0.89762644 </v>
    <v>       0.10330920       0.34826470       0.40205921 </v>
    <v>       0.09110760       0.33309606       0.89762644 </v>
    <v>       0.09492625       0.66666667       0.40011869 </v>
    <v>       0.09019358       0.66666667       0.89799719 </v>
    <v>       0.40993775       0.16666667       0.10081447 </v>
    <v>       0.40852816       0.16666667       0.60236263 </v>
    <v>       0.40990114       0.50057030       0.10163938 </v>
    <v>       0.40803242       0.50017581       0.60261597 </v>
    <v>       0.40990114       0.83276304       0.10163938 </v>
    <v>       0.40803242       0.83315753       0.60261597 </v>
    <v>       0.99599637       0.16666667       0.13108926 </v>
    <v>       0.99553729       0.16666667       0.61517415 </v>
    <v>       0.99832432       0.49962843       0.12843201 </v>
    <v>       0.99738348       0.50055832       0.62702013 </v>
    <v>       0.99832432       0.83370490       0.12843201 </v>
    <v>       0.99738348       0.83277501       0.62702013 </v>
    <v>       0.50364409       0.99654438       0.37283025 </v>
    <v>       0.50356654       0.00054600       0.87281385 </v>
    <v>       0.50364409       0.33678895       0.37283025 </v>
    <v>       0.50356654       0.33278733       0.87281385 </v>
    <v>       0.50447074       0.66666667       0.37433990 </v>
    <v>       0.50250109       0.66666667       0.87098761 </v>
    <v>       0.66518874       0.16666667       0.28053128 </v>
    <v>       0.67274032       0.16666667       0.78073871 </v>
    <v>       0.67042295       0.50248504       0.27865252 </v>
    <v>       0.67324392       0.49996650       0.78098848 </v>
    <v>       0.67042295       0.83084830       0.27865252 </v>
    <v>       0.67324392       0.83336684       0.78098848 </v>
    <v>       0.82069054       0.98698298       0.21477394 </v>
    <v>       0.82787578       0.00079627       0.72017185 </v>
    <v>       0.82069054       0.34635036       0.21477394 </v>
    <v>       0.82787578       0.33253707       0.72017185 </v>
    <v>       0.82774176       0.66666667       0.21862744 </v>
    <v>       0.82801690       0.66666667       0.71936636 </v>
    <v>       0.81943570       0.98931007       0.45080854 </v>
    <v>       0.83372477       0.00030546       0.94625392 </v>
    <v>       0.81943570       0.34402326       0.45080854 </v>
    <v>       0.83372477       0.33302788       0.94625392 </v>
    <v>       0.82983692       0.66666667       0.44471720 </v>
    <v>       0.83451628       0.66666667       0.94658095 </v>
    <v>       0.66791551       0.16666667       0.05472037 </v>
    <v>       0.66614489       0.16666667       0.55405567 </v>
    <v>       0.66595148       0.50229955       0.05121293 </v>
    <v>       0.66633574       0.50071276       0.55583721 </v>
    <v>       0.66595148       0.83103378       0.05121293 </v>
    <v>       0.66633574       0.83262058       0.55583721 </v>
    <v>       0.49652927       0.99985401       0.12605922 </v>
    <v>       0.49592415       0.99980805       0.62763394 </v>
    <v>       0.49652927       0.33347932       0.12605922 </v>
    <v>       0.49592415       0.33352528       0.62763394 </v>
    <v>       0.49663284       0.66666667       0.12507975 </v>
    <v>       0.49561597       0.66666667       0.62800556 </v>
    <v>       0.00347870       0.16666667       0.87038646 </v>
    <v>       0.00498447       0.50574969       0.37713269 </v>
    <v>       0.00382536       0.49958358       0.87244949 </v>
    <v>       0.00498447       0.82758364       0.37713269 </v>
    <v>       0.00382536       0.83374975       0.87244949 </v>
    <v>       0.17932849       0.99474130       0.27887582 </v>
    <v>       0.17173988       0.00108260       0.78002123 </v>
    <v>       0.17932849       0.33859204       0.27887582 </v>
    <v>       0.17173988       0.33225073       0.78002123 </v>
    <v>       0.17425890       0.66666667       0.28085112 </v>
    <v>       0.17261514       0.66666667       0.78185565 </v>
    <v>       0.33028457       0.16666667       0.21895280 </v>
    <v>       0.32831287       0.16666667       0.72051040 </v>
    <v>       0.32989413       0.50240150       0.21884902 </v>
    <v>       0.32886482       0.50053032       0.72196137 </v>
    <v>       0.32989413       0.83093184       0.21884902 </v>
    <v>       0.32886482       0.83280301       0.72196137 </v>
    <v>       0.33500756       0.16666667       0.44462196 </v>
    <v>       0.33137760       0.16666667       0.94526937 </v>
    <v>       0.33134572       0.50049392       0.44586749 </v>
    <v>       0.33112075       0.49934736       0.94589580 </v>
    <v>       0.33134572       0.83283941       0.44586749 </v>
    <v>       0.33112075       0.83398598       0.94589580 </v>
    <v>       0.16772804       0.00094750       0.05380413 </v>
    <v>       0.17687405       0.99615787       0.55884211 </v>
    <v>       0.16772804       0.33238583       0.05380413 </v>
    <v>       0.17687405       0.33717546       0.55884211 </v>
    <v>       0.16822495       0.66666667       0.05382128 </v>
    <v>       0.17207681       0.66666667       0.55698859 </v>
    <v>       0.99028463       0.16666667       0.34223069 </v>
   </varray>
  </structure>
  <varray name="forces" >
   <v>      -0.06370590       0.12548983       0.01705365 </v>
   <v>      -0.01688455       0.06902715       0.01649820 </v>
   <v>       0.06370590       0.12548983       0.01705365 </v>
   <v>       0.01688455       0.06902715       0.01649820 </v>
   <v>       0.00000000       0.04949388      -0.00631412 </v>
   <v>       0.00000000       0.06943543       0.03524359 </v>
   <v>       0.00000000      -0.39073576      -0.00500100 </v>
   <v>       0.00000000      -0.05012674      -0.01894669 </v>
   <v>       0.03295933      -0.11922826       0.04394676 </v>
   <v>      -0.00087552      -0.06819609      -0.01859665 </v>
   <v>      -0.03295933      -0.11922826       0.04394676 </v>
   <v>       0.00087552      -0.06819609      -0.01859665 </v>
   <v>       0.00000000      -0.00236978       0.03750242 </v>
   <v>       0.00000000      -0.02399163       0.01060721 </v>
   <v>       0.00474326      -0.03758890       0.03534680 </v>
   <v>       0.00661316      -0.00626540      -0.01808181 </v>
   <v>      -0.00474326      -0.03758890       0.03534680 </v>
   <v>      -0.00661316      -0.00626540      -0.01808181 </v>
   <v>       0.00122416       0.02532645      -0.00745626 </v>
   <v>      -0.03141762      -0.02220806      -0.00502896 </v>
   <v>      -0.00122416       0.02532645      -0.00745626 </v>
   <v>       0.03141762      -0.02220806      -0.00502896 </v>
   <v>       0.00000000       0.00804836      -0.02348865 </v>
   <v>       0.00000000       0.01213900       0.00211740 </v>
   <v>       0.00000000       0.08596373       0.05689357 </v>
   <v>       0.00000000       0.11207719      -0.02847125 </v>
   <v>      -0.02104761       0.06564181      -0.01387344 </v>
   <v>      -0.00492416       0.09643008       0.00878288 </v>
   <v>       0.02104761       0.06564181      -0.01387344 </v>
   <v>       0.00492416       0.09643008       0.00878288 </v>
   <v>      -0.02104897      -0.08823672       0.00713119 </v>
   <v>      -0.00037568      -0.05947395      -0.00586732 </v>
   <v>       0.02104897      -0.08823672       0.00713119 </v>
   <v>       0.00037568      -0.05947395      -0.00586732 </v>
   <v>       0.00000000      -0.05141111       0.00940675 </v>
   <v>       0.00000000      -0.05068617       0.00637341 </v>
   <v>      -0.23989677       0.13138487      -0.00946448 </v>
   <v>       0.01282859      -0.03109695       0.00904351 </v>
   <v>       0.23989677       0.13138487      -0.00946448 </v>
   <v>      -0.01282859      -0.03109695       0.00904351 </v>
   <v>       0.00000000      -0.10921999       0.02433197 </v>
   <v>       0.00000000      -0.01172224       0.01168566 </v>
   <v>       0.00000000       0.02199238      -0.02633877 </v>
   <v>       0.00000000       0.02976549      -0.02770432 </v>
   <v>       0.00783723       0.02043225      -0.03178363 </v>
   <v>       0.00683435       0.03262425      -0.01491438 </v>
   <v>      -0.00783723       0.02043225      -0.03178363 </v>
   <v>      -0.00683435       0.03262425      -0.01491438 </v>
   <v>       0.00000000      -0.19840762       0.09863257 </v>
   <v>       0.00000000      -0.22129589      -0.04465188 </v>
   <v>       0.02367969      -0.18909249       0.12627138 </v>
   <v>      -0.01467764      -0.17931981       0.10475545 </v>
   <v>      -0.02367969      -0.18909249       0.12627138 </v>
   <v>       0.01467764      -0.17931981       0.10475545 </v>
   <v>       0.07478172       0.12442168      -0.12809568 </v>
   <v>      -0.00708946       0.16572727      -0.10933929 </v>
   <v>      -0.07478172       0.12442168      -0.12809568 </v>
   <v>       0.00708946       0.16572727      -0.10933929 </v>
   <v>       0.00000000       0.17012906      -0.10798721 </v>
   <v>       0.00000000       0.15883220      -0.12239135 </v>
   <v>       0.00000000       0.16061347      -0.32681972 </v>
   <v>       0.00000000      -0.03922488      -0.11207467 </v>
   <v>       0.01294466      -0.06886374      -0.11646877 </v>
   <v>       0.00340656      -0.04955660      -0.10376011 </v>
   <v>      -0.01294466      -0.06886374      -0.11646877 </v>
   <v>      -0.00340656      -0.04955660      -0.10376011 </v>
   <v>      -0.14763666      -0.00507553       0.19327635 </v>
   <v>      -0.00766674       0.05242358       0.12128712 </v>
   <v>       0.14763666      -0.00507553       0.19327635 </v>
   <v>       0.00766674       0.05242358       0.12128712 </v>
   <v>       0.00000000       0.05739595       0.09225345 </v>
   <v>       0.00000000       0.04106348       0.10359732 </v>
   <v>       0.18289581       0.43661821      -0.04496983 </v>
   <v>      -0.01699612       0.36595354      -0.06527739 </v>
   <v>      -0.18289581       0.43661821      -0.04496983 </v>
   <v>       0.01699612       0.36595354      -0.06527739 </v>
   <v>       0.00000000       0.41906080      -0.08848529 </v>
   <v>       0.00000000       0.38618186      -0.05532810 </v>
   <v>       0.00000000      -0.40986409       0.10936477 </v>
   <v>       0.00000000      -0.40596224       0.08149459 </v>
   <v>      -0.01825343      -0.40661064       0.08337345 </v>
   <v>       0.00146377      -0.37769879       0.06078919 </v>
   <v>       0.01825343      -0.40661064       0.08337345 </v>
   <v>      -0.00146377      -0.37769879       0.06078919 </v>
   <v>      -0.00299686      -0.15780454       0.12625749 </v>
   <v>       0.00770364      -0.17072682       0.11871931 </v>
   <v>       0.00299686      -0.15780454       0.12625749 </v>
   <v>      -0.00770364      -0.17072682       0.11871931 </v>
   <v>       0.00000000      -0.19320845       0.11391312 </v>
   <v>       0.00000000      -0.17511998       0.10754361 </v>
   <v>       0.00000000       0.18124299      -0.12908966 </v>
   <v>       0.04234875       0.27593996      -0.10312550 </v>
   <v>       0.01054520       0.17013710      -0.11820745 </v>
   <v>      -0.04234875       0.27593996      -0.10312550 </v>
   <v>      -0.01054520       0.17013710      -0.11820745 </v>
   <v>      -0.04225966       0.03344706      -0.13589223 </v>
   <v>      -0.01444920      -0.03724721      -0.09920271 </v>
   <v>       0.04225966       0.03344706      -0.13589223 </v>
   <v>       0.01444920      -0.03724721      -0.09920271 </v>
   <v>       0.00000000      -0.03431407      -0.13247154 </v>
   <v>       0.00000000      -0.03434198      -0.07684016 </v>
   <v>       0.00000000       0.01891615       0.13677692 </v>
   <v>       0.00000000       0.02839532       0.11774105 </v>
   <v>      -0.00551360       0.03612513       0.11256476 </v>
   <v>      -0.00763478       0.01560888       0.10615970 </v>
   <v>       0.00551360       0.03612513       0.11256476 </v>
   <v>       0.00763478       0.01560888       0.10615970 </v>
   <v>       0.00000000       0.36562560      -0.09427413 </v>
   <v>       0.00000000       0.41501307      -0.07143680 </v>
   <v>      -0.00277252       0.39596470      -0.08182256 </v>
   <v>       0.00961815       0.41947855      -0.06680116 </v>
   <v>       0.00277252       0.39596470      -0.08182256 </v>
   <v>      -0.00961815       0.41947855      -0.06680116 </v>
   <v>       0.00592463      -0.36993410       0.07353100 </v>
   <v>      -0.03316066      -0.42562750       0.11752824 </v>
   <v>      -0.00592463      -0.36993410       0.07353100 </v>
   <v>       0.03316066      -0.42562750       0.11752824 </v>
   <v>       0.00000000      -0.39716347       0.06306172 </v>
   <v>       0.00000000      -0.41731724       0.08360482 </v>
   <v>       0.00000000       0.04839737      -0.17260429 </v>
  </varray>
  <varray name="stress" >
   <v>     -23.09129141       0.00000000       0.00000000 </v>
   <v>       0.00000000     -25.96767881       0.52809977 </v>
   <v>       0.00000000       0.52810037     -32.45841727 </v>
  </varray>
  <energy>
   <i name="e_fr_energy">   -950.10736809 </i>
   <i name="e_wo_entrp">   -950.08676388 </i>
   <i name="e_0_energy">   -950.09706598 </i>
  </energy>
  <time name="totalsc">18491.9718494.05</time>
  <eigenvalues>
   <array>
    <dimension dim="1">band</dimension>
    <dimension dim="2">kpoint</dimension>
    <dimension dim="3">spin</dimension>
    <field>eigene</field>
    <field>occ</field>
    <set>
     <set comment="spin 1">
      <set comment="kpoint 1">
       <r>  -18.5847    1.0000 </r>
       <r>  -18.3151    1.0000 </r>
       <r>  -18.2483    1.0000 </r>
       <r>  -18.1664    1.0000 </r>
       <r>  -18.0266    1.0000 </r>
       <r>  -17.9020    1.0000 </r>
       <r>  -17.8912    1.0000 </r>
       <r>  -17.8520    1.0000 </r>
       <r>  -17.7606    1.0000 </r>
       <r>  -17.7395    1.0000 </r>
       <r>  -17.7037    1.0000 </r>
       <r>  -17.6395    1.0000 </r>
       <r>  -17.6351    1.0000 </r>
       <r>  -17.6237    1.0000 </r>
       <r>  -17.6013    1.0000 </r>
       <r>  -17.5842    1.0000 </r>
       <r>  -17.5775    1.0000 </r>
       <r>  -17.5568    1.0000 </r>
       <r>  -17.4865    1.0000 </r>
       <r>  -17.4644    1.0000 </r>
       <r>  -17.4639    1.0000 </r>
       <r>  -17.4238    1.0000 </r>
       <r>  -17.4156    1.0000 </r>
       <r>  -17.3985    1.0000 </r>
       <r>  -17.3942    1.0000 </r>
       <r>  -17.3273    1.0000 </r>
       <r>  -17.3013    1.0000 </r>
       <r>  -17.2869    1.0000 </r>
       <r>  -17.2682    1.0000 </r>
       <r>  -17.2568    1.0000 </r>
       <r>  -17.2499    1.0000 </r>
       <r>  -17.2426    1.0000 </r>
       <r>  -17.2162    1.0000 </r>
       <r>  -17.2130    1.0000 </r>
       <r>  -17.1852    1.0000 </r>
       <r>  -17.1658    1.0000 </r>
       <r>  -17.1440    1.0000 </r>
       <r>  -17.1383    1.0000 </r>
       <r>  -17.1029    1.0000 </r>
       <r>  -17.0918    1.0000 </r>
       <r>  -17.0853    1.0000 </r>
       <r>  -17.0670    1.0000 </r>
       <r>  -17.0606    1.0000 </r>
       <r>  -17.0470    1.0000 </r>
       <r>  -17.0448    1.0000 </r>
       <r>  -17.0223    1.0000 </r>
       <r>  -16.9804    1.0000 </r>
       <r>  -16.9637    1.0000 </r>
       <r>  -16.9419    1.0000 </r>
       <r>  -16.9415    1.0000 </r>
       <r>  -16.9194    1.0000 </r>
       <r>  -16.8879    1.0000 </r>
       <r>  -16.8848    1.0000 </r>
       <r>  -16.8570    1.0000 </r>
       <r>  -16.8375    1.0000 </r>
       <r>  -16.8317    1.0000 </r>
       <r>  -16.8188    1.0000 </r>
       <r>  -16.8142    1.0000 </r>
       <r>  -16.8038    1.0000 </r>
       <r>  -16.7920    1.0000 </r>
       <r>  -16.7849    1.0000 </r>
       <r>  -16.7805    1.0000 </r>
       <r>  -16.7709    1.0000 </r>
       <r>  -16.7667    1.0000 </r>
       <r>  -16.7576    1.0000 </r>
       <r>  -16.7511    1.0000 </r>
       <r>  -16.7462    1.0000 </r>
       <r>  -16.7415    1.0000 </r>
       <r>  -16.7150    1.0000 </r>
       <r>  -16.6819    1.0000 </r>
       <r>  -16.6493    1.0000 </r>
       <r>  -12.9742    1.0000 </r>
       <r>  -12.9687    1.0000 </r>
       <r>  -12.9518    1.0000 </r>
       <r>  -12.9298    1.0000 </r>
       <r>  -12.9178    1.0000 </r>
       <r>  -12.9129    1.0000 </r>
       <r>  -12.9088    1.0000 </r>
       <r>  -12.9075    1.0000 </r>
       <r>  -12.8992    1.0000 </r>
       <r>  -12.8918    1.0000 </r>
       <r>  -12.8907    1.0000 </r>
       <r>  -12.8836    1.0000 </r>
       <r>  -12.8791    1.0000 </r>
       <r>  -12.8714    1.0000 </r>
       <r>  -12.8678    1.0000 </r>
       <r>  -12.8671    1.0000 </r>
       <r>  -12.8585    1.0000 </r>
       <r>  -12.8535    1.0000 </r>
       <r>  -12.8504    1.0000 </r>
       <r>  -12.8447    1.0000 </r>
       <r>  -12.8374    1.0000 </r>
       <r>  -12.8363    1.0000 </r>
       <r>  -12.8313    1.0000 </r>
       <r>  -12.8291    1.0000 </r>
       <r>  -12.8272    1.0000 </r>
       <r>  -12.8210    1.0000 </r>
       <r>  -12.8184    1.0000 </r>
       <r>  -12.8153    1.0000 </r>
       <r>  -12.8116    1.0000 </r>
       <r>  -12.8098    1.0000 </r>
       <r>  -12.8089    1.0000 </r>
       <r>  -12.8001    1.0000 </r>
       <r>  -12.7965    1.0000 </r>
       <r>  -12.7958    1.0000 </r>
       <r>  -12.7906    1.0000 </r>
       <r>  -12.7878    1.0000 </r>
       <r>  -12.7867    1.0000 </r>
       <r>  -12.7854    1.0000 </r>
       <r>  -12.7801    1.0000 </r>
       <r>  -12.7789    1.0000 </r>
       <r>  -12.7782    1.0000 </r>
       <r>  -12.7747    1.0000 </r>
       <r>  -12.7694    1.0000 </r>
       <r>  -12.7686    1.0000 </r>
       <r>  -12.7674    1.0000 </r>
       <r>  -12.7661    1.0000 </r>
       <r>  -12.7601    1.0000 </r>
       <r>  -12.7596    1.0000 </r>
       <r>  -12.7549    1.0000 </r>
       <r>  -12.7530    1.0000 </r>
       <r>  -12.7499    1.0000 </r>
       <r>  -12.7479    1.0000 </r>
       <r>  -12.7468    1.0000 </r>
       <r>  -12.7452    1.0000 </r>
       <r>  -12.7433    1.0000 </r>
       <r>  -12.7413    1.0000 </r>
       <r>  -12.7372    1.0000 </r>
       <r>  -12.7324    1.0000 </r>
       <r>  -12.7310    1.0000 </r>
       <r>  -12.7297    1.0000 </r>
       <r>  -12.7278    1.0000 </r>
       <r>  -12.7275    1.0000 </r>
       <r>  -12.7249    1.0000 </r>
       <r>  -12.7220    1.0000 </r>
       <r>  -12.7185    1.0000 </r>
       <r>  -12.7143    1.0000 </r>
       <r>  -12.7128    1.0000 </r>
       <r>  -12.7115    1.0000 </r>
       <r>  -12.7092    1.0000 </r>
       <r>  -12.7060    1.0000 </r>
       <r>  -12.7001    1.0000 </r>
       <r>  -12.6970    1.0000 </r>
       <r>  -12.6918    1.0000 </r>
       <r>  -12.6906    1.0000 </r>
       <r>  -12.6831    1.0000 </r>
       <r>  -12.6808    1.0000 </r>
       <r>  -12.6800    1.0000 </r>
       <r>  -12.6734    1.0000 </r>
       <r>  -12.6727    1.0000 </r>
       <r>  -12.6675    1.0000 </r>
       <r>  -12.6641    1.0000 </r>
       <r>  -12.6579    1.0000 </r>
       <r>  -12.6575    1.0000 </r>
       <r>  -12.6539    1.0000 </r>
       <r>  -12.6508    1.0000 </r>
       <r>  -12.6495    1.0000 </r>
       <r>  -12.6463    1.0000 </r>
       <r>  -12.6445    1.0000 </r>
       <r>  -12.6439    1.0000 </r>
       <r>  -12.6429    1.0000 </r>
       <r>  -12.6378    1.0000 </r>
       <r>  -12.6335    1.0000 </r>
       <r>  -12.6297    1.0000 </r>
       <r>  -12.6296    1.0000 </r>
       <r>  -12.6261    1.0000 </r>
       <r>  -12.6230    1.0000 </r>
       <r>  -12.6209    1.0000 </r>
       <r>  -12.6207    1.0000 </r>
       <r>  -12.6168    1.0000 </r>
       <r>  -12.6156    1.0000 </r>
       <r>  -12.6130    1.0000 </r>
       <r>  -12.6110    1.0000 </r>
       <r>  -12.6101    1.0000 </r>
       <r>  -12.6052    1.0000 </r>
       <r>  -12.6024    1.0000 </r>
       <r>  -12.6020    1.0000 </r>
       <r>  -12.5984    1.0000 </r>
       <r>  -12.5972    1.0000 </r>
       <r>  -12.5925    1.0000 </r>
       <r>  -12.5912    1.0000 </r>
       <r>  -12.5880    1.0000 </r>
       <r>  -12.5877    1.0000 </r>
       <r>  -12.5863    1.0000 </r>
       <r>  -12.5786    1.0000 </r>
       <r>  -12.5743    1.0000 </r>
       <r>  -12.5736    1.0000 </r>
       <r>  -12.5713    1.0000 </r>
       <r>  -12.5682    1.0000 </r>
       <r>  -12.5642    1.0000 </r>
       <r>  -12.5621    1.0000 </r>
       <r>  -12.5594    1.0000 </r>
       <r>  -12.5577    1.0000 </r>
       <r>  -12.5532    1.0000 </r>
       <r>  -12.5522    1.0000 </r>
       <r>  -12.5473    1.0000 </r>
       <r>  -12.5435    1.0000 </r>
       <r>  -12.5428    1.0000 </r>
       <r>  -12.5396    1.0000 </r>
       <r>  -12.5351    1.0000 </r>
       <r>  -12.5306    1.0000 </r>
       <r>  -12.5233    1.0000 </r>
       <r>  -12.5209    1.0000 </r>
       <r>  -12.5202    1.0000 </r>
       <r>  -12.5176    1.0000 </r>
       <r>  -12.5140    1.0000 </r>
       <r>  -12.5127    1.0000 </r>
       <r>  -12.5078    1.0000 </r>
       <r>  -12.5015    1.0000 </r>
       <r>  -12.5003    1.0000 </r>
       <r>  -12.4974    1.0000 </r>
       <r>  -12.4969    1.0000 </r>
       <r>  -12.4955    1.0000 </r>
       <r>  -12.4915    1.0000 </r>
       <r>  -12.4863    1.0000 </r>
       <r>  -12.4860    1.0000 </r>
       <r>  -12.4855    1.0000 </r>
       <r>  -12.4840    1.0000 </r>
       <r>  -12.4813    1.0000 </r>
       <r>  -12.4776    1.0000 </r>
       <r>  -12.4727    1.0000 </r>
       <r>  -12.4708    1.0000 </r>
       <r>  -12.4674    1.0000 </r>
       <r>  -12.4663    1.0000 </r>
       <r>  -12.4649    1.0000 </r>
       <r>  -12.4628    1.0000 </r>
       <r>  -12.4627    1.0000 </r>
       <r>  -12.4608    1.0000 </r>
       <r>  -12.4538    1.0000 </r>
       <r>  -12.4489    1.0000 </r>
       <r>  -12.4473    1.0000 </r>
       <r>  -12.4436    1.0000 </r>
       <r>  -12.4417    1.0000 </r>
       <r>  -12.4382    1.0000 </r>
       <r>  -12.4379    1.0000 </r>
       <r>  -12.4369    1.0000 </r>
       <r>  -12.4308    1.0000 </r>
       <r>  -12.4301    1.0000 </r>
       <r>  -12.4252    1.0000 </r>
       <r>  -12.4243    1.0000 </r>
       <r>  -12.4226    1.0000 </r>
       <r>  -12.4176    1.0000 </r>
       <r>  -12.4129    1.0000 </r>
       <r>  -12.4095    1.0000 </r>
       <r>  -12.4052    1.0000 </r>
       <r>  -12.4042    1.0000 </r>
[...]
       <r>   -12.0006   119.9983   571.0814 </r>
       <r>   -11.8644    86.5079   582.8583 </r>
       <r>   -11.7283   107.7845   597.5318 </r>
       <r>   -11.5921   115.5034   613.2561 </r>
       <r>   -11.4560    58.6466   621.2401 </r>
       <r>   -11.3199     5.5750   621.9991 </r>
       <r>   -11.1837     0.0067   622.0000 </r>
       <r>   -11.0476     0.0000   622.0000 </r>
       <r>   -10.9115     0.0000   622.0000 </r>
       <r>   -10.7753     0.0000   622.0000 </r>
       <r>   -10.6392     0.0000   622.0000 </r>
       <r>   -10.5031     0.0000   622.0000 </r>
       <r>   -10.3669     0.0000   622.0000 </r>
       <r>   -10.2308     0.0000   622.0000 </r>
       <r>   -10.0946     0.0000   622.0000 </r>
       <r>    -9.9585     0.0000   622.0000 </r>
       <r>    -9.8224     0.0000   622.0000 </r>
       <r>    -9.6862     0.0000   622.0000 </r>
       <r>    -9.5501     0.0000   622.0000 </r>
       <r>    -9.4140     0.0000   622.0000 </r>
       <r>    -9.2778     0.0000   622.0000 </r>
       <r>    -9.1417     0.0000   622.0000 </r>
       <r>    -9.0055     0.0000   622.0000 </r>
       <r>    -8.8694     0.0000   622.0000 </r>
       <r>    -8.7333     0.0000   622.0000 </r>
       <r>    -8.5971     0.0000   622.0000 </r>
       <r>    -8.4610     0.0000   622.0000 </r>
       <r>    -8.3249     0.0000   622.0000 </r>
       <r>    -8.1887     0.0000   622.0000 </r>
       <r>    -8.0526     0.0000   622.0000 </r>
       <r>    -7.9164     0.0000   622.0000 </r>
       <r>    -7.7803     0.0000   622.0000 </r>
       <r>    -7.6442     0.0000   622.0000 </r>
       <r>    -7.5080     0.0000   622.0000 </r>
       <r>    -7.3719     0.2868   622.0391 </r>
       <r>    -7.2358    13.4461   623.8696 </r>
       <r>    -7.0996     0.9581   624.0000 </r>
       <r>    -6.9635     0.0000   624.0000 </r>
       <r>    -6.8273     0.0000   624.0000 </r>
       <r>    -6.6912     0.0000   624.0000 </r>
       <r>    -6.5551     0.0000   624.0000 </r>
       <r>    -6.4189     0.0000   624.0000 </r>
       <r>    -6.2828     0.0000   624.0000 </r>
       <r>    -6.1467     0.0000   624.0000 </r>
       <r>    -6.0105     0.0000   624.0000 </r>
       <r>    -5.8744     0.0000   624.0000 </r>
       <r>    -5.7382     0.0000   624.0000 </r>
       <r>    -5.6021     0.0000   624.0000 </r>
       <r>    -5.4660     0.0000   624.0000 </r>
       <r>    -5.3298     0.0000   624.0000 </r>
       <r>    -5.1937     0.0001   624.0000 </r>
       <r>    -5.0576     2.2956   624.3125 </r>
       <r>    -4.9214     7.2883   625.3047 </r>
       <r>    -4.7853    19.9625   628.0224 </r>
       <r>    -4.6491    25.0766   631.4363 </r>
       <r>    -4.5130    33.9353   636.0561 </r>
       <r>    -4.3769    30.6682   640.2312 </r>
       <r>    -4.2407    48.3178   646.8091 </r>
       <r>    -4.1046    45.8280   653.0480 </r>
       <r>    -3.9685    58.0580   660.9518 </r>
       <r>    -3.8323    50.7289   667.8579 </r>
       <r>    -3.6962    34.9478   672.6156 </r>
       <r>    -3.5600    60.1500   680.8043 </r>
       <r>    -3.4239    34.3921   685.4863 </r>
       <r>    -3.2878    34.0270   690.1187 </r>
       <r>    -3.1516    24.7112   693.4828 </r>
       <r>    -3.0155    36.9187   698.5088 </r>
       <r>    -2.8794    30.8369   702.7069 </r>
       <r>    -2.7432    45.2124   708.8620 </r>
       <r>    -2.6071    29.4535   712.8717 </r>
       <r>    -2.4709    35.9377   717.7642 </r>
       <r>    -2.3348    39.2963   723.1139 </r>
       <r>    -2.1987    31.6782   727.4264 </r>
       <r>    -2.0625    51.2083   734.3978 </r>
       <r>    -1.9264    38.2313   739.6025 </r>
       <r>    -1.7903    36.7201   744.6015 </r>
       <r>    -1.6541    67.6637   753.8131 </r>
       <r>    -1.5180    68.1392   763.0894 </r>
       <r>    -1.3818    53.2282   770.3357 </r>
       <r>    -1.2457    64.6296   779.1342 </r>
       <r>    -1.1096    68.5905   788.4719 </r>
       <r>    -0.9734    49.6668   795.2334 </r>
       <r>    -0.8373    49.8149   802.0151 </r>
       <r>    -0.7012    77.0061   812.4985 </r>
       <r>    -0.5650    60.7953   820.7750 </r>
       <r>    -0.4289    77.7174   831.3553 </r>
       <r>    -0.2927    66.9038   840.4634 </r>
       <r>    -0.1566    56.6663   848.1778 </r>
       <r>    -0.0205    72.8983   858.1020 </r>
       <r>     0.1157    76.2350   868.4804 </r>
       <r>     0.2518    80.1947   879.3979 </r>
       <r>     0.3879    74.0314   889.4764 </r>
       <r>     0.5241    63.1023   898.0669 </r>
       <r>     0.6602    76.3109   908.4557 </r>
       <r>     0.7964    96.2436   921.5581 </r>
       <r>     0.9325    88.1135   933.5536 </r>
       <r>     1.0686    88.7033   945.6294 </r>
       <r>     1.2048    81.1952   956.6831 </r>
       <r>     1.3409   125.4649   973.7636 </r>
       <r>     1.4770   114.9519   989.4128 </r>
       <r>     1.6132   124.6434  1006.3815 </r>
       <r>     1.7493   125.8641  1023.5163 </r>
       <r>     1.8855    83.2039  1034.8434 </r>
       <r>     2.0216    43.2014  1040.7248 </r>
       <r>     2.1577    55.5136  1048.2822 </r>
       <r>     2.2939    12.5773  1049.9945 </r>
       <r>     2.4300     0.0406  1050.0000 </r>
       <r>     2.5661     0.0000  1050.0000 </r>
       <r>     2.7023     0.0000  1050.0000 </r>
       <r>     2.8384     0.0000  1050.0000 </r>
       <r>     2.9746     1.1868  1050.1616 </r>
       <r>     3.1107    14.0010  1052.0676 </r>
       <r>     3.2468     8.0188  1053.1593 </r>
       <r>     3.3830     6.1589  1053.9977 </r>
       <r>     3.5191     0.0165  1054.0000 </r>
       <r>     3.6552     0.0000  1054.0000 </r>
       <r>     3.7914     0.0000  1054.0000 </r>
       <r>     3.9275     0.0000  1054.0000 </r>
       <r>     4.0636     0.0000  1054.0000 </r>
       <r>     4.1998     0.0000  1054.0000 </r>
       <r>     4.3359     0.0000  1054.0000 </r>
       <r>     4.4721     0.0000  1054.0000 </r>
       <r>     4.6082     0.0000  1054.0000 </r>
       <r>     4.7443     0.0000  1054.0000 </r>
       <r>     4.8805     0.0000  1054.0000 </r>
       <r>     5.0166     0.0000  1054.0000 </r>
       <r>     5.1527     0.0000  1054.0000 </r>
       <r>     5.2889     0.0000  1054.0000 </r>
       <r>     5.4250     0.0000  1054.0000 </r>
       <r>     5.5612     0.0238  1054.0032 </r>
       <r>     5.6973     7.3855  1055.0087 </r>
       <r>     5.8334     7.2716  1055.9986 </r>
       <r>     5.9696     0.0101  1056.0000 </r>
       <r>     6.1057     0.0000  1056.0000 </r>
       <r>     6.2418     0.0000  1056.0000 </r>
       <r>     6.3780     0.0000  1056.0000 </r>
       <r>     6.5141     0.0000  1056.0000 </r>
       <r>     6.6503     0.0000  1056.0000 </r>
       <r>     6.7864     0.0003  1056.0000 </r>
       <r>     6.9225     1.1315  1056.1541 </r>
       <r>     7.0587     0.7045  1056.2500 </r>
       <r>     7.1948     0.0000  1056.2500 </r>
       <r>     7.3309     0.0000  1056.2500 </r>
       <r>     7.4671     0.0000  1056.2500 </r>
       <r>     7.6032     0.0015  1056.2502 </r>
       <r>     7.7394     2.0381  1056.5277 </r>
       <r>     7.8755     4.4643  1057.1354 </r>
       <r>     8.0116     0.8456  1057.2505 </r>
       <r>     8.1478     3.2849  1057.6977 </r>
       <r>     8.2839     4.0332  1058.2468 </r>
       <r>     8.4200     0.0234  1058.2500 </r>
       <r>     8.5562     0.1291  1058.2676 </r>
       <r>     8.6923     8.3640  1059.4062 </r>
       <r>     8.8285     5.2832  1060.1255 </r>
       <r>     8.9646     4.7100  1060.7667 </r>
       <r>     9.1007     6.7989  1061.6923 </r>
       <r>     9.2369     2.5867  1062.0444 </r>
       <r>     9.3730     4.9914  1062.7239 </r>
       <r>     9.5091    13.8132  1064.6044 </r>
       <r>     9.6453     3.2197  1065.0428 </r>
       <r>     9.7814     2.5054  1065.3838 </r>
       <r>     9.9176    13.0307  1067.1578 </r>
       <r>    10.0537    18.4199  1069.6654 </r>
       <r>    10.1898    16.6612  1071.9336 </r>
       <r>    10.3260    12.3603  1073.6163 </r>
       <r>    10.4621    18.4525  1076.1284 </r>
       <r>    10.5982    27.1555  1079.8253 </r>
       <r>    10.7344    35.8926  1084.7116 </r>
       <r>    10.8705    37.0032  1089.7491 </r>
       <r>    11.0067    44.0658  1095.7481 </r>
       <r>    11.1428    29.5301  1099.7683 </r>
       <r>    11.2789    27.3427  1103.4907 </r>
       <r>    11.4151    27.9847  1107.3004 </r>
       <r>    11.5512    37.9301  1112.4641 </r>
       <r>    11.6873    29.9393  1116.5400 </r>
       <r>    11.8235    31.4759  1120.8250 </r>
       <r>    11.9596    35.0945  1125.6027 </r>
       <r>    12.0958    38.2182  1130.8056 </r>
       <r>    12.2319    36.3907  1135.7598 </r>
       <r>    12.3680    22.6839  1138.8479 </r>
       <r>    12.5042    37.4930  1143.9521 </r>
       <r>    12.6403    35.3822  1148.7689 </r>
       <r>    12.7764    38.6564  1154.0315 </r>
       <r>    12.9126    26.5187  1157.6417 </r>
       <r>    13.0487    22.7308  1160.7362 </r>
       <r>    13.1849    20.0606  1163.4672 </r>
       <r>    13.3210    23.1664  1166.6210 </r>
       <r>    13.4571    27.2573  1170.3317 </r>
       <r>    13.5933    32.6588  1174.7778 </r>
       <r>    13.7294    24.1021  1178.0590 </r>
       <r>    13.8655    29.9367  1182.1345 </r>
       <r>    14.0017    27.3410  1185.8567 </r>
       <r>    14.1378    26.7492  1189.4982 </r>
       <r>    14.2740    27.4591  1193.2364 </r>
       <r>    14.4101    20.9315  1196.0860 </r>
       <r>    14.5462    26.1154  1199.6413 </r>
       <r>    14.6824    26.5911  1203.2613 </r>
       <r>    14.8185    19.2434  1205.8811 </r>
       <r>    14.9546    20.9466  1208.7327 </r>
       <r>    15.0908    23.9766  1211.9968 </r>
       <r>    15.2269    24.9759  1215.3969 </r>
       <r>    15.3631    26.7646  1219.0406 </r>
       <r>    15.4992    25.2427  1222.4771 </r>
       <r>    15.6353    20.8786  1225.3194 </r>
       <r>    15.7715    26.0718  1228.8688 </r>
       <r>    15.9076    21.9595  1231.8583 </r>
       <r>    16.0437    25.7246  1235.3604 </r>
       <r>    16.1799    23.1844  1238.5166 </r>
       <r>    16.3160    17.9966  1240.9666 </r>
       <r>    16.4522    20.4516  1243.7509 </r>
       <r>    16.5883    25.6429  1247.2418 </r>
       <r>    16.7244    18.7050  1249.7883 </r>
       <r>    16.8606    19.4438  1252.4353 </r>
       <r>    16.9967    23.6477  1255.6546 </r>
       <r>    17.1328    14.2323  1257.5922 </r>
       <r>    17.2690    17.2353  1259.9385 </r>
       <r>    17.4051    14.4897  1261.9111 </r>
       <r>    17.5413     7.0832  1262.8754 </r>
       <r>    17.6774     6.1781  1263.7165 </r>
       <r>    17.8135     2.9265  1264.1149 </r>
       <r>    17.9497     1.8336  1264.3645 </r>
       <r>    18.0858     2.8207  1264.7485 </r>
       <r>    18.2219     0.3355  1264.7942 </r>
       <r>    18.3581     3.1520  1265.2233 </r>
       <r>    18.4942     2.6615  1265.5856 </r>
       <r>    18.6304     3.0295  1265.9981 </r>
       <r>    18.7665     0.0143  1266.0000 </r>
       <r>    18.9026     0.0000  1266.0000 </r>
       <r>    19.0388     0.0000  1266.0000 </r>
       <r>    19.1749     0.0000  1266.0000 </r>
       <r>    19.3110     0.0000  1266.0000 </r>
       <r>    19.4472     0.0000  1266.0000 </r>
       <r>    19.5833     0.0000  1266.0000 </r>
       <r>    19.7194     0.0000  1266.0000 </r>
       <r>    19.8556     0.0000  1266.0000 </r>
       <r>    19.9917     0.0000  1266.0000 </r>
       <r>    20.1279     0.0000  1266.0000 </r>
       <r>    20.2640     0.0000  1266.0000 </r>
       <r>    20.4001     0.0000  1266.0000 </r>
      </set>
     </set>
    </array>
   </total>
  </dos>
 </calculation>
 <structure name="finalpos" >
  <crystal>
   <varray name="basis" >
    <v>       0.00000000      12.28047342       0.00000000 </v>
    <v>       9.14270205       0.00000000       0.00000000 </v>
    <v>       0.00000000      -2.76826177     -11.30069772 </v>
   </varray>
   <i name="volume">   1268.80515525 </i>
   <varray name="rec_basis" >
    <v>       0.00000000       0.08143009      -0.01994742 </v>
    <v>       0.10937686      -0.00000000       0.00000000 </v>
    <v>       0.00000000       0.00000000      -0.08849011 </v>
   </varray>
  </crystal>
  <varray name="positions" >
   <v>       0.65780646       0.99654228       0.15346391 </v>
   <v>       0.65864618       0.99958986       0.65704571 </v>
   <v>       0.65780646       0.33679106       0.15346391 </v>
   <v>       0.65864618       0.33374347       0.65704571 </v>
   <v>       0.65892656       0.66666667       0.15560438 </v>
   <v>       0.65835640       0.66666667       0.65735927 </v>
   <v>       0.81701740       0.16666667       0.36128987 </v>
   <v>       0.84094386       0.16666667       0.84379936 </v>
   <v>       0.84119762       0.50119237       0.34104058 </v>
   <v>       0.84130993       0.50030512       0.84374081 </v>
   <v>       0.84119762       0.83214096       0.34104058 </v>
   <v>       0.84130993       0.83302821       0.84374081 </v>
   <v>       0.58366510       0.16666667       0.39957654 </v>
   <v>       0.59133529       0.16666667       0.89792622 </v>
   <v>       0.59368183       0.50161742       0.39832667 </v>
   <v>       0.58956149       0.50045648       0.89574874 </v>
   <v>       0.59368183       0.83171591       0.39832667 </v>
   <v>       0.58956149       0.83287685       0.89574874 </v>
   <v>       0.90665825       0.99668894       0.10379688 </v>
   <v>       0.90885467       0.99771244       0.60311919 </v>
   <v>       0.90665825       0.33664439       0.10379688 </v>
   <v>       0.90885467       0.33562089       0.60311919 </v>
   <v>       0.91117982       0.66666667       0.10358728 </v>
   <v>       0.90827646       0.66666667       0.60057648 </v>
   <v>       0.16311024       0.16666667       0.15720174 </v>
   <v>       0.16073989       0.16666667       0.65589088 </v>
   <v>       0.16119380       0.50054641       0.15635205 </v>
   <v>       0.16054521       0.50129492       0.65976285 </v>
   <v>       0.16119380       0.83278692       0.15635205 </v>
   <v>       0.16054521       0.83203842       0.65976285 </v>
   <v>       0.34332937       0.99823312       0.34252791 </v>
   <v>       0.34115055       0.00002935       0.84333019 </v>
   <v>       0.34332937       0.33510021       0.34252791 </v>
   <v>       0.34115055       0.33330398       0.84333019 </v>
   <v>       0.34266645       0.66666667       0.34303399 </v>
   <v>       0.34133115       0.66666667       0.84458967 </v>
   <v>       0.10330920       0.98506863       0.40205921 </v>
   <v>       0.09110760       0.00023728       0.89762644 </v>
   <v>       0.10330920       0.34826470       0.40205921 </v>
   <v>       0.09110760       0.33309606       0.89762644 </v>
   <v>       0.09492625       0.66666667       0.40011869 </v>
   <v>       0.09019358       0.66666667       0.89799719 </v>
   <v>       0.40993775       0.16666667       0.10081447 </v>
   <v>       0.40852816       0.16666667       0.60236263 </v>
   <v>       0.40990114       0.50057030       0.10163938 </v>
   <v>       0.40803242       0.50017581       0.60261597 </v>
   <v>       0.40990114       0.83276304       0.10163938 </v>
   <v>       0.40803242       0.83315753       0.60261597 </v>
   <v>       0.99599637       0.16666667       0.13108926 </v>
   <v>       0.99553729       0.16666667       0.61517415 </v>
   <v>       0.99832432       0.49962843       0.12843201 </v>
   <v>       0.99738348       0.50055832       0.62702013 </v>
   <v>       0.99832432       0.83370490       0.12843201 </v>
   <v>       0.99738348       0.83277501       0.62702013 </v>
   <v>       0.50364409       0.99654438       0.37283025 </v>
   <v>       0.50356654       0.00054600       0.87281385 </v>
   <v>       0.50364409       0.33678895       0.37283025 </v>
   <v>       0.50356654       0.33278733       0.87281385 </v>
   <v>       0.50447074       0.66666667       0.37433990 </v>
   <v>       0.50250109       0.66666667       0.87098761 </v>
   <v>       0.66518874       0.16666667       0.28053128 </v>
   <v>       0.67274032       0.16666667       0.78073871 </v>
   <v>       0.67042295       0.50248504       0.27865252 </v>
   <v>       0.67324392       0.49996650       0.78098848 </v>
   <v>       0.67042295       0.83084830       0.27865252 </v>
   <v>       0.67324392       0.83336684       0.78098848 </v>
   <v>       0.82069054       0.98698298       0.21477394 </v>
   <v>       0.82787578       0.00079627       0.72017185 </v>
   <v>       0.82069054       0.34635036       0.21477394 </v>
   <v>       0.82787578       0.33253707       0.72017185 </v>
   <v>       0.82774176       0.66666667       0.21862744 </v>
   <v>       0.82801690       0.66666667       0.71936636 </v>
   <v>       0.81943570       0.98931007       0.45080854 </v>
   <v>       0.83372477       0.00030546       0.94625392 </v>
   <v>       0.81943570       0.34402326       0.45080854 </v>
   <v>       0.83372477       0.33302788       0.94625392 </v>
   <v>       0.82983692       0.66666667       0.44471720 </v>
   <v>       0.83451628       0.66666667       0.94658095 </v>
   <v>       0.66791551       0.16666667       0.05472037 </v>
   <v>       0.66614489       0.16666667       0.55405567 </v>
   <v>       0.66595148       0.50229955       0.05121293 </v>
   <v>       0.66633574       0.50071276       0.55583721 </v>
   <v>       0.66595148       0.83103378       0.05121293 </v>
   <v>       0.66633574       0.83262058       0.55583721 </v>
   <v>       0.49652927       0.99985401       0.12605922 </v>
   <v>       0.49592415       0.99980805       0.62763394 </v>
   <v>       0.49652927       0.33347932       0.12605922 </v>
   <v>       0.49592415       0.33352528       0.62763394 </v>
   <v>       0.49663284       0.66666667       0.12507975 </v>
   <v>       0.49561597       0.66666667       0.62800556 </v>
   <v>       0.00347870       0.16666667       0.87038646 </v>
   <v>       0.00498447       0.50574969       0.37713269 </v>
   <v>       0.00382536       0.49958358       0.87244949 </v>
   <v>       0.00498447       0.82758364       0.37713269 </v>
   <v>       0.00382536       0.83374975       0.87244949 </v>
   <v>       0.17932849       0.99474130       0.27887582 </v>
   <v>       0.17173988       0.00108260       0.78002123 </v>
   <v>       0.17932849       0.33859204       0.27887582 </v>
   <v>       0.17173988       0.33225073       0.78002123 </v>
   <v>       0.17425890       0.66666667       0.28085112 </v>
   <v>       0.17261514       0.66666667       0.78185565 </v>
   <v>       0.33028457       0.16666667       0.21895280 </v>
   <v>       0.32831287       0.16666667       0.72051040 </v>
   <v>       0.32989413       0.50240150       0.21884902 </v>
   <v>       0.32886482       0.50053032       0.72196137 </v>
   <v>       0.32989413       0.83093184       0.21884902 </v>
   <v>       0.32886482       0.83280301       0.72196137 </v>
   <v>       0.33500756       0.16666667       0.44462196 </v>
   <v>       0.33137760       0.16666667       0.94526937 </v>
   <v>       0.33134572       0.50049392       0.44586749 </v>
   <v>       0.33112075       0.49934736       0.94589580 </v>
   <v>       0.33134572       0.83283941       0.44586749 </v>
   <v>       0.33112075       0.83398598       0.94589580 </v>
   <v>       0.16772804       0.00094750       0.05380413 </v>
   <v>       0.17687405       0.99615787       0.55884211 </v>
   <v>       0.16772804       0.33238583       0.05380413 </v>
   <v>       0.17687405       0.33717546       0.55884211 </v>
   <v>       0.16822495       0.66666667       0.05382128 </v>
   <v>       0.17207681       0.66666667       0.55698859 </v>
   <v>       0.99028463       0.16666667       0.34223069 </v>
  </varray>
 </structure>
</modeling>
