 running    4 mpi-ranks, on    1 nodes
 distrk:  each k-point on    1 cores,    4 groups
 distr:  one band on    1 cores,    1 groups
 OpenACC runtime initialized ...    4 GPUs detected
 vasp.6.4.2 20Jul23 (build Nov 12 2023 22:16:35) complex                         
 POSCAR found type information on POSCAR GaO P 
 POSCAR found :  3 types and     119 ions
 scaLAPACK will be used selectively (only on CPU)
 LDA part: xc-table for Pade appr. of Perdew
 POSCAR, INCAR and KPOINTS ok, starting setup
 FFT: planning ... GRIDC
 FFT: planning ... GRID_SOFT
 FFT: planning ... GRID
 WAVECAR not read
 entering main loop
       N       E                     dE             d eps       ncg     rms          rms(c)
DAV:   1     0.223098050050E+05    0.22310E+05   -0.32006E+05 10128   0.282E+03
DAV:   2     0.500665101197E+04   -0.17303E+05   -0.16304E+05 10128   0.818E+02
DAV:   3    -0.395288368547E+02   -0.50462E+04   -0.47606E+04 13032   0.321E+02
DAV:   4    -0.676270556128E+03   -0.63674E+03   -0.62120E+03 12600   0.121E+02
DAV:   5    -0.720230705107E+03   -0.43960E+02   -0.43450E+02 14480   0.344E+01BRMIX: very serious problems
 the old and the new charge density differ
 old charge density:  1042.00000 new 1055.99974
BRMIX: very serious problems
 the old and the new charge density differ
BRMIX: very serious problems
 the old and the new charge density differ
 old charge density:  1042.00000 new 1055.99974
 old charge density:  1042.00000 new 1055.99974
BRMIX: very serious problems
 the old and the new charge density differ
 old charge density:  1042.00000 new 1055.99974
    0.644E+01
RMM:   6    -0.590949490233E+03    0.12928E+03   -0.43521E+02 13224   0.245E+01    0.160E+01
RMM:   7    -0.594829320979E+03   -0.38798E+01   -0.71586E+01 14174   0.103E+01    0.131E+01
RMM:   8    -0.594404551594E+03    0.42477E+00   -0.10147E+01 13066   0.525E+00    0.380E+00
RMM:   9    -0.594157443093E+03    0.24711E+00   -0.28779E+00 15294   0.216E+00    0.113E+00
RMM:  10    -0.594214291778E+03   -0.56849E-01   -0.85848E-01 13650   0.110E+00    0.699E-01
RMM:  11    -0.594226079417E+03   -0.11788E-01   -0.18740E-01 13976   0.689E-01    0.400E-01
RMM:  12    -0.594228752377E+03   -0.26730E-02   -0.64921E-02 15485   0.271E-01    0.176E-01
RMM:  13    -0.594230313253E+03   -0.15609E-02   -0.21866E-02 15238   0.142E-01    0.385E-02
RMM:  14    -0.594231181270E+03   -0.86802E-03   -0.89859E-03 13921   0.833E-02    0.327E-02
RMM:  15    -0.594231463562E+03   -0.28229E-03   -0.31273E-03 12691   0.449E-02    0.131E-02
RMM:  16    -0.594231612989E+03   -0.14943E-03   -0.14986E-03 11295   0.256E-02    0.476E-03
RMM:  17    -0.594231676202E+03   -0.63213E-04   -0.60173E-04 10430   0.166E-02    0.398E-03
RMM:  18    -0.594231710408E+03   -0.34206E-04   -0.34874E-04  9666   0.107E-02    0.281E-03
RMM:  19    -0.594231725845E+03   -0.15437E-04   -0.15096E-04  8801   0.732E-03    0.113E-03
RMM:  20    -0.594231735668E+03   -0.98234E-05   -0.94985E-05  7334   0.475E-03
   1 F= -.59423174E+03 E0= -.59422311E+03  d E =-.594232E+03
 curvature:   0.00 expect dE= 0.000E+00 dE for cont linesearch  0.000E+00
 trial: gam= 0.00000 g(F)=  0.124E+02 g(S)=  0.000E+00 ort = 0.000E+00 (trialstep = 0.100E+01)
 search vector abs. value=  0.124E+02
 bond charge predicted
       N       E                     dE             d eps       ncg     rms          rms(c)
DAV:   1    -0.580541227018E+03    0.13690E+02   -0.18620E+03 12024   0.645E+01    0.222E+01
RMM:   2    -0.593562753191E+03   -0.13022E+02   -0.14726E+02 13665   0.226E+01    0.573E+00
RMM:   3    -0.596686521699E+03   -0.31238E+01   -0.34022E+01 15396   0.839E+00    0.903E+00
RMM:   4    -0.596737631898E+03   -0.51110E-01   -0.45676E+00 14904   0.307E+00    0.666E+00
RMM:   5    -0.596692531641E+03    0.45100E-01   -0.10226E+00 15792   0.137E+00    0.273E+00
RMM:   6    -0.596689826611E+03    0.27050E-02   -0.26007E-01 13813   0.680E-01    0.606E-01
RMM:   7    -0.596689835022E+03   -0.84107E-05   -0.62475E-02 15560   0.316E-01    0.221E-01
RMM:   8    -0.596690443971E+03   -0.60895E-03   -0.20032E-02 14130   0.157E-01    0.158E-01
RMM:   9    -0.596690789208E+03   -0.34524E-03   -0.58777E-03 15473   0.815E-02    0.678E-02
RMM:  10    -0.596690960985E+03   -0.17178E-03   -0.25452E-03 13671   0.479E-02    0.226E-02
RMM:  11    -0.596691051973E+03   -0.90988E-04   -0.94634E-04 12589   0.239E-02    0.946E-03
RMM:  12    -0.596691095007E+03   -0.43034E-04   -0.44120E-04  9763   0.144E-02    0.664E-03
RMM:  13    -0.596691111384E+03   -0.16376E-04   -0.18029E-04  8602   0.902E-03    0.239E-03
RMM:  14    -0.596691120533E+03   -0.91491E-05   -0.96136E-05  6938   0.562E-03
   2 F= -.59669112E+03 E0= -.59668721E+03  d E =-.245938E+01
 trial-energy change:   -2.459385  1 .order   -3.481286  -12.389511    5.426938
 step:   0.6138(harm=  0.6954)  dis= 0.28592  next Energy=  -597.797863 (dE=-0.357E+01)
 bond charge predicted
       N       E                     dE             d eps       ncg     rms          rms(c)
DAV:   1    -0.596124491997E+03    0.56662E+00   -0.25163E+02 11320   0.228E+01    0.544E+00
RMM:   2    -0.597429671242E+03   -0.13052E+01   -0.14125E+01 13974   0.758E+00    0.960E-01
RMM:   3    -0.597737997609E+03   -0.30833E+00   -0.34154E+00 15225   0.278E+00    0.118E+00
RMM:   4    -0.597752064619E+03   -0.14067E-01   -0.43116E-01 15498   0.980E-01    0.843E-01
RMM:   5    -0.597748117048E+03    0.39476E-02   -0.90239E-02 15355   0.405E-01    0.234E-01
RMM:   6    -0.597749087746E+03   -0.97070E-03   -0.19541E-02 13825   0.206E-01    0.108E-01
RMM:   7    -0.597749565558E+03   -0.47781E-03   -0.77598E-03 15422   0.102E-01    0.495E-02
RMM:   8    -0.597749714029E+03   -0.14847E-03   -0.16177E-03 14273   0.389E-02    0.298E-02
RMM:   9    -0.597749758557E+03   -0.44528E-04   -0.63851E-04 11614   0.241E-02    0.101E-02
RMM:  10    -0.597749777665E+03   -0.19107E-04   -0.21017E-04  9983   0.124E-02    0.523E-03
RMM:  11    -0.597749786139E+03   -0.84742E-05   -0.10491E-04  8291   0.886E-03    0.264E-03
RMM:  12    -0.597749789176E+03   -0.30368E-05   -0.36285E-05  6481   0.543E-03
   3 F= -.59774979E+03 E0= -.59774415E+03  d E =-.351805E+01
 curvature:  -0.32 expect dE=-0.593E+00 dE for cont linesearch -0.294E-03
 trial: gam= 0.13975 g(F)=  0.184E+01 g(S)=  0.000E+00 ort = 0.106E+00 (trialstep = 0.923E+00)
 search vector abs. value=  0.211E+01
 bond charge predicted
       N       E                     dE             d eps       ncg     rms          rms(c)
DAV:   1    -0.596705133118E+03    0.10447E+01   -0.37952E+02 11424   0.284E+01    0.303E+00
RMM:   2    -0.598292137235E+03   -0.15870E+01   -0.16846E+01 13711   0.870E+00    0.107E+00
RMM:   3    -0.598650864961E+03   -0.35873E+00   -0.40227E+00 15393   0.333E+00    0.115E+00
RMM:   4    -0.598662750819E+03   -0.11886E-01   -0.48493E-01 14969   0.115E+00    0.552E-01
RMM:   5    -0.598660622686E+03    0.21281E-02   -0.12047E-01 15453   0.524E-01    0.199E-01
RMM:   6    -0.598662143590E+03   -0.15209E-02   -0.20469E-02 15273   0.206E-01    0.130E-01
RMM:   7    -0.598662399281E+03   -0.25569E-03   -0.60896E-03 14640   0.107E-01    0.495E-02
RMM:   8    -0.598662559031E+03   -0.15975E-03   -0.18499E-03 15182   0.539E-02    0.207E-02
RMM:   9    -0.598662612492E+03   -0.53460E-04   -0.61500E-04 12231   0.256E-02    0.735E-03
RMM:  10    -0.598662632622E+03   -0.20130E-04   -0.22266E-04 10474   0.146E-02    0.381E-03
RMM:  11    -0.598662641493E+03   -0.88719E-05   -0.97544E-05  8901   0.907E-03
   4 F= -.59866264E+03 E0= -.59865933E+03  d E =-.912852E+00
 trial-energy change:   -0.912852  1 .order   -0.904119   -1.709504   -0.098733
 step:   0.9774(harm=  0.9793)  dis= 0.07605  next Energy=  -598.665568 (dE=-0.916E+00)
 bond charge predicted
       N       E                     dE             d eps       ncg     rms          rms(c)
DAV:   1    -0.598660210592E+03    0.24220E-02   -0.13226E+00 11776   0.167E+00    0.173E-01
RMM:   2    -0.598664858594E+03   -0.46480E-02   -0.49832E-02 13799   0.468E-01    0.623E-02
RMM:   3    -0.598665723406E+03   -0.86481E-03   -0.10214E-02 15353   0.169E-01    0.635E-02
RMM:   4    -0.598665727710E+03   -0.43037E-05   -0.12252E-03 14978   0.602E-02    0.257E-02
RMM:   5    -0.598665727983E+03   -0.27290E-06   -0.34501E-04 13913   0.284E-02    0.120E-02
RMM:   6    -0.598665731822E+03   -0.38391E-05   -0.66921E-05  9987   0.127E-02
   5 F= -.59866573E+03 E0= -.59866253E+03  d E =-.915943E+00
 curvature:  -0.56 expect dE=-0.434E+00 dE for cont linesearch -0.324E-06
 trial: gam= 0.36792 g(F)=  0.779E+00 g(S)=  0.000E+00 ort =-0.111E-02 (trialstep = 0.934E+00)
 search vector abs. value=  0.106E+01
 bond charge predicted
       N       E                     dE             d eps       ncg     rms          rms(c)
DAV:   1    -0.598078040774E+03    0.58769E+00   -0.18485E+02 11360   0.201E+01    0.226E+00
RMM:   2    -0.598848897144E+03   -0.77086E+00   -0.81463E+00 13914   0.610E+00    0.724E-01
RMM:   3    -0.599035828918E+03   -0.18693E+00   -0.19899E+00 15368   0.230E+00    0.760E-01
RMM:   4    -0.599047385554E+03   -0.11557E-01   -0.23379E-01 15677   0.779E-01    0.457E-01
RMM:   5    -0.599045613821E+03    0.17717E-02   -0.44480E-02 15282   0.324E-01    0.113E-01
RMM:   6    -0.599046475070E+03   -0.86125E-03   -0.10136E-02 14341   0.155E-01    0.961E-02
RMM:   7    -0.599046667312E+03   -0.19224E-03   -0.34229E-03 14978   0.765E-02    0.336E-02
RMM:   8    -0.599046731289E+03   -0.63977E-04   -0.69786E-04 12990   0.312E-02    0.238E-02
RMM:   9    -0.599046743135E+03   -0.11846E-04   -0.25269E-04 11111   0.192E-02    0.736E-03
RMM:  10    -0.599046750385E+03   -0.72502E-05   -0.88796E-05  9476   0.102E-02
   6 F= -.59904675E+03 E0= -.59904307E+03  d E =-.381019E+00
 trial-energy change:   -0.381019  1 .order   -0.387672   -0.726728   -0.048615
 step:   1.0052(harm=  1.0006)  dis= 0.06601  next Energy=  -599.048608 (dE=-0.383E+00)
 bond charge predicted
       N       E                     dE             d eps       ncg     rms          rms(c)
DAV:   1    -0.599044172647E+03    0.25705E-02   -0.10850E+00 11872   0.152E+00    0.157E-01
RMM:   2    -0.599047984637E+03   -0.38120E-02   -0.40092E-02 13687   0.423E-01    0.541E-02
RMM:   3    -0.599048805869E+03   -0.82123E-03   -0.89014E-03 15308   0.157E-01    0.539E-02
RMM:   4    -0.599048851339E+03   -0.45470E-04   -0.10495E-03 15394   0.545E-02    0.298E-02
RMM:   5    -0.599048845534E+03    0.58058E-05   -0.24473E-04 13110   0.245E-02    0.876E-03
RMM:   6    -0.599048849703E+03   -0.41694E-05   -0.54545E-05  9720   0.119E-02
   7 F= -.59904885E+03 E0= -.59904512E+03  d E =-.383118E+00
 curvature:  -0.68 expect dE=-0.274E+00 dE for cont linesearch -0.291E-09
 trial: gam= 0.51449 g(F)=  0.402E+00 g(S)=  0.000E+00 ort = 0.213E-04 (trialstep = 0.948E+00)
 search vector abs. value=  0.684E+00
 bond charge predicted
       N       E                     dE             d eps       ncg     rms          rms(c)
DAV:   1    -0.598750715167E+03    0.29813E+00   -0.11339E+02 10848   0.155E+01    0.200E+00
RMM:   2    -0.599177435642E+03   -0.42672E+00   -0.45565E+00 13516   0.441E+00    0.599E-01
RMM:   3    -0.599276847619E+03   -0.99412E-01   -0.10705E+00 15458   0.170E+00    0.697E-01
RMM:   4    -0.599283347242E+03   -0.64996E-02   -0.11915E-01 15678   0.568E-01    0.529E-01
RMM:   5    -0.599280196517E+03    0.31507E-02   -0.28321E-02 15004   0.252E-01    0.124E-01
RMM:   6    -0.599280767573E+03   -0.57106E-03   -0.67071E-03 14076   0.123E-01    0.120E-01
RMM:   7    -0.599280744869E+03    0.22705E-04   -0.25154E-03 14779   0.629E-02    0.352E-02
RMM:   8    -0.599280799673E+03   -0.54804E-04   -0.56608E-04 12418   0.265E-02    0.251E-02
RMM:   9    -0.599280808238E+03   -0.85654E-05   -0.18627E-04 10330   0.153E-02    0.399E-03
RMM:  10    -0.599280815338E+03   -0.71004E-05   -0.72806E-05  8827   0.846E-03
   8 F= -.59928082E+03 E0= -.59927630E+03  d E =-.231966E+00
 trial-energy change:   -0.231966  1 .order   -0.231779   -0.381191   -0.082366
 step:   1.2093(harm=  1.2093)  dis= 0.09686  next Energy=  -599.291980 (dE=-0.243E+00)
 bond charge predicted
       N       E                     dE             d eps       ncg     rms          rms(c)
DAV:   1    -0.599254958107E+03    0.25850E-01   -0.86316E+00 11616   0.427E+00    0.508E-01
RMM:   2    -0.599285508532E+03   -0.30550E-01   -0.32535E-01 13423   0.117E+00    0.165E-01
RMM:   3    -0.599292480671E+03   -0.69721E-02   -0.75445E-02 15431   0.448E-01    0.172E-01
RMM:   4    -0.599292950775E+03   -0.47010E-03   -0.82485E-03 15626   0.149E-01    0.128E-01
RMM:   5    -0.599292740960E+03    0.20981E-03   -0.22688E-03 14711   0.689E-02    0.426E-02
RMM:   6    -0.599292766272E+03   -0.25312E-04   -0.47181E-04 14126   0.316E-02    0.310E-02
RMM:   7    -0.599292764345E+03    0.19272E-05   -0.16465E-04 11181   0.158E-02    0.888E-03
RMM:   8    -0.599292768315E+03   -0.39699E-05   -0.46350E-05  8848   0.103E-02
   9 F= -.59929277E+03 E0= -.59928808E+03  d E =-.243919E+00
 curvature:  -1.03 expect dE=-0.275E+00 dE for cont linesearch -0.102E-07
 trial: gam= 0.63844 g(F)=  0.267E+00 g(S)=  0.000E+00 ort =-0.823E-04 (trialstep = 0.100E+01)
 search vector abs. value=  0.546E+00
 bond charge predicted
       N       E                     dE             d eps       ncg     rms          rms(c)
DAV:   1    -0.598972991926E+03    0.31977E+00   -0.10313E+02 11040   0.151E+01    0.179E+00
RMM:   2    -0.599355472843E+03   -0.38248E+00   -0.40731E+00 13645   0.424E+00    0.534E-01
RMM:   3    -0.599443777196E+03   -0.88304E-01   -0.94950E-01 15401   0.163E+00    0.586E-01
RMM:   4    -0.599450688371E+03   -0.69112E-02   -0.10714E-01 15617   0.540E-01    0.470E-01
RMM:   5    -0.599447249038E+03    0.34393E-02   -0.26036E-02 14391   0.245E-01    0.134E-01
RMM:   6    -0.599447672981E+03   -0.42394E-03   -0.61372E-03 14759   0.119E-01    0.119E-01
RMM:   7    -0.599447608210E+03    0.64771E-04   -0.20353E-03 14762   0.568E-02    0.282E-02
RMM:   8    -0.599447654914E+03   -0.46704E-04   -0.48299E-04 13077   0.270E-02    0.155E-02
RMM:   9    -0.599447669498E+03   -0.14585E-04   -0.16622E-04 10082   0.145E-02    0.733E-03
RMM:  10    -0.599447675075E+03   -0.55767E-05   -0.64267E-05  8637   0.895E-03
  10 F= -.59944768E+03 E0= -.59944356E+03  d E =-.154907E+00
 trial-energy change:   -0.154907  1 .order   -0.151294   -0.267324   -0.035263
 step:   1.1376(harm=  1.1522)  dis= 0.08040  next Energy=  -599.450106 (dE=-0.157E+00)
 bond charge predicted
       N       E                     dE             d eps       ncg     rms          rms(c)
DAV:   1    -0.599442160405E+03    0.55091E-02   -0.19510E+00 11816   0.207E+00    0.231E-01
RMM:   2    -0.599448925428E+03   -0.67650E-02   -0.72082E-02 13471   0.554E-01    0.716E-02
RMM:   3    -0.599450399434E+03   -0.14740E-02   -0.15999E-02 15352   0.212E-01    0.732E-02
RMM:   4    -0.599450510420E+03   -0.11099E-03   -0.18456E-03 15449   0.713E-02    0.564E-02
RMM:   5    -0.599450460123E+03    0.50298E-04   -0.49597E-04 13326   0.330E-02    0.198E-02
RMM:   6    -0.599450464121E+03   -0.39986E-05   -0.10378E-04 11179   0.157E-02    0.128E-02
RMM:   7    -0.599450464462E+03   -0.34050E-06   -0.34934E-05  8475   0.917E-03
  11 F= -.59945046E+03 E0= -.59944637E+03  d E =-.157696E+00
 curvature:  -1.17 expect dE=-0.197E+00 dE for cont linesearch -0.475E-05
 trial: gam= 0.60253 g(F)=  0.169E+00 g(S)=  0.000E+00 ort = 0.149E-02 (trialstep = 0.103E+01)
 search vector abs. value=  0.369E+00
 bond charge predicted
       N       E                     dE             d eps       ncg     rms          rms(c)
DAV:   1    -0.599222456896E+03    0.22801E+00   -0.75505E+01 10958   0.129E+01    0.152E+00
RMM:   2    -0.599491979623E+03   -0.26952E+00   -0.28549E+00 13474   0.355E+00    0.455E-01
RMM:   3    -0.599560246659E+03   -0.68267E-01   -0.71278E-01 15409   0.140E+00    0.470E-01
RMM:   4    -0.599565823776E+03   -0.55771E-02   -0.78302E-02 15597   0.459E-01    0.383E-01
RMM:   5    -0.599563751948E+03    0.20718E-02   -0.18219E-02 14224   0.202E-01    0.116E-01
RMM:   6    -0.599564063060E+03   -0.31111E-03   -0.42006E-03 14935   0.974E-02    0.983E-02
RMM:   7    -0.599564028389E+03    0.34671E-04   -0.13328E-03 14620   0.452E-02    0.261E-02
RMM:   8    -0.599564061430E+03   -0.33041E-04   -0.36245E-04 12078   0.231E-02    0.143E-02
RMM:   9    -0.599564069520E+03   -0.80899E-05   -0.11263E-04 10060   0.131E-02    0.432E-03
RMM:  10    -0.599564073910E+03   -0.43905E-05   -0.44836E-05  8351   0.728E-03
  12 F= -.59956407E+03 E0= -.59955945E+03  d E =-.113609E+00
 trial-energy change:   -0.113609  1 .order   -0.112529   -0.174622   -0.050436
 step:   1.4171(harm=  1.4451)  dis= 0.06888  next Energy=  -599.573687 (dE=-0.123E+00)
 bond charge predicted
       N       E                     dE             d eps       ncg     rms          rms(c)
DAV:   1    -0.599527885925E+03    0.36184E-01   -0.10855E+01 11512   0.488E+00    0.557E-01
RMM:   2    -0.599565145181E+03   -0.37259E-01   -0.39515E-01 13368   0.131E+00    0.171E-01
RMM:   3    -0.599574185526E+03   -0.90403E-02   -0.95016E-02 15368   0.511E-01    0.173E-01
RMM:   4    -0.599574942711E+03   -0.75718E-03   -0.10591E-02 15615   0.170E-01    0.144E-01
RMM:   5    -0.599574647711E+03    0.29500E-03   -0.26505E-03 13690   0.763E-02    0.492E-02
RMM:   6    -0.599574682277E+03   -0.34565E-04   -0.61563E-04 14947   0.371E-02    0.376E-02
RMM:   7    -0.599574676094E+03    0.61825E-05   -0.18240E-04 11893   0.166E-02    0.121E-02
RMM:   8    -0.599574679873E+03   -0.37790E-05   -0.58095E-05  9274   0.114E-02
  13 F= -.59957468E+03 E0= -.59956972E+03  d E =-.124215E+00
 curvature:  -1.56 expect dE=-0.168E+00 dE for cont linesearch -0.290E-04
 trial: gam= 0.62774 g(F)=  0.107E+00 g(S)=  0.000E+00 ort = 0.262E-02 (trialstep = 0.111E+01)
 search vector abs. value=  0.256E+00
 bond charge predicted
       N       E                     dE             d eps       ncg     rms          rms(c)
DAV:   1    -0.599375964612E+03    0.19871E+00   -0.64330E+01 11093   0.119E+01    0.139E+00
RMM:   2    -0.599602038086E+03   -0.22607E+00   -0.24209E+00 13517   0.324E+00    0.427E-01
RMM:   3    -0.599655509180E+03   -0.53471E-01   -0.56362E-01 15382   0.126E+00    0.427E-01
RMM:   4    -0.599660137461E+03   -0.46283E-02   -0.64284E-02 15585   0.417E-01    0.364E-01
RMM:   5    -0.599657967639E+03    0.21698E-02   -0.14935E-02 13998   0.186E-01    0.938E-02
RMM:   6    -0.599658269902E+03   -0.30226E-03   -0.37141E-03 14990   0.922E-02    0.859E-02
RMM:   7    -0.599658222765E+03    0.47136E-04   -0.10714E-03 14217   0.417E-02    0.192E-02
RMM:   8    -0.599658251386E+03   -0.28620E-04   -0.28623E-04 11996   0.221E-02    0.106E-02
RMM:   9    -0.599658257899E+03   -0.65132E-05   -0.86681E-05  9594   0.120E-02
  14 F= -.59965826E+03 E0= -.59965191E+03  d E =-.835780E-01
 trial-energy change:   -0.083578  1 .order   -0.082214   -0.120593   -0.043835
 step:   1.6503(harm=  1.7370)  dis= 0.05715  next Energy=  -599.669219 (dE=-0.945E-01)
 bond charge predicted
       N       E                     dE             d eps       ncg     rms          rms(c)
DAV:   1    -0.599605480900E+03    0.52770E-01   -0.15639E+01 11464   0.583E+00    0.682E-01
RMM:   2    -0.599658564001E+03   -0.53083E-01   -0.57166E-01 13408   0.157E+00    0.214E-01
RMM:   3    -0.599670835854E+03   -0.12272E-01   -0.13032E-01 15381   0.604E-01    0.208E-01
RMM:   4    -0.599671896347E+03   -0.10605E-02   -0.15040E-02 15616   0.203E-01    0.177E-01
RMM:   5    -0.599671370552E+03    0.52579E-03   -0.35510E-03 13889   0.909E-02    0.446E-02
RMM:   6    -0.599671446446E+03   -0.75894E-04   -0.92162E-04 14733   0.455E-02    0.419E-02
RMM:   7    -0.599671434301E+03    0.12146E-04   -0.25418E-04 12697   0.210E-02    0.100E-02
RMM:   8    -0.599671441414E+03   -0.71130E-05   -0.78683E-05  9569   0.135E-02
  15 F= -.59967144E+03 E0= -.59966467E+03  d E =-.967615E-01
 curvature:  -2.00 expect dE=-0.237E+00 dE for cont linesearch -0.189E-03
 trial: gam= 1.06528 g(F)=  0.119E+00 g(S)=  0.000E+00 ort = 0.492E-02 (trialstep = 0.741E+00)
 search vector abs. value=  0.420E+00
 bond charge predicted
       N       E                     dE             d eps       ncg     rms          rms(c)
DAV:   1    -0.599556491928E+03    0.11494E+00   -0.50704E+01 11318   0.104E+01    0.126E+00
RMM:   2    -0.599716680107E+03   -0.16019E+00   -0.17969E+00 13501   0.273E+00    0.432E-01
RMM:   3    -0.599752859616E+03   -0.36180E-01   -0.39654E-01 15235   0.105E+00    0.372E-01
RMM:   4    -0.599756075452E+03   -0.32158E-02   -0.49410E-02 15599   0.361E-01    0.310E-01
RMM:   5    -0.599754441211E+03    0.16342E-02   -0.11076E-02 14191   0.158E-01    0.702E-02
RMM:   6    -0.599754675169E+03   -0.23396E-03   -0.29014E-03 14900   0.784E-02    0.628E-02
RMM:   7    -0.599754668739E+03    0.64298E-05   -0.71999E-04 14058   0.342E-02    0.192E-02
RMM:   8    -0.599754689429E+03   -0.20689E-04   -0.21641E-04 10972   0.183E-02    0.735E-03
RMM:   9    -0.599754695247E+03   -0.58187E-05   -0.68399E-05  9236   0.106E-02
  16 F= -.59975470E+03 E0= -.59974752E+03  d E =-.832538E-01
 trial-energy change:   -0.083254  1 .order   -0.082013   -0.091786   -0.072240
 step:   2.0686(harm=  3.4800)  dis= 0.07260  next Energy=  -599.826534 (dE=-0.155E+00)
 bond charge predicted
       N       E                     dE             d eps       ncg     rms          rms(c)
DAV:   1    -0.599190760485E+03    0.56393E+00   -0.16292E+02 11364   0.186E+01    0.226E+00
RMM:   2    -0.599718440635E+03   -0.52768E+00   -0.59630E+00 13453   0.497E+00    0.754E-01
RMM:   3    -0.599840519560E+03   -0.12208E+00   -0.13270E+00 15328   0.193E+00    0.689E-01
RMM:   4    -0.599850907046E+03   -0.10387E-01   -0.16194E-01 15544   0.658E-01    0.572E-01
RMM:   5    -0.599845516528E+03    0.53905E-02   -0.33270E-02 14875   0.280E-01    0.171E-01
RMM:   6    -0.599846029085E+03   -0.51256E-03   -0.10922E-02 13912   0.149E-01    0.124E-01
RMM:   7    -0.599845957019E+03    0.72067E-04   -0.25213E-03 15315   0.687E-02    0.454E-02
RMM:   8    -0.599846022326E+03   -0.65307E-04   -0.78369E-04 13371   0.314E-02    0.194E-02
RMM:   9    -0.599846040798E+03   -0.18473E-04   -0.20410E-04 10388   0.178E-02    0.723E-03
RMM:  10    -0.599846049702E+03   -0.89038E-05   -0.88044E-05  9280   0.101E-02
  17 F= -.59984605E+03 E0= -.59983640E+03  d E =-.174608E+00
 curvature:  -4.33 expect dE=-0.111E+01 dE for cont linesearch -0.130E-01
 ZBRENT: increasing intervall
 opt :   4.7237  next Energy=  -599.775635 (dE=-0.104E+00)
 bond charge predicted
       N       E                     dE             d eps       ncg     rms          rms(c)
DAV:   1    -0.596678199127E+03    0.31678E+01   -0.65513E+02 11468   0.375E+01    0.435E+00
RMM:   2    -0.599073523831E+03   -0.23953E+01   -0.26068E+01 13325   0.107E+01    0.145E+00
RMM:   3    -0.599666839680E+03   -0.59332E+00   -0.62770E+00 15516   0.421E+00    0.146E+00
RMM:   4    -0.599716208963E+03   -0.49369E-01   -0.78171E-01 15555   0.142E+00    0.122E+00
RMM:   5    -0.599692545472E+03    0.23663E-01   -0.15230E-01 15324   0.590E-01    0.363E-01
RMM:   6    -0.599693874228E+03   -0.13288E-02   -0.45688E-02 13532   0.312E-01    0.237E-01
RMM:   7    -0.599693908937E+03   -0.34709E-04   -0.11185E-02 15253   0.142E-01    0.714E-02
RMM:   8    -0.599694195511E+03   -0.28657E-03   -0.29689E-03 13896   0.624E-02    0.394E-02
RMM:   9    -0.599694273521E+03   -0.78010E-04   -0.90778E-04 13422   0.331E-02    0.198E-02
RMM:  10    -0.599694305794E+03   -0.32274E-04   -0.34757E-04 10400   0.179E-02    0.603E-03
RMM:  11    -0.599694317577E+03   -0.11783E-04   -0.12811E-04  9243   0.113E-02    0.593E-03
RMM:  12    -0.599694321999E+03   -0.44220E-05   -0.53560E-05  8276   0.742E-03
  18 F= -.59969432E+03 E0= -.59968396E+03  d E =-.228806E-01
 curvature:  23.48 expect dE= 0.303E+02 dE for cont linesearch  0.206E+01
 ZBRENT: bracketing found
 ZBRENT: interpolating
 opt :   2.4829  next Energy=  -599.853399 (dE=-0.182E+00)
 bond charge predicted
       N       E                     dE             d eps       ncg     rms          rms(c)
DAV:   1    -0.597814080509E+03    0.18802E+01   -0.46650E+02 11080   0.314E+01    0.377E+00
RMM:   2    -0.599435403982E+03   -0.16213E+01   -0.17731E+01 13356   0.872E+00    0.124E+00
RMM:   3    -0.599839403845E+03   -0.40400E+00   -0.42754E+00 15472   0.346E+00    0.125E+00
RMM:   4    -0.599868456500E+03   -0.29053E-01   -0.50942E-01 15496   0.115E+00    0.951E-01
RMM:   5    -0.599855659043E+03    0.12797E-01   -0.10468E-01 15122   0.505E-01    0.270E-01
RMM:   6    -0.599856795438E+03   -0.11364E-02   -0.29047E-02 13729   0.260E-01    0.177E-01
RMM:   7    -0.599857029485E+03   -0.23405E-03   -0.80075E-03 15666   0.125E-01    0.698E-02
RMM:   8    -0.599857208759E+03   -0.17927E-03   -0.19970E-03 14449   0.537E-02    0.429E-02
RMM:   9    -0.599857249844E+03   -0.41085E-04   -0.53642E-04 12886   0.277E-02    0.168E-02
RMM:  10    -0.599857270976E+03   -0.21132E-04   -0.21483E-04 10074   0.155E-02    0.668E-03
RMM:  11    -0.599857277211E+03   -0.62349E-05   -0.67945E-05  8857   0.941E-03
  19 F= -.59985728E+03 E0= -.59984674E+03  d E =-.185836E+00
 curvature:  -0.08 expect dE=-0.299E-01 dE for cont linesearch -0.622E-04
 trial: gam= 2.85337 g(F)=  0.357E+00 g(S)=  0.000E+00 ort = 0.177E-01 (trialstep = 0.118E+00)
 search vector abs. value=  0.388E+01
 bond charge predicted
       N       E                     dE             d eps       ncg     rms          rms(c)
DAV:   1    -0.599863921074E+03   -0.66501E-02   -0.12020E+01 11320   0.487E+00    0.600E-01
RMM:   2    -0.599896302425E+03   -0.32381E-01   -0.38334E-01 13232   0.123E+00    0.197E-01
RMM:   3    -0.599904150076E+03   -0.78477E-02   -0.85816E-02 15037   0.475E-01    0.168E-01
RMM:   4    -0.599904813534E+03   -0.66346E-03   -0.10970E-02 15581   0.167E-01    0.130E-01
RMM:   5    -0.599904572546E+03    0.24099E-03   -0.22811E-03 13859   0.722E-02    0.331E-02
RMM:   6    -0.599904614017E+03   -0.41471E-04   -0.61013E-04 14360   0.356E-02    0.270E-02
RMM:   7    -0.599904615297E+03   -0.12793E-05   -0.14674E-04 10643   0.159E-02    0.130E-02
RMM:   8    -0.599904617910E+03   -0.26135E-05   -0.52877E-05  9276   0.111E-02
  20 F= -.59990462E+03 E0= -.59989414E+03  d E =-.473407E-01
 ZBRENT: can't locate minimum, use default step
 trial-energy change:   -0.047341  1 .order   -0.046940   -0.048086   -0.045794
 step:   0.4720(harm=  2.4758)  dis= 0.06470  next Energy=  -600.361736 (dE=-0.504E+00)
 bond charge predicted
       N       E                     dE             d eps       ncg     rms          rms(c)
DAV:   1    -0.599606074211E+03    0.29854E+00   -0.10842E+02 11460   0.146E+01    0.165E+00
RMM:   2    -0.599939391851E+03   -0.33332E+00   -0.36165E+00 13271   0.376E+00    0.578E-01
RMM:   3    -0.600014912175E+03   -0.75520E-01   -0.81134E-01 15083   0.146E+00    0.514E-01
RMM:   4    -0.600021740988E+03   -0.68288E-02   -0.10365E-01 15623   0.510E-01    0.436E-01
RMM:   5    -0.600018755071E+03    0.29859E-02   -0.22580E-02 14496   0.217E-01    0.107E-01
RMM:   6    -0.600019200371E+03   -0.44530E-03   -0.56289E-03 14821   0.104E-01    0.888E-02
RMM:   7    -0.600019204406E+03   -0.40352E-05   -0.13925E-03 14666   0.457E-02    0.352E-02
RMM:   8    -0.600019240122E+03   -0.35716E-04   -0.45701E-04 11879   0.246E-02    0.130E-02
RMM:   9    -0.600019253557E+03   -0.13435E-04   -0.14651E-04 10145   0.141E-02    0.614E-03
RMM:  10    -0.600019258745E+03   -0.51883E-05   -0.55962E-05  8685   0.812E-03
  21 F= -.60001926E+03 E0= -.60000898E+03  d E =-.161982E+00
 curvature:  -3.27 expect dE=-0.124E+01 dE for cont linesearch -0.368E-01
 ZBRENT: increasing intervall
 opt :   1.1800  next Energy=  -600.040392 (dE=-0.183E+00)
 bond charge predicted
       N       E                     dE             d eps       ncg     rms          rms(c)
DAV:   1    -0.598007624569E+03    0.20116E+01   -0.43847E+02 11377   0.296E+01    0.326E+00
RMM:   2    -0.599498811091E+03   -0.14912E+01   -0.15885E+01 13167   0.802E+00    0.115E+00
RMM:   3    -0.599875057776E+03   -0.37625E+00   -0.39829E+00 15405   0.319E+00    0.112E+00
RMM:   4    -0.599906048611E+03   -0.30991E-01   -0.47689E-01 15544   0.107E+00    0.896E-01
RMM:   5    -0.599893855885E+03    0.12193E-01   -0.98590E-02 15036   0.458E-01    0.222E-01
RMM:   6    -0.599895760295E+03   -0.19044E-02   -0.23696E-02 14155   0.217E-01    0.185E-01
RMM:   7    -0.599895775312E+03   -0.15017E-04   -0.67400E-03 14890   0.104E-01    0.499E-02
RMM:   8    -0.599895956444E+03   -0.18113E-03   -0.17689E-03 14162   0.472E-02    0.271E-02
RMM:   9    -0.599896010172E+03   -0.53729E-04   -0.58253E-04 11915   0.241E-02    0.104E-02
RMM:  10    -0.599896031901E+03   -0.21729E-04   -0.21479E-04  9764   0.139E-02    0.438E-03
RMM:  11    -0.599896039270E+03   -0.73685E-05   -0.82431E-05  8830   0.907E-03
  22 F= -.59989604E+03 E0= -.59988672E+03  d E =-.387621E-01
 curvature:  -1.88 expect dE=-0.166E+01 dE for cont linesearch -0.213E+00
 ZBRENT: bracketing found
 ZBRENT: interpolating
 opt :   0.6417  next Energy=  -600.036993 (dE=-0.180E+00)
 bond charge predicted
       N       E                     dE             d eps       ncg     rms          rms(c)
DAV:   1    -0.599062219170E+03    0.83381E+00   -0.25289E+02 11088   0.225E+01    0.257E+00
RMM:   2    -0.599839668683E+03   -0.77745E+00   -0.84101E+00 13161   0.585E+00    0.928E-01
RMM:   3    -0.600035902920E+03   -0.19623E+00   -0.20970E+00 15315   0.234E+00    0.889E-01
RMM:   4    -0.600050092980E+03   -0.14190E-01   -0.23726E-01 15432   0.768E-01    0.727E-01
RMM:   5    -0.600041674116E+03    0.84189E-02   -0.56384E-02 14930   0.346E-01    0.192E-01
RMM:   6    -0.600042272274E+03   -0.59816E-03   -0.13159E-02 14107   0.167E-01    0.120E-01
RMM:   7    -0.600042442601E+03   -0.17033E-03   -0.34988E-03 15373   0.761E-02    0.540E-02
RMM:   8    -0.600042513577E+03   -0.70975E-04   -0.91930E-04 12742   0.327E-02    0.201E-02
RMM:   9    -0.600042544242E+03   -0.30665E-04   -0.30003E-04 10793   0.184E-02    0.845E-03
RMM:  10    -0.600042554592E+03   -0.10351E-04   -0.11183E-04  9279   0.110E-02    0.329E-03
RMM:  11    -0.600042558317E+03   -0.37245E-05   -0.40662E-05  8345   0.677E-03
  23 F= -.60004256E+03 E0= -.60003220E+03  d E =-.185281E+00
 curvature:  -0.16 expect dE=-0.634E-01 dE for cont linesearch -0.146E-03
 trial: gam= 0.25486 g(F)=  0.405E+00 g(S)=  0.000E+00 ort = 0.601E-01 (trialstep = 0.223E+00)
 search vector abs. value=  0.687E+00
 bond charge predicted
       N       E                     dE             d eps       ncg     rms          rms(c)
DAV:   1    -0.600095945477E+03   -0.53391E-01   -0.71232E+00 11198   0.389E+00    0.382E-01
RMM:   2    -0.600119882351E+03   -0.23937E-01   -0.25404E-01 13667   0.110E+00    0.149E-01
RMM:   3    -0.600126042774E+03   -0.61604E-02   -0.66087E-02 15153   0.418E-01    0.138E-01
RMM:   4    -0.600126582415E+03   -0.53964E-03   -0.79776E-03 15690   0.144E-01    0.112E-01
RMM:   5    -0.600126364581E+03    0.21783E-03   -0.15799E-03 14555   0.623E-02    0.292E-02
RMM:   6    -0.600126396277E+03   -0.31696E-04   -0.45973E-04 13823   0.326E-02    0.251E-02
RMM:   7    -0.600126392908E+03    0.33691E-05   -0.11097E-04 11558   0.160E-02    0.951E-03
RMM:   8    -0.600126395140E+03   -0.22323E-05   -0.37149E-05  8684   0.988E-03
  24 F= -.60012640E+03 E0= -.60011619E+03  d E =-.838368E-01
 ZBRENT: can't locate minimum, use default step
 trial-energy change:   -0.083837  1 .order   -0.083696   -0.093598   -0.073794
 step:   0.8910(harm=  1.0527)  dis= 0.05528  next Energy=  -600.263738 (dE=-0.221E+00)
 bond charge predicted
       N       E                     dE             d eps       ncg     rms          rms(c)
DAV:   1    -0.599955489240E+03    0.17090E+00   -0.64172E+01 11576   0.117E+01    0.114E+00
RMM:   2    -0.600197878697E+03   -0.24239E+00   -0.25552E+00 13921   0.343E+00    0.433E-01
RMM:   3    -0.600255861295E+03   -0.57983E-01   -0.61433E-01 15229   0.127E+00    0.406E-01
RMM:   4    -0.600260732898E+03   -0.48716E-02   -0.73429E-02 15695   0.432E-01    0.328E-01
RMM:   5    -0.600258928757E+03    0.18041E-02   -0.15362E-02 14685   0.191E-01    0.798E-02
RMM:   6    -0.600259240501E+03   -0.31174E-03   -0.37814E-03 14892   0.931E-02    0.707E-02
RMM:   7    -0.600259228635E+03    0.11867E-04   -0.97373E-04 14686   0.416E-02    0.221E-02
RMM:   8    -0.600259253013E+03   -0.24378E-04   -0.27319E-04 11897   0.211E-02    0.121E-02
RMM:   9    -0.600259257120E+03   -0.41072E-05   -0.79843E-05 10001   0.123E-02
  25 F= -.60025926E+03 E0= -.60025006E+03  d E =-.216699E+00
 curvature:  -0.83 expect dE=-0.168E+00 dE for cont linesearch -0.382E-02
 ZBRENT: extrapolating
 opt :   1.0278  next Energy=  -600.263109 (dE=-0.221E+00)
 bond charge predicted
       N       E                     dE             d eps       ncg     rms          rms(c)
DAV:   1    -0.600252023738E+03    0.72293E-02   -0.26947E+00 12016   0.239E+00    0.228E-01
RMM:   2    -0.600260871944E+03   -0.88482E-02   -0.93353E-02 13689   0.668E-01    0.868E-02
RMM:   3    -0.600263095983E+03   -0.22240E-02   -0.23751E-02 15145   0.252E-01    0.816E-02
RMM:   4    -0.600263297333E+03   -0.20135E-03   -0.29406E-03 15496   0.873E-02    0.657E-02
RMM:   5    -0.600263228726E+03    0.68608E-04   -0.62073E-04 14089   0.390E-02    0.162E-02
RMM:   6    -0.600263241944E+03   -0.13219E-04   -0.16550E-04 12238   0.196E-02    0.146E-02
RMM:   7    -0.600263240688E+03    0.12561E-05   -0.40633E-05  9062   0.108E-02
  26 F= -.60026324E+03 E0= -.60025428E+03  d E =-.220682E+00
 curvature:  -0.84 expect dE=-0.207E+00 dE for cont linesearch -0.165E-04
 trial: gam= 0.51683 g(F)=  0.248E+00 g(S)=  0.000E+00 ort =-0.368E-02 (trialstep = 0.384E+00)
 search vector abs. value=  0.427E+00
 bond charge predicted
       N       E                     dE             d eps       ncg     rms          rms(c)
DAV:   1    -0.600290478771E+03   -0.27237E-01   -0.13321E+01 11432   0.543E+00    0.598E-01
RMM:   2    -0.600334486249E+03   -0.44007E-01   -0.47829E-01 13508   0.148E+00    0.208E-01
RMM:   3    -0.600345258986E+03   -0.10773E-01   -0.11679E-01 15362   0.574E-01    0.196E-01
RMM:   4    -0.600346211144E+03   -0.95216E-03   -0.13825E-02 15667   0.196E-01    0.166E-01
RMM:   5    -0.600345777324E+03    0.43382E-03   -0.30046E-03 13671   0.879E-02    0.400E-02
RMM:   6    -0.600345845107E+03   -0.67783E-04   -0.89667E-04 14830   0.463E-02    0.385E-02
RMM:   7    -0.600345832928E+03    0.12179E-04   -0.22439E-04 12653   0.208E-02    0.110E-02
RMM:   8    -0.600345838544E+03   -0.56162E-05   -0.71534E-05  9783   0.141E-02
  27 F= -.60034584E+03 E0= -.60033722E+03  d E =-.825979E-01
 trial-energy change:   -0.082598  1 .order   -0.081766   -0.094278   -0.069253
 step:   1.0668(harm=  1.4457)  dis= 0.02924  next Energy=  -600.412166 (dE=-0.149E+00)
 bond charge predicted
       N       E                     dE             d eps       ncg     rms          rms(c)
DAV:   1    -0.600247973293E+03    0.97860E-01   -0.42160E+01 11424   0.968E+00    0.105E+00
RMM:   2    -0.600392009771E+03   -0.14404E+00   -0.15591E+00 13603   0.269E+00    0.359E-01
RMM:   3    -0.600428105223E+03   -0.36095E-01   -0.38722E-01 15365   0.104E+00    0.348E-01
RMM:   4    -0.600431315034E+03   -0.32098E-02   -0.45519E-02 15705   0.352E-01    0.294E-01
RMM:   5    -0.600429976533E+03    0.13385E-02   -0.95145E-03 13872   0.156E-01    0.706E-02
RMM:   6    -0.600430198900E+03   -0.22237E-03   -0.28199E-03 14906   0.821E-02    0.705E-02
RMM:   7    -0.600430157514E+03    0.41386E-04   -0.73995E-04 14145   0.371E-02    0.179E-02
RMM:   8    -0.600430177783E+03   -0.20269E-04   -0.21353E-04 12165   0.212E-02    0.105E-02
RMM:   9    -0.600430180244E+03   -0.24615E-05   -0.57868E-05  9467   0.115E-02
  28 F= -.60043018E+03 E0= -.60042202E+03  d E =-.166940E+00
 curvature:  -1.10 expect dE=-0.182E+00 dE for cont linesearch -0.999E-02
 ZBRENT: increasing intervall
 opt :   2.4330  next Energy=  -600.354042 (dE=-0.908E-01)
 bond charge predicted
       N       E                     dE             d eps       ncg     rms          rms(c)
DAV:   1    -0.599562760981E+03    0.86742E+00   -0.16846E+02 11351   0.194E+01    0.208E+00
RMM:   2    -0.600183053468E+03   -0.62029E+00   -0.66710E+00 13741   0.558E+00    0.690E-01
RMM:   3    -0.600338089558E+03   -0.15504E+00   -0.16429E+00 15420   0.215E+00    0.708E-01
RMM:   4    -0.600351517891E+03   -0.13428E-01   -0.19731E-01 15680   0.728E-01    0.570E-01
RMM:   5    -0.600346973437E+03    0.45445E-02   -0.38276E-02 14908   0.310E-01    0.140E-01
RMM:   6    -0.600347719217E+03   -0.74578E-03   -0.10798E-02 13952   0.166E-01    0.134E-01
RMM:   7    -0.600347646473E+03    0.72745E-04   -0.34612E-03 15100   0.828E-02    0.322E-02
RMM:   8    -0.600347738087E+03   -0.91614E-04   -0.85168E-04 14438   0.381E-02    0.293E-02
RMM:   9    -0.600347739684E+03   -0.15971E-05   -0.22420E-04 11433   0.199E-02    0.667E-03
RMM:  10    -0.600347747810E+03   -0.81257E-05   -0.84467E-05  9258   0.108E-02
  29 F= -.60034775E+03 E0= -.60034069E+03  d E =-.845071E-01
 curvature:   8.37 expect dE= 0.684E+01 dE for cont linesearch  0.702E+00
 ZBRENT: bracketing found
 ZBRENT: interpolating
 opt :   1.4054  next Energy=  -600.440736 (dE=-0.177E+00)
 bond charge predicted
       N       E                     dE             d eps       ncg     rms          rms(c)
DAV:   1    -0.600014880345E+03    0.33286E+00   -0.95367E+01 11205   0.146E+01    0.159E+00
RMM:   2    -0.600353721281E+03   -0.33884E+00   -0.36447E+00 13667   0.410E+00    0.538E-01
RMM:   3    -0.600436958637E+03   -0.83237E-01   -0.89196E-01 15376   0.159E+00    0.528E-01
RMM:   4    -0.600444003254E+03   -0.70446E-02   -0.10521E-01 15719   0.537E-01    0.433E-01
RMM:   5    -0.600441122932E+03    0.28803E-02   -0.22298E-02 14388   0.242E-01    0.104E-01
RMM:   6    -0.600441567376E+03   -0.44444E-03   -0.62818E-03 14559   0.125E-01    0.968E-02
RMM:   7    -0.600441526289E+03    0.41087E-04   -0.17536E-03 14933   0.581E-02    0.267E-02
RMM:   8    -0.600441566990E+03   -0.40701E-04   -0.43372E-04 13230   0.282E-02    0.118E-02
RMM:   9    -0.600441576929E+03   -0.99391E-05   -0.11796E-04 10168   0.148E-02    0.525E-03
RMM:  10    -0.600441581120E+03   -0.41907E-05   -0.45533E-05  8574   0.835E-03
  30 F= -.60044158E+03 E0= -.60043363E+03  d E =-.178340E+00
 curvature:  -0.13 expect dE=-0.308E-01 dE for cont linesearch -0.751E-05
 trial: gam= 0.85971 g(F)=  0.245E+00 g(S)=  0.000E+00 ort = 0.505E-02 (trialstep = 0.441E+00)
 search vector abs. value=  0.569E+00
 bond charge predicted
       N       E                     dE             d eps       ncg     rms          rms(c)
DAV:   1    -0.600441423135E+03    0.15379E-03   -0.23985E+01 11383   0.726E+00    0.842E-01
RMM:   2    -0.600519025391E+03   -0.77602E-01   -0.86066E-01 13439   0.194E+00    0.275E-01
RMM:   3    -0.600537522472E+03   -0.18497E-01   -0.19799E-01 15312   0.751E-01    0.252E-01
RMM:   4    -0.600539190233E+03   -0.16678E-02   -0.24602E-02 15618   0.259E-01    0.208E-01
RMM:   5    -0.600538557696E+03    0.63254E-03   -0.53454E-03 13525   0.115E-01    0.578E-02
RMM:   6    -0.600538636315E+03   -0.78619E-04   -0.13461E-03 15288   0.576E-02    0.457E-02
RMM:   7    -0.600538629694E+03    0.66212E-05   -0.35148E-04 13069   0.241E-02    0.148E-02
RMM:   8    -0.600538637531E+03   -0.78374E-05   -0.10494E-04 10693   0.164E-02    0.648E-03
RMM:   9    -0.600538640215E+03   -0.26838E-05   -0.33483E-05  8632   0.791E-03
  31 F= -.60053864E+03 E0= -.60053113E+03  d E =-.970591E-01
 trial-energy change:   -0.097059  1 .order   -0.096742   -0.109950   -0.083534
 step:   1.5550(harm=  1.8375)  dis= 0.05797  next Energy=  -600.649080 (dE=-0.207E+00)
 bond charge predicted
       N       E                     dE             d eps       ncg     rms          rms(c)
DAV:   1    -0.599997810387E+03    0.54083E+00   -0.15262E+02 11453   0.183E+01    0.205E+00
RMM:   2    -0.600530458619E+03   -0.53265E+00   -0.57870E+00 13614   0.504E+00    0.662E-01
RMM:   3    -0.600655429465E+03   -0.12497E+00   -0.13202E+00 15390   0.195E+00    0.646E-01
RMM:   4    -0.600665964160E+03   -0.10535E-01   -0.16052E-01 15611   0.664E-01    0.518E-01
RMM:   5    -0.600662197574E+03    0.37666E-02   -0.33170E-02 14787   0.284E-01    0.128E-01
RMM:   6    -0.600662817880E+03   -0.62031E-03   -0.79909E-03 14627   0.137E-01    0.111E-01
RMM:   7    -0.600662814615E+03    0.32650E-05   -0.23770E-03 15130   0.645E-02    0.306E-02
RMM:   8    -0.600662875927E+03   -0.61312E-04   -0.61342E-04 13272   0.314E-02    0.231E-02
RMM:   9    -0.600662885178E+03   -0.92514E-05   -0.18774E-04 11015   0.175E-02    0.801E-03
RMM:  10    -0.600662891614E+03   -0.64362E-05   -0.72599E-05  9052   0.101E-02
  32 F= -.60066289E+03 E0= -.60065697E+03  d E =-.221310E+00
 curvature:  -2.01 expect dE=-0.588E+00 dE for cont linesearch -0.221E-02
 trial: gam= 1.05100 g(F)=  0.292E+00 g(S)=  0.000E+00 ort = 0.250E-01 (trialstep = 0.389E+00)
 search vector abs. value=  0.973E+00
 bond charge predicted
       N       E                     dE             d eps       ncg     rms          rms(c)
DAV:   1    -0.600651103594E+03    0.11782E-01   -0.31675E+01 11952   0.823E+00    0.919E-01
RMM:   2    -0.600752613044E+03   -0.10151E+00   -0.11208E+00 13604   0.219E+00    0.307E-01
RMM:   3    -0.600775809014E+03   -0.23196E-01   -0.24608E-01 15114   0.831E-01    0.272E-01
RMM:   4    -0.600778035025E+03   -0.22260E-02   -0.32339E-02 15682   0.295E-01    0.227E-01
RMM:   5    -0.600777256199E+03    0.77883E-03   -0.61550E-03 14410   0.120E-01    0.531E-02
RMM:   6    -0.600777386409E+03   -0.13021E-03   -0.16299E-03 14731   0.603E-02    0.478E-02
RMM:   7    -0.600777383892E+03    0.25164E-05   -0.41762E-04 13438   0.272E-02    0.145E-02
RMM:   8    -0.600777395831E+03   -0.11939E-04   -0.13071E-04 10497   0.157E-02    0.892E-03
RMM:   9    -0.600777397253E+03   -0.14215E-05   -0.38762E-05  8871   0.901E-03
  33 F= -.60077740E+03 E0= -.60077207E+03  d E =-.114506E+00
 trial-energy change:   -0.114506  1 .order   -0.113397   -0.123570   -0.103225
 step:   1.3219(harm=  2.3600)  dis= 0.07843  next Energy=  -600.916744 (dE=-0.254E+00)
 bond charge predicted
       N       E                     dE             d eps       ncg     rms          rms(c)
DAV:   1    -0.600150842372E+03    0.62655E+00   -0.18339E+02 11670   0.199E+01    0.215E+00
RMM:   2    -0.600783739900E+03   -0.63290E+00   -0.68767E+00 13585   0.548E+00    0.733E-01
RMM:   3    -0.600936413005E+03   -0.15267E+00   -0.16060E+00 15245   0.211E+00    0.670E-01
RMM:   4    -0.600951708247E+03   -0.15295E-01   -0.21542E-01 15675   0.749E-01    0.551E-01
RMM:   5    -0.600947207918E+03    0.45003E-02   -0.37700E-02 14797   0.302E-01    0.131E-01
RMM:   6    -0.600947980745E+03   -0.77283E-03   -0.10119E-02 14169   0.158E-01    0.126E-01
RMM:   7    -0.600947947162E+03    0.33582E-04   -0.30077E-03 14882   0.743E-02    0.335E-02
RMM:   8    -0.600948024765E+03   -0.77603E-04   -0.74612E-04 13447   0.346E-02    0.248E-02
RMM:   9    -0.600948031194E+03   -0.64286E-05   -0.21223E-04 11240   0.190E-02    0.510E-03
RMM:  10    -0.600948039265E+03   -0.80712E-05   -0.80295E-05  9168   0.102E-02
  34 F= -.60094804E+03 E0= -.60094234E+03  d E =-.285148E+00
 curvature:  -2.61 expect dE=-0.669E+00 dE for cont linesearch -0.174E-01
 ZBRENT: extrapolating
 opt :   1.7287  next Energy=  -600.964441 (dE=-0.302E+00)
 bond charge predicted
       N       E                     dE             d eps       ncg     rms          rms(c)
DAV:   1    -0.600820086488E+03    0.12794E+00   -0.34840E+01 12000   0.856E+00    0.925E-01
RMM:   2    -0.600931816129E+03   -0.11173E+00   -0.12084E+00 13548   0.228E+00    0.322E-01
RMM:   3    -0.600958004516E+03   -0.26188E-01   -0.27869E-01 15248   0.876E-01    0.292E-01
RMM:   4    -0.600960475098E+03   -0.24706E-02   -0.35118E-02 15654   0.305E-01    0.243E-01
RMM:   5    -0.600959575745E+03    0.89935E-03   -0.73888E-03 14143   0.133E-01    0.616E-02
RMM:   6    -0.600959718393E+03   -0.14265E-03   -0.18881E-03 14838   0.663E-02    0.556E-02
RMM:   7    -0.600959704886E+03    0.13506E-04   -0.51235E-04 13595   0.294E-02    0.140E-02
RMM:   8    -0.600959718155E+03   -0.13269E-04   -0.13557E-04 10882   0.171E-02    0.814E-03
RMM:   9    -0.600959720825E+03   -0.26698E-05   -0.41940E-05  8904   0.910E-03
  35 F= -.60095972E+03 E0= -.60095334E+03  d E =-.296829E+00
 curvature:  -2.45 expect dE=-0.929E+00 dE for cont linesearch -0.235E-02
 trial: gam= 1.07485 g(F)=  0.379E+00 g(S)=  0.000E+00 ort =-0.305E-01 (trialstep = 0.445E+00)
 search vector abs. value=  0.144E+01
 bond charge predicted
       N       E                     dE             d eps       ncg     rms          rms(c)
DAV:   1    -0.600848355600E+03    0.11136E+00   -0.61442E+01 11560   0.114E+01    0.127E+00
RMM:   2    -0.601041727682E+03   -0.19337E+00   -0.21612E+00 13608   0.305E+00    0.444E-01
RMM:   3    -0.601087759730E+03   -0.46032E-01   -0.49191E-01 15281   0.116E+00    0.393E-01
RMM:   4    -0.601091924818E+03   -0.41651E-02   -0.60844E-02 15593   0.397E-01    0.324E-01
RMM:   5    -0.601090370468E+03    0.15543E-02   -0.14113E-02 13872   0.182E-01    0.930E-02
RMM:   6    -0.601090530868E+03   -0.16040E-03   -0.32341E-03 15136   0.884E-02    0.687E-02
RMM:   7    -0.601090523146E+03    0.77218E-05   -0.92413E-04 13983   0.381E-02    0.194E-02
RMM:   8    -0.601090545001E+03   -0.21855E-04   -0.22277E-04 11950   0.216E-02    0.865E-03
RMM:   9    -0.601090551353E+03   -0.63523E-05   -0.74183E-05  9356   0.110E-02
  36 F= -.60109055E+03 E0= -.60108410E+03  d E =-.130831E+00
 trial-energy change:   -0.130831  1 .order   -0.129182   -0.153724   -0.104639
 step:   1.0807(harm=  1.3923)  dis= 0.06922  next Energy=  -601.170244 (dE=-0.211E+00)
 bond charge predicted
       N       E                     dE             d eps       ncg     rms          rms(c)
DAV:   1    -0.600660171211E+03    0.43037E+00   -0.12611E+02 11632   0.163E+01    0.173E+00
RMM:   2    -0.601069554375E+03   -0.40938E+00   -0.44704E+00 13532   0.441E+00    0.591E-01
RMM:   3    -0.601172464505E+03   -0.10291E+00   -0.10789E+00 15284   0.172E+00    0.545E-01
RMM:   4    -0.601181346477E+03   -0.88820E-02   -0.13722E-01 15588   0.591E-01    0.392E-01
RMM:   5    -0.601179653721E+03    0.16928E-02   -0.25550E-02 14663   0.247E-01    0.952E-02
RMM:   6    -0.601180129984E+03   -0.47626E-03   -0.60212E-03 14736   0.119E-01    0.808E-02
RMM:   7    -0.601180194329E+03   -0.64345E-04   -0.18623E-03 14578   0.549E-02    0.245E-02
RMM:   8    -0.601180241117E+03   -0.46788E-04   -0.44664E-04 12583   0.274E-02    0.188E-02
RMM:   9    -0.601180247478E+03   -0.63611E-05   -0.14364E-04 10467   0.149E-02    0.412E-03
RMM:  10    -0.601180252364E+03   -0.48863E-05   -0.52572E-05  8800   0.851E-03
  37 F= -.60118025E+03 E0= -.60117469E+03  d E =-.220532E+00
 curvature:  -2.58 expect dE=-0.116E+01 dE for cont linesearch -0.123E-02
 trial: gam= 0.52609 g(F)=  0.449E+00 g(S)=  0.000E+00 ort = 0.262E-01 (trialstep = 0.572E+00)
 search vector abs. value=  0.874E+00
 bond charge predicted
       N       E                     dE             d eps       ncg     rms          rms(c)
DAV:   1    -0.601116138576E+03    0.64109E-01   -0.61397E+01 11720   0.114E+01    0.112E+00
RMM:   2    -0.601337124790E+03   -0.22099E+00   -0.23491E+00 13784   0.323E+00    0.392E-01
RMM:   3    -0.601387536943E+03   -0.50412E-01   -0.53531E-01 15420   0.121E+00    0.385E-01
RMM:   4    -0.601390941652E+03   -0.34047E-02   -0.59792E-02 15600   0.400E-01    0.252E-01
RMM:   5    -0.601390310409E+03    0.63124E-03   -0.12976E-02 14862   0.177E-01    0.770E-02
RMM:   6    -0.601390504394E+03   -0.19398E-03   -0.28771E-03 15341   0.818E-02    0.547E-02
RMM:   7    -0.601390536088E+03   -0.31694E-04   -0.85374E-04 14165   0.360E-02    0.160E-02
RMM:   8    -0.601390554393E+03   -0.18305E-04   -0.19206E-04 11325   0.189E-02    0.973E-03
RMM:   9    -0.601390559001E+03   -0.46084E-05   -0.70373E-05  9285   0.106E-02
  38 F= -.60139056E+03 E0= -.60138663E+03  d E =-.210307E+00
 trial-energy change:   -0.210307  1 .order   -0.207587   -0.264371   -0.150804
 step:   1.1597(harm=  1.3311)  dis= 0.07031  next Energy=  -601.471047 (dE=-0.291E+00)
 bond charge predicted
       N       E                     dE             d eps       ncg     rms          rms(c)
DAV:   1    -0.601187250610E+03    0.20330E+00   -0.65015E+01 11616   0.117E+01    0.111E+00
RMM:   2    -0.601421495702E+03   -0.23425E+00   -0.24549E+00 13767   0.330E+00    0.398E-01
RMM:   3    -0.601474356630E+03   -0.52861E-01   -0.56080E-01 15410   0.123E+00    0.394E-01
RMM:   4    -0.601477761747E+03   -0.34051E-02   -0.64494E-02 15579   0.413E-01    0.233E-01
RMM:   5    -0.601477430917E+03    0.33083E-03   -0.13293E-02 15097   0.179E-01    0.762E-02
RMM:   6    -0.601477646070E+03   -0.21515E-03   -0.29324E-03 15608   0.810E-02    0.519E-02
RMM:   7    -0.601477685280E+03   -0.39210E-04   -0.84285E-04 14271   0.367E-02    0.161E-02
RMM:   8    -0.601477704440E+03   -0.19159E-04   -0.20324E-04 11538   0.192E-02    0.112E-02
RMM:   9    -0.601477708543E+03   -0.41036E-05   -0.73534E-05  9349   0.111E-02
  39 F= -.60147771E+03 E0= -.60147496E+03  d E =-.297456E+00
 curvature:  -1.19 expect dE=-0.236E+00 dE for cont linesearch -0.633E-03
 trial: gam= 0.30001 g(F)=  0.198E+00 g(S)=  0.000E+00 ort = 0.215E-01 (trialstep = 0.689E+00)
 search vector abs. value=  0.289E+00
 bond charge predicted
       N       E                     dE             d eps       ncg     rms          rms(c)
DAV:   1    -0.601456445404E+03    0.21259E-01   -0.29654E+01 11576   0.811E+00    0.753E-01
RMM:   2    -0.601557116086E+03   -0.10067E+00   -0.10536E+00 13575   0.227E+00    0.273E-01
RMM:   3    -0.601583467097E+03   -0.26351E-01   -0.28024E-01 15345   0.881E-01    0.279E-01
RMM:   4    -0.601585339234E+03   -0.18721E-02   -0.31985E-02 15675   0.299E-01    0.176E-01
RMM:   5    -0.601585029004E+03    0.31023E-03   -0.65094E-03 14833   0.130E-01    0.526E-02
RMM:   6    -0.601585158350E+03   -0.12935E-03   -0.15283E-03 15399   0.610E-02    0.439E-02
RMM:   7    -0.601585165328E+03   -0.69782E-05   -0.42802E-04 13889   0.283E-02    0.139E-02
RMM:   8    -0.601585174846E+03   -0.95182E-05   -0.10432E-04 10309   0.145E-02    0.121E-02
RMM:   9    -0.601585174715E+03    0.13098E-06   -0.35149E-05  8712   0.941E-03
  40 F= -.60158517E+03 E0= -.60158187E+03  d E =-.107466E+00
 trial-energy change:   -0.107466  1 .order   -0.106575   -0.140812   -0.072338
 step:   1.3227(harm=  1.4177)  dis= 0.03175  next Energy=  -601.619096 (dE=-0.141E+00)
 bond charge predicted
       N       E                     dE             d eps       ncg     rms          rms(c)
DAV:   1    -0.601515051720E+03    0.70123E-01   -0.25042E+01 11552   0.744E+00    0.691E-01
RMM:   2    -0.601599577124E+03   -0.84525E-01   -0.88353E-01 13583   0.207E+00    0.251E-01
RMM:   3    -0.601621454237E+03   -0.21877E-01   -0.23233E-01 15344   0.802E-01    0.255E-01
RMM:   4    -0.601622983255E+03   -0.15290E-02   -0.26727E-02 15642   0.273E-01    0.158E-01
RMM:   5    -0.601622750386E+03    0.23287E-03   -0.54580E-03 14869   0.119E-01    0.476E-02
RMM:   6    -0.601622858414E+03   -0.10803E-03   -0.12759E-03 15399   0.554E-02    0.386E-02
RMM:   7    -0.601622866329E+03   -0.79154E-05   -0.35074E-04 13619   0.256E-02    0.124E-02
RMM:   8    -0.601622874298E+03   -0.79695E-05   -0.87681E-05 10002   0.136E-02
  41 F= -.60162287E+03 E0= -.60161889E+03  d E =-.145166E+00
 curvature:  -0.99 expect dE=-0.125E+00 dE for cont linesearch -0.433E-03
 trial: gam= 0.56516 g(F)=  0.127E+00 g(S)=  0.000E+00 ort = 0.113E-01 (trialstep = 0.816E+00)
 search vector abs. value=  0.232E+00
 bond charge predicted
       N       E                     dE             d eps       ncg     rms          rms(c)
DAV:   1    -0.601548192157E+03    0.74674E-01   -0.33879E+01 11152   0.870E+00    0.848E-01
RMM:   2    -0.601667867607E+03   -0.11968E+00   -0.12494E+00 13577   0.242E+00    0.286E-01
RMM:   3    -0.601697040165E+03   -0.29173E-01   -0.30922E-01 15456   0.928E-01    0.300E-01
RMM:   4    -0.601699069983E+03   -0.20298E-02   -0.34871E-02 15688   0.310E-01    0.192E-01
RMM:   5    -0.601698695769E+03    0.37421E-03   -0.76692E-03 14569   0.136E-01    0.659E-02
RMM:   6    -0.601698825701E+03   -0.12993E-03   -0.17495E-03 15541   0.635E-02    0.490E-02
RMM:   7    -0.601698836300E+03   -0.10600E-04   -0.52360E-04 14031   0.290E-02    0.142E-02
RMM:   8    -0.601698848066E+03   -0.11765E-04   -0.12479E-04 10159   0.151E-02    0.120E-02
RMM:   9    -0.601698849481E+03   -0.14150E-05   -0.45538E-05  8848   0.952E-03
  42 F= -.60169885E+03 E0= -.60169441E+03  d E =-.759752E-01
 trial-energy change:   -0.075975  1 .order   -0.075370   -0.108731   -0.042010
 step:   1.2892(harm=  1.3298)  dis= 0.02152  next Energy=  -601.711146 (dE=-0.883E-01)
 bond charge predicted
       N       E                     dE             d eps       ncg     rms          rms(c)
DAV:   1    -0.601663354386E+03    0.35494E-01   -0.11401E+01 11616   0.504E+00    0.492E-01
RMM:   2    -0.601702835326E+03   -0.39481E-01   -0.41258E-01 13564   0.138E+00    0.165E-01
RMM:   3    -0.601712034818E+03   -0.91995E-02   -0.97762E-02 15448   0.523E-01    0.173E-01
RMM:   4    -0.601712663979E+03   -0.62916E-03   -0.11005E-02 15655   0.175E-01    0.112E-01
RMM:   5    -0.601712529942E+03    0.13404E-03   -0.25343E-03 14469   0.770E-02    0.401E-02
RMM:   6    -0.601712568414E+03   -0.38472E-04   -0.56997E-04 15123   0.360E-02    0.282E-02
RMM:   7    -0.601712571514E+03   -0.30997E-05   -0.17084E-04 11591   0.166E-02    0.769E-03
RMM:   8    -0.601712575357E+03   -0.38433E-05   -0.43299E-05  8886   0.104E-02
  43 F= -.60171258E+03 E0= -.60170788E+03  d E =-.897011E-01
 curvature:  -1.15 expect dE=-0.856E-01 dE for cont linesearch -0.858E-04
 trial: gam= 0.62145 g(F)=  0.744E-01 g(S)=  0.000E+00 ort = 0.416E-02 (trialstep = 0.911E+00)
 search vector abs. value=  0.169E+00
 bond charge predicted
       N       E                     dE             d eps       ncg     rms          rms(c)
DAV:   1    -0.601622107363E+03    0.90464E-01   -0.31558E+01 11152   0.833E+00    0.843E-01
RMM:   2    -0.601730994778E+03   -0.10889E+00   -0.11369E+00 13539   0.227E+00    0.273E-01
RMM:   3    -0.601755986996E+03   -0.24992E-01   -0.26260E-01 15427   0.862E-01    0.286E-01
RMM:   4    -0.601757630827E+03   -0.16438E-02   -0.30337E-02 15666   0.289E-01    0.180E-01
RMM:   5    -0.601757334245E+03    0.29658E-03   -0.68386E-03 14649   0.126E-01    0.615E-02
RMM:   6    -0.601757440066E+03   -0.10582E-03   -0.14839E-03 15537   0.581E-02    0.421E-02
RMM:   7    -0.601757456231E+03   -0.16165E-04   -0.43486E-04 13620   0.259E-02    0.121E-02
RMM:   8    -0.601757467574E+03   -0.11343E-04   -0.11048E-04  9962   0.144E-02    0.115E-02
RMM:   9    -0.601757468819E+03   -0.12446E-05   -0.40416E-05  8748   0.883E-03
  44 F= -.60175747E+03 E0= -.60175245E+03  d E =-.448935E-01
 trial-energy change:   -0.044893  1 .order   -0.044200   -0.070089   -0.018311
 step:   1.2018(harm=  1.2327)  dis= 0.01534  next Energy=  -601.760419 (dE=-0.478E-01)
 bond charge predicted
       N       E                     dE             d eps       ncg     rms          rms(c)
DAV:   1    -0.601747596105E+03    0.98715E-02   -0.32303E+00 11840   0.266E+00    0.269E-01
RMM:   2    -0.601758436193E+03   -0.10840E-01   -0.11326E-01 13498   0.706E-01    0.866E-02
RMM:   3    -0.601760803739E+03   -0.23675E-02   -0.24932E-02 15400   0.266E-01    0.904E-02
RMM:   4    -0.601760956884E+03   -0.15314E-03   -0.28883E-03 15467   0.896E-02    0.582E-02
RMM:   5    -0.601760925869E+03    0.31015E-04   -0.71179E-04 14351   0.400E-02    0.219E-02
RMM:   6    -0.601760933153E+03   -0.72844E-05   -0.14287E-04 11985   0.181E-02    0.134E-02
RMM:   7    -0.601760934765E+03   -0.16125E-05   -0.44459E-05  8810   0.974E-03
  45 F= -.60176093E+03 E0= -.60175598E+03  d E =-.483594E-01
 curvature:  -1.34 expect dE=-0.656E-01 dE for cont linesearch -0.252E-04
 trial: gam= 0.67752 g(F)=  0.489E-01 g(S)=  0.000E+00 ort = 0.178E-02 (trialstep = 0.969E+00)
 search vector abs. value=  0.129E+00
 bond charge predicted
       N       E                     dE             d eps       ncg     rms          rms(c)
DAV:   1    -0.601675322548E+03    0.85611E-01   -0.27393E+01 10999   0.775E+00    0.792E-01
RMM:   2    -0.601769246981E+03   -0.93924E-01   -0.98015E-01 13473   0.212E+00    0.253E-01
RMM:   3    -0.601792080911E+03   -0.22834E-01   -0.23767E-01 15397   0.816E-01    0.263E-01
RMM:   4    -0.601793893044E+03   -0.18121E-02   -0.26538E-02 15695   0.268E-01    0.189E-01
RMM:   5    -0.601793464442E+03    0.42860E-03   -0.60943E-03 14277   0.116E-01    0.715E-02
RMM:   6    -0.601793537582E+03   -0.73140E-04   -0.12929E-03 15582   0.535E-02    0.479E-02
RMM:   7    -0.601793537494E+03    0.88105E-07   -0.37815E-04 13015   0.235E-02    0.113E-02
RMM:   8    -0.601793547208E+03   -0.97135E-05   -0.95412E-05  9879   0.141E-02
  46 F= -.60179355E+03 E0= -.60178923E+03  d E =-.326124E-01
 trial-energy change:   -0.032612  1 .order   -0.031257   -0.048509   -0.014005
 step:   1.2694(harm=  1.3622)  dis= 0.01689  next Energy=  -601.795759 (dE=-0.348E-01)
 bond charge predicted
       N       E                     dE             d eps       ncg     rms          rms(c)
DAV:   1    -0.601785722237E+03    0.78153E-02   -0.26382E+00 11432   0.240E+00    0.242E-01
RMM:   2    -0.601794532267E+03   -0.88100E-02   -0.91952E-02 13450   0.644E-01    0.780E-02
RMM:   3    -0.601796602532E+03   -0.20703E-02   -0.21629E-02 15403   0.246E-01    0.817E-02
RMM:   4    -0.601796763771E+03   -0.16124E-03   -0.24006E-03 15493   0.809E-02    0.591E-02
RMM:   5    -0.601796724758E+03    0.39013E-04   -0.61941E-04 13791   0.367E-02    0.244E-02
RMM:   6    -0.601796728913E+03   -0.41550E-05   -0.12138E-04 11592   0.168E-02    0.149E-02
RMM:   7    -0.601796729129E+03   -0.21637E-06   -0.39303E-05  8604   0.944E-03
  47 F= -.60179673E+03 E0= -.60179267E+03  d E =-.357944E-01
 curvature:  -1.66 expect dE=-0.389E-01 dE for cont linesearch -0.202E-03
 trial: gam= 0.42749 g(F)=  0.235E-01 g(S)=  0.000E+00 ort = 0.397E-02 (trialstep = 0.103E+01)
 search vector abs. value=  0.504E-01
 bond charge predicted
       N       E                     dE             d eps       ncg     rms          rms(c)
DAV:   1    -0.601764079778E+03    0.32649E-01   -0.12345E+01 10903   0.515E+00    0.539E-01
RMM:   2    -0.601805225445E+03   -0.41146E-01   -0.42997E-01 13342   0.138E+00    0.168E-01
RMM:   3    -0.601815178509E+03   -0.99531E-02   -0.10449E-01 15381   0.535E-01    0.176E-01
RMM:   4    -0.601815973325E+03   -0.79482E-03   -0.11676E-02 15535   0.174E-01    0.125E-01
RMM:   5    -0.601815812771E+03    0.16055E-03   -0.28786E-03 14226   0.781E-02    0.557E-02
RMM:   6    -0.601815832078E+03   -0.19307E-04   -0.60331E-04 14986   0.353E-02    0.329E-02
RMM:   7    -0.601815833053E+03   -0.97499E-06   -0.18285E-04 11146   0.162E-02    0.772E-03
RMM:   8    -0.601815837191E+03   -0.41376E-05   -0.46723E-05  8967   0.106E-02
  48 F= -.60181584E+03 E0= -.60181263E+03  d E =-.191081E-01
 trial-energy change:   -0.019108  1 .order   -0.018424   -0.025890   -0.010958
 step:   1.5620(harm=  1.7842)  dis= 0.01309  next Energy=  -601.818770 (dE=-0.220E-01)
 bond charge predicted
       N       E                     dE             d eps       ncg     rms          rms(c)
DAV:   1    -0.601806139972E+03    0.96931E-02   -0.33142E+00 11264   0.267E+00    0.276E-01
RMM:   2    -0.601817046650E+03   -0.10907E-01   -0.11396E-01 13339   0.708E-01    0.870E-02
RMM:   3    -0.601819629959E+03   -0.25833E-02   -0.27188E-02 15377   0.273E-01    0.911E-02
RMM:   4    -0.601819829920E+03   -0.19996E-03   -0.30537E-03 15358   0.890E-02    0.629E-02
RMM:   5    -0.601819793588E+03    0.36332E-04   -0.78030E-04 13804   0.408E-02    0.292E-02
RMM:   6    -0.601819797156E+03   -0.35688E-05   -0.15758E-04 11891   0.183E-02    0.163E-02
RMM:   7    -0.601819798014E+03   -0.85770E-06   -0.51099E-05  8749   0.101E-02
  49 F= -.60181980E+03 E0= -.60181706E+03  d E =-.230689E-01
 curvature:  -1.63 expect dE=-0.340E-01 dE for cont linesearch -0.263E-03
 trial: gam= 0.88023 g(F)=  0.208E-01 g(S)=  0.000E+00 ort = 0.285E-02 (trialstep = 0.882E+00)
 search vector abs. value=  0.649E-01
 bond charge predicted
       N       E                     dE             d eps       ncg     rms          rms(c)
DAV:   1    -0.601789034296E+03    0.30763E-01   -0.11983E+01 10860   0.496E+00    0.555E-01
RMM:   2    -0.601826237991E+03   -0.37204E-01   -0.39068E-01 13034   0.128E+00    0.171E-01
RMM:   3    -0.601835444701E+03   -0.92067E-02   -0.96561E-02 15268   0.505E-01    0.174E-01
RMM:   4    -0.601836193402E+03   -0.74870E-03   -0.11023E-02 15511   0.166E-01    0.128E-01
RMM:   5    -0.601836041547E+03    0.15186E-03   -0.28032E-03 14128   0.755E-02    0.586E-02
RMM:   6    -0.601836052926E+03   -0.11379E-04   -0.57539E-04 14656   0.342E-02    0.331E-02
RMM:   7    -0.601836054540E+03   -0.16141E-05   -0.18355E-04 10910   0.158E-02    0.752E-03
RMM:   8    -0.601836059004E+03   -0.44636E-05   -0.48170E-05  8851   0.109E-02
  50 F= -.60183606E+03 E0= -.60183404E+03  d E =-.162610E-01
 trial-energy change:   -0.016261  1 .order   -0.015659   -0.020582   -0.010736
 step:   1.4778(harm=  1.8439)  dis= 0.01339  next Energy=  -601.839869 (dE=-0.201E-01)
 bond charge predicted
       N       E                     dE             d eps       ncg     rms          rms(c)
DAV:   1    -0.601820377028E+03    0.15678E-01   -0.54655E+00 11184   0.335E+00    0.372E-01
RMM:   2    -0.601837244004E+03   -0.16867E-01   -0.17711E-01 13024   0.857E-01    0.115E-01
RMM:   3    -0.601841381397E+03   -0.41374E-02   -0.43457E-02 15246   0.339E-01    0.118E-01
RMM:   4    -0.601841709670E+03   -0.32827E-03   -0.49747E-03 15462   0.112E-01    0.845E-02
RMM:   5    -0.601841646370E+03    0.63300E-04   -0.12685E-03 13977   0.509E-02    0.383E-02
RMM:   6    -0.601841652217E+03   -0.58463E-05   -0.26152E-04 13133   0.232E-02    0.214E-02
RMM:   7    -0.601841653716E+03   -0.14998E-05   -0.83920E-05  9244   0.116E-02
  51 F= -.60184165E+03 E0= -.60184007E+03  d E =-.218557E-01
 curvature:  -2.19 expect dE=-0.344E-01 dE for cont linesearch -0.785E-03
 ZBRENT: increasing intervall
 opt :   2.6691  next Energy=  -601.838642 (dE=-0.188E-01)
 bond charge predicted
       N       E                     dE             d eps       ncg     rms          rms(c)
DAV:   1    -0.601754142518E+03    0.87510E-01   -0.21859E+01 10931   0.670E+00    0.746E-01
RMM:   2    -0.601822347266E+03   -0.68205E-01   -0.71607E-01 13057   0.172E+00    0.229E-01
RMM:   3    -0.601838747869E+03   -0.16401E-01   -0.17214E-01 15249   0.678E-01    0.235E-01
RMM:   4    -0.601839993083E+03   -0.12452E-02   -0.19900E-02 15483   0.223E-01    0.161E-01
RMM:   5    -0.601839783243E+03    0.20984E-03   -0.49403E-03 14274   0.101E-01    0.729E-02
RMM:   6    -0.601839808146E+03   -0.24903E-04   -0.10399E-03 15352   0.455E-02    0.384E-02
RMM:   7    -0.601839818878E+03   -0.10733E-04   -0.32065E-04 12225   0.200E-02    0.977E-03
RMM:   8    -0.601839826789E+03   -0.79110E-05   -0.80489E-05  9363   0.126E-02
  52 F= -.60183983E+03 E0= -.60183893E+03  d E =-.200288E-01
 curvature:   8.41 expect dE= 0.489E+00 dE for cont linesearch  0.125E-01
 ZBRENT: bracketing found
 ZBRENT: interpolating
 opt :   1.8699  next Energy=  -601.842599 (dE=-0.228E-01)
 bond charge predicted
       N       E                     dE             d eps       ncg     rms          rms(c)
DAV:   1    -0.601804883286E+03    0.34936E-01   -0.98301E+00 10786   0.449E+00    0.505E-01
RMM:   2    -0.601835141422E+03   -0.30258E-01   -0.31756E-01 13048   0.115E+00    0.154E-01
RMM:   3    -0.601842526750E+03   -0.73853E-02   -0.77507E-02 15281   0.452E-01    0.158E-01
RMM:   4    -0.601843048433E+03   -0.52168E-03   -0.84542E-03 15454   0.147E-01    0.109E-01
RMM:   5    -0.601842944650E+03    0.10378E-03   -0.21733E-03 14310   0.673E-02    0.489E-02
RMM:   6    -0.601842956014E+03   -0.11364E-04   -0.44721E-04 14203   0.304E-02    0.269E-02
RMM:   7    -0.601842959518E+03   -0.35039E-05   -0.13886E-04 10208   0.142E-02    0.680E-03
RMM:   8    -0.601842963087E+03   -0.35695E-05   -0.38379E-05  8534   0.101E-02
  53 F= -.60184296E+03 E0= -.60184164E+03  d E =-.231651E-01
 curvature:  -0.64 expect dE=-0.160E-01 dE for cont linesearch -0.356E-04
 trial: gam= 1.30499 g(F)=  0.253E-01 g(S)=  0.000E+00 ort = 0.191E-02 (trialstep = 0.498E+00)
 search vector abs. value=  0.141E+00
 bond charge predicted
       N       E                     dE             d eps       ncg     rms          rms(c)
DAV:   1    -0.601822760863E+03    0.20199E-01   -0.82038E+00 10900   0.410E+00    0.457E-01
RMM:   2    -0.601847379086E+03   -0.24618E-01   -0.25784E-01 12926   0.104E+00    0.142E-01
RMM:   3    -0.601853922269E+03   -0.65432E-02   -0.67322E-02 15286   0.422E-01    0.140E-01
RMM:   4    -0.601854459125E+03   -0.53686E-03   -0.76392E-03 15464   0.139E-01    0.101E-01
RMM:   5    -0.601854382672E+03    0.76453E-04   -0.19121E-03 13969   0.624E-02    0.526E-02
RMM:   6    -0.601854381156E+03    0.15156E-05   -0.39450E-04 14114   0.282E-02    0.262E-02
RMM:   7    -0.601854383454E+03   -0.22979E-05   -0.12375E-04  9659   0.132E-02    0.656E-03
RMM:   8    -0.601854386021E+03   -0.25665E-05   -0.32479E-05  8140   0.952E-03
  54 F= -.60185439E+03 E0= -.60185344E+03  d E =-.114229E-01
 trial-energy change:   -0.011423  1 .order   -0.011448   -0.013811   -0.009084
 step:   1.4547(harm=  1.4547)  dis= 0.01595  next Energy=  -601.863141 (dE=-0.202E-01)
 bond charge predicted
       N       E                     dE             d eps       ncg     rms          rms(c)
DAV:   1    -0.601748202688E+03    0.10618E+00   -0.30320E+01 11113   0.788E+00    0.873E-01
RMM:   2    -0.601840657448E+03   -0.92455E-01   -0.96810E-01 12961   0.202E+00    0.272E-01
RMM:   3    -0.601865196343E+03   -0.24539E-01   -0.25243E-01 15290   0.817E-01    0.272E-01
RMM:   4    -0.601867193547E+03   -0.19972E-02   -0.28644E-02 15512   0.269E-01    0.197E-01
RMM:   5    -0.601866884863E+03    0.30868E-03   -0.71052E-03 13959   0.120E-01    0.993E-02
RMM:   6    -0.601866893496E+03   -0.86332E-05   -0.15162E-03 15604   0.548E-02    0.501E-02
RMM:   7    -0.601866903261E+03   -0.97649E-05   -0.45990E-04 12698   0.235E-02    0.129E-02
RMM:   8    -0.601866914247E+03   -0.10986E-04   -0.11112E-04  9671   0.145E-02    0.640E-03
RMM:   9    -0.601866919029E+03   -0.47818E-05   -0.45164E-05  8195   0.780E-03
  55 F= -.60186692E+03 E0= -.60186642E+03  d E =-.239559E-01
 curvature:  -3.69 expect dE=-0.882E-01 dE for cont linesearch -0.844E-03
 ZBRENT: extrapolating
 opt :   1.8866  next Energy=  -601.868144 (dE=-0.252E-01)
 bond charge predicted
       N       E                     dE             d eps       ncg     rms          rms(c)
DAV:   1    -0.601844651935E+03    0.22262E-01   -0.61774E+00 11464   0.355E+00    0.393E-01
RMM:   2    -0.601863111585E+03   -0.18460E-01   -0.19338E-01 12922   0.900E-01    0.123E-01
RMM:   3    -0.601867962526E+03   -0.48509E-02   -0.50015E-02 15259   0.363E-01    0.120E-01
RMM:   4    -0.601868378756E+03   -0.41623E-03   -0.58842E-03 15458   0.121E-01    0.874E-02
RMM:   5    -0.601868324651E+03    0.54105E-04   -0.14390E-03 13849   0.540E-02    0.445E-02
RMM:   6    -0.601868326138E+03   -0.14871E-05   -0.30475E-04 13459   0.246E-02    0.223E-02
RMM:   7    -0.601868328503E+03   -0.23652E-05   -0.95896E-05  9265   0.121E-02
  56 F= -.60186833E+03 E0= -.60186791E+03  d E =-.253654E-01
 curvature:  -5.36 expect dE=-0.194E+00 dE for cont linesearch -0.101E-03
 trial: gam= 1.34029 g(F)=  0.362E-01 g(S)=  0.000E+00 ort =-0.163E-02 (trialstep = 0.383E+00)
 search vector abs. value=  0.285E+00
 bond charge predicted
       N       E                     dE             d eps       ncg     rms          rms(c)
DAV:   1    -0.601842948914E+03    0.25377E-01   -0.97357E+00 11096   0.444E+00    0.483E-01
RMM:   2    -0.601872253532E+03   -0.29305E-01   -0.30555E-01 12970   0.113E+00    0.151E-01
RMM:   3    -0.601879943573E+03   -0.76900E-02   -0.78382E-02 15258   0.455E-01    0.147E-01
RMM:   4    -0.601880579375E+03   -0.63580E-03   -0.91099E-03 15466   0.150E-01    0.103E-01
RMM:   5    -0.601880515333E+03    0.64042E-04   -0.21390E-03 14081   0.649E-02    0.533E-02
RMM:   6    -0.601880515882E+03   -0.54924E-06   -0.46121E-04 14106   0.292E-02    0.243E-02
RMM:   7    -0.601880522058E+03   -0.61762E-05   -0.14183E-04  9832   0.138E-02    0.630E-03
RMM:   8    -0.601880525315E+03   -0.32572E-05   -0.37069E-05  8299   0.960E-03
  57 F= -.60188053E+03 E0= -.60188012E+03  d E =-.121968E-01
 ZBRENT: can't locate minimum, use default step
 trial-energy change:   -0.012197  1 .order   -0.011515   -0.013060   -0.009970
 step:   1.5336(harm=  1.6205)  dis= 0.02828  next Energy=  -601.895927 (dE=-0.276E-01)
 bond charge predicted
       N       E                     dE             d eps       ncg     rms          rms(c)
DAV:   1    -0.601546203200E+03    0.33432E+00   -0.87553E+01 11088   0.133E+01    0.146E+00
RMM:   2    -0.601821198585E+03   -0.27500E+00   -0.28695E+00 13048   0.347E+00    0.456E-01
RMM:   3    -0.601892657841E+03   -0.71459E-01   -0.72736E-01 15286   0.140E+00    0.446E-01
RMM:   4    -0.601898737012E+03   -0.60792E-02   -0.85465E-02 15498   0.459E-01    0.324E-01
RMM:   5    -0.601897804696E+03    0.93232E-03   -0.19481E-02 14288   0.198E-01    0.143E-01
RMM:   6    -0.601897927228E+03   -0.12253E-03   -0.41047E-03 15670   0.883E-02    0.762E-02
RMM:   7    -0.601897968860E+03   -0.41631E-04   -0.12446E-03 14215   0.392E-02    0.200E-02
RMM:   8    -0.601897999110E+03   -0.30250E-04   -0.29721E-04 11085   0.205E-02    0.126E-02
RMM:   9    -0.601898009562E+03   -0.10453E-04   -0.11319E-04  9260   0.115E-02    0.785E-03
RMM:  10    -0.601898012158E+03   -0.25961E-05   -0.36563E-05  8131   0.739E-03
  58 F= -.60189801E+03 E0= -.60189685E+03  d E =-.296837E-01
 curvature:  -6.74 expect dE=-0.235E+00 dE for cont linesearch -0.958E-04
 trial: gam= 0.72901 g(F)=  0.348E-01 g(S)=  0.000E+00 ort = 0.201E-02 (trialstep = 0.613E+00)
 search vector abs. value=  0.189E+00
 bond charge predicted
       N       E                     dE             d eps       ncg     rms          rms(c)
DAV:   1    -0.601855886893E+03    0.42123E-01   -0.16682E+01 11488   0.572E+00    0.639E-01
RMM:   2    -0.601904809876E+03   -0.48923E-01   -0.51471E-01 12951   0.144E+00    0.203E-01
RMM:   3    -0.601916895909E+03   -0.12086E-01   -0.12394E-01 15234   0.576E-01    0.191E-01
RMM:   4    -0.601918032018E+03   -0.11361E-02   -0.15481E-02 15597   0.193E-01    0.155E-01
RMM:   5    -0.601917771887E+03    0.26013E-03   -0.39462E-03 13930   0.864E-02    0.703E-02
RMM:   6    -0.601917776583E+03   -0.46964E-05   -0.80379E-04 14935   0.391E-02    0.379E-02
RMM:   7    -0.601917778307E+03   -0.17239E-05   -0.24287E-04 11100   0.172E-02    0.103E-02
RMM:   8    -0.601917784239E+03   -0.59318E-05   -0.64583E-05  9142   0.118E-02
  59 F= -.60191778E+03 E0= -.60191595E+03  d E =-.197721E-01
 trial-energy change:   -0.019772  1 .order   -0.019033   -0.022247   -0.015820
 step:   1.2432(harm=  2.1234)  dis= 0.02124  next Energy=  -601.926703 (dE=-0.287E-01)
 bond charge predicted
       N       E                     dE             d eps       ncg     rms          rms(c)
DAV:   1    -0.601866601526E+03    0.51177E-01   -0.17589E+01 11336   0.587E+00    0.657E-01
RMM:   2    -0.601918172798E+03   -0.51571E-01   -0.54414E-01 12960   0.148E+00    0.213E-01
RMM:   3    -0.601930857337E+03   -0.12685E-01   -0.13072E-01 15251   0.591E-01    0.201E-01
RMM:   4    -0.601932091199E+03   -0.12339E-02   -0.16463E-02 15618   0.199E-01    0.172E-01
RMM:   5    -0.601931718658E+03    0.37254E-03   -0.43576E-03 13765   0.908E-02    0.724E-02
RMM:   6    -0.601931734881E+03   -0.16224E-04   -0.88553E-04 15001   0.413E-02    0.437E-02
RMM:   7    -0.601931729710E+03    0.51714E-05   -0.26040E-04 11414   0.179E-02    0.128E-02
RMM:   8    -0.601931735718E+03   -0.60083E-05   -0.74488E-05  9343   0.127E-02
  60 F= -.60193174E+03 E0= -.60192906E+03  d E =-.337236E-01
 curvature:  -3.65 expect dE=-0.988E-01 dE for cont linesearch -0.469E-02
 ZBRENT: increasing intervall
 opt :   2.5027  next Energy=  -601.938506 (dE=-0.405E-01)
 bond charge predicted
       N       E                     dE             d eps       ncg     rms          rms(c)
DAV:   1    -0.601672014247E+03    0.25972E+00   -0.70273E+01 11174   0.118E+01    0.136E+00
RMM:   2    -0.601884808179E+03   -0.21279E+00   -0.22541E+00 13036   0.302E+00    0.464E-01
RMM:   3    -0.601937828322E+03   -0.53020E-01   -0.55110E-01 15328   0.121E+00    0.425E-01
RMM:   4    -0.601942716757E+03   -0.48884E-02   -0.67748E-02 15655   0.405E-01    0.367E-01
RMM:   5    -0.601940692035E+03    0.20247E-02   -0.17303E-02 13786   0.184E-01    0.120E-01
RMM:   6    -0.601940904148E+03   -0.21211E-03   -0.38185E-03 15300   0.868E-02    0.866E-02
RMM:   7    -0.601940881910E+03    0.22237E-04   -0.10100E-03 13877   0.367E-02    0.286E-02
RMM:   8    -0.601940905746E+03   -0.23836E-04   -0.30309E-04 11615   0.220E-02    0.957E-03
RMM:   9    -0.601940915434E+03   -0.96881E-05   -0.10019E-04  9583   0.119E-02    0.736E-03
RMM:  10    -0.601940917894E+03   -0.24600E-05   -0.34730E-05  8022   0.718E-03
  61 F= -.60194092E+03 E0= -.60193671E+03  d E =-.429057E-01
 curvature:  -5.27 expect dE=-0.500E+00 dE for cont linesearch -0.324E-03
 trial: gam= 2.97115 g(F)=  0.948E-01 g(S)=  0.000E+00 ort =-0.341E-02 (trialstep = 0.107E+00)
 search vector abs. value=  0.174E+01
 bond charge predicted
       N       E                     dE             d eps       ncg     rms          rms(c)
DAV:   1    -0.601933128416E+03    0.77870E-02   -0.47013E+00 11848   0.303E+00    0.359E-01
RMM:   2    -0.601946405277E+03   -0.13277E-01   -0.14247E-01 12894   0.755E-01    0.132E-01
RMM:   3    -0.601949764147E+03   -0.33589E-02   -0.35927E-02 15200   0.305E-01    0.108E-01
RMM:   4    -0.601950087369E+03   -0.32322E-03   -0.46711E-03 15442   0.104E-01    0.926E-02
RMM:   5    -0.601949972463E+03    0.11491E-03   -0.12335E-03 13055   0.490E-02    0.339E-02
RMM:   6    -0.601949978861E+03   -0.63980E-05   -0.25719E-04 12742   0.226E-02    0.211E-02
RMM:   7    -0.601949978858E+03    0.33688E-08   -0.75179E-05  8946   0.110E-02
  62 F= -.60194998E+03 E0= -.60194545E+03  d E =-.906096E-02
 ZBRENT: can't locate minimum, use default step
 trial-energy change:   -0.009061  1 .order   -0.008743   -0.009097   -0.008390
 step:   0.4300(harm=  1.3836)  dis= 0.02213  next Energy=  -601.999461 (dE=-0.585E-01)
 bond charge predicted
       N       E                     dE             d eps       ncg     rms          rms(c)
DAV:   1    -0.601817207720E+03    0.13277E+00   -0.42281E+01 11245   0.909E+00    0.108E+00
RMM:   2    -0.601941380291E+03   -0.12417E+00   -0.13353E+00 12986   0.231E+00    0.384E-01
RMM:   3    -0.601972716682E+03   -0.31336E-01   -0.32997E-01 15210   0.927E-01    0.331E-01
RMM:   4    -0.601975541367E+03   -0.28247E-02   -0.40938E-02 15623   0.313E-01    0.281E-01
RMM:   5    -0.601974401434E+03    0.11399E-02   -0.10597E-02 13588   0.144E-01    0.933E-02
RMM:   6    -0.601974503389E+03   -0.10196E-03   -0.23495E-03 15343   0.676E-02    0.633E-02
RMM:   7    -0.601974498521E+03    0.48678E-05   -0.62250E-04 13104   0.281E-02    0.216E-02
RMM:   8    -0.601974513836E+03   -0.15315E-04   -0.18902E-04 10774   0.185E-02    0.702E-03
RMM:   9    -0.601974520074E+03   -0.62377E-05   -0.64617E-05  8859   0.949E-03
  63 F= -.60197452E+03 E0= -.60196976E+03  d E =-.336022E-01
 curvature:  -6.29 expect dE=-0.562E+00 dE for cont linesearch -0.160E-01
 ZBRENT: increasing intervall
 opt :   1.0750  next Energy=  -602.010020 (dE=-0.691E-01)
 bond charge predicted
       N       E                     dE             d eps       ncg     rms          rms(c)
DAV:   1    -0.601333444256E+03    0.64107E+00   -0.16890E+02 11224   0.182E+01    0.210E+00
RMM:   2    -0.601858226489E+03   -0.52478E+00   -0.55924E+00 12977   0.475E+00    0.658E-01
RMM:   3    -0.601998066280E+03   -0.13984E+00   -0.14222E+00 15241   0.192E+00    0.641E-01
RMM:   4    -0.602011039789E+03   -0.12974E-01   -0.17421E-01 15583   0.644E-01    0.523E-01
RMM:   5    -0.602007429887E+03    0.36099E-02   -0.38205E-02 14156   0.277E-01    0.153E-01
RMM:   6    -0.602008103761E+03   -0.67387E-03   -0.88646E-03 14726   0.133E-01    0.125E-01
RMM:   7    -0.602008116415E+03   -0.12654E-04   -0.26590E-03 14677   0.616E-02    0.367E-02
RMM:   8    -0.602008186304E+03   -0.69889E-04   -0.73203E-04 12916   0.312E-02    0.177E-02
RMM:   9    -0.602008206524E+03   -0.20220E-04   -0.22323E-04 10502   0.165E-02    0.409E-03
RMM:  10    -0.602008215177E+03   -0.86532E-05   -0.85012E-05  8987   0.916E-03
  64 F= -.60200822E+03 E0= -.60200469E+03  d E =-.672973E-01
 curvature: -13.98 expect dE=-0.174E+01 dE for cont linesearch -0.459E-02
 trial: gam= 0.56225 g(F)=  0.124E+00 g(S)=  0.000E+00 ort = 0.239E-01 (trialstep = 0.301E+00)
 search vector abs. value=  0.702E+00
 bond charge predicted
       N       E                     dE             d eps       ncg     rms          rms(c)
DAV:   1    -0.601988868751E+03    0.19338E-01   -0.14364E+01 11832   0.538E+00    0.600E-01
RMM:   2    -0.602034663351E+03   -0.45795E-01   -0.49005E-01 13358   0.142E+00    0.188E-01
RMM:   3    -0.602045595977E+03   -0.10933E-01   -0.11366E-01 15347   0.545E-01    0.179E-01
RMM:   4    -0.602046675253E+03   -0.10793E-02   -0.14582E-02 15570   0.185E-01    0.148E-01
RMM:   5    -0.602046375183E+03    0.30007E-03   -0.33994E-03 13580   0.843E-02    0.531E-02
RMM:   6    -0.602046410828E+03   -0.35645E-04   -0.80280E-04 14940   0.406E-02    0.368E-02
RMM:   7    -0.602046407324E+03    0.35041E-05   -0.22648E-04 11286   0.177E-02    0.965E-03
RMM:   8    -0.602046413194E+03   -0.58697E-05   -0.66980E-05  9372   0.127E-02
  65 F= -.60204641E+03 E0= -.60204284E+03  d E =-.381980E-01
 trial-energy change:   -0.038198  1 .order   -0.037396   -0.041476   -0.033315
 step:   0.7851(harm=  1.5297)  dis= 0.04140  next Energy=  -602.076540 (dE=-0.683E-01)
 bond charge predicted
       N       E                     dE             d eps       ncg     rms          rms(c)
DAV:   1    -0.601938155738E+03    0.10825E+00   -0.37158E+01 11288   0.866E+00    0.961E-01
RMM:   2    -0.602060321633E+03   -0.12217E+00   -0.13039E+00 13467   0.230E+00    0.300E-01
RMM:   3    -0.602088785391E+03   -0.28464E-01   -0.29487E-01 15365   0.876E-01    0.295E-01
RMM:   4    -0.602091344429E+03   -0.25590E-02   -0.35429E-02 15605   0.293E-01    0.241E-01
RMM:   5    -0.602090566162E+03    0.77827E-03   -0.91588E-03 13718   0.137E-01    0.933E-02
RMM:   6    -0.602090614296E+03   -0.48133E-04   -0.20257E-03 15485   0.646E-02    0.585E-02
RMM:   7    -0.602090608541E+03    0.57541E-05   -0.60434E-04 12827   0.273E-02    0.145E-02
RMM:   8    -0.602090623237E+03   -0.14696E-04   -0.15390E-04 10419   0.180E-02    0.802E-03
RMM:   9    -0.602090628218E+03   -0.49812E-05   -0.55145E-05  8569   0.861E-03
  66 F= -.60209063E+03 E0= -.60208624E+03  d E =-.824130E-01
 curvature:  -2.47 expect dE=-0.201E+00 dE for cont linesearch -0.154E-01
 ZBRENT: increasing intervall
 opt :   1.7532  next Energy=  -602.111606 (dE=-0.103E+00)
 bond charge predicted
       N       E                     dE             d eps       ncg     rms          rms(c)
DAV:   1    -0.601457799213E+03    0.63282E+00   -0.14877E+02 11228   0.174E+01    0.188E+00
RMM:   2    -0.601973034442E+03   -0.51524E+00   -0.54511E+00 13443   0.476E+00    0.600E-01
[...]
RMM:   4    -0.602587634613E+03   -0.12995E-04   -0.22183E-04 13180   0.250E-02    0.177E-02
RMM:   5    -0.602587632903E+03    0.17107E-05   -0.74340E-05 10470   0.154E-02
 176 F= -.60258763E+03 E0= -.60258427E+03  d E =-.211547E-03
 trial-energy change:   -0.000212  1 .order   -0.000137   -0.000233   -0.000041
 step:   0.9933(harm=  1.1366)  dis= 0.00091  next Energy=  -602.587634 (dE=-0.213E-03)
 bond charge predicted
       N       E                     dE             d eps       ncg     rms          rms(c)
DAV:   1    -0.602587631963E+03    0.26507E-05   -0.10893E-03 11328   0.477E-02    0.889E-03
RMM:   2    -0.602587636471E+03   -0.45081E-05   -0.49023E-05  8083   0.136E-02
 177 F= -.60258764E+03 E0= -.60258427E+03  d E =-.215116E-03
 curvature:  -1.45 expect dE=-0.248E-03 dE for cont linesearch -0.360E-05
 ZBRENT: interpolating
 opt :   0.9608  next Energy=  -602.587633 (dE=-0.212E-03)
 bond charge predicted
       N       E                     dE             d eps       ncg     rms          rms(c)
DAV:   1    -0.602587634208E+03   -0.22451E-05   -0.30592E-04 11358   0.251E-02    0.317E-03
RMM:   2    -0.602587635039E+03   -0.83067E-06   -0.93400E-06  5641   0.674E-03
 178 F= -.60258764E+03 E0= -.60258427E+03  d E =-.213683E-03
 curvature:  -0.22 expect dE=-0.412E-04 dE for cont linesearch -0.413E-05
 ZBRENT: interpolating
 opt :   0.9845  next Energy=  -602.587637 (dE=-0.215E-03)
 bond charge predicted
       N       E                     dE             d eps       ncg     rms          rms(c)
DAV:   1    -0.602587635915E+03   -0.17076E-05   -0.15439E-04 10312   0.195E-02    0.227E-03
RMM:   2    -0.602587636964E+03   -0.10489E-05   -0.11583E-05  5408   0.779E-03
 179 F= -.60258764E+03 E0= -.60258428E+03  d E =-.215609E-03
 curvature:  -0.01 expect dE=-0.222E-05 dE for cont linesearch -0.717E-09
 trial: gam= 0.39598 g(F)=  0.167E-03 g(S)=  0.000E+00 ort =-0.833E-05 (trialstep = 0.945E+00)
 search vector abs. value=  0.362E-03
 bond charge predicted
       N       E                     dE             d eps       ncg     rms          rms(c)
DAV:   1    -0.602587465798E+03    0.17012E-03   -0.74553E-02 10941   0.401E-01    0.414E-02
RMM:   2    -0.602587712415E+03   -0.24662E-03   -0.25719E-03 13307   0.106E-01    0.134E-02
RMM:   3    -0.602587769677E+03   -0.57262E-04   -0.60815E-04 15065   0.412E-02    0.141E-02
RMM:   4    -0.602587773286E+03   -0.36085E-05   -0.70154E-05 11180   0.151E-02
 180 F= -.60258777E+03 E0= -.60258442E+03  d E =-.136322E-03
 trial-energy change:   -0.000136  1 .order   -0.000090   -0.000155   -0.000025
 step:   1.0010(harm=  1.1280)  dis= 0.00059  next Energy=  -602.587774 (dE=-0.137E-03)
 bond charge predicted
       N       E                     dE             d eps       ncg     rms          rms(c)
DAV:   1    -0.602587776368E+03   -0.66911E-05   -0.25297E-04 14168   0.268E-02    0.545E-03
RMM:   2    -0.602587777139E+03   -0.77047E-06   -0.10057E-05  6009   0.672E-03
 181 F= -.60258778E+03 E0= -.60258442E+03  d E =-.140175E-03
 curvature:  -0.65 expect dE=-0.497E-04 dE for cont linesearch -0.446E-05
 ZBRENT: increasing intervall
 opt :   1.1122  next Energy=  -602.587785 (dE=-0.148E-03)
 bond charge predicted
       N       E                     dE             d eps       ncg     rms          rms(c)
DAV:   1    -0.602587780040E+03   -0.36717E-05   -0.10583E-03 11304   0.483E-02    0.562E-03
RMM:   2    -0.602587784382E+03   -0.43416E-05   -0.45308E-05  8251   0.142E-02
 182 F= -.60258778E+03 E0= -.60258443E+03  d E =-.147417E-03
 curvature:  -1.19 expect dE=-0.101E-03 dE for cont linesearch -0.905E-09
 trial: gam= 0.53031 g(F)=  0.853E-04 g(S)=  0.000E+00 ort = 0.526E-06 (trialstep = 0.979E+00)
 search vector abs. value=  0.188E-03
 bond charge predicted
       N       E                     dE             d eps       ncg     rms          rms(c)
DAV:   1    -0.602587705050E+03    0.74990E-04   -0.40253E-02 11238   0.299E-01    0.288E-02
RMM:   2    -0.602587839183E+03   -0.13413E-03   -0.14021E-03 13333   0.805E-02    0.989E-03
RMM:   3    -0.602587871231E+03   -0.32047E-04   -0.34949E-04 14248   0.315E-02    0.103E-02
RMM:   4    -0.602587873514E+03   -0.22830E-05   -0.42414E-05  8529   0.130E-02
 183 F= -.60258787E+03 E0= -.60258451E+03  d E =-.891321E-04
 trial-energy change:   -0.000089  1 .order   -0.000054   -0.000084   -0.000024
 step:   1.3678(harm=  1.3678)  dis= 0.00049  next Energy=  -602.587843 (dE=-0.585E-04)
 bond charge predicted
       N       E                     dE             d eps       ncg     rms          rms(c)
DAV:   1    -0.602587861637E+03    0.95938E-05   -0.62350E-03 11952   0.118E-01    0.134E-02
RMM:   2    -0.602587884004E+03   -0.22367E-04   -0.23541E-04 13172   0.340E-02    0.432E-03
RMM:   3    -0.602587889139E+03   -0.51347E-05   -0.61086E-05  9333   0.137E-02
 184 F= -.60258789E+03 E0= -.60258452E+03  d E =-.104757E-03
 curvature:  -1.50 expect dE=-0.128E-03 dE for cont linesearch -0.548E-06
 trial: gam= 1.31002 g(F)=  0.854E-04 g(S)=  0.000E+00 ort =-0.828E-05 (trialstep = 0.514E+00)
 search vector abs. value=  0.386E-03
 bond charge predicted
       N       E                     dE             d eps       ncg     rms          rms(c)
DAV:   1    -0.602587859886E+03    0.24118E-04   -0.23520E-02 11495   0.224E-01    0.230E-02
RMM:   2    -0.602587934748E+03   -0.74862E-04   -0.78358E-04 13050   0.595E-02    0.807E-03
RMM:   3    -0.602587953517E+03   -0.18769E-04   -0.20501E-04 12765   0.242E-02    0.779E-03
RMM:   4    -0.602587954923E+03   -0.14056E-05   -0.31571E-05  7031   0.124E-02
 185 F= -.60258795E+03 E0= -.60258459E+03  d E =-.657837E-04
 ZBRENT: can't locate minimum, use default step
 trial-energy change:   -0.000066  1 .order   -0.000034   -0.000038   -0.000029
 step:   2.0561(harm=  2.0917)  dis= 0.00118  next Energy=  -602.587967 (dE=-0.780E-04)
 bond charge predicted
       N       E                     dE             d eps       ncg     rms          rms(c)
DAV:   1    -0.602587257738E+03    0.69578E-03   -0.21026E-01 11282   0.668E-01    0.701E-02
RMM:   2    -0.602587870990E+03   -0.61325E-03   -0.63943E-03 12949   0.168E-01    0.225E-02
RMM:   3    -0.602588036567E+03   -0.16558E-03   -0.17114E-03 15096   0.683E-02    0.213E-02
RMM:   4    -0.602588051078E+03   -0.14511E-04   -0.20307E-04 13038   0.236E-02    0.161E-02
RMM:   5    -0.602588050769E+03    0.30897E-06   -0.64170E-05 10001   0.142E-02
 186 F= -.60258805E+03 E0= -.60258468E+03  d E =-.161629E-03
 curvature:  -5.41 expect dE=-0.958E-03 dE for cont linesearch -0.306E-05
 trial: gam= 2.06911 g(F)=  0.177E-03 g(S)=  0.000E+00 ort =-0.148E-04 (trialstep = 0.180E+00)
 search vector abs. value=  0.177E-02
 bond charge predicted
       N       E                     dE             d eps       ncg     rms          rms(c)
DAV:   1    -0.602588029519E+03    0.21558E-04   -0.13506E-02 11968   0.168E-01    0.211E-02
RMM:   2    -0.602588072816E+03   -0.43297E-04   -0.45291E-04 12711   0.436E-02    0.632E-03
RMM:   3    -0.602588083769E+03   -0.10953E-04   -0.12205E-04 12022   0.183E-02    0.518E-03
RMM:   4    -0.602588084707E+03   -0.93790E-06   -0.18842E-05  6561   0.950E-03
 187 F= -.60258808E+03 E0= -.60258471E+03  d E =-.339381E-04
 trial-energy change:   -0.000034  1 .order   -0.000020   -0.000026   -0.000014
 step:   0.3703(harm=  0.3703)  dis= 0.00046  next Energy=  -602.588078 (dE=-0.271E-04)
 bond charge predicted
       N       E                     dE             d eps       ncg     rms          rms(c)
DAV:   1    -0.602588060034E+03    0.23735E-04   -0.14994E-02 11560   0.177E-01    0.194E-02
RMM:   2    -0.602588103763E+03   -0.43729E-04   -0.45624E-04 12609   0.448E-02    0.610E-03
RMM:   3    -0.602588114990E+03   -0.11228E-04   -0.12376E-04 11736   0.186E-02    0.543E-03
RMM:   4    -0.602588115930E+03   -0.94015E-06   -0.19443E-05  6544   0.981E-03
 188 F= -.60258812E+03 E0= -.60258474E+03  d E =-.651620E-04
 curvature:  -2.24 expect dE=-0.281E-03 dE for cont linesearch -0.239E-05
 ZBRENT: increasing intervall
 opt :   0.7518  next Energy=  -602.588120 (dE=-0.696E-04)
 bond charge predicted
       N       E                     dE             d eps       ncg     rms          rms(c)
DAV:   1    -0.602587934971E+03    0.18002E-03   -0.60041E-02 11302   0.353E-01    0.382E-02
RMM:   2    -0.602588109016E+03   -0.17405E-03   -0.18166E-03 12823   0.887E-02    0.121E-02
RMM:   3    -0.602588154059E+03   -0.45044E-04   -0.46938E-04 14099   0.360E-02    0.110E-02
RMM:   4    -0.602588157283E+03   -0.32234E-05   -0.58684E-05  9659   0.146E-02
 189 F= -.60258816E+03 E0= -.60258478E+03  d E =-.106514E-03
 curvature:  -4.12 expect dE=-0.491E-03 dE for cont linesearch -0.645E-05
 ZBRENT: bracketing found
 ZBRENT: interpolating
 opt :   0.5430  next Energy=  -602.588120 (dE=-0.689E-04)
 bond charge predicted
       N       E                     dE             d eps       ncg     rms          rms(c)
DAV:   1    -0.602588066530E+03    0.87529E-04   -0.18115E-02 11222   0.195E-01    0.194E-02
RMM:   2    -0.602588124223E+03   -0.57693E-04   -0.60234E-04 12951   0.493E-02    0.668E-03
RMM:   3    -0.602588136117E+03   -0.11894E-04   -0.13407E-04 11990   0.196E-02    0.740E-03
RMM:   4    -0.602588136384E+03   -0.26637E-06   -0.19067E-05  6387   0.984E-03
 190 F= -.60258814E+03 E0= -.60258476E+03  d E =-.856152E-04
 curvature:  -2.41 expect dE=-0.365E-03 dE for cont linesearch -0.470E-04
 ZBRENT: interpolating
 opt :   0.7057  next Energy=  -602.588158 (dE=-0.108E-03)
 bond charge predicted
       N       E                     dE             d eps       ncg     rms          rms(c)
DAV:   1    -0.602588112907E+03    0.23210E-04   -0.11002E-02 11191   0.151E-01    0.151E-02
RMM:   2    -0.602588147082E+03   -0.34174E-04   -0.35631E-04 12756   0.379E-02    0.529E-03
RMM:   3    -0.602588154027E+03   -0.69455E-05   -0.81289E-05 10357   0.153E-02
 191 F= -.60258815E+03 E0= -.60258477E+03  d E =-.103258E-03
 curvature:  -0.06 expect dE=-0.743E-05 dE for cont linesearch -0.170E-06
 ZBRENT: bisectioning
 opt :   0.6244  next Energy=  -602.588161 (dE=-0.110E-03)
 bond charge predicted
       N       E                     dE             d eps       ncg     rms          rms(c)
DAV:   1    -0.602588136114E+03    0.10968E-04   -0.26783E-03 11152   0.748E-02    0.979E-03
RMM:   2    -0.602588145328E+03   -0.92148E-05   -0.96461E-05 10269   0.190E-02
 192 F= -.60258815E+03 E0= -.60258476E+03  d E =-.945597E-04
 curvature:  -2.51 expect dE=-0.487E-03 dE for cont linesearch -0.186E-03
 ZBRENT: interpolating
 opt :   0.6926  next Energy=  -602.588154 (dE=-0.104E-03)
 bond charge predicted
       N       E                     dE             d eps       ncg     rms          rms(c)
DAV:   1    -0.602588147011E+03   -0.10897E-04   -0.17956E-03 10580   0.601E-02    0.756E-03
RMM:   2    -0.602588151902E+03   -0.48913E-05   -0.51702E-05  8021   0.152E-02
 193 F= -.60258815E+03 E0= -.60258477E+03  d E =-.101133E-03
 curvature:  -0.01 expect dE=-0.806E-06 dE for cont linesearch -0.642E-07
 ZBRENT: bisectioning
 opt :   0.6585  next Energy=  -602.588159 (dE=-0.109E-03)
 bond charge predicted
       N       E                     dE             d eps       ncg     rms          rms(c)
DAV:   1    -0.602588149380E+03   -0.23692E-05   -0.43213E-04 10360   0.301E-02    0.392E-03
RMM:   2    -0.602588150773E+03   -0.13935E-05   -0.15798E-05  5655   0.925E-03
 194 F= -.60258815E+03 E0= -.60258477E+03  d E =-.100005E-03
 curvature:  -0.73 expect dE=-0.109E-03 dE for cont linesearch -0.206E-04
 ZBRENT: interpolating
 opt :   0.6797  next Energy=  -602.588153 (dE=-0.102E-03)
 bond charge predicted
       N       E                     dE             d eps       ncg     rms          rms(c)
DAV:   1    -0.602588151606E+03   -0.22258E-05   -0.15839E-04 10404   0.213E-02    0.238E-03
RMM:   2    -0.602588153036E+03   -0.14299E-05   -0.15701E-05  5448   0.899E-03
 195 F= -.60258815E+03 E0= -.60258477E+03  d E =-.102267E-03
 curvature:  -0.03 expect dE=-0.358E-05 dE for cont linesearch -0.135E-07
 ZBRENT: interpolating
 opt :   0.6768  next Energy=  -602.588153 (dE=-0.102E-03)
 bond charge predicted
       N       E                     dE             d eps       ncg     rms          rms(c)
DAV:   1    -0.602588152593E+03   -0.98773E-06   -0.41556E-06  5984   0.948E-03    0.900E-04
RMM:   2    -0.602588152729E+03   -0.13603E-06   -0.16364E-06  4997   0.300E-03
 196 F= -.60258815E+03 E0= -.60258477E+03  d E =-.101961E-03
 curvature:  -0.10 expect dE=-0.135E-04 dE for cont linesearch -0.127E-05
 ZBRENT: interpolating
 opt :   0.6793  next Energy=  -602.588153 (dE=-0.102E-03)
 bond charge predicted
       N       E                     dE             d eps       ncg     rms          rms(c)
DAV:   1    -0.602588152903E+03   -0.30931E-06   -0.89268E-07  5398   0.374E-03    0.640E-04
RMM:   2    -0.602588152979E+03   -0.76412E-07   -0.85457E-07  5034   0.200E-03
 197 F= -.60258815E+03 E0= -.60258477E+03  d E =-.102211E-03
 curvature:  -0.00 expect dE=-0.650E-07 dE for cont linesearch -0.196E-09
 ZBRENT: interpolating
 opt :   0.6795  next Energy=  -602.588153 (dE=-0.102E-03)
 bond charge predicted
       N       E                     dE             d eps       ncg     rms          rms(c)
DAV:   1    -0.602588153011E+03   -0.10865E-06   -0.30287E-07  5309   0.284E-03    0.157E-04
RMM:   2    -0.602588153025E+03   -0.13184E-07   -0.13248E-07  2245   0.991E-04
 198 F= -.60258815E+03 E0= -.60258477E+03  d E =-.102256E-03
 curvature:  -0.01 expect dE=-0.954E-06 dE for cont linesearch -0.755E-08
 ZBRENT: interpolating
 opt :   0.6796  next Energy=  -602.588153 (dE=-0.102E-03)
 bond charge predicted
       N       E                     dE             d eps       ncg     rms          rms(c)
DAV:   1    -0.602588153047E+03   -0.35703E-07   -0.21355E-07  5310   0.100E-03    0.129E-04
RMM:   2    -0.602588153048E+03   -0.58208E-09   -0.40562E-09   784   0.572E-04
 199 F= -.60258815E+03 E0= -.60258477E+03  d E =-.102279E-03
 curvature:  -0.00 expect dE=-0.181E-06 dE for cont linesearch -0.324E-08
 ZBRENT: interpolating
 opt :   0.6797  next Energy=  -602.588153 (dE=-0.102E-03)
 bond charge predicted
       N       E                     dE             d eps       ncg     rms          rms(c)
DAV:   1    -0.602588153057E+03   -0.10354E-07   -0.57421E-08  5284   0.839E-04    0.748E-05
RMM:   2    -0.602588153056E+03    0.16080E-08   -0.27949E-10   726   0.383E-04
 200 F= -.60258815E+03 E0= -.60258477E+03  d E =-.102287E-03
 curvature:  -0.00 expect dE=-0.243E-07 dE for cont linesearch -0.502E-09
 ZBRENT: interpolating
 opt :   0.6797  next Energy=  -602.588153 (dE=-0.102E-03)
 bond charge predicted
       N       E                     dE             d eps       ncg     rms          rms(c)
DAV:   1    -0.602588153060E+03   -0.26412E-08   -0.30312E-08  5280   0.975E-04    0.814E-05
RMM:   2    -0.602588153059E+03    0.97498E-09    0.00000E+00   627   0.311E-04
 201 F= -.60258815E+03 E0= -.60258477E+03  d E =-.102291E-03
 curvature:  -0.00 expect dE=-0.622E-08 dE for cont linesearch -0.148E-09
 ZBRENT: interpolating
 opt :   0.6797  next Energy=  -602.588153 (dE=-0.102E-03)
 bond charge predicted
       N       E                     dE             d eps       ncg     rms          rms(c)
DAV:   1    -0.602588153060E+03    0.38563E-09   -0.19572E-08  5256   0.103E-03    0.741E-05
RMM:   2    -0.602588153059E+03    0.83674E-09    0.00000E+00   526   0.239E-04
 202 F= -.60258815E+03 E0= -.60258477E+03  d E =-.102290E-03
 curvature:  -0.00 expect dE=-0.151E-08 dE for cont linesearch -0.393E-10
 ZBRENT: interpolating
 opt :   0.6797  next Energy=  -602.588153 (dE=-0.102E-03)
 bond charge predicted
       N       E                     dE             d eps       ncg     rms          rms(c)
DAV:   1    -0.602588153062E+03   -0.21028E-08   -0.12238E-08  5246   0.914E-04    0.645E-05
RMM:   2    -0.602588153060E+03    0.17753E-08    0.00000E+00   469   0.199E-04
 203 F= -.60258815E+03 E0= -.60258477E+03  d E =-.102291E-03
 curvature:  -0.00 expect dE=-0.373E-09 dE for cont linesearch -0.103E-10
 ZBRENT: interpolating
 opt :   0.6797  next Energy=  -602.588153 (dE=-0.102E-03)
 bond charge predicted
       N       E                     dE             d eps       ncg     rms          rms(c)
DAV:   1    -0.602588153062E+03   -0.17462E-09   -0.87947E-09  5246   0.801E-04    0.569E-05
RMM:   2    -0.602588153062E+03    0.72760E-10    0.00000E+00   424   0.166E-04
 204 F= -.60258815E+03 E0= -.60258477E+03  d E =-.102293E-03
 curvature:  -0.00 expect dE=-0.924E-10 dE for cont linesearch -0.269E-11
 ZBRENT:  can not reach accuracy
 opt :   0.0000  next Energy=     0.000000 (dE= 0.603E+03)
 bond charge predicted
       N       E                     dE             d eps       ncg     rms          rms(c)
DAV:   1    -0.602587342975E+03    0.81009E-03   -0.19075E-01 11105   0.629E-01    0.673E-02
RMM:   2    -0.602587893701E+03   -0.55073E-03   -0.57534E-03 12822   0.157E-01    0.214E-02
RMM:   3    -0.602588039623E+03   -0.14592E-03   -0.15139E-03 15053   0.639E-02    0.206E-02
RMM:   4    -0.602588050651E+03   -0.11028E-04   -0.17318E-04 12847   0.219E-02    0.144E-02
RMM:   5    -0.602588050548E+03    0.10234E-06   -0.53134E-05  9547   0.131E-02
 205 F= -.60258805E+03 E0= -.60258468E+03  d E =0.220192E-06
 curvature:   0.00 expect dE= 0.000E+00 dE for cont linesearch  0.000E+00
 -----------------------------------------------------------------------------
|                                                                             |
|     EEEEEEE  RRRRRR   RRRRRR   OOOOOOO  RRRRRR      ###     ###     ###     |
|     E        R     R  R     R  O     O  R     R     ###     ###     ###     |
|     E        R     R  R     R  O     O  R     R     ###     ###     ###     |
|     EEEEE    RRRRRR   RRRRRR   O     O  RRRRRR       #       #       #      |
|     E        R   R    R   R    O     O  R   R                               |
|     E        R    R   R    R   O     O  R    R      ###     ###     ###     |
|     EEEEEEE  R     R  R     R  OOOOOOO  R     R     ###     ###     ###     |
|                                                                             |
|     ZBRENT: fatal error in bracketing                                       |
|      please rerun with smaller EDIFF, or copy CONTCAR                       |
|      to POSCAR and continue                                                 |
|                                                                             |
|       ---->  I REFUSE TO CONTINUE WITH THIS SICK JOB ... BYE!!! <----       |
|                                                                             |
 -----------------------------------------------------------------------------

Warning: ieee_invalid is signaling
Warning: ieee_divide_by_zero is signaling
Warning: ieee_underflow is signaling
Warning: ieee_inexact is signaling
    1
Warning: ieee_invalid is signaling
Warning: ieee_divide_by_zero is signaling
Warning: ieee_underflow is signaling
Warning: ieee_inexact is signaling
    1
Warning: ieee_invalid is signaling
Warning: ieee_divide_by_zero is signaling
Warning: ieee_underflow is signaling
Warning: ieee_inexact is signaling
    1
Warning: ieee_invalid is signaling
Warning: ieee_divide_by_zero is signaling
Warning: ieee_underflow is signaling
Warning: ieee_inexact is signaling
    1
--------------------------------------------------------------------------
Primary job  terminated normally, but 1 process returned
a non-zero exit code. Per user-direction, the job has been aborted.
--------------------------------------------------------------------------
--------------------------------------------------------------------------
mpirun detected that one or more processes exited with non-zero status, thus causing
the job to be terminated. The first process to do so was:

  Process name: [[9611,1],1]
  Exit code:    1
--------------------------------------------------------------------------
