<?xml version="1.0" encoding="ISO-8859-1"?>
<modeling>
 <generator>
  <i name="program" type="string">vasp </i>
  <i name="version" type="string">6.4.2  </i>
  <i name="subversion" type="string">20Jul23 (build Nov 12 2023 22:16:35) complex                          parallel </i>
  <i name="platform" type="string">LinuxNV </i>
  <i name="date" type="string">2025 03 15 </i>
  <i name="time" type="string">01:31:11 </i>
 </generator>
 <incar>
  <i type="int" name="ISTART">     0</i>
  <i type="string" name="PREC">Normal</i>
  <i type="string" name="ALGO">Fast</i>
  <i type="int" name="ISPIN">     1</i>
  <i type="int" name="ICHARG">     2</i>
  <i type="int" name="IBRION">     2</i>
  <i name="EDIFF">      0.00001000</i>
  <i name="EDIFFG">     -0.00500000</i>
  <i type="int" name="NSW">   300</i>
  <i type="int" name="ISIF">     2</i>
  <i name="ENCUT">    450.00000000</i>
  <i name="NELECT">   1056.00000000</i>
  <i type="string" name="LREAL">Auto</i>
  <i type="logical" name="LPLANE"> T  </i>
  <i type="int" name="ISMEAR">     0</i>
  <i name="SIGMA">      0.05000000</i>
  <i type="logical" name="LWAVE"> F  </i>
  <i type="logical" name="LCHARG"> F  </i>
 </incar>
 <primitive_cell>
  <structure name="primitive_cell" >
   <crystal>
    <varray name="basis" >
     <v>       0.00000000      12.28047342       0.00000000 </v>
     <v>       9.14270205       0.00000000       0.00000000 </v>
     <v>       0.00000000      -2.76826177     -11.30069772 </v>
    </varray>
    <i name="volume">   1268.80515525 </i>
    <varray name="rec_basis" >
     <v>       0.00000000       0.08143009      -0.01994742 </v>
     <v>       0.10937686      -0.00000000       0.00000000 </v>
     <v>       0.00000000       0.00000000      -0.08849011 </v>
    </varray>
   </crystal>
   <varray name="positions" >
    <v>       0.65883830       0.00000000       0.15736517 </v>
    <v>       0.65883830       0.00000000       0.65736517 </v>
    <v>       0.65883830       0.33333333       0.15736517 </v>
    <v>       0.65883830       0.33333333       0.65736517 </v>
    <v>       0.65883830       0.66666667       0.15736517 </v>
    <v>       0.65883830       0.66666667       0.65736517 </v>
    <v>       0.84116170       0.16666667       0.34263483 </v>
    <v>       0.84116170       0.16666667       0.84263483 </v>
    <v>       0.84116170       0.50000000       0.34263483 </v>
    <v>       0.84116170       0.50000000       0.84263483 </v>
    <v>       0.84116170       0.83333333       0.34263483 </v>
    <v>       0.84116170       0.83333333       0.84263483 </v>
    <v>       0.59047440       0.16666667       0.39739300 </v>
    <v>       0.59047440       0.16666667       0.89739300 </v>
    <v>       0.59047440       0.50000000       0.39739300 </v>
    <v>       0.59047440       0.50000000       0.89739300 </v>
    <v>       0.59047440       0.83333333       0.39739300 </v>
    <v>       0.59047440       0.83333333       0.89739300 </v>
    <v>       0.90952560       0.00000000       0.10260700 </v>
    <v>       0.90952560       0.00000000       0.60260700 </v>
    <v>       0.90952560       0.33333333       0.10260700 </v>
    <v>       0.90952560       0.33333333       0.60260700 </v>
    <v>       0.90952560       0.66666667       0.10260700 </v>
    <v>       0.90952560       0.66666667       0.60260700 </v>
    <v>       0.15883830       0.16666667       0.15736517 </v>
    <v>       0.15883830       0.16666667       0.65736517 </v>
    <v>       0.15883830       0.50000000       0.15736517 </v>
    <v>       0.15883830       0.50000000       0.65736517 </v>
    <v>       0.15883830       0.83333333       0.15736517 </v>
    <v>       0.15883830       0.83333333       0.65736517 </v>
    <v>       0.34116170       0.00000000       0.34263483 </v>
    <v>       0.34116170       0.00000000       0.84263483 </v>
    <v>       0.34116170       0.33333333       0.34263483 </v>
    <v>       0.34116170       0.33333333       0.84263483 </v>
    <v>       0.34116170       0.66666667       0.34263483 </v>
    <v>       0.34116170       0.66666667       0.84263483 </v>
    <v>       0.09047440       0.00000000       0.89739300 </v>
    <v>       0.09047440       0.33333333       0.39739300 </v>
    <v>       0.09047440       0.33333333       0.89739300 </v>
    <v>       0.09047440       0.66666667       0.39739300 </v>
    <v>       0.09047440       0.66666667       0.89739300 </v>
    <v>       0.40952560       0.16666667       0.10260700 </v>
    <v>       0.40952560       0.16666667       0.60260700 </v>
    <v>       0.40952560       0.50000000       0.10260700 </v>
    <v>       0.40952560       0.50000000       0.60260700 </v>
    <v>       0.40952560       0.83333333       0.10260700 </v>
    <v>       0.40952560       0.83333333       0.60260700 </v>
    <v>       0.99646913       0.16666667       0.12833205 </v>
    <v>       0.99646913       0.16666667       0.62833205 </v>
    <v>       0.99646913       0.50000000       0.12833205 </v>
    <v>       0.99646913       0.50000000       0.62833205 </v>
    <v>       0.99646913       0.83333333       0.12833205 </v>
    <v>       0.99646913       0.83333333       0.62833205 </v>
    <v>       0.50353087       0.00000000       0.37166795 </v>
    <v>       0.50353087       0.00000000       0.87166795 </v>
    <v>       0.50353087       0.33333333       0.37166795 </v>
    <v>       0.50353087       0.33333333       0.87166795 </v>
    <v>       0.50353087       0.66666667       0.37166795 </v>
    <v>       0.50353087       0.66666667       0.87166795 </v>
    <v>       0.67337106       0.16666667       0.28161508 </v>
    <v>       0.67337106       0.16666667       0.78161508 </v>
    <v>       0.67337106       0.50000000       0.28161508 </v>
    <v>       0.67337106       0.50000000       0.78161508 </v>
    <v>       0.67337106       0.83333333       0.28161508 </v>
    <v>       0.67337106       0.83333333       0.78161508 </v>
    <v>       0.82662894       0.00000000       0.21838492 </v>
    <v>       0.82662894       0.00000000       0.71838492 </v>
    <v>       0.82662894       0.33333333       0.21838492 </v>
    <v>       0.82662894       0.33333333       0.71838492 </v>
    <v>       0.82662894       0.66666667       0.21838492 </v>
    <v>       0.82662894       0.66666667       0.71838492 </v>
    <v>       0.83549502       0.00000000       0.44542296 </v>
    <v>       0.83549502       0.00000000       0.94542296 </v>
    <v>       0.83549502       0.33333333       0.44542296 </v>
    <v>       0.83549502       0.33333333       0.94542296 </v>
    <v>       0.83549502       0.66666667       0.44542296 </v>
    <v>       0.83549502       0.66666667       0.94542296 </v>
    <v>       0.66450498       0.16666667       0.05457704 </v>
    <v>       0.66450498       0.16666667       0.55457704 </v>
    <v>       0.66450498       0.50000000       0.05457704 </v>
    <v>       0.66450498       0.50000000       0.55457704 </v>
    <v>       0.66450498       0.83333333       0.05457704 </v>
    <v>       0.66450498       0.83333333       0.55457704 </v>
    <v>       0.49646913       0.00000000       0.12833205 </v>
    <v>       0.49646913       0.00000000       0.62833205 </v>
    <v>       0.49646913       0.33333333       0.12833205 </v>
    <v>       0.49646913       0.33333333       0.62833205 </v>
    <v>       0.49646913       0.66666667       0.12833205 </v>
    <v>       0.49646913       0.66666667       0.62833205 </v>
    <v>       0.00353087       0.16666667       0.37166795 </v>
    <v>       0.00353087       0.16666667       0.87166795 </v>
    <v>       0.00353087       0.50000000       0.37166795 </v>
    <v>       0.00353087       0.50000000       0.87166795 </v>
    <v>       0.00353087       0.83333333       0.37166795 </v>
    <v>       0.00353087       0.83333333       0.87166795 </v>
    <v>       0.17337106       0.00000000       0.28161508 </v>
    <v>       0.17337106       0.00000000       0.78161508 </v>
    <v>       0.17337106       0.33333333       0.28161508 </v>
    <v>       0.17337106       0.33333333       0.78161508 </v>
    <v>       0.17337106       0.66666667       0.28161508 </v>
    <v>       0.17337106       0.66666667       0.78161508 </v>
    <v>       0.32662894       0.16666667       0.21838492 </v>
    <v>       0.32662894       0.16666667       0.71838492 </v>
    <v>       0.32662894       0.50000000       0.21838492 </v>
    <v>       0.32662894       0.50000000       0.71838492 </v>
    <v>       0.32662894       0.83333333       0.21838492 </v>
    <v>       0.32662894       0.83333333       0.71838492 </v>
    <v>       0.33549502       0.16666667       0.44542296 </v>
    <v>       0.33549502       0.16666667       0.94542296 </v>
    <v>       0.33549502       0.50000000       0.44542296 </v>
    <v>       0.33549502       0.50000000       0.94542296 </v>
    <v>       0.33549502       0.83333333       0.44542296 </v>
    <v>       0.33549502       0.83333333       0.94542296 </v>
    <v>       0.16450498       0.00000000       0.05457704 </v>
    <v>       0.16450498       0.33333333       0.05457704 </v>
    <v>       0.16450498       0.33333333       0.55457704 </v>
    <v>       0.16450498       0.66666667       0.05457704 </v>
    <v>       0.16450498       0.66666667       0.55457704 </v>
    <v>       0.16450498       0.00000000       0.55457704 </v>
   </varray>
  </structure>
  <varray name="primitive_index" >
   <v type="int" >        1 </v>
   <v type="int" >        2 </v>
   <v type="int" >        3 </v>
   <v type="int" >        4 </v>
   <v type="int" >        5 </v>
   <v type="int" >        6 </v>
   <v type="int" >        7 </v>
   <v type="int" >        8 </v>
   <v type="int" >        9 </v>
   <v type="int" >       10 </v>
   <v type="int" >       11 </v>
   <v type="int" >       12 </v>
   <v type="int" >       13 </v>
   <v type="int" >       14 </v>
   <v type="int" >       15 </v>
   <v type="int" >       16 </v>
   <v type="int" >       17 </v>
   <v type="int" >       18 </v>
   <v type="int" >       19 </v>
   <v type="int" >       20 </v>
   <v type="int" >       21 </v>
   <v type="int" >       22 </v>
   <v type="int" >       23 </v>
   <v type="int" >       24 </v>
   <v type="int" >       25 </v>
   <v type="int" >       26 </v>
   <v type="int" >       27 </v>
   <v type="int" >       28 </v>
   <v type="int" >       29 </v>
   <v type="int" >       30 </v>
   <v type="int" >       31 </v>
   <v type="int" >       32 </v>
   <v type="int" >       33 </v>
   <v type="int" >       34 </v>
   <v type="int" >       35 </v>
   <v type="int" >       36 </v>
   <v type="int" >       37 </v>
   <v type="int" >       38 </v>
   <v type="int" >       39 </v>
   <v type="int" >       40 </v>
   <v type="int" >       41 </v>
   <v type="int" >       42 </v>
   <v type="int" >       43 </v>
   <v type="int" >       44 </v>
   <v type="int" >       45 </v>
   <v type="int" >       46 </v>
   <v type="int" >       47 </v>
   <v type="int" >       48 </v>
   <v type="int" >       49 </v>
   <v type="int" >       50 </v>
   <v type="int" >       51 </v>
   <v type="int" >       52 </v>
   <v type="int" >       53 </v>
   <v type="int" >       54 </v>
   <v type="int" >       55 </v>
   <v type="int" >       56 </v>
   <v type="int" >       57 </v>
   <v type="int" >       58 </v>
   <v type="int" >       59 </v>
   <v type="int" >       60 </v>
   <v type="int" >       61 </v>
   <v type="int" >       62 </v>
   <v type="int" >       63 </v>
   <v type="int" >       64 </v>
   <v type="int" >       65 </v>
   <v type="int" >       66 </v>
   <v type="int" >       67 </v>
   <v type="int" >       68 </v>
   <v type="int" >       69 </v>
   <v type="int" >       70 </v>
   <v type="int" >       71 </v>
   <v type="int" >       72 </v>
   <v type="int" >       73 </v>
   <v type="int" >       74 </v>
   <v type="int" >       75 </v>
   <v type="int" >       76 </v>
   <v type="int" >       77 </v>
   <v type="int" >       78 </v>
   <v type="int" >       79 </v>
   <v type="int" >       80 </v>
   <v type="int" >       81 </v>
   <v type="int" >       82 </v>
   <v type="int" >       83 </v>
   <v type="int" >       84 </v>
   <v type="int" >       85 </v>
   <v type="int" >       86 </v>
   <v type="int" >       87 </v>
   <v type="int" >       88 </v>
   <v type="int" >       89 </v>
   <v type="int" >       90 </v>
   <v type="int" >       91 </v>
   <v type="int" >       92 </v>
   <v type="int" >       93 </v>
   <v type="int" >       94 </v>
   <v type="int" >       95 </v>
   <v type="int" >       96 </v>
   <v type="int" >       97 </v>
   <v type="int" >       98 </v>
   <v type="int" >       99 </v>
   <v type="int" >      100 </v>
   <v type="int" >      101 </v>
   <v type="int" >      102 </v>
   <v type="int" >      103 </v>
   <v type="int" >      104 </v>
   <v type="int" >      105 </v>
   <v type="int" >      106 </v>
   <v type="int" >      107 </v>
   <v type="int" >      108 </v>
   <v type="int" >      109 </v>
   <v type="int" >      110 </v>
   <v type="int" >      111 </v>
   <v type="int" >      112 </v>
   <v type="int" >      113 </v>
   <v type="int" >      114 </v>
   <v type="int" >      115 </v>
   <v type="int" >      116 </v>
   <v type="int" >      117 </v>
   <v type="int" >      118 </v>
   <v type="int" >      119 </v>
  </varray>
 </primitive_cell>
 <kpoints>
  <generation param="Gamma">
   <v type="int" name="divisions">       2        2        2 </v>
   <v name="usershift">      0.00000000       0.00000000       0.00000000 </v>
   <v name="genvec1">      0.50000000       0.00000000       0.00000000 </v>
   <v name="genvec2">      0.00000000       0.50000000       0.00000000 </v>
   <v name="genvec3">      0.00000000       0.00000000       0.50000000 </v>
   <v name="shift">      0.00000000       0.00000000       0.00000000 </v>
  </generation>
  <varray name="kpointlist" >
   <v>       0.00000000       0.00000000       0.00000000 </v>
   <v>       0.50000000       0.00000000       0.00000000 </v>
   <v>       0.00000000       0.50000000       0.00000000 </v>
   <v>       0.50000000       0.50000000       0.00000000 </v>
   <v>       0.00000000       0.00000000       0.50000000 </v>
   <v>       0.50000000       0.00000000       0.50000000 </v>
   <v>       0.00000000       0.50000000       0.50000000 </v>
   <v>       0.50000000       0.50000000       0.50000000 </v>
  </varray>
  <varray name="weights" >
   <v>       0.12500000 </v>
   <v>       0.12500000 </v>
   <v>       0.12500000 </v>
   <v>       0.12500000 </v>
   <v>       0.12500000 </v>
   <v>       0.12500000 </v>
   <v>       0.12500000 </v>
   <v>       0.12500000 </v>
  </varray>
 </kpoints>
 <parameters>
  <separator name="general" >
   <i type="string" name="SYSTEM">unknown system</i>
   <i type="logical" name="LCOMPAT"> F  </i>
  </separator>
  <separator name="electronic" >
   <i type="string" name="PREC">normal</i>
   <i name="ENMAX">    450.00000000</i>
   <i name="ENAUG">    605.39200000</i>
   <i name="EDIFF">      0.00001000</i>
   <i type="int" name="IALGO">    68</i>
   <i type="int" name="IWAVPR">    11</i>
   <i type="int" name="NBANDS">   633</i>
   <i type="int" name="NBANDSLOW">    -1</i>
   <i type="int" name="NBANDSHIGH">    -1</i>
   <i name="NELECT">   1056.00000000</i>
   <i type="int" name="TURBO">     0</i>
   <i type="int" name="IRESTART">     0</i>
   <i type="int" name="NREBOOT">     0</i>
   <i type="int" name="NMIN">     0</i>
   <i name="EREF">      0.00000000</i>
   <separator name="electronic smearing" >
    <i type="int" name="ISMEAR">     0</i>
    <i name="SIGMA">      0.05000000</i>
    <i name="KSPACING">      0.50000000</i>
    <i type="logical" name="KGAMMA"> T  </i>
    <i type="logical" name="KBLOWUP"> T  </i>
   </separator>
   <separator name="electronic projectors" >
    <i type="logical" name="LREAL"> T  </i>
    <v name="ROPT">     -0.00050000     -0.00050000     -0.00050000</v>
    <i type="int" name="LMAXPAW">  -100</i>
    <i type="int" name="LMAXMIX">     2</i>
    <i type="logical" name="NLSPLINE"> F  </i>
   </separator>
   <separator name="electronic startup" >
    <i type="int" name="ISTART">     0</i>
    <i type="int" name="ICHARG">     2</i>
    <i type="int" name="INIWAV">     1</i>
   </separator>
   <separator name="electronic spin" >
    <i type="int" name="ISPIN">     1</i>
    <i type="logical" name="LNONCOLLINEAR"> F  </i>
    <v name="MAGMOM">      1.00000000      1.00000000      1.00000000      1.00000000      1.00000000      1.00000000      1.00000000      1.00000000      1.00000000      1.00000000      1.00000000      1.00000000      1.00000000      1.00000000      1.00000000      1.00000000      1.00000000      1.00000000      1.00000000      1.00000000
      1.00000000      1.00000000      1.00000000      1.00000000      1.00000000      1.00000000      1.00000000      1.00000000      1.00000000      1.00000000      1.00000000      1.00000000      1.00000000      1.00000000      1.00000000      1.00000000      1.00000000      1.00000000      1.00000000      1.00000000
      1.00000000      1.00000000      1.00000000      1.00000000      1.00000000      1.00000000      1.00000000      1.00000000      1.00000000      1.00000000      1.00000000      1.00000000      1.00000000      1.00000000      1.00000000      1.00000000      1.00000000      1.00000000      1.00000000      1.00000000
      1.00000000      1.00000000      1.00000000      1.00000000      1.00000000      1.00000000      1.00000000      1.00000000      1.00000000      1.00000000      1.00000000      1.00000000      1.00000000      1.00000000      1.00000000      1.00000000      1.00000000      1.00000000      1.00000000      1.00000000
      1.00000000      1.00000000      1.00000000      1.00000000      1.00000000      1.00000000      1.00000000      1.00000000      1.00000000      1.00000000      1.00000000      1.00000000      1.00000000      1.00000000      1.00000000      1.00000000      1.00000000      1.00000000      1.00000000      1.00000000
      1.00000000      1.00000000      1.00000000      1.00000000      1.00000000      1.00000000      1.00000000      1.00000000      1.00000000      1.00000000      1.00000000      1.00000000      1.00000000      1.00000000      1.00000000      1.00000000      1.00000000      1.00000000      1.00000000</v>
    <i name="NUPDOWN">     -1.00000000</i>
    <i type="logical" name="LSORBIT"> F  </i>
    <v name="SAXIS">      0.00000000      0.00000000      1.00000000</v>
    <i type="logical" name="LSPIRAL"> F  </i>
    <v name="QSPIRAL">      0.00000000      0.00000000      0.00000000</v>
    <i type="logical" name="LZEROZ"> F  </i>
   </separator>
   <separator name="electronic exchange-correlation" >
    <i type="logical" name="LASPH"> F  </i>
    <i type="logical" name="LMETAGGA"> F  </i>
   </separator>
   <separator name="electronic convergence" >
    <i type="int" name="NELM">    60</i>
    <i type="int" name="NELMDL">    -5</i>
    <i type="int" name="NELMIN">     2</i>
    <i name="ENINI">    450.00000000</i>
    <separator name="electronic convergence detail" >
     <i type="logical" name="LDIAG"> T  </i>
     <i type="logical" name="LSUBROT"> F  </i>
     <i name="WEIMIN">      0.00100000</i>
     <i name="EBREAK">      0.00000000</i>
     <i name="DEPER">      0.30000000</i>
     <i type="int" name="NRMM">     4</i>
     <i name="TIME">      0.40000000</i>
    </separator>
   </separator>
   <separator name="electronic mixer" >
    <i name="AMIX">      0.40000000</i>
    <i name="BMIX">      1.00000000</i>
    <i name="AMIN">      0.10000000</i>
    <i name="AMIX_MAG">      1.60000000</i>
    <i name="BMIX_MAG">      1.00000000</i>
    <separator name="electronic mixer details" >
     <i type="int" name="IMIX">     4</i>
     <i type="logical" name="MIXFIRST"> F  </i>
     <i type="int" name="MAXMIX">   -45</i>
     <i name="WC">    100.00000000</i>
     <i type="int" name="INIMIX">     1</i>
     <i type="int" name="MIXPRE">     1</i>
     <i type="int" name="MREMOVE">     5</i>
    </separator>
   </separator>
   <separator name="electronic dipolcorrection" >
    <i type="logical" name="LDIPOL"> F  </i>
    <i type="logical" name="LMONO"> F  </i>
    <i type="int" name="IDIPOL">     0</i>
    <i name="EPSILON">      1.00000000</i>
    <v name="DIPOL">   -100.00000000   -100.00000000   -100.00000000</v>
    <i name="EFIELD">      0.00000000</i>
   </separator>
  </separator>
  <separator name="grids" >
   <i type="int" name="NGX">    64</i>
   <i type="int" name="NGY">    48</i>
   <i type="int" name="NGZ">    60</i>
   <i type="int" name="NGXF">   128</i>
   <i type="int" name="NGYF">    96</i>
   <i type="int" name="NGZF">   120</i>
   <i type="logical" name="ADDGRID"> F  </i>
  </separator>
  <separator name="ionic" >
   <i type="int" name="NSW">   300</i>
   <i type="int" name="IBRION">     2</i>
   <i type="int" name="MDALGO">     0</i>
   <i type="int" name="ISIF">     2</i>
   <i name="PSTRESS">      0.00000000</i>
   <i name="EDIFFG">     -0.00500000</i>
   <i type="int" name="NFREE">     1</i>
   <i name="POTIM">      0.50000000</i>
   <i name="SMASS">     -3.00000000</i>
   <i name="SCALEE">      1.00000000</i>
  </separator>
  <separator name="ionic md" >
   <i name="TEBEG">      0.00010000</i>
   <i name="TEEND">      0.00010000</i>
   <i type="int" name="NBLOCK">     1</i>
   <i type="int" name="KBLOCK">   300</i>
   <i type="int" name="NPACO">   256</i>
   <i name="APACO">     10.00000000</i>
  </separator>
  <separator name="symmetry" >
   <i type="int" name="ISYM">     2</i>
   <i name="SYMPREC">      0.00001000</i>
  </separator>
  <separator name="dos" >
   <i type="int" name="LORBIT">     0</i>
   <v name="RWIGS">     -1.00000000     -1.00000000     -1.00000000</v>
   <i type="int" name="NEDOS">   301</i>
   <i name="EMIN">     10.00000000</i>
   <i name="EMAX">    -10.00000000</i>
   <i name="EFERMI">      0.00000000</i>
  </separator>
  <separator name="writing" >
   <i type="int" name="NWRITE">     2</i>
   <i type="logical" name="LWAVE"> F  </i>
   <i type="logical" name="LDOWNSAMPLE"> F  </i>
   <i type="logical" name="LCHARG"> F  </i>
   <i type="logical" name="LPARD"> F  </i>
   <i type="logical" name="LVTOT"> F  </i>
   <i type="logical" name="LVHAR"> F  </i>
   <i type="logical" name="LELF"> F  </i>
   <i type="logical" name="LOPTICS"> F  </i>
   <v name="STM">      0.00000000      0.00000000      0.00000000      0.00000000      0.00000000      0.00000000      0.00000000</v>
  </separator>
  <separator name="performance" >
   <i type="int" name="NPAR">     1</i>
   <i type="int" name="NSIM">     4</i>
   <i type="int" name="NBLK">    -1</i>
   <i type="logical" name="LPLANE"> T  </i>
   <i type="logical" name="LSCALAPACK"> T  </i>
   <i type="logical" name="LSCAAWARE"> F  </i>
   <i type="logical" name="LSCALU"> F  </i>
   <i type="logical" name="LASYNC"> F  </i>
   <i type="logical" name="LORBITALREAL"> F  </i>
  </separator>
  <separator name="miscellaneous" >
   <i type="int" name="IDIOT">     3</i>
   <i type="int" name="PHON_NSTRUCT">    -1</i>
   <i type="logical" name="LMUSIC"> F  </i>
   <v name="POMASS">     69.72300000     16.00000000     30.97400000</v>
   <v name="DARWINR">      0.00000000      0.00000000      0.00000000</v>
   <v name="DARWINV">      1.00000000      1.00000000      1.00000000</v>
   <i type="logical" name="LCORR"> T  </i>
  </separator>
  <i type="logical" name="GGA_COMPAT"> T  </i>
  <i type="logical" name="LBERRY"> F  </i>
  <i type="int" name="ICORELEVEL">     0</i>
  <i type="logical" name="LDAU"> F  </i>
  <i type="int" name="I_CONSTRAINED_M">     0</i>
  <separator name="electronic exchange-correlation" >
   <i type="string" name="GGA">--</i>
   <i type="int" name="VOSKOWN">     0</i>
   <i type="logical" name="LHFCALC"> F  </i>
   <i type="string" name="PRECFOCK"></i>
   <i type="logical" name="LSYMGRAD"> F  </i>
   <i type="logical" name="LHFONE"> F  </i>
   <i type="logical" name="LRHFCALC"> F  </i>
   <i type="logical" name="LTHOMAS"> F  </i>
   <i type="logical" name="LMODELHF"> F  </i>
   <i type="logical" name="LFOCKACE"> F  </i>
   <i name="ENCUT4O">     -1.00000000</i>
   <i type="int" name="EXXOEP">     0</i>
   <i type="int" name="FOURORBIT">     0</i>
   <i name="AEXX">      0.00000000</i>
   <i name="HFALPHA">      0.00000000</i>
   <i name="MCALPHA">      0.00000000</i>
   <i name="ALDAX">      1.00000000</i>
   <i name="AGGAX">      1.00000000</i>
   <i name="ALDAC">      1.00000000</i>
   <i name="AGGAC">      1.00000000</i>
   <i type="int" name="NKREDX">     1</i>
   <i type="int" name="NKREDY">     1</i>
   <i type="int" name="NKREDZ">     1</i>
   <i type="logical" name="SHIFTRED"> F  </i>
   <i type="logical" name="ODDONLY"> F  </i>
   <i type="logical" name="EVENONLY"> F  </i>
   <i type="int" name="LMAXFOCK">     0</i>
   <i type="int" name="NMAXFOCKAE">     0</i>
   <i type="logical" name="LFOCKAEDFT"> F  </i>
   <i name="HFSCREEN">      0.00000000</i>
   <i name="HFSCREENC">      0.00000000</i>
   <i type="int" name="NBANDSGWLOW">     0</i>
  </separator>
  <separator name="vdW DFT" >
   <i type="logical" name="LUSE_VDW"> F  </i>
   <i type="int" name="IVDW_NL">     1</i>
   <i type="logical" name="LSPIN_VDW"> F  </i>
   <i name="Zab_VDW">     -0.84910000</i>
   <i name="PARAM1">      0.12340000</i>
   <i name="PARAM2">      1.00000000</i>
   <i name="PARAM3">      0.00000000</i>
  </separator>
  <separator name="model GW" >
   <i type="int" name="MODEL_GW">     0</i>
   <i name="MODEL_EPS0">      6.39733692</i>
   <i name="MODEL_ALPHA">      1.00000000</i>
  </separator>
  <separator name="linear response parameters" >
   <i type="logical" name="LEPSILON"> F  </i>
   <i type="logical" name="LRPA"> F  </i>
   <i type="logical" name="LNABLA"> F  </i>
   <i type="logical" name="LVEL"> F  </i>
   <i name="CSHIFT">      0.10000000</i>
   <i name="OMEGAMAX">     -1.00000000</i>
   <i name="DEG_THRESHOLD">      0.00200000</i>
   <i name="RTIME">     -0.10000000</i>
   <i name="WPLASMAI">      0.00000000</i>
   <v name="DFIELD">      0.00000000      0.00000000      0.00000000</v>
   <v name="WPLASMA">      0.00000000      0.00000000      0.00000000      0.00000000      0.00000000      0.00000000      0.00000000      0.00000000      0.00000000</v>
  </separator>
  <separator name="orbital magnetization" >
   <i type="logical" name="NUCIND"> F  </i>
   <v name="MAGPOS">      0.00000000      0.00000000      0.00000000</v>
   <i type="logical" name="LNICSALL"> T  </i>
   <i type="logical" name="ORBITALMAG"> F  </i>
   <i type="logical" name="LMAGBLOCH"> F  </i>
   <i type="logical" name="LCHIMAG"> F  </i>
   <i type="logical" name="LGAUGE"> T  </i>
   <i type="int" name="MAGATOM">     0</i>
   <v name="MAGDIPOL">      0.00000000      0.00000000      0.00000000</v>
   <v name="AVECCONST">      0.00000000      0.00000000      0.00000000</v>
  </separator>
  <separator name="response functions" >
   <i type="logical" name="LALL_IN_ONE"> F  </i>
   <i type="int" name="IALL_IN_ONE">    -1</i>
   <i type="int" name="NBANDS_WAVE">    -1</i>
   <i type="logical" name="LFINITE_TEMPERATURE"> F  </i>
   <i type="logical" name="LADDER"> F  </i>
   <i type="logical" name="LRPAFORCE"> F  </i>
   <i type="logical" name="LFXC"> F  </i>
   <i type="logical" name="LHARTREE"> T  </i>
   <i type="int" name="IBSE">     0</i>
   <v type="int" name="KPOINT">    -1     0     0     0</v>
   <i type="logical" name="LTCTC"> F  </i>
   <i type="logical" name="LTCTE"> F  </i>
   <i type="logical" name="LTETE"> F  </i>
   <i type="logical" name="LTRIPLET"> F  </i>
   <i type="logical" name="LFXCEPS"> F  </i>
   <i type="logical" name="LFXHEG"> F  </i>
   <i type="int" name="NATURALO">     2</i>
   <i type="logical" name="LHOLEGF"> F  </i>
   <i type="logical" name="L2ORDER"> F  </i>
   <i type="logical" name="LDMP1"> F  </i>
   <i type="logical" name="LMP2LT"> F  </i>
   <i type="logical" name="LSMP2LT"> F  </i>
   <i type="logical" name="LGWLF"> F  </i>
   <i name="ENCUTGW">     -1.60000002</i>
   <i name="ENCUTGWSOFT">     -1.60000002</i>
   <i name="ENCUTLF">     -1.00000000</i>
   <i type="logical" name="LESF_SPLINES"> F  </i>
   <i type="int" name="LMAXMP2">    -1</i>
   <i name="SCISSOR">      0.00000000</i>
   <i type="int" name="NOMEGA">     0</i>
   <i type="int" name="NOMEGAR">     0</i>
   <i type="int" name="NBANDSGW">    -1</i>
   <i type="int" name="NBANDSO">    -1</i>
   <i type="int" name="NBANDSV">    -1</i>
   <i type="int" name="NELMGW">     1</i>
   <i type="int" name="NELMHF">     1</i>
   <i type="int" name="DIM">     3</i>
   <i type="int" name="IESPILON">     4</i>
   <i type="int" name="ANTIRES">     0</i>
   <i name="OMEGAMAX">    -30.00000000</i>
   <i name="OMEGAMIN">    -30.00000000</i>
   <i name="OMEGATL">   -200.00000000</i>
   <i type="int" name="OMEGAGRID">     0</i>
   <i name="CSHIFT">     -0.10000000</i>
   <i type="logical" name="LSELFENERGY"> F  </i>
   <i type="logical" name="LSPECTRAL"> F  </i>
   <i type="logical" name="LSPECTRALGW"> F  </i>
   <i type="logical" name="LSINGLES"> F  </i>
   <i type="logical" name="LFERMIGW"> F  </i>
   <i type="logical" name="ODDONLYGW"> F  </i>
   <i type="logical" name="EVENONLYGW"> F  </i>
   <i type="int" name="NKREDLFX">     1</i>
   <i type="int" name="NKREDLFY">     1</i>
   <i type="int" name="NKREDLFZ">     1</i>
   <i type="int" name="MAXMEM">  2800</i>
   <i type="int" name="TELESCOPE">     0</i>
   <i type="int" name="NTAUPAR">    -1</i>
   <i type="int" name="NOMEGAPAR">    -1</i>
   <i name="DAMP_NEWTON">      0.80000001</i>
   <i name="LAMBDA">      1.00000000</i>
  </separator>
  <separator name="External order field" >
   <i name="OFIELD_KAPPA">      0.00000000</i>
   <v name="OFIELD_K">      0.00000000      0.00000000      0.00000000</v>
   <i name="OFIELD_Q6_NEAR">      0.00000000</i>
   <i name="OFIELD_Q6_FAR">      0.00000000</i>
   <i name="OFIELD_A">      0.00000000</i>
  </separator>
  <separator name="optional k-points parameters" >
   <i type="int" name="KPOINTS_OPT_MODE">     1</i>
   <i type="logical" name="LKPOINTS_OPT"> F  </i>
  </separator>
 </parameters>
 <atominfo>
  <atoms>     119 </atoms>
  <types>       3 </types>
  <array name="atoms" >
   <dimension dim="1">ion</dimension>
   <field type="string">element</field>
   <field type="int">atomtype</field>
   <set>
    <rc><c>Ga</c><c>   1</c></rc>
    <rc><c>Ga</c><c>   1</c></rc>
    <rc><c>Ga</c><c>   1</c></rc>
    <rc><c>Ga</c><c>   1</c></rc>
    <rc><c>Ga</c><c>   1</c></rc>
    <rc><c>Ga</c><c>   1</c></rc>
    <rc><c>Ga</c><c>   1</c></rc>
    <rc><c>Ga</c><c>   1</c></rc>
    <rc><c>Ga</c><c>   1</c></rc>
    <rc><c>Ga</c><c>   1</c></rc>
    <rc><c>Ga</c><c>   1</c></rc>
    <rc><c>Ga</c><c>   1</c></rc>
    <rc><c>Ga</c><c>   1</c></rc>
    <rc><c>Ga</c><c>   1</c></rc>
    <rc><c>Ga</c><c>   1</c></rc>
    <rc><c>Ga</c><c>   1</c></rc>
    <rc><c>Ga</c><c>   1</c></rc>
    <rc><c>Ga</c><c>   1</c></rc>
    <rc><c>Ga</c><c>   1</c></rc>
    <rc><c>Ga</c><c>   1</c></rc>
    <rc><c>Ga</c><c>   1</c></rc>
    <rc><c>Ga</c><c>   1</c></rc>
    <rc><c>Ga</c><c>   1</c></rc>
    <rc><c>Ga</c><c>   1</c></rc>
    <rc><c>Ga</c><c>   1</c></rc>
    <rc><c>Ga</c><c>   1</c></rc>
    <rc><c>Ga</c><c>   1</c></rc>
    <rc><c>Ga</c><c>   1</c></rc>
    <rc><c>Ga</c><c>   1</c></rc>
    <rc><c>Ga</c><c>   1</c></rc>
    <rc><c>Ga</c><c>   1</c></rc>
    <rc><c>Ga</c><c>   1</c></rc>
    <rc><c>Ga</c><c>   1</c></rc>
    <rc><c>Ga</c><c>   1</c></rc>
    <rc><c>Ga</c><c>   1</c></rc>
    <rc><c>Ga</c><c>   1</c></rc>
    <rc><c>Ga</c><c>   1</c></rc>
    <rc><c>Ga</c><c>   1</c></rc>
    <rc><c>Ga</c><c>   1</c></rc>
    <rc><c>Ga</c><c>   1</c></rc>
    <rc><c>Ga</c><c>   1</c></rc>
    <rc><c>Ga</c><c>   1</c></rc>
    <rc><c>Ga</c><c>   1</c></rc>
    <rc><c>Ga</c><c>   1</c></rc>
    <rc><c>Ga</c><c>   1</c></rc>
    <rc><c>Ga</c><c>   1</c></rc>
    <rc><c>Ga</c><c>   1</c></rc>
    <rc><c>O </c><c>   2</c></rc>
    <rc><c>O </c><c>   2</c></rc>
    <rc><c>O </c><c>   2</c></rc>
    <rc><c>O </c><c>   2</c></rc>
    <rc><c>O </c><c>   2</c></rc>
    <rc><c>O </c><c>   2</c></rc>
    <rc><c>O </c><c>   2</c></rc>
    <rc><c>O </c><c>   2</c></rc>
    <rc><c>O </c><c>   2</c></rc>
    <rc><c>O </c><c>   2</c></rc>
    <rc><c>O </c><c>   2</c></rc>
    <rc><c>O </c><c>   2</c></rc>
    <rc><c>O </c><c>   2</c></rc>
    <rc><c>O </c><c>   2</c></rc>
    <rc><c>O </c><c>   2</c></rc>
    <rc><c>O </c><c>   2</c></rc>
    <rc><c>O </c><c>   2</c></rc>
    <rc><c>O </c><c>   2</c></rc>
    <rc><c>O </c><c>   2</c></rc>
    <rc><c>O </c><c>   2</c></rc>
    <rc><c>O </c><c>   2</c></rc>
    <rc><c>O </c><c>   2</c></rc>
    <rc><c>O </c><c>   2</c></rc>
    <rc><c>O </c><c>   2</c></rc>
    <rc><c>O </c><c>   2</c></rc>
    <rc><c>O </c><c>   2</c></rc>
    <rc><c>O </c><c>   2</c></rc>
    <rc><c>O </c><c>   2</c></rc>
    <rc><c>O </c><c>   2</c></rc>
    <rc><c>O </c><c>   2</c></rc>
    <rc><c>O </c><c>   2</c></rc>
    <rc><c>O </c><c>   2</c></rc>
    <rc><c>O </c><c>   2</c></rc>
    <rc><c>O </c><c>   2</c></rc>
    <rc><c>O </c><c>   2</c></rc>
    <rc><c>O </c><c>   2</c></rc>
    <rc><c>O </c><c>   2</c></rc>
    <rc><c>O </c><c>   2</c></rc>
    <rc><c>O </c><c>   2</c></rc>
    <rc><c>O </c><c>   2</c></rc>
    <rc><c>O </c><c>   2</c></rc>
    <rc><c>O </c><c>   2</c></rc>
    <rc><c>O </c><c>   2</c></rc>
    <rc><c>O </c><c>   2</c></rc>
    <rc><c>O </c><c>   2</c></rc>
    <rc><c>O </c><c>   2</c></rc>
    <rc><c>O </c><c>   2</c></rc>
    <rc><c>O </c><c>   2</c></rc>
    <rc><c>O </c><c>   2</c></rc>
    <rc><c>O </c><c>   2</c></rc>
    <rc><c>O </c><c>   2</c></rc>
    <rc><c>O </c><c>   2</c></rc>
    <rc><c>O </c><c>   2</c></rc>
    <rc><c>O </c><c>   2</c></rc>
    <rc><c>O </c><c>   2</c></rc>
    <rc><c>O </c><c>   2</c></rc>
    <rc><c>O </c><c>   2</c></rc>
    <rc><c>O </c><c>   2</c></rc>
    <rc><c>O </c><c>   2</c></rc>
    <rc><c>O </c><c>   2</c></rc>
    <rc><c>O </c><c>   2</c></rc>
    <rc><c>O </c><c>   2</c></rc>
    <rc><c>O </c><c>   2</c></rc>
    <rc><c>O </c><c>   2</c></rc>
    <rc><c>O </c><c>   2</c></rc>
    <rc><c>O </c><c>   2</c></rc>
    <rc><c>O </c><c>   2</c></rc>
    <rc><c>O </c><c>   2</c></rc>
    <rc><c>O </c><c>   2</c></rc>
    <rc><c>O </c><c>   2</c></rc>
    <rc><c>O </c><c>   2</c></rc>
    <rc><c>P </c><c>   3</c></rc>
   </set>
  </array>
  <array name="atomtypes" >
   <dimension dim="1">type</dimension>
   <field type="int">atomspertype</field>
   <field type="string">element</field>
   <field>mass</field>
   <field>valence</field>
   <field type="string">pseudopotential</field>
   <set>
    <rc><c>  47</c><c>Ga</c><c>     69.72300000</c><c>     13.00000000</c><c>  PAW_PBE Ga_d 06Jul2010                </c></rc>
    <rc><c>  71</c><c>O </c><c>     16.00000000</c><c>      6.00000000</c><c>   PAW_PBE O 08Apr2002                  </c></rc>
    <rc><c>   1</c><c>P </c><c>     30.97400000</c><c>      5.00000000</c><c>  PAW_PBE P 06Sep2000                   </c></rc>
   </set>
  </array>
 </atominfo>
 <structure name="initialpos" >
  <crystal>
   <varray name="basis" >
    <v>       0.00000000      12.28047342       0.00000000 </v>
    <v>       9.14270205       0.00000000       0.00000000 </v>
    <v>       0.00000000      -2.76826177     -11.30069772 </v>
   </varray>
   <i name="volume">   1268.80515525 </i>
   <varray name="rec_basis" >
    <v>       0.00000000       0.08143009      -0.01994742 </v>
    <v>       0.10937686      -0.00000000       0.00000000 </v>
    <v>       0.00000000       0.00000000      -0.08849011 </v>
   </varray>
  </crystal>
  <varray name="positions" >
   <v>       0.65883830       0.00000000       0.15736517 </v>
   <v>       0.65883830       0.00000000       0.65736517 </v>
   <v>       0.65883830       0.33333333       0.15736517 </v>
   <v>       0.65883830       0.33333333       0.65736517 </v>
   <v>       0.65883830       0.66666667       0.15736517 </v>
   <v>       0.65883830       0.66666667       0.65736517 </v>
   <v>       0.84116170       0.16666667       0.34263483 </v>
   <v>       0.84116170       0.16666667       0.84263483 </v>
   <v>       0.84116170       0.50000000       0.34263483 </v>
   <v>       0.84116170       0.50000000       0.84263483 </v>
   <v>       0.84116170       0.83333333       0.34263483 </v>
   <v>       0.84116170       0.83333333       0.84263483 </v>
   <v>       0.59047440       0.16666667       0.39739300 </v>
   <v>       0.59047440       0.16666667       0.89739300 </v>
   <v>       0.59047440       0.50000000       0.39739300 </v>
   <v>       0.59047440       0.50000000       0.89739300 </v>
   <v>       0.59047440       0.83333333       0.39739300 </v>
   <v>       0.59047440       0.83333333       0.89739300 </v>
   <v>       0.90952560       0.00000000       0.10260700 </v>
   <v>       0.90952560       0.00000000       0.60260700 </v>
   <v>       0.90952560       0.33333333       0.10260700 </v>
   <v>       0.90952560       0.33333333       0.60260700 </v>
   <v>       0.90952560       0.66666667       0.10260700 </v>
   <v>       0.90952560       0.66666667       0.60260700 </v>
   <v>       0.15883830       0.16666667       0.15736517 </v>
   <v>       0.15883830       0.16666667       0.65736517 </v>
   <v>       0.15883830       0.50000000       0.15736517 </v>
   <v>       0.15883830       0.50000000       0.65736517 </v>
   <v>       0.15883830       0.83333333       0.15736517 </v>
   <v>       0.15883830       0.83333333       0.65736517 </v>
   <v>       0.34116170       0.00000000       0.34263483 </v>
   <v>       0.34116170       0.00000000       0.84263483 </v>
   <v>       0.34116170       0.33333333       0.34263483 </v>
   <v>       0.34116170       0.33333333       0.84263483 </v>
   <v>       0.34116170       0.66666667       0.34263483 </v>
   <v>       0.34116170       0.66666667       0.84263483 </v>
   <v>       0.09047440       0.00000000       0.89739300 </v>
   <v>       0.09047440       0.33333333       0.39739300 </v>
   <v>       0.09047440       0.33333333       0.89739300 </v>
   <v>       0.09047440       0.66666667       0.39739300 </v>
   <v>       0.09047440       0.66666667       0.89739300 </v>
   <v>       0.40952560       0.16666667       0.10260700 </v>
   <v>       0.40952560       0.16666667       0.60260700 </v>
   <v>       0.40952560       0.50000000       0.10260700 </v>
   <v>       0.40952560       0.50000000       0.60260700 </v>
   <v>       0.40952560       0.83333333       0.10260700 </v>
   <v>       0.40952560       0.83333333       0.60260700 </v>
   <v>       0.99646913       0.16666667       0.12833205 </v>
   <v>       0.99646913       0.16666667       0.62833205 </v>
   <v>       0.99646913       0.50000000       0.12833205 </v>
   <v>       0.99646913       0.50000000       0.62833205 </v>
   <v>       0.99646913       0.83333333       0.12833205 </v>
   <v>       0.99646913       0.83333333       0.62833205 </v>
   <v>       0.50353087       0.00000000       0.37166795 </v>
   <v>       0.50353087       0.00000000       0.87166795 </v>
   <v>       0.50353087       0.33333333       0.37166795 </v>
   <v>       0.50353087       0.33333333       0.87166795 </v>
   <v>       0.50353087       0.66666667       0.37166795 </v>
   <v>       0.50353087       0.66666667       0.87166795 </v>
   <v>       0.67337106       0.16666667       0.28161508 </v>
   <v>       0.67337106       0.16666667       0.78161508 </v>
   <v>       0.67337106       0.50000000       0.28161508 </v>
   <v>       0.67337106       0.50000000       0.78161508 </v>
   <v>       0.67337106       0.83333333       0.28161508 </v>
   <v>       0.67337106       0.83333333       0.78161508 </v>
   <v>       0.82662894       0.00000000       0.21838492 </v>
   <v>       0.82662894       0.00000000       0.71838492 </v>
   <v>       0.82662894       0.33333333       0.21838492 </v>
   <v>       0.82662894       0.33333333       0.71838492 </v>
   <v>       0.82662894       0.66666667       0.21838492 </v>
   <v>       0.82662894       0.66666667       0.71838492 </v>
   <v>       0.83549502       0.00000000       0.44542296 </v>
   <v>       0.83549502       0.00000000       0.94542296 </v>
   <v>       0.83549502       0.33333333       0.44542296 </v>
   <v>       0.83549502       0.33333333       0.94542296 </v>
   <v>       0.83549502       0.66666667       0.44542296 </v>
   <v>       0.83549502       0.66666667       0.94542296 </v>
   <v>       0.66450498       0.16666667       0.05457704 </v>
   <v>       0.66450498       0.16666667       0.55457704 </v>
   <v>       0.66450498       0.50000000       0.05457704 </v>
   <v>       0.66450498       0.50000000       0.55457704 </v>
   <v>       0.66450498       0.83333333       0.05457704 </v>
   <v>       0.66450498       0.83333333       0.55457704 </v>
   <v>       0.49646913       0.00000000       0.12833205 </v>
   <v>       0.49646913       0.00000000       0.62833205 </v>
   <v>       0.49646913       0.33333333       0.12833205 </v>
   <v>       0.49646913       0.33333333       0.62833205 </v>
   <v>       0.49646913       0.66666667       0.12833205 </v>
   <v>       0.49646913       0.66666667       0.62833205 </v>
   <v>       0.00353087       0.16666667       0.37166795 </v>
   <v>       0.00353087       0.16666667       0.87166795 </v>
   <v>       0.00353087       0.50000000       0.37166795 </v>
   <v>       0.00353087       0.50000000       0.87166795 </v>
   <v>       0.00353087       0.83333333       0.37166795 </v>
   <v>       0.00353087       0.83333333       0.87166795 </v>
   <v>       0.17337106       0.00000000       0.28161508 </v>
   <v>       0.17337106       0.00000000       0.78161508 </v>
   <v>       0.17337106       0.33333333       0.28161508 </v>
   <v>       0.17337106       0.33333333       0.78161508 </v>
   <v>       0.17337106       0.66666667       0.28161508 </v>
   <v>       0.17337106       0.66666667       0.78161508 </v>
   <v>       0.32662894       0.16666667       0.21838492 </v>
   <v>       0.32662894       0.16666667       0.71838492 </v>
   <v>       0.32662894       0.50000000       0.21838492 </v>
   <v>       0.32662894       0.50000000       0.71838492 </v>
   <v>       0.32662894       0.83333333       0.21838492 </v>
   <v>       0.32662894       0.83333333       0.71838492 </v>
   <v>       0.33549502       0.16666667       0.44542296 </v>
   <v>       0.33549502       0.16666667       0.94542296 </v>
   <v>       0.33549502       0.50000000       0.44542296 </v>
   <v>       0.33549502       0.50000000       0.94542296 </v>
   <v>       0.33549502       0.83333333       0.44542296 </v>
   <v>       0.33549502       0.83333333       0.94542296 </v>
   <v>       0.16450498       0.00000000       0.05457704 </v>
   <v>       0.16450498       0.33333333       0.05457704 </v>
   <v>       0.16450498       0.33333333       0.55457704 </v>
   <v>       0.16450498       0.66666667       0.05457704 </v>
   <v>       0.16450498       0.66666667       0.55457704 </v>
   <v>       0.16450498       0.00000000       0.55457704 </v>
  </varray>
 </structure>
 <calculation>
  <scstep>
   <time name="dav">    1.84    1.84</time>
   <time name="total">    1.97    1.97</time>
   <energy>
    <i name="alphaZ">   5376.25786726 </i>
    <i name="ewald"> -86186.08526395 </i>
    <i name="hartreedc"> -33713.75777736 </i>
    <i name="XCdc">   4078.38769252 </i>
    <i name="pawpsdc"> 100093.09196360 </i>
    <i name="pawaedc">-115889.62880893 </i>
    <i name="eentropy">     -0.00952215 </i>
    <i name="bandstr">  16684.55607619 </i>
    <i name="atom"> 131866.99277783 </i>
    <i name="e_fr_energy">  22309.80500500 </i>
    <i name="e_wo_entrp">  22309.81452715 </i>
    <i name="e_0_energy">  22309.80976608 </i>
   </energy>
  </scstep>
  <scstep>
   <time name="dav">    1.71    1.71</time>
   <time name="total">    1.71    1.71</time>
   <energy>
    <i name="e_fr_energy">   5006.65101197 </i>
    <i name="e_wo_entrp">   5006.66614470 </i>
    <i name="e_0_energy">   5006.65857833 </i>
   </energy>
  </scstep>
  <scstep>
   <time name="dav">    2.10    2.10</time>
   <time name="total">    2.10    2.10</time>
   <energy>
    <i name="e_fr_energy">    -39.52883685 </i>
    <i name="e_wo_entrp">    -39.51393791 </i>
    <i name="e_0_energy">    -39.52138738 </i>
   </energy>
  </scstep>
  <scstep>
   <time name="dav">    2.05    2.05</time>
   <time name="total">    2.06    2.06</time>
   <energy>
    <i name="e_fr_energy">   -676.27055613 </i>
    <i name="e_wo_entrp">   -676.25662762 </i>
    <i name="e_0_energy">   -676.26359187 </i>
   </energy>
  </scstep>
  <scstep>
   <time name="dav">    2.29    2.29</time>
   <time name="total">    2.66    2.67</time>
   <energy>
    <i name="e_fr_energy">   -720.23070511 </i>
    <i name="e_wo_entrp">   -720.21651196 </i>
    <i name="e_0_energy">   -720.22360853 </i>
   </energy>
  </scstep>
  <scstep>
   <time name="diag">    0.24    0.24</time>
   <time name="diis">    2.51    2.51</time>
   <time name="orth">    0.03    0.03</time>
   <time name="total">    3.17    3.17</time>
   <energy>
    <i name="e_fr_energy">   -590.94949023 </i>
    <i name="e_wo_entrp">   -590.93326575 </i>
    <i name="e_0_energy">   -590.94137799 </i>
   </energy>
  </scstep>
  <scstep>
   <time name="diag">    0.24    0.24</time>
   <time name="diis">    2.71    2.71</time>
   <time name="orth">    0.03    0.03</time>
   <time name="total">    3.36    3.36</time>
   <energy>
    <i name="e_fr_energy">   -594.82932098 </i>
    <i name="e_wo_entrp">   -594.81145448 </i>
    <i name="e_0_energy">   -594.82038773 </i>
   </energy>
  </scstep>
  <scstep>
   <time name="diag">    0.24    0.24</time>
   <time name="diis">    2.46    2.46</time>
   <time name="orth">    0.03    0.03</time>
   <time name="total">    3.12    3.12</time>
   <energy>
    <i name="e_fr_energy">   -594.40455159 </i>
    <i name="e_wo_entrp">   -594.38753839 </i>
    <i name="e_0_energy">   -594.39604499 </i>
   </energy>
  </scstep>
  <scstep>
   <time name="diag">    0.24    0.24</time>
   <time name="diis">    2.93    2.93</time>
   <time name="orth">    0.03    0.03</time>
   <time name="total">    3.59    3.59</time>
   <energy>
    <i name="e_fr_energy">   -594.15744309 </i>
    <i name="e_wo_entrp">   -594.14067588 </i>
    <i name="e_0_energy">   -594.14905949 </i>
   </energy>
  </scstep>
  <scstep>
   <time name="diag">    0.24    0.24</time>
   <time name="diis">    2.59    2.59</time>
   <time name="orth">    0.03    0.03</time>
   <time name="total">    3.25    3.25</time>
   <energy>
    <i name="e_fr_energy">   -594.21429178 </i>
    <i name="e_wo_entrp">   -594.19720435 </i>
    <i name="e_0_energy">   -594.20574806 </i>
   </energy>
  </scstep>
  <scstep>
   <time name="diag">    0.24    0.24</time>
   <time name="diis">    2.67    2.66</time>
   <time name="orth">    0.03    0.03</time>
   <time name="total">    3.33    3.33</time>
   <energy>
    <i name="e_fr_energy">   -594.22607942 </i>
    <i name="e_wo_entrp">   -594.20893150 </i>
    <i name="e_0_energy">   -594.21750546 </i>
   </energy>
  </scstep>
  <scstep>
   <time name="diag">    0.24    0.24</time>
   <time name="diis">    2.97    2.97</time>
   <time name="orth">    0.03    0.03</time>
   <time name="total">    3.64    3.64</time>
   <energy>
    <i name="e_fr_energy">   -594.22875238 </i>
    <i name="e_wo_entrp">   -594.21157616 </i>
    <i name="e_0_energy">   -594.22016427 </i>
   </energy>
  </scstep>
  <scstep>
   <time name="diag">    0.24    0.24</time>
   <time name="diis">    2.93    2.93</time>
   <time name="orth">    0.03    0.03</time>
   <time name="total">    3.59    3.59</time>
   <energy>
    <i name="e_fr_energy">   -594.23031325 </i>
    <i name="e_wo_entrp">   -594.21311401 </i>
    <i name="e_0_energy">   -594.22171363 </i>
   </energy>
  </scstep>
  <scstep>
   <time name="diag">    0.24    0.24</time>
   <time name="diis">    2.66    2.66</time>
   <time name="orth">    0.03    0.03</time>
   <time name="total">    3.33    3.33</time>
   <energy>
    <i name="e_fr_energy">   -594.23118127 </i>
    <i name="e_wo_entrp">   -594.21397180 </i>
    <i name="e_0_energy">   -594.22257653 </i>
   </energy>
  </scstep>
  <scstep>
   <time name="diag">    0.24    0.24</time>
   <time name="diis">    2.44    2.44</time>
   <time name="orth">    0.03    0.03</time>
   <time name="total">    3.11    3.11</time>
   <energy>
    <i name="e_fr_energy">   -594.23146356 </i>
    <i name="e_wo_entrp">   -594.21424604 </i>
    <i name="e_0_energy">   -594.22285480 </i>
   </energy>
  </scstep>
  <scstep>
   <time name="diag">    0.24    0.24</time>
   <time name="diis">    2.16    2.16</time>
   <time name="orth">    0.03    0.03</time>
   <time name="total">    2.83    2.83</time>
   <energy>
    <i name="e_fr_energy">   -594.23161299 </i>
    <i name="e_wo_entrp">   -594.21437498 </i>
    <i name="e_0_energy">   -594.22299398 </i>
   </energy>
  </scstep>
  <scstep>
   <time name="diag">    0.24    0.24</time>
   <time name="diis">    2.02    2.02</time>
   <time name="orth">    0.03    0.03</time>
   <time name="total">    2.69    2.69</time>
   <energy>
    <i name="e_fr_energy">   -594.23167620 </i>
    <i name="e_wo_entrp">   -594.21443292 </i>
    <i name="e_0_energy">   -594.22305456 </i>
   </energy>
  </scstep>
  <scstep>
   <time name="diag">    0.24    0.24</time>
   <time name="diis">    1.86    1.85</time>
   <time name="orth">    0.03    0.03</time>
   <time name="total">    2.53    2.53</time>
   <energy>
    <i name="e_fr_energy">   -594.23171041 </i>
    <i name="e_wo_entrp">   -594.21446344 </i>
    <i name="e_0_energy">   -594.22308693 </i>
   </energy>
  </scstep>
  <scstep>
   <time name="diag">    0.24    0.24</time>
   <time name="diis">    1.68    1.68</time>
   <time name="orth">    0.03    0.03</time>
   <time name="total">    2.36    2.36</time>
   <energy>
    <i name="e_fr_energy">   -594.23172584 </i>
    <i name="e_wo_entrp">   -594.21447645 </i>
    <i name="e_0_energy">   -594.22310115 </i>
   </energy>
  </scstep>
  <scstep>
   <time name="diag">    0.24    0.24</time>
   <time name="diis">    1.39    1.39</time>
   <time name="orth">    0.03    0.03</time>
   <time name="total">    1.78    1.78</time>
   <energy>
    <i name="alphaZ">   5376.25786726 </i>
    <i name="ewald"> -86186.08526395 </i>
    <i name="hartreedc"> -34213.87610484 </i>
    <i name="XCdc">   4194.39672887 </i>
    <i name="pawpsdc"> 120802.10947777 </i>
    <i name="pawaedc">-136884.54688566 </i>
    <i name="eentropy">     -0.01725634 </i>
    <i name="bandstr">  -5549.46307660 </i>
    <i name="atom"> 131866.99277783 </i>
    <i name="e_fr_energy">   -594.23173567 </i>
    <i name="e_wo_entrp">   -594.21447933 </i>
    <i name="e_0_energy">   -594.22310750 </i>
   </energy>
  </scstep>
  <structure>
   <crystal>
    <varray name="basis" >
     <v>       0.00000000      12.28047342       0.00000000 </v>
     <v>       9.14270205       0.00000000       0.00000000 </v>
     <v>       0.00000000      -2.76826177     -11.30069772 </v>
    </varray>
    <i name="volume">   1268.80515525 </i>
    <varray name="rec_basis" >
     <v>       0.00000000       0.08143009      -0.01994742 </v>
     <v>       0.10937686      -0.00000000       0.00000000 </v>
     <v>       0.00000000       0.00000000      -0.08849011 </v>
    </varray>
   </crystal>
   <varray name="positions" >
    <v>       0.65883830       0.00000000       0.15736517 </v>
    <v>       0.65883830       0.00000000       0.65736517 </v>
    <v>       0.65883830       0.33333333       0.15736517 </v>
    <v>       0.65883830       0.33333333       0.65736517 </v>
    <v>       0.65883830       0.66666667       0.15736517 </v>
    <v>       0.65883830       0.66666667       0.65736517 </v>
    <v>       0.84116170       0.16666667       0.34263483 </v>
    <v>       0.84116170       0.16666667       0.84263483 </v>
    <v>       0.84116170       0.50000000       0.34263483 </v>
    <v>       0.84116170       0.50000000       0.84263483 </v>
    <v>       0.84116170       0.83333333       0.34263483 </v>
    <v>       0.84116170       0.83333333       0.84263483 </v>
    <v>       0.59047440       0.16666667       0.39739300 </v>
    <v>       0.59047440       0.16666667       0.89739300 </v>
    <v>       0.59047440       0.50000000       0.39739300 </v>
    <v>       0.59047440       0.50000000       0.89739300 </v>
    <v>       0.59047440       0.83333333       0.39739300 </v>
    <v>       0.59047440       0.83333333       0.89739300 </v>
    <v>       0.90952560       0.00000000       0.10260700 </v>
    <v>       0.90952560       0.00000000       0.60260700 </v>
    <v>       0.90952560       0.33333333       0.10260700 </v>
    <v>       0.90952560       0.33333333       0.60260700 </v>
    <v>       0.90952560       0.66666667       0.10260700 </v>
    <v>       0.90952560       0.66666667       0.60260700 </v>
    <v>       0.15883830       0.16666667       0.15736517 </v>
    <v>       0.15883830       0.16666667       0.65736517 </v>
    <v>       0.15883830       0.50000000       0.15736517 </v>
    <v>       0.15883830       0.50000000       0.65736517 </v>
    <v>       0.15883830       0.83333333       0.15736517 </v>
    <v>       0.15883830       0.83333333       0.65736517 </v>
    <v>       0.34116170       0.00000000       0.34263483 </v>
    <v>       0.34116170       0.00000000       0.84263483 </v>
    <v>       0.34116170       0.33333333       0.34263483 </v>
    <v>       0.34116170       0.33333333       0.84263483 </v>
    <v>       0.34116170       0.66666667       0.34263483 </v>
    <v>       0.34116170       0.66666667       0.84263483 </v>
    <v>       0.09047440       0.00000000       0.89739300 </v>
    <v>       0.09047440       0.33333333       0.39739300 </v>
    <v>       0.09047440       0.33333333       0.89739300 </v>
    <v>       0.09047440       0.66666667       0.39739300 </v>
    <v>       0.09047440       0.66666667       0.89739300 </v>
    <v>       0.40952560       0.16666667       0.10260700 </v>
    <v>       0.40952560       0.16666667       0.60260700 </v>
    <v>       0.40952560       0.50000000       0.10260700 </v>
    <v>       0.40952560       0.50000000       0.60260700 </v>
    <v>       0.40952560       0.83333333       0.10260700 </v>
    <v>       0.40952560       0.83333333       0.60260700 </v>
    <v>       0.99646913       0.16666667       0.12833205 </v>
    <v>       0.99646913       0.16666667       0.62833205 </v>
    <v>       0.99646913       0.50000000       0.12833205 </v>
    <v>       0.99646913       0.50000000       0.62833205 </v>
    <v>       0.99646913       0.83333333       0.12833205 </v>
    <v>       0.99646913       0.83333333       0.62833205 </v>
    <v>       0.50353087       0.00000000       0.37166795 </v>
    <v>       0.50353087       0.00000000       0.87166795 </v>
    <v>       0.50353087       0.33333333       0.37166795 </v>
    <v>       0.50353087       0.33333333       0.87166795 </v>
    <v>       0.50353087       0.66666667       0.37166795 </v>
    <v>       0.50353087       0.66666667       0.87166795 </v>
    <v>       0.67337106       0.16666667       0.28161508 </v>
    <v>       0.67337106       0.16666667       0.78161508 </v>
    <v>       0.67337106       0.50000000       0.28161508 </v>
    <v>       0.67337106       0.50000000       0.78161508 </v>
    <v>       0.67337106       0.83333333       0.28161508 </v>
    <v>       0.67337106       0.83333333       0.78161508 </v>
    <v>       0.82662894       0.00000000       0.21838492 </v>
    <v>       0.82662894       0.00000000       0.71838492 </v>
    <v>       0.82662894       0.33333333       0.21838492 </v>
    <v>       0.82662894       0.33333333       0.71838492 </v>
    <v>       0.82662894       0.66666667       0.21838492 </v>
    <v>       0.82662894       0.66666667       0.71838492 </v>
    <v>       0.83549502       0.00000000       0.44542296 </v>
    <v>       0.83549502       0.00000000       0.94542296 </v>
    <v>       0.83549502       0.33333333       0.44542296 </v>
    <v>       0.83549502       0.33333333       0.94542296 </v>
    <v>       0.83549502       0.66666667       0.44542296 </v>
    <v>       0.83549502       0.66666667       0.94542296 </v>
    <v>       0.66450498       0.16666667       0.05457704 </v>
    <v>       0.66450498       0.16666667       0.55457704 </v>
    <v>       0.66450498       0.50000000       0.05457704 </v>
    <v>       0.66450498       0.50000000       0.55457704 </v>
    <v>       0.66450498       0.83333333       0.05457704 </v>
    <v>       0.66450498       0.83333333       0.55457704 </v>
    <v>       0.49646913       0.00000000       0.12833205 </v>
    <v>       0.49646913       0.00000000       0.62833205 </v>
    <v>       0.49646913       0.33333333       0.12833205 </v>
    <v>       0.49646913       0.33333333       0.62833205 </v>
    <v>       0.49646913       0.66666667       0.12833205 </v>
    <v>       0.49646913       0.66666667       0.62833205 </v>
    <v>       0.00353087       0.16666667       0.37166795 </v>
    <v>       0.00353087       0.16666667       0.87166795 </v>
    <v>       0.00353087       0.50000000       0.37166795 </v>
    <v>       0.00353087       0.50000000       0.87166795 </v>
    <v>       0.00353087       0.83333333       0.37166795 </v>
    <v>       0.00353087       0.83333333       0.87166795 </v>
    <v>       0.17337106       0.00000000       0.28161508 </v>
    <v>       0.17337106       0.00000000       0.78161508 </v>
    <v>       0.17337106       0.33333333       0.28161508 </v>
    <v>       0.17337106       0.33333333       0.78161508 </v>
    <v>       0.17337106       0.66666667       0.28161508 </v>
    <v>       0.17337106       0.66666667       0.78161508 </v>
    <v>       0.32662894       0.16666667       0.21838492 </v>
    <v>       0.32662894       0.16666667       0.71838492 </v>
    <v>       0.32662894       0.50000000       0.21838492 </v>
    <v>       0.32662894       0.50000000       0.71838492 </v>
    <v>       0.32662894       0.83333333       0.21838492 </v>
    <v>       0.32662894       0.83333333       0.71838492 </v>
    <v>       0.33549502       0.16666667       0.44542296 </v>
    <v>       0.33549502       0.16666667       0.94542296 </v>
    <v>       0.33549502       0.50000000       0.44542296 </v>
    <v>       0.33549502       0.50000000       0.94542296 </v>
    <v>       0.33549502       0.83333333       0.44542296 </v>
    <v>       0.33549502       0.83333333       0.94542296 </v>
    <v>       0.16450498       0.00000000       0.05457704 </v>
    <v>       0.16450498       0.33333333       0.05457704 </v>
    <v>       0.16450498       0.33333333       0.55457704 </v>
    <v>       0.16450498       0.66666667       0.05457704 </v>
    <v>       0.16450498       0.66666667       0.55457704 </v>
    <v>       0.16450498       0.00000000       0.55457704 </v>
   </varray>
  </structure>
  <varray name="forces" >
   <v>       0.00000000       0.39927667      -0.14850774 </v>
   <v>       0.00000000       0.00152781       0.05752763 </v>
   <v>       0.00737078       0.27643015      -0.09002749 </v>
   <v>       0.01762678       0.09692239       0.02559561 </v>
   <v>      -0.00737078       0.27643015      -0.09002749 </v>
   <v>      -0.01762678       0.09692239       0.02559561 </v>
   <v>      -0.27628294       2.52095455      -0.55063025 </v>
   <v>       0.00387747       0.05954246      -0.06430970 </v>
   <v>       0.00000000       0.34883976      -0.14894670 </v>
   <v>       0.00000000      -0.02891161      -0.02944696 </v>
   <v>       0.27628294       2.52095455      -0.55063025 </v>
   <v>      -0.00387747       0.05954246      -0.06430970 </v>
   <v>      -0.04255660       0.30085423      -0.02122268 </v>
   <v>       0.00208065       0.25361192      -0.06702771 </v>
   <v>       0.00000000       0.32103319      -0.02587328 </v>
   <v>       0.00000000       0.27823810      -0.07348672 </v>
   <v>       0.04255660       0.30085423      -0.02122268 </v>
   <v>      -0.00208065       0.25361192      -0.06702771 </v>
   <v>       0.00000000       0.12724324      -0.89481444 </v>
   <v>       0.00000000       1.02926997       0.73680693 </v>
   <v>      -0.25692802      -0.15979879      -0.31697603 </v>
   <v>      -0.39439266       0.12867750       0.25955554 </v>
   <v>       0.25692802      -0.15979879      -0.31697603 </v>
   <v>       0.39439266       0.12867750       0.25955554 </v>
   <v>      -1.49171321      -0.39746643      -1.53511762 </v>
   <v>       3.44959512      -0.82642437      -2.11694731 </v>
   <v>       0.00000000      -0.00181944      -0.28091486 </v>
   <v>       0.00000000       0.22778484       0.63235118 </v>
   <v>       1.49171321      -0.39746643      -1.53511762 </v>
   <v>      -3.44959512      -0.82642437      -2.11694731 </v>
   <v>       0.00000000      -2.47778094       0.22099830 </v>
   <v>       0.00000000      -0.62766827       0.74576124 </v>
   <v>      -0.39675432      -0.40342616      -0.05244167 </v>
   <v>      -0.31818490      -0.10338928       0.34396791 </v>
   <v>       0.39675432      -0.40342616      -0.05244167 </v>
   <v>       0.31818490      -0.10338928       0.34396791 </v>
   <v>       0.00000000       0.91232084       0.07866927 </v>
   <v>      -2.53555957      -1.07129041       0.08099333 </v>
   <v>      -0.03636004       0.35772543      -0.00641881 </v>
   <v>       2.53555957      -1.07129041       0.08099333 </v>
   <v>       0.03636004       0.35772543      -0.00641881 </v>
   <v>       0.04210290      -0.52902412      -0.04832357 </v>
   <v>      -0.52223043      -1.35865219       0.27583940 </v>
   <v>       0.00000000      -0.40287909       0.04930882 </v>
   <v>       0.00000000      -0.46720901       0.07070879 </v>
   <v>      -0.04210290      -0.52902412      -0.04832357 </v>
   <v>       0.52223043      -1.35865219       0.27583940 </v>
   <v>       0.18700421       0.24127623       0.40659047 </v>
   <v>       0.98169452      -1.51477582      -0.53955196 </v>
   <v>       0.00000000       0.48663494      -0.07852090 </v>
   <v>       0.00000000       0.34647934      -0.18293018 </v>
   <v>      -0.18700421       0.24127623       0.40659047 </v>
   <v>      -0.98169452      -1.51477582      -0.53955196 </v>
   <v>       0.00000000      -0.53744334       0.17097282 </v>
   <v>       0.00000000      -0.49390001       0.09586806 </v>
   <v>       0.05225984      -0.44304552       0.14746742 </v>
   <v>       0.03491736      -0.39753250       0.06279290 </v>
   <v>      -0.05225984      -0.44304552       0.14746742 </v>
   <v>      -0.03491736      -0.39753250       0.06279290 </v>
   <v>       0.01665167       0.08094020       0.33352811 </v>
   <v>      -0.05785561       0.02554264       0.35581595 </v>
   <v>       0.00000000       0.01357291       0.31714222 </v>
   <v>       0.00000000       0.07067555       0.35451335 </v>
   <v>      -0.01665167       0.08094020       0.33352811 </v>
   <v>       0.05785561       0.02554264       0.35581595 </v>
   <v>       0.00000000      -0.55971036       0.09743814 </v>
   <v>       0.00000000      -0.08342956      -0.12932472 </v>
   <v>       0.26325784      -0.45180886       0.00025380 </v>
   <v>       0.03753259      -0.14620703      -0.28016662 </v>
   <v>      -0.26325784      -0.45180886       0.00025380 </v>
   <v>      -0.03753259      -0.14620703      -0.28016662 </v>
   <v>       0.00000000      -0.92135074      -0.04807480 </v>
   <v>       0.00000000      -0.28967580       0.26608976 </v>
   <v>       0.34795867      -0.70127189      -0.01546973 </v>
   <v>       0.00648699      -0.27136449       0.30534801 </v>
   <v>      -0.34795867      -0.70127189      -0.01546973 </v>
   <v>      -0.00648699      -0.27136449       0.30534801 </v>
   <v>       0.00219922       0.18857863      -0.18958696 </v>
   <v>      -0.03001606       0.23378063      -0.31846224 </v>
   <v>       0.00000000       0.17447212      -0.21589402 </v>
   <v>       0.00000000       0.21282119      -0.25502282 </v>
   <v>      -0.00219922       0.18857863      -0.18958696 </v>
   <v>       0.03001606       0.23378063      -0.31846224 </v>
   <v>       0.00000000       0.50633977      -0.12133431 </v>
   <v>       0.00000000       0.75035522      -0.19620770 </v>
   <v>      -0.03230497       0.58013368      -0.14122318 </v>
   <v>      -0.06261263       0.51614710      -0.13571842 </v>
   <v>       0.03230497       0.58013368      -0.14122318 </v>
   <v>       0.06261263       0.51614710      -0.13571842 </v>
   <v>       1.25962961      -1.02683977       0.38664643 </v>
   <v>      -0.01625275      -0.55905664       0.08590708 </v>
   <v>       0.00000000      -0.20128331       0.06807505 </v>
   <v>       0.00000000      -0.59179184       0.16141412 </v>
   <v>      -1.25962961      -1.02683977       0.38664643 </v>
   <v>       0.01625275      -0.55905664       0.08590708 </v>
   <v>       0.00000000       1.28853658       1.49216934 </v>
   <v>       0.00000000      -0.69228568      -3.20117635 </v>
   <v>       0.42927527       0.30325853       0.20235264 </v>
   <v>      -0.01898956       0.07453886       0.37933756 </v>
   <v>      -0.42927527       0.30325853       0.20235264 </v>
   <v>       0.01898956       0.07453886       0.37933756 </v>
   <v>       0.41629152       0.54025194      -0.01606465 </v>
   <v>       1.20189432       1.38307242      -1.72325168 </v>
   <v>       0.00000000      -0.02046738      -0.36021829 </v>
   <v>       0.00000000      -0.05700527      -0.37779403 </v>
   <v>      -0.41629152       0.54025194      -0.01606465 </v>
   <v>      -1.20189432       1.38307242      -1.72325168 </v>
   <v>       0.69849767       0.60749792       0.25812024 </v>
   <v>       0.00121319      -0.15385887       0.03871236 </v>
   <v>       0.00000000      -0.19401871       0.27104922 </v>
   <v>       0.00000000      -0.18344836       0.27095297 </v>
   <v>      -0.69849767       0.60749792       0.25812024 </v>
   <v>      -0.00121319      -0.15385887       0.03871236 </v>
   <v>       0.00000000       0.24968378       0.54075014 </v>
   <v>      -0.05724695       0.25563372      -0.26733628 </v>
   <v>       1.54426337       0.35172874      -0.24523503 </v>
   <v>       0.05724695       0.25563372      -0.26733628 </v>
   <v>      -1.54426337       0.35172874      -0.24523503 </v>
   <v>       0.00000000       3.36323944       9.65529112 </v>
  </varray>
  <varray name="stress" >
   <v>     363.68917177       0.00000000       0.00000000 </v>
   <v>       0.00000000     355.26524757       4.67162821 </v>
   <v>       0.00000000       4.67162831     379.12493114 </v>
  </varray>
  <energy>
   <i name="e_fr_energy">   -594.23173567 </i>
   <i name="e_wo_entrp">   -594.21447933 </i>
   <i name="e_0_energy">   -594.22310750 </i>
  </energy>
  <time name="totalsc">   65.80   65.81</time>
 </calculation>
 <calculation>
  <scstep>
   <time name="dav">    1.99    1.98</time>
   <time name="total">    2.37    2.36</time>
   <energy>
    <i name="alphaZ">   5376.25786726 </i>
    <i name="ewald"> -86149.50140127 </i>
    <i name="hartreedc"> -34250.53533549 </i>
    <i name="XCdc">   4193.47895183 </i>
    <i name="pawpsdc"> 120802.09854375 </i>
    <i name="pawaedc">-136884.53490423 </i>
    <i name="eentropy">     -0.01771598 </i>
    <i name="bandstr">  -5534.78001072 </i>
    <i name="atom"> 131866.99277783 </i>
    <i name="e_fr_energy">   -580.54122702 </i>
    <i name="e_wo_entrp">   -580.52351104 </i>
    <i name="e_0_energy">   -580.53236903 </i>
   </energy>
  </scstep>
  <scstep>
   <time name="diag">    0.24    0.24</time>
   <time name="diis">    2.59    2.59</time>
   <time name="orth">    0.03    0.03</time>
   <time name="total">    3.25    3.24</time>
   <energy>
    <i name="e_fr_energy">   -593.56275319 </i>
    <i name="e_wo_entrp">   -593.54742157 </i>
    <i name="e_0_energy">   -593.55508738 </i>
   </energy>
  </scstep>
  <scstep>
   <time name="diag">    0.24    0.24</time>
   <time name="diis">    2.96    2.95</time>
   <time name="orth">    0.03    0.03</time>
   <time name="total">    3.61    3.61</time>
   <energy>
    <i name="e_fr_energy">   -596.68652170 </i>
    <i name="e_wo_entrp">   -596.67443996 </i>
    <i name="e_0_energy">   -596.68048083 </i>
   </energy>
  </scstep>
  <scstep>
   <time name="diag">    0.24    0.24</time>
   <time name="diis">    2.87    2.87</time>
   <time name="orth">    0.03    0.03</time>
   <time name="total">    3.53    3.53</time>
   <energy>
    <i name="e_fr_energy">   -596.73763190 </i>
    <i name="e_wo_entrp">   -596.72734453 </i>
    <i name="e_0_energy">   -596.73248822 </i>
   </energy>
  </scstep>
  <scstep>
   <time name="diag">    0.24    0.24</time>
   <time name="diis">    3.02    3.02</time>
   <time name="orth">    0.03    0.03</time>
   <time name="total">    3.68    3.68</time>
   <energy>
    <i name="e_fr_energy">   -596.69253164 </i>
    <i name="e_wo_entrp">   -596.68375281 </i>
    <i name="e_0_energy">   -596.68814223 </i>
   </energy>
  </scstep>
  <scstep>
   <time name="diag">    0.24    0.24</time>
   <time name="diis">    2.61    2.61</time>
   <time name="orth">    0.03    0.03</time>
   <time name="total">    3.27    3.27</time>
   <energy>
    <i name="e_fr_energy">   -596.68982661 </i>
    <i name="e_wo_entrp">   -596.68200279 </i>
    <i name="e_0_energy">   -596.68591470 </i>
   </energy>
  </scstep>
  <scstep>
   <time name="diag">    0.24    0.24</time>
   <time name="diis">    2.99    2.99</time>
   <time name="orth">    0.03    0.03</time>
   <time name="total">    3.65    3.65</time>
   <energy>
    <i name="e_fr_energy">   -596.68983502 </i>
    <i name="e_wo_entrp">   -596.68199277 </i>
    <i name="e_0_energy">   -596.68591390 </i>
   </energy>
  </scstep>
  <scstep>
   <time name="diag">    0.24    0.24</time>
   <time name="diis">    2.69    2.69</time>
   <time name="orth">    0.03    0.03</time>
   <time name="total">    3.35    3.36</time>
   <energy>
    <i name="e_fr_energy">   -596.69044397 </i>
    <i name="e_wo_entrp">   -596.68261487 </i>
    <i name="e_0_energy">   -596.68652942 </i>
   </energy>
  </scstep>
  <scstep>
   <time name="diag">    0.24    0.24</time>
   <time name="diis">    2.97    2.97</time>
   <time name="orth">    0.03    0.03</time>
   <time name="total">    3.64    3.64</time>
   <energy>
    <i name="e_fr_energy">   -596.69078921 </i>
    <i name="e_wo_entrp">   -596.68298261 </i>
    <i name="e_0_energy">   -596.68688591 </i>
   </energy>
  </scstep>
  <scstep>
   <time name="diag">    0.24    0.24</time>
   <time name="diis">    2.58    2.58</time>
   <time name="orth">    0.03    0.03</time>
   <time name="total">    3.25    3.25</time>
   <energy>
    <i name="e_fr_energy">   -596.69096099 </i>
    <i name="e_wo_entrp">   -596.68314421 </i>
    <i name="e_0_energy">   -596.68705260 </i>
   </energy>
  </scstep>
  <scstep>
   <time name="diag">    0.24    0.24</time>
   <time name="diis">    2.42    2.42</time>
   <time name="orth">    0.03    0.03</time>
   <time name="total">    3.09    3.09</time>
   <energy>
    <i name="e_fr_energy">   -596.69105197 </i>
    <i name="e_wo_entrp">   -596.68324051 </i>
    <i name="e_0_energy">   -596.68714624 </i>
   </energy>
  </scstep>
  <scstep>
   <time name="diag">    0.24    0.24</time>
   <time name="diis">    1.86    1.85</time>
   <time name="orth">    0.03    0.03</time>
   <time name="total">    2.53    2.53</time>
   <energy>
    <i name="e_fr_energy">   -596.69109501 </i>
    <i name="e_wo_entrp">   -596.68328404 </i>
    <i name="e_0_energy">   -596.68718952 </i>
   </energy>
  </scstep>
  <scstep>
   <time name="diag">    0.24    0.24</time>
   <time name="diis">    1.63    1.63</time>
   <time name="orth">    0.03    0.03</time>
   <time name="total">    2.31    2.31</time>
   <energy>
    <i name="e_fr_energy">   -596.69111138 </i>
    <i name="e_wo_entrp">   -596.68330098 </i>
    <i name="e_0_energy">   -596.68720618 </i>
   </energy>
  </scstep>
  <scstep>
   <time name="diag">    0.24    0.24</time>
   <time name="diis">    1.30    1.30</time>
   <time name="orth">    0.03    0.03</time>
   <time name="total">    1.68    1.68</time>
   <energy>
    <i name="alphaZ">   5376.25786726 </i>
    <i name="ewald"> -86149.50140127 </i>
    <i name="hartreedc"> -34271.59885790 </i>
    <i name="XCdc">   4194.28386567 </i>
    <i name="pawpsdc"> 120253.10105991 </i>
    <i name="pawaedc">-136336.00956770 </i>
    <i name="eentropy">     -0.00781112 </i>
    <i name="bandstr">  -5530.20905321 </i>
    <i name="atom"> 131866.99277783 </i>
    <i name="e_fr_energy">   -596.69112053 </i>
    <i name="e_wo_entrp">   -596.68330942 </i>
    <i name="e_0_energy">   -596.68721497 </i>
   </energy>
  </scstep>
  <structure>
   <crystal>
    <varray name="basis" >
     <v>       0.00000000      12.28047342       0.00000000 </v>
     <v>       9.14270205       0.00000000       0.00000000 </v>
     <v>       0.00000000      -2.76826177     -11.30069772 </v>
    </varray>
    <i name="volume">   1268.80515525 </i>
    <varray name="rec_basis" >
     <v>       0.00000000       0.08143009      -0.01994742 </v>
     <v>       0.10937686      -0.00000000       0.00000000 </v>
     <v>       0.00000000       0.00000000      -0.08849011 </v>
    </varray>
   </crystal>
   <varray name="positions" >
    <v>       0.66054973       0.00000000       0.15799915 </v>
    <v>       0.65878894       0.00000000       0.65711958 </v>
    <v>       0.66001086       0.33337223       0.15774950 </v>
    <v>       0.65919442       0.33342634       0.65725590 </v>
    <v>       0.66001086       0.66662777       0.15774950 </v>
    <v>       0.65919442       0.66657366       0.65725590 </v>
    <v>       0.85159491       0.16520882       0.34498547 </v>
    <v>       0.84145749       0.16668713       0.84290937 </v>
    <v>       0.84267542       0.50000000       0.34327068 </v>
    <v>       0.84107646       0.50000000       0.84276054 </v>
    <v>       0.85159491       0.83479118       0.34498547 </v>
    <v>       0.84145749       0.83331287       0.84290937 </v>
    <v>       0.59167670       0.16644211       0.39748360 </v>
    <v>       0.59153519       0.16667765       0.89767914 </v>
    <v>       0.59176045       0.50000000       0.39750345 </v>
    <v>       0.59163815       0.50000000       0.89770671 </v>
    <v>       0.59167670       0.83355789       0.39748360 </v>
    <v>       0.59153519       0.83332235       0.89767914 </v>
    <v>       0.91088656       0.00000000       0.10642696 </v>
    <v>       0.91285995       0.00000000       0.59946157 </v>
    <v>       0.90920288       0.33197762       0.10396017 </v>
    <v>       0.90978132       0.33125227       0.60149896 </v>
    <v>       0.90920288       0.66802238       0.10396017 </v>
    <v>       0.90978132       0.66874773       0.60149896 </v>
    <v>       0.15875416       0.15879545       0.16391858 </v>
    <v>       0.15762895       0.18486890       0.66640241 </v>
    <v>       0.15910148       0.50000000       0.15856439 </v>
    <v>       0.15912461       0.50000000       0.65466566 </v>
    <v>       0.15875416       0.84120455       0.16391858 </v>
    <v>       0.15762895       0.81513110       0.66640241 </v>
    <v>       0.33121531       0.00000000       0.34169139 </v>
    <v>       0.33797831       0.00000000       0.83945118 </v>
    <v>       0.33962734       0.33123981       0.34285870 </v>
    <v>       0.34042454       0.33165439       0.84116643 </v>
    <v>       0.33962734       0.66876019       0.34285870 </v>
    <v>       0.34042454       0.66834561       0.84116643 </v>
    <v>       0.09398266       0.00000000       0.89705716 </v>
    <v>       0.08618800       0.31995412       0.39704724 </v>
    <v>       0.09188587       0.33314147       0.89742040 </v>
    <v>       0.08618800       0.68004588       0.39704724 </v>
    <v>       0.09188587       0.66685853       0.89742040 </v>
    <v>       0.40749388       0.16688883       0.10281329 </v>
    <v>       0.40392282       0.16391105       0.60142944 </v>
    <v>       0.40789548       0.50000000       0.10239650 </v>
    <v>       0.40762217       0.50000000       0.60230514 </v>
    <v>       0.40749388       0.83311117       0.10281329 </v>
    <v>       0.40392282       0.83608895       0.60142944 </v>
    <v>       0.99702569       0.16765342       0.12659631 </v>
    <v>       0.99103770       0.17184671       0.63063539 </v>
    <v>       0.99845639       0.50000000       0.12866725 </v>
    <v>       0.99800628       0.50000000       0.62911297 </v>
    <v>       0.99702569       0.83234658       0.12659631 </v>
    <v>       0.99103770       0.82815329       0.63063539 </v>
    <v>       0.50125505       0.00000000       0.37093807 </v>
    <v>       0.50149838       0.00000000       0.87125869 </v>
    <v>       0.50164850       0.33360909       0.37103842 </v>
    <v>       0.50190878       0.33351758       0.87139989 </v>
    <v>       0.50164850       0.66639091       0.37103842 </v>
    <v>       0.50190878       0.66648242       0.87139989 </v>
    <v>       0.67336807       0.16675453       0.28019125 </v>
    <v>       0.67312900       0.16636138       0.78009610 </v>
    <v>       0.67311919       0.50000000       0.28026120 </v>
    <v>       0.67330755       0.50000000       0.78010166 </v>
    <v>       0.67336807       0.83324547       0.28019125 </v>
    <v>       0.67312900       0.83363862       0.78009610 </v>
    <v>       0.82433640       0.00000000       0.21796896 </v>
    <v>       0.82642564       0.00000000       0.71893701 </v>
    <v>       0.82485380       0.33472245       0.21838384 </v>
    <v>       0.82632418       0.33353138       0.71958095 </v>
    <v>       0.82485380       0.66527755       0.21838384 </v>
    <v>       0.82632418       0.66646862       0.71958095 </v>
    <v>       0.83192185       0.00000000       0.44562819 </v>
    <v>       0.83410099       0.00000000       0.94428702 </v>
    <v>       0.83275503       0.33516938       0.44548900 </v>
    <v>       0.83413515       0.33336756       0.94411943 </v>
    <v>       0.83275503       0.66483062       0.44548900 </v>
    <v>       0.83413515       0.66663244       0.94411943 </v>
    <v>       0.66542824       0.16667827       0.05538639 </v>
    <v>       0.66572983       0.16650828       0.55593655 </v>
    <v>       0.66539814       0.50000000       0.05549869 </v>
    <v>       0.66558644       0.50000000       0.55566573 </v>
    <v>       0.66542824       0.83332173       0.05538639 </v>
    <v>       0.66572983       0.83349172       0.55593655 </v>
    <v>       0.49857500       0.00000000       0.12885002 </v>
    <v>       0.49960564       0.00000000       0.62916966 </v>
    <v>       0.49888403       0.33316287       0.12893493 </v>
    <v>       0.49862737       0.33300295       0.62891143 </v>
    <v>       0.49888403       0.66683713       0.12893493 </v>
    <v>       0.49862737       0.66699705       0.62891143 </v>
    <v>      -0.00087505       0.17331327       0.37001736 </v>
    <v>       0.00125200       0.16658091       0.87130122 </v>
    <v>       0.00267464       0.50000000       0.37137734 </v>
    <v>       0.00105074       0.50000000       0.87097888 </v>
    <v>      -0.00087505       0.82668673       0.37001736 </v>
    <v>       0.00125200       0.83341909       0.87130122 </v>
    <v>       0.17699702       0.00000000       0.27524501 </v>
[...]
   <v>       0.00433181      -0.00032333       0.00030934 </v>
   <v>       0.00350458      -0.00109112      -0.00391370 </v>
   <v>       0.00000000       0.00379576      -0.00341794 </v>
   <v>       0.00000000       0.00407864      -0.00067028 </v>
   <v>      -0.00433181      -0.00032333       0.00030934 </v>
   <v>      -0.00350458      -0.00109112      -0.00391370 </v>
   <v>       0.00000000       0.00147446      -0.00327122 </v>
   <v>      -0.00239300       0.00089221      -0.00151361 </v>
   <v>      -0.00459566      -0.00424294       0.00170716 </v>
   <v>       0.00239300       0.00089221      -0.00151361 </v>
   <v>       0.00459566      -0.00424294       0.00170716 </v>
   <v>       0.00000000       0.00678830      -0.00275250 </v>
  </varray>
  <varray name="stress" >
   <v>     281.78227085       0.00000000       0.00000000 </v>
   <v>       0.00000000     296.47421546       5.19370680 </v>
   <v>       0.00000000       5.19370849     301.40674815 </v>
  </varray>
  <energy>
   <i name="e_fr_energy">   -602.58815306 </i>
   <i name="e_wo_entrp">   -602.58138865 </i>
   <i name="e_0_energy">   -602.58477086 </i>
  </energy>
  <time name="totalsc">   11.70   11.72</time>
 </calculation>
 <calculation>
  <scstep>
   <time name="dav">    1.84    1.84</time>
   <time name="total">    2.22    2.22</time>
   <energy>
    <i name="alphaZ">   5376.25786726 </i>
    <i name="ewald"> -86471.72326627 </i>
    <i name="hartreedc"> -33970.73703548 </i>
    <i name="XCdc">   4189.11700892 </i>
    <i name="pawpsdc"> 119527.84195397 </i>
    <i name="pawaedc">-135599.77235990 </i>
    <i name="eentropy">     -0.00676488 </i>
    <i name="bandstr">  -5520.55752442 </i>
    <i name="atom"> 131866.99277783 </i>
    <i name="e_fr_energy">   -602.58734297 </i>
    <i name="e_wo_entrp">   -602.58057810 </i>
    <i name="e_0_energy">   -602.58396054 </i>
   </energy>
  </scstep>
  <scstep>
   <time name="diag">    0.24    0.24</time>
   <time name="diis">    2.44    2.43</time>
   <time name="orth">    0.03    0.03</time>
   <time name="total">    3.09    3.09</time>
   <energy>
    <i name="e_fr_energy">   -602.58789370 </i>
    <i name="e_wo_entrp">   -602.58113435 </i>
    <i name="e_0_energy">   -602.58451403 </i>
   </energy>
  </scstep>
  <scstep>
   <time name="diag">    0.24    0.24</time>
   <time name="diis">    2.89    2.89</time>
   <time name="orth">    0.03    0.03</time>
   <time name="total">    3.55    3.55</time>
   <energy>
    <i name="e_fr_energy">   -602.58803962 </i>
    <i name="e_wo_entrp">   -602.58128394 </i>
    <i name="e_0_energy">   -602.58466178 </i>
   </energy>
  </scstep>
  <scstep>
   <time name="diag">    0.24    0.24</time>
   <time name="diis">    2.46    2.46</time>
   <time name="orth">    0.03    0.03</time>
   <time name="total">    3.12    3.12</time>
   <energy>
    <i name="e_fr_energy">   -602.58805065 </i>
    <i name="e_wo_entrp">   -602.58129644 </i>
    <i name="e_0_energy">   -602.58467355 </i>
   </energy>
  </scstep>
  <scstep>
   <time name="diag">    0.24    0.24</time>
   <time name="diis">    1.81    1.81</time>
   <time name="orth">    0.03    0.03</time>
   <time name="total">    2.19    2.20</time>
   <energy>
    <i name="alphaZ">   5376.25786726 </i>
    <i name="ewald"> -86471.72326627 </i>
    <i name="hartreedc"> -33970.74677763 </i>
    <i name="XCdc">   4189.11729640 </i>
    <i name="pawpsdc"> 119527.67374438 </i>
    <i name="pawaedc">-135599.60117258 </i>
    <i name="eentropy">     -0.00675068 </i>
    <i name="bandstr">  -5520.55176925 </i>
    <i name="atom"> 131866.99277783 </i>
    <i name="e_fr_energy">   -602.58805055 </i>
    <i name="e_wo_entrp">   -602.58129986 </i>
    <i name="e_0_energy">   -602.58467521 </i>
   </energy>
  </scstep>
  <structure>
   <crystal>
    <varray name="basis" >
     <v>       0.00000000      12.28047342       0.00000000 </v>
     <v>       9.14270205       0.00000000       0.00000000 </v>
     <v>       0.00000000      -2.76826177     -11.30069772 </v>
    </varray>
    <i name="volume">   1268.80515525 </i>
    <varray name="rec_basis" >
     <v>       0.00000000       0.08143009      -0.01994742 </v>
     <v>       0.10937686      -0.00000000       0.00000000 </v>
     <v>       0.00000000       0.00000000      -0.08849011 </v>
    </varray>
   </crystal>
   <varray name="positions" >
    <v>       0.67163845       0.00000000       0.16959710 </v>
    <v>       0.65600198       0.00000000       0.64919745 </v>
    <v>       0.67252334       0.33008172       0.16408539 </v>
    <v>       0.64928122       0.32973622       0.65384151 </v>
    <v>       0.67252334       0.66991828       0.16408539 </v>
    <v>       0.64928122       0.67026378       0.65384151 </v>
    <v>       0.85859930       0.16146093       0.35962383 </v>
    <v>       0.83739954       0.16988083       0.84240703 </v>
    <v>       0.85051015       0.50000000       0.33748845 </v>
    <v>       0.81503575       0.50000000       0.84443219 </v>
    <v>       0.85859930       0.83853907       0.35962383 </v>
    <v>       0.83739954       0.83011917       0.84240703 </v>
    <v>       0.58790774       0.13037809       0.39379119 </v>
    <v>       0.59798630       0.16735410       0.90360781 </v>
    <v>       0.58842649       0.50000000       0.39178666 </v>
    <v>       0.59306194       0.50000000       0.90703641 </v>
    <v>       0.58790774       0.86962191       0.39379119 </v>
    <v>       0.59798630       0.83264590       0.90360781 </v>
    <v>       0.91770858       0.00000000       0.10798284 </v>
    <v>       0.93876149       0.00000000       0.63396147 </v>
    <v>       0.91085747       0.34784789       0.08492555 </v>
    <v>       0.89731149       0.37195596       0.59808089 </v>
    <v>       0.91085747       0.65215211       0.08492555 </v>
    <v>       0.89731149       0.62804404       0.59808089 </v>
    <v>       0.15673321       0.16149829       0.13247505 </v>
    <v>       0.15027501       0.17408811       0.65286986 </v>
    <v>       0.15710482       0.50000000       0.16015510 </v>
    <v>       0.17482619       0.50000000       0.65507326 </v>
    <v>       0.15673321       0.83850171       0.13247505 </v>
    <v>       0.15027501       0.82591189       0.65286986 </v>
    <v>       0.29670741       0.00000000       0.36370431 </v>
    <v>       0.34544500       0.00000000       0.84826474 </v>
    <v>       0.34624241       0.33249963       0.33162214 </v>
    <v>       0.34499831       0.32692063       0.84883649 </v>
    <v>       0.34624241       0.66750037       0.33162214 </v>
    <v>       0.34499831       0.67307937       0.84883649 </v>
    <v>       0.05931854       0.00000000       0.85189566 </v>
    <v>       0.09589578       0.32671238       0.39740874 </v>
    <v>       0.08642961       0.37216474       0.88712092 </v>
    <v>       0.09589578       0.67328762       0.39740874 </v>
    <v>       0.08642961       0.62783526       0.88712092 </v>
    <v>       0.42019540       0.16668674       0.11162129 </v>
    <v>       0.39276501       0.15767685       0.59861127 </v>
    <v>       0.41902298       0.50000000       0.10221105 </v>
    <v>       0.40820747       0.50000000       0.59740650 </v>
    <v>       0.42019540       0.83331326       0.11162129 </v>
    <v>       0.39276501       0.84232315       0.59861127 </v>
    <v>       0.99372131       0.17499656       0.11463378 </v>
    <v>       0.98842772       0.20216638       0.61471926 </v>
    <v>       0.00353527       0.50000000       0.17052337 </v>
    <v>       0.03191012       0.50000000       0.66935242 </v>
    <v>       0.99372131       0.82500344       0.11463378 </v>
    <v>       0.98842772       0.79783362       0.61471926 </v>
    <v>       0.44657596       0.00000000       0.35478581 </v>
    <v>       0.51085704       0.00000000       0.88568623 </v>
    <v>       0.51117818       0.32113222       0.36625660 </v>
    <v>       0.50875305       0.33309930       0.88450913 </v>
    <v>       0.51117818       0.67886778       0.36625660 </v>
    <v>       0.50875305       0.66690070       0.88450913 </v>
    <v>       0.68446086       0.16914933       0.28064920 </v>
    <v>       0.66282865       0.16035947       0.77610900 </v>
    <v>       0.67495125       0.50000000       0.27996124 </v>
    <v>       0.65379228       0.50000000       0.77437238 </v>
    <v>       0.68446086       0.83085067       0.28064920 </v>
    <v>       0.66282865       0.83964053       0.77610900 </v>
    <v>       0.83747897       0.00000000       0.22546517 </v>
    <v>       0.81765219       0.00000000       0.71923363 </v>
    <v>       0.83420968       0.34161464       0.21087968 </v>
    <v>       0.81544418       0.33506640       0.72708241 </v>
    <v>       0.83420968       0.65838536       0.21087968 </v>
    <v>       0.81544418       0.66493360       0.72708241 </v>
    <v>       0.85075725       0.00000000       0.46530276 </v>
    <v>       0.83718143       0.00000000       0.94727895 </v>
    <v>       0.82653545       0.33355904       0.43434194 </v>
    <v>       0.79295149       0.31558605       0.94608100 </v>
    <v>       0.82653545       0.66644096       0.43434194 </v>
    <v>       0.79295149       0.68441395       0.94608100 </v>
    <v>       0.67032478       0.15980351       0.06002849 </v>
    <v>       0.66475324       0.17285961       0.55472160 </v>
    <v>       0.67078343       0.50000000       0.06010943 </v>
    <v>       0.64964925       0.50000000       0.55276829 </v>
    <v>       0.67032478       0.84019649       0.06002849 </v>
    <v>       0.66475324       0.82714039       0.55472160 </v>
    <v>       0.50683341       0.00000000       0.13811077 </v>
    <v>       0.49370289       0.00000000       0.61665474 </v>
    <v>       0.50776829       0.33352605       0.12799949 </v>
    <v>       0.48808907       0.32662354       0.62557499 </v>
    <v>       0.50776829       0.66647395       0.12799949 </v>
    <v>       0.48808907       0.67337646       0.62557499 </v>
    <v>       0.00801380       0.17068228       0.36364853 </v>
    <v>      -0.00340065       0.20287571       0.87327030 </v>
    <v>       0.01208841       0.50000000       0.40113928 </v>
    <v>      -0.05359923       0.50000000       0.96015629 </v>
    <v>       0.00801380       0.82931772       0.36364853 </v>
    <v>      -0.00340065       0.79712429       0.87327030 </v>
    <v>       0.16565036       0.00000000       0.24378936 </v>
    <v>       0.18698212       0.00000000       0.78478289 </v>
    <v>       0.17776712       0.33949448       0.28110028 </v>
    <v>       0.18496711       0.31330340       0.78426748 </v>
    <v>       0.17776712       0.66050552       0.28110028 </v>
    <v>       0.18496711       0.68669660       0.78426748 </v>
    <v>       0.31972744       0.18793917       0.20159205 </v>
    <v>       0.35240995       0.16936938       0.74046270 </v>
    <v>       0.33371744       0.50000000       0.21411302 </v>
    <v>       0.33676011       0.50000000       0.72540875 </v>
    <v>       0.31972744       0.81206083       0.20159205 </v>
    <v>       0.35240995       0.83063062       0.74046270 </v>
    <v>       0.32698075       0.19095553       0.44128974 </v>
    <v>       0.34321973       0.16395200       0.95681138 </v>
    <v>       0.34933755       0.50000000       0.43747972 </v>
    <v>       0.33809634       0.50000000       0.94690508 </v>
    <v>       0.32698075       0.80904447       0.44128974 </v>
    <v>       0.34321973       0.83604800       0.95681138 </v>
    <v>       0.14496105       0.00000000       0.01823952 </v>
    <v>       0.16111151       0.34046480       0.04983112 </v>
    <v>       0.18541931       0.34075285       0.55306605 </v>
    <v>       0.16111151       0.65953520       0.04983112 </v>
    <v>       0.18541931       0.65924715       0.55306605 </v>
    <v>       0.19596721       0.00000000       0.53108442 </v>
   </varray>
  </structure>
  <varray name="forces" >
   <v>       0.00000000      -0.00354279       0.00594996 </v>
   <v>       0.00000000       0.00362458      -0.00163478 </v>
   <v>      -0.00316837       0.00151560       0.00256094 </v>
   <v>       0.00237970       0.00424185       0.00096199 </v>
   <v>       0.00316837       0.00151560       0.00256094 </v>
   <v>      -0.00237970       0.00424185       0.00096199 </v>
   <v>       0.00207681       0.01048304       0.00095881 </v>
   <v>       0.00161516      -0.00350567      -0.00155133 </v>
   <v>       0.00000000       0.00062594       0.00653486 </v>
   <v>       0.00000000      -0.00101043      -0.00003813 </v>
   <v>      -0.00207681       0.01048304       0.00095881 </v>
   <v>      -0.00161516      -0.00350567      -0.00155133 </v>
   <v>       0.00115359       0.00101970      -0.00101313 </v>
   <v>      -0.00456297      -0.00641610      -0.00258308 </v>
   <v>       0.00000000       0.00366355      -0.00456678 </v>
   <v>       0.00000000      -0.00188547       0.01172492 </v>
   <v>      -0.00115359       0.00101970      -0.00101313 </v>
   <v>       0.00456297      -0.00641610      -0.00258308 </v>
   <v>       0.00000000       0.01082848       0.00294753 </v>
   <v>       0.00000000      -0.00082570       0.00335477 </v>
   <v>      -0.00233307       0.00278994       0.00212393 </v>
   <v>      -0.00252982      -0.00170038       0.00171030 </v>
   <v>       0.00233307       0.00278994       0.00212393 </v>
   <v>       0.00252982      -0.00170038       0.00171030 </v>
   <v>      -0.00008450       0.00324417      -0.00109946 </v>
   <v>       0.00234198      -0.00189005       0.00257976 </v>
   <v>       0.00000000      -0.00228967      -0.00281287 </v>
   <v>       0.00000000      -0.01166647      -0.00197013 </v>
   <v>       0.00008450       0.00324417      -0.00109946 </v>
   <v>      -0.00234198      -0.00189005       0.00257976 </v>
   <v>       0.00000000      -0.00371713      -0.00417469 </v>
   <v>       0.00000000      -0.00085411       0.00439264 </v>
   <v>      -0.00119405       0.00173060       0.00151373 </v>
   <v>      -0.00074049      -0.00418567       0.00193997 </v>
   <v>       0.00119405       0.00173060       0.00151373 </v>
   <v>       0.00074049      -0.00418567       0.00193997 </v>
   <v>       0.00000000       0.00276793      -0.00755403 </v>
   <v>       0.00597307       0.00816157      -0.00251674 </v>
   <v>      -0.00130347       0.00132229       0.00119936 </v>
   <v>      -0.00597307       0.00816157      -0.00251674 </v>
   <v>       0.00130347       0.00132229       0.00119936 </v>
   <v>      -0.00066582       0.00683962       0.00803681 </v>
   <v>       0.00502174      -0.00112637      -0.00533046 </v>
   <v>       0.00000000      -0.00020405       0.00427310 </v>
   <v>       0.00000000      -0.00482719      -0.00722771 </v>
   <v>       0.00066582       0.00683962       0.00803681 </v>
   <v>      -0.00502174      -0.00112637      -0.00533046 </v>
   <v>      -0.00067156      -0.00251626       0.00172325 </v>
   <v>      -0.00322890      -0.00205002       0.00074798 </v>
   <v>       0.00000000       0.01109312       0.00078720 </v>
   <v>       0.00000000      -0.00342951      -0.00215105 </v>
   <v>       0.00067156      -0.00251626       0.00172325 </v>
   <v>       0.00322890      -0.00205002       0.00074798 </v>
   <v>       0.00000000      -0.00015097      -0.00753154 </v>
   <v>       0.00000000       0.00730636      -0.00230201 </v>
   <v>      -0.00062840       0.00236111       0.00027848 </v>
   <v>       0.00713107       0.00120146      -0.00014749 </v>
   <v>       0.00062840       0.00236111       0.00027848 </v>
   <v>      -0.00713107       0.00120146      -0.00014749 </v>
   <v>      -0.00291249       0.00233934       0.00396124 </v>
   <v>      -0.00261002      -0.00101143      -0.00055291 </v>
   <v>       0.00000000       0.00353754       0.00333744 </v>
   <v>       0.00000000      -0.00460108      -0.00283804 </v>
   <v>       0.00291249       0.00233934       0.00396124 </v>
   <v>       0.00261002      -0.00101143      -0.00055291 </v>
   <v>       0.00000000      -0.00585437      -0.00521735 </v>
   <v>       0.00000000       0.00091162       0.00030906 </v>
   <v>       0.00200468      -0.00286438      -0.00723327 </v>
   <v>       0.00117677      -0.00105266      -0.00065359 </v>
   <v>      -0.00200468      -0.00286438      -0.00723327 </v>
   <v>      -0.00117677      -0.00105266      -0.00065359 </v>
   <v>       0.00000000       0.00411481      -0.00090765 </v>
   <v>       0.00000000       0.00062773       0.00270980 </v>
   <v>      -0.00089599       0.00461012       0.00610136 </v>
   <v>      -0.00133695       0.00471100      -0.00117621 </v>
   <v>       0.00089599       0.00461012       0.00610136 </v>
   <v>       0.00133695       0.00471100      -0.00117621 </v>
   <v>      -0.00255583      -0.00035846       0.00622683 </v>
   <v>       0.00067898      -0.00187347       0.00084081 </v>
   <v>       0.00000000       0.00136099      -0.00482205 </v>
   <v>       0.00000000      -0.00109015       0.00240763 </v>
   <v>       0.00255583      -0.00035846       0.00622683 </v>
   <v>      -0.00067898      -0.00187347       0.00084081 </v>
   <v>       0.00000000       0.00318861      -0.00057818 </v>
   <v>       0.00000000      -0.00375302      -0.00508554 </v>
   <v>      -0.00219279      -0.00140740      -0.00043148 </v>
   <v>       0.00060329      -0.00818907       0.00083456 </v>
   <v>       0.00219279      -0.00140740      -0.00043148 </v>
   <v>      -0.00060329      -0.00818907       0.00083456 </v>
   <v>      -0.00499267      -0.01425025       0.00072527 </v>
   <v>       0.00003059      -0.00168415      -0.00064282 </v>
   <v>       0.00000000       0.00042261       0.00014315 </v>
   <v>       0.00000000       0.00178469       0.00168848 </v>
   <v>       0.00499267      -0.01425025       0.00072527 </v>
   <v>      -0.00003059      -0.00168415      -0.00064282 </v>
   <v>       0.00000000       0.00220566       0.00402729 </v>
   <v>       0.00000000      -0.00771162       0.00118449 </v>
   <v>       0.00019893       0.00085075       0.00047627 </v>
   <v>       0.00042093      -0.00057692      -0.00081260 </v>
   <v>      -0.00019893       0.00085075       0.00047627 </v>
   <v>      -0.00042093      -0.00057692      -0.00081260 </v>
   <v>       0.00176518      -0.00142925      -0.00675711 </v>
   <v>      -0.00021806      -0.00346644       0.00232138 </v>
   <v>       0.00000000       0.00428931       0.00004578 </v>
   <v>       0.00000000       0.00877875      -0.00212478 </v>
   <v>      -0.00176518      -0.00142925      -0.00675711 </v>
   <v>       0.00021806      -0.00346644       0.00232138 </v>
   <v>       0.00370934      -0.00132974      -0.00243145 </v>
   <v>       0.00476087      -0.00151089      -0.00635284 </v>
   <v>       0.00000000       0.00278946       0.00012658 </v>
   <v>       0.00000000       0.00356018      -0.00247339 </v>
   <v>      -0.00370934      -0.00132974      -0.00243145 </v>
   <v>      -0.00476087      -0.00151089      -0.00635284 </v>
   <v>       0.00000000      -0.00070035      -0.00095699 </v>
   <v>      -0.00276457       0.00079503      -0.00263886 </v>
   <v>      -0.00339043      -0.00553330       0.00299354 </v>
   <v>       0.00276457       0.00079503      -0.00263886 </v>
   <v>       0.00339043      -0.00553330       0.00299354 </v>
   <v>       0.00000000       0.00405443      -0.00276052 </v>
  </varray>
  <varray name="stress" >
   <v>     281.80277690       0.00000000       0.00000000 </v>
   <v>       0.00000000     296.44266081       5.21183631 </v>
   <v>       0.00000000       5.21183653     301.37523527 </v>
  </varray>
  <energy>
   <i name="e_fr_energy">   -602.58805055 </i>
   <i name="e_wo_entrp">   -602.58129986 </i>
   <i name="e_0_energy">   -602.58467521 </i>
  </energy>
