<?xml version="1.0" encoding="ISO-8859-1"?>
<modeling>
 <generator>
  <i name="program" type="string">vasp </i>
  <i name="version" type="string">6.4.2  </i>
  <i name="subversion" type="string">20Jul23 (build Nov 12 2023 22:16:35) complex                          parallel </i>
  <i name="platform" type="string">LinuxNV </i>
  <i name="date" type="string">2025 03 29 </i>
  <i name="time" type="string">16:08:36 </i>
 </generator>
 <incar>
  <i type="int" name="ISTART">     0</i>
  <i type="string" name="PREC">Normal</i>
  <i type="string" name="ALGO">Fast</i>
  <i type="int" name="ISPIN">     1</i>
  <i type="int" name="ICHARG">     2</i>
  <i type="int" name="IBRION">     2</i>
  <i name="EDIFF">      0.00001000</i>
  <i name="EDIFFG">     -0.00500000</i>
  <i type="int" name="NSW">   300</i>
  <i type="int" name="ISIF">     2</i>
  <i name="ENCUT">    450.00000000</i>
  <i name="NELECT">   1043.00000000</i>
  <i type="string" name="LREAL">Auto</i>
  <i type="logical" name="LPLANE"> T  </i>
  <i type="int" name="ISMEAR">     0</i>
  <i name="SIGMA">      0.05000000</i>
  <i type="logical" name="LWAVE"> F  </i>
  <i type="logical" name="LCHARG"> F  </i>
 </incar>
 <primitive_cell>
  <structure name="primitive_cell" >
   <crystal>
    <varray name="basis" >
     <v>       0.00000000      12.28047342       0.00000000 </v>
     <v>       9.14270205       0.00000000       0.00000000 </v>
     <v>       0.00000000      -2.76826177     -11.30069772 </v>
    </varray>
    <i name="volume">   1268.80515525 </i>
    <varray name="rec_basis" >
     <v>       0.00000000       0.08143009      -0.01994742 </v>
     <v>       0.10937686      -0.00000000       0.00000000 </v>
     <v>       0.00000000       0.00000000      -0.08849011 </v>
    </varray>
   </crystal>
   <varray name="positions" >
    <v>       0.65883830       0.00000000       0.15736517 </v>
    <v>       0.65883830       0.00000000       0.65736517 </v>
    <v>       0.65883830       0.33333333       0.15736517 </v>
    <v>       0.65883830       0.33333333       0.65736517 </v>
    <v>       0.65883830       0.66666667       0.15736517 </v>
    <v>       0.65883830       0.66666667       0.65736517 </v>
    <v>       0.84116170       0.16666667       0.34263483 </v>
    <v>       0.84116170       0.16666667       0.84263483 </v>
    <v>       0.84116170       0.50000000       0.34263483 </v>
    <v>       0.84116170       0.50000000       0.84263483 </v>
    <v>       0.84116170       0.83333333       0.34263483 </v>
    <v>       0.84116170       0.83333333       0.84263483 </v>
    <v>       0.59047440       0.16666667       0.39739300 </v>
    <v>       0.59047440       0.16666667       0.89739300 </v>
    <v>       0.59047440       0.50000000       0.39739300 </v>
    <v>       0.59047440       0.50000000       0.89739300 </v>
    <v>       0.59047440       0.83333333       0.39739300 </v>
    <v>       0.59047440       0.83333333       0.89739300 </v>
    <v>       0.90952560       0.00000000       0.10260700 </v>
    <v>       0.90952560       0.00000000       0.60260700 </v>
    <v>       0.90952560       0.33333333       0.10260700 </v>
    <v>       0.90952560       0.33333333       0.60260700 </v>
    <v>       0.90952560       0.66666667       0.10260700 </v>
    <v>       0.90952560       0.66666667       0.60260700 </v>
    <v>       0.15883830       0.16666667       0.15736517 </v>
    <v>       0.15883830       0.16666667       0.65736517 </v>
    <v>       0.15883830       0.50000000       0.15736517 </v>
    <v>       0.15883830       0.50000000       0.65736517 </v>
    <v>       0.15883830       0.83333333       0.15736517 </v>
    <v>       0.15883830       0.83333333       0.65736517 </v>
    <v>       0.34116170       0.00000000       0.34263483 </v>
    <v>       0.34116170       0.00000000       0.84263483 </v>
    <v>       0.34116170       0.33333333       0.34263483 </v>
    <v>       0.34116170       0.33333333       0.84263483 </v>
    <v>       0.34116170       0.66666667       0.34263483 </v>
    <v>       0.34116170       0.66666667       0.84263483 </v>
    <v>       0.09047440       0.00000000       0.89739300 </v>
    <v>       0.09047440       0.33333333       0.39739300 </v>
    <v>       0.09047440       0.33333333       0.89739300 </v>
    <v>       0.09047440       0.66666667       0.39739300 </v>
    <v>       0.09047440       0.66666667       0.89739300 </v>
    <v>       0.40952560       0.16666667       0.10260700 </v>
    <v>       0.40952560       0.16666667       0.60260700 </v>
    <v>       0.40952560       0.50000000       0.10260700 </v>
    <v>       0.40952560       0.50000000       0.60260700 </v>
    <v>       0.40952560       0.83333333       0.10260700 </v>
    <v>       0.40952560       0.83333333       0.60260700 </v>
    <v>       0.99646913       0.16666667       0.12833205 </v>
    <v>       0.99646913       0.16666667       0.62833205 </v>
    <v>       0.99646913       0.50000000       0.12833205 </v>
    <v>       0.99646913       0.50000000       0.62833205 </v>
    <v>       0.99646913       0.83333333       0.12833205 </v>
    <v>       0.99646913       0.83333333       0.62833205 </v>
    <v>       0.50353087       0.00000000       0.37166795 </v>
    <v>       0.50353087       0.00000000       0.87166795 </v>
    <v>       0.50353087       0.33333333       0.37166795 </v>
    <v>       0.50353087       0.33333333       0.87166795 </v>
    <v>       0.50353087       0.66666667       0.37166795 </v>
    <v>       0.50353087       0.66666667       0.87166795 </v>
    <v>       0.67337106       0.16666667       0.28161508 </v>
    <v>       0.67337106       0.16666667       0.78161508 </v>
    <v>       0.67337106       0.50000000       0.28161508 </v>
    <v>       0.67337106       0.50000000       0.78161508 </v>
    <v>       0.67337106       0.83333333       0.28161508 </v>
    <v>       0.67337106       0.83333333       0.78161508 </v>
    <v>       0.82662894       0.00000000       0.21838492 </v>
    <v>       0.82662894       0.00000000       0.71838492 </v>
    <v>       0.82662894       0.33333333       0.21838492 </v>
    <v>       0.82662894       0.33333333       0.71838492 </v>
    <v>       0.82662894       0.66666667       0.21838492 </v>
    <v>       0.82662894       0.66666667       0.71838492 </v>
    <v>       0.83549502       0.00000000       0.44542296 </v>
    <v>       0.83549502       0.00000000       0.94542296 </v>
    <v>       0.83549502       0.33333333       0.44542296 </v>
    <v>       0.83549502       0.33333333       0.94542296 </v>
    <v>       0.83549502       0.66666667       0.44542296 </v>
    <v>       0.83549502       0.66666667       0.94542296 </v>
    <v>       0.66450498       0.16666667       0.05457704 </v>
    <v>       0.66450498       0.16666667       0.55457704 </v>
    <v>       0.66450498       0.50000000       0.05457704 </v>
    <v>       0.66450498       0.50000000       0.55457704 </v>
    <v>       0.66450498       0.83333333       0.05457704 </v>
    <v>       0.66450498       0.83333333       0.55457704 </v>
    <v>       0.49646913       0.00000000       0.12833205 </v>
    <v>       0.49646913       0.00000000       0.62833205 </v>
    <v>       0.49646913       0.33333333       0.12833205 </v>
    <v>       0.49646913       0.33333333       0.62833205 </v>
    <v>       0.49646913       0.66666667       0.12833205 </v>
    <v>       0.49646913       0.66666667       0.62833205 </v>
    <v>       0.00353087       0.16666667       0.37166795 </v>
    <v>       0.00353087       0.16666667       0.87166795 </v>
    <v>       0.00353087       0.50000000       0.37166795 </v>
    <v>       0.00353087       0.50000000       0.87166795 </v>
    <v>       0.00353087       0.83333333       0.37166795 </v>
    <v>       0.00353087       0.83333333       0.87166795 </v>
    <v>       0.17337106       0.00000000       0.28161508 </v>
    <v>       0.17337106       0.00000000       0.78161508 </v>
    <v>       0.17337106       0.33333333       0.28161508 </v>
    <v>       0.17337106       0.33333333       0.78161508 </v>
    <v>       0.17337106       0.66666667       0.28161508 </v>
    <v>       0.17337106       0.66666667       0.78161508 </v>
    <v>       0.32662894       0.16666667       0.21838492 </v>
    <v>       0.32662894       0.16666667       0.71838492 </v>
    <v>       0.32662894       0.50000000       0.21838492 </v>
    <v>       0.32662894       0.50000000       0.71838492 </v>
    <v>       0.32662894       0.83333333       0.21838492 </v>
    <v>       0.32662894       0.83333333       0.71838492 </v>
    <v>       0.33549502       0.16666667       0.44542296 </v>
    <v>       0.33549502       0.16666667       0.94542296 </v>
    <v>       0.33549502       0.50000000       0.44542296 </v>
    <v>       0.33549502       0.50000000       0.94542296 </v>
    <v>       0.33549502       0.83333333       0.44542296 </v>
    <v>       0.33549502       0.83333333       0.94542296 </v>
    <v>       0.16450498       0.00000000       0.05457704 </v>
    <v>       0.16450498       0.33333333       0.05457704 </v>
    <v>       0.16450498       0.33333333       0.55457704 </v>
    <v>       0.16450498       0.66666667       0.05457704 </v>
    <v>       0.16450498       0.66666667       0.55457704 </v>
    <v>       0.16450498       0.00000000       0.55457704 </v>
   </varray>
  </structure>
  <varray name="primitive_index" >
   <v type="int" >        1 </v>
   <v type="int" >        2 </v>
   <v type="int" >        3 </v>
   <v type="int" >        4 </v>
   <v type="int" >        5 </v>
   <v type="int" >        6 </v>
   <v type="int" >        7 </v>
   <v type="int" >        8 </v>
   <v type="int" >        9 </v>
   <v type="int" >       10 </v>
   <v type="int" >       11 </v>
   <v type="int" >       12 </v>
   <v type="int" >       13 </v>
   <v type="int" >       14 </v>
   <v type="int" >       15 </v>
   <v type="int" >       16 </v>
   <v type="int" >       17 </v>
   <v type="int" >       18 </v>
   <v type="int" >       19 </v>
   <v type="int" >       20 </v>
   <v type="int" >       21 </v>
   <v type="int" >       22 </v>
   <v type="int" >       23 </v>
   <v type="int" >       24 </v>
   <v type="int" >       25 </v>
   <v type="int" >       26 </v>
   <v type="int" >       27 </v>
   <v type="int" >       28 </v>
   <v type="int" >       29 </v>
   <v type="int" >       30 </v>
   <v type="int" >       31 </v>
   <v type="int" >       32 </v>
   <v type="int" >       33 </v>
   <v type="int" >       34 </v>
   <v type="int" >       35 </v>
   <v type="int" >       36 </v>
   <v type="int" >       37 </v>
   <v type="int" >       38 </v>
   <v type="int" >       39 </v>
   <v type="int" >       40 </v>
   <v type="int" >       41 </v>
   <v type="int" >       42 </v>
   <v type="int" >       43 </v>
   <v type="int" >       44 </v>
   <v type="int" >       45 </v>
   <v type="int" >       46 </v>
   <v type="int" >       47 </v>
   <v type="int" >       48 </v>
   <v type="int" >       49 </v>
   <v type="int" >       50 </v>
   <v type="int" >       51 </v>
   <v type="int" >       52 </v>
   <v type="int" >       53 </v>
   <v type="int" >       54 </v>
   <v type="int" >       55 </v>
   <v type="int" >       56 </v>
   <v type="int" >       57 </v>
   <v type="int" >       58 </v>
   <v type="int" >       59 </v>
   <v type="int" >       60 </v>
   <v type="int" >       61 </v>
   <v type="int" >       62 </v>
   <v type="int" >       63 </v>
   <v type="int" >       64 </v>
   <v type="int" >       65 </v>
   <v type="int" >       66 </v>
   <v type="int" >       67 </v>
   <v type="int" >       68 </v>
   <v type="int" >       69 </v>
   <v type="int" >       70 </v>
   <v type="int" >       71 </v>
   <v type="int" >       72 </v>
   <v type="int" >       73 </v>
   <v type="int" >       74 </v>
   <v type="int" >       75 </v>
   <v type="int" >       76 </v>
   <v type="int" >       77 </v>
   <v type="int" >       78 </v>
   <v type="int" >       79 </v>
   <v type="int" >       80 </v>
   <v type="int" >       81 </v>
   <v type="int" >       82 </v>
   <v type="int" >       83 </v>
   <v type="int" >       84 </v>
   <v type="int" >       85 </v>
   <v type="int" >       86 </v>
   <v type="int" >       87 </v>
   <v type="int" >       88 </v>
   <v type="int" >       89 </v>
   <v type="int" >       90 </v>
   <v type="int" >       91 </v>
   <v type="int" >       92 </v>
   <v type="int" >       93 </v>
   <v type="int" >       94 </v>
   <v type="int" >       95 </v>
   <v type="int" >       96 </v>
   <v type="int" >       97 </v>
   <v type="int" >       98 </v>
   <v type="int" >       99 </v>
   <v type="int" >      100 </v>
   <v type="int" >      101 </v>
   <v type="int" >      102 </v>
   <v type="int" >      103 </v>
   <v type="int" >      104 </v>
   <v type="int" >      105 </v>
   <v type="int" >      106 </v>
   <v type="int" >      107 </v>
   <v type="int" >      108 </v>
   <v type="int" >      109 </v>
   <v type="int" >      110 </v>
   <v type="int" >      111 </v>
   <v type="int" >      112 </v>
   <v type="int" >      113 </v>
   <v type="int" >      114 </v>
   <v type="int" >      115 </v>
   <v type="int" >      116 </v>
   <v type="int" >      117 </v>
   <v type="int" >      118 </v>
   <v type="int" >      119 </v>
  </varray>
 </primitive_cell>
 <kpoints>
  <generation param="Gamma">
   <v type="int" name="divisions">       1        1        1 </v>
   <v name="usershift">      0.00000000       0.00000000       0.00000000 </v>
   <v name="genvec1">      1.00000000       0.00000000       0.00000000 </v>
   <v name="genvec2">      0.00000000       1.00000000       0.00000000 </v>
   <v name="genvec3">      0.00000000       0.00000000       1.00000000 </v>
   <v name="shift">      0.00000000       0.00000000       0.00000000 </v>
  </generation>
  <varray name="kpointlist" >
   <v>       0.00000000       0.00000000       0.00000000 </v>
  </varray>
  <varray name="weights" >
   <v>       1.00000000 </v>
  </varray>
 </kpoints>
 <parameters>
  <separator name="general" >
   <i type="string" name="SYSTEM">unknown system</i>
   <i type="logical" name="LCOMPAT"> F  </i>
  </separator>
  <separator name="electronic" >
   <i type="string" name="PREC">normal</i>
   <i name="ENMAX">    450.00000000</i>
   <i name="ENAUG">    605.39200000</i>
   <i name="EDIFF">      0.00001000</i>
   <i type="int" name="IALGO">    68</i>
   <i type="int" name="IWAVPR">    11</i>
   <i type="int" name="NBANDS">   625</i>
   <i type="int" name="NBANDSLOW">    -1</i>
   <i type="int" name="NBANDSHIGH">    -1</i>
   <i name="NELECT">   1043.00000000</i>
   <i type="int" name="TURBO">     0</i>
   <i type="int" name="IRESTART">     0</i>
   <i type="int" name="NREBOOT">     0</i>
   <i type="int" name="NMIN">     0</i>
   <i name="EREF">      0.00000000</i>
   <separator name="electronic smearing" >
    <i type="int" name="ISMEAR">     0</i>
    <i name="SIGMA">      0.05000000</i>
    <i name="KSPACING">      0.50000000</i>
    <i type="logical" name="KGAMMA"> T  </i>
    <i type="logical" name="KBLOWUP"> T  </i>
   </separator>
   <separator name="electronic projectors" >
    <i type="logical" name="LREAL"> T  </i>
    <v name="ROPT">     -0.00050000     -0.00050000     -0.00050000</v>
    <i type="int" name="LMAXPAW">  -100</i>
    <i type="int" name="LMAXMIX">     2</i>
    <i type="logical" name="NLSPLINE"> F  </i>
   </separator>
   <separator name="electronic startup" >
    <i type="int" name="ISTART">     0</i>
    <i type="int" name="ICHARG">     2</i>
    <i type="int" name="INIWAV">     1</i>
   </separator>
   <separator name="electronic spin" >
    <i type="int" name="ISPIN">     1</i>
    <i type="logical" name="LNONCOLLINEAR"> F  </i>
    <v name="MAGMOM">      1.00000000      1.00000000      1.00000000      1.00000000      1.00000000      1.00000000      1.00000000      1.00000000      1.00000000      1.00000000      1.00000000      1.00000000      1.00000000      1.00000000      1.00000000      1.00000000      1.00000000      1.00000000      1.00000000      1.00000000
      1.00000000      1.00000000      1.00000000      1.00000000      1.00000000      1.00000000      1.00000000      1.00000000      1.00000000      1.00000000      1.00000000      1.00000000      1.00000000      1.00000000      1.00000000      1.00000000      1.00000000      1.00000000      1.00000000      1.00000000
      1.00000000      1.00000000      1.00000000      1.00000000      1.00000000      1.00000000      1.00000000      1.00000000      1.00000000      1.00000000      1.00000000      1.00000000      1.00000000      1.00000000      1.00000000      1.00000000      1.00000000      1.00000000      1.00000000      1.00000000
      1.00000000      1.00000000      1.00000000      1.00000000      1.00000000      1.00000000      1.00000000      1.00000000      1.00000000      1.00000000      1.00000000      1.00000000      1.00000000      1.00000000      1.00000000      1.00000000      1.00000000      1.00000000      1.00000000      1.00000000
      1.00000000      1.00000000      1.00000000      1.00000000      1.00000000      1.00000000      1.00000000      1.00000000      1.00000000      1.00000000      1.00000000      1.00000000      1.00000000      1.00000000      1.00000000      1.00000000      1.00000000      1.00000000      1.00000000      1.00000000
      1.00000000      1.00000000      1.00000000      1.00000000      1.00000000      1.00000000      1.00000000      1.00000000      1.00000000      1.00000000      1.00000000      1.00000000      1.00000000      1.00000000      1.00000000      1.00000000      1.00000000      1.00000000      1.00000000</v>
    <i name="NUPDOWN">     -1.00000000</i>
    <i type="logical" name="LSORBIT"> F  </i>
    <v name="SAXIS">      0.00000000      0.00000000      1.00000000</v>
    <i type="logical" name="LSPIRAL"> F  </i>
    <v name="QSPIRAL">      0.00000000      0.00000000      0.00000000</v>
    <i type="logical" name="LZEROZ"> F  </i>
   </separator>
   <separator name="electronic exchange-correlation" >
    <i type="logical" name="LASPH"> F  </i>
    <i type="logical" name="LMETAGGA"> F  </i>
   </separator>
   <separator name="electronic convergence" >
    <i type="int" name="NELM">    60</i>
    <i type="int" name="NELMDL">    -5</i>
    <i type="int" name="NELMIN">     2</i>
    <i name="ENINI">    450.00000000</i>
    <separator name="electronic convergence detail" >
     <i type="logical" name="LDIAG"> T  </i>
     <i type="logical" name="LSUBROT"> F  </i>
     <i name="WEIMIN">      0.00100000</i>
     <i name="EBREAK">      0.00000000</i>
     <i name="DEPER">      0.30000000</i>
     <i type="int" name="NRMM">     4</i>
     <i name="TIME">      0.40000000</i>
    </separator>
   </separator>
   <separator name="electronic mixer" >
    <i name="AMIX">      0.40000000</i>
    <i name="BMIX">      1.00000000</i>
    <i name="AMIN">      0.10000000</i>
    <i name="AMIX_MAG">      1.60000000</i>
    <i name="BMIX_MAG">      1.00000000</i>
    <separator name="electronic mixer details" >
     <i type="int" name="IMIX">     4</i>
     <i type="logical" name="MIXFIRST"> F  </i>
     <i type="int" name="MAXMIX">   -45</i>
     <i name="WC">    100.00000000</i>
     <i type="int" name="INIMIX">     1</i>
     <i type="int" name="MIXPRE">     1</i>
     <i type="int" name="MREMOVE">     5</i>
    </separator>
   </separator>
   <separator name="electronic dipolcorrection" >
    <i type="logical" name="LDIPOL"> F  </i>
    <i type="logical" name="LMONO"> F  </i>
    <i type="int" name="IDIPOL">     0</i>
    <i name="EPSILON">      1.00000000</i>
    <v name="DIPOL">   -100.00000000   -100.00000000   -100.00000000</v>
    <i name="EFIELD">      0.00000000</i>
   </separator>
  </separator>
  <separator name="grids" >
   <i type="int" name="NGX">    64</i>
   <i type="int" name="NGY">    48</i>
   <i type="int" name="NGZ">    60</i>
   <i type="int" name="NGXF">   128</i>
   <i type="int" name="NGYF">    96</i>
   <i type="int" name="NGZF">   120</i>
   <i type="logical" name="ADDGRID"> F  </i>
  </separator>
  <separator name="ionic" >
   <i type="int" name="NSW">   300</i>
   <i type="int" name="IBRION">     2</i>
   <i type="int" name="MDALGO">     0</i>
   <i type="int" name="ISIF">     2</i>
   <i name="PSTRESS">      0.00000000</i>
   <i name="EDIFFG">     -0.00500000</i>
   <i type="int" name="NFREE">     1</i>
   <i name="POTIM">      0.50000000</i>
   <i name="SMASS">     -3.00000000</i>
   <i name="SCALEE">      1.00000000</i>
  </separator>
  <separator name="ionic md" >
   <i name="TEBEG">      0.00010000</i>
   <i name="TEEND">      0.00010000</i>
   <i type="int" name="NBLOCK">     1</i>
   <i type="int" name="KBLOCK">   300</i>
   <i type="int" name="NPACO">   256</i>
   <i name="APACO">     10.00000000</i>
  </separator>
  <separator name="symmetry" >
   <i type="int" name="ISYM">     2</i>
   <i name="SYMPREC">      0.00001000</i>
  </separator>
  <separator name="dos" >
   <i type="int" name="LORBIT">     0</i>
   <v name="RWIGS">     -1.00000000     -1.00000000     -1.00000000</v>
   <i type="int" name="NEDOS">   301</i>
   <i name="EMIN">     10.00000000</i>
   <i name="EMAX">    -10.00000000</i>
   <i name="EFERMI">      0.00000000</i>
  </separator>
  <separator name="writing" >
   <i type="int" name="NWRITE">     2</i>
   <i type="logical" name="LWAVE"> F  </i>
   <i type="logical" name="LDOWNSAMPLE"> F  </i>
   <i type="logical" name="LCHARG"> F  </i>
   <i type="logical" name="LPARD"> F  </i>
   <i type="logical" name="LVTOT"> F  </i>
   <i type="logical" name="LVHAR"> F  </i>
   <i type="logical" name="LELF"> F  </i>
   <i type="logical" name="LOPTICS"> F  </i>
   <v name="STM">      0.00000000      0.00000000      0.00000000      0.00000000      0.00000000      0.00000000      0.00000000</v>
  </separator>
  <separator name="performance" >
   <i type="int" name="NPAR">     1</i>
   <i type="int" name="NSIM">     4</i>
   <i type="int" name="NBLK">    -1</i>
   <i type="logical" name="LPLANE"> T  </i>
   <i type="logical" name="LSCALAPACK"> T  </i>
   <i type="logical" name="LSCAAWARE"> F  </i>
   <i type="logical" name="LSCALU"> F  </i>
   <i type="logical" name="LASYNC"> F  </i>
   <i type="logical" name="LORBITALREAL"> F  </i>
  </separator>
  <separator name="miscellaneous" >
   <i type="int" name="IDIOT">     3</i>
   <i type="int" name="PHON_NSTRUCT">    -1</i>
   <i type="logical" name="LMUSIC"> F  </i>
   <v name="POMASS">     69.72300000     16.00000000     30.97400000</v>
   <v name="DARWINR">      0.00000000      0.00000000      0.00000000</v>
   <v name="DARWINV">      1.00000000      1.00000000      1.00000000</v>
   <i type="logical" name="LCORR"> T  </i>
  </separator>
  <i type="logical" name="GGA_COMPAT"> T  </i>
  <i type="logical" name="LBERRY"> F  </i>
  <i type="int" name="ICORELEVEL">     0</i>
  <i type="logical" name="LDAU"> F  </i>
  <i type="int" name="I_CONSTRAINED_M">     0</i>
  <separator name="electronic exchange-correlation" >
   <i type="string" name="GGA">--</i>
   <i type="int" name="VOSKOWN">     0</i>
   <i type="logical" name="LHFCALC"> F  </i>
   <i type="string" name="PRECFOCK"></i>
   <i type="logical" name="LSYMGRAD"> F  </i>
   <i type="logical" name="LHFONE"> F  </i>
   <i type="logical" name="LRHFCALC"> F  </i>
   <i type="logical" name="LTHOMAS"> F  </i>
   <i type="logical" name="LMODELHF"> F  </i>
   <i type="logical" name="LFOCKACE"> F  </i>
   <i name="ENCUT4O">     -1.00000000</i>
   <i type="int" name="EXXOEP">     0</i>
   <i type="int" name="FOURORBIT">     0</i>
   <i name="AEXX">      0.00000000</i>
   <i name="HFALPHA">      0.00000000</i>
   <i name="MCALPHA">      0.00000000</i>
   <i name="ALDAX">      1.00000000</i>
   <i name="AGGAX">      1.00000000</i>
   <i name="ALDAC">      1.00000000</i>
   <i name="AGGAC">      1.00000000</i>
   <i type="int" name="NKREDX">     1</i>
   <i type="int" name="NKREDY">     1</i>
   <i type="int" name="NKREDZ">     1</i>
   <i type="logical" name="SHIFTRED"> F  </i>
   <i type="logical" name="ODDONLY"> F  </i>
   <i type="logical" name="EVENONLY"> F  </i>
   <i type="int" name="LMAXFOCK">     0</i>
   <i type="int" name="NMAXFOCKAE">     0</i>
   <i type="logical" name="LFOCKAEDFT"> F  </i>
   <i name="HFSCREEN">      0.00000000</i>
   <i name="HFSCREENC">      0.00000000</i>
   <i type="int" name="NBANDSGWLOW">     0</i>
  </separator>
  <separator name="vdW DFT" >
   <i type="logical" name="LUSE_VDW"> F  </i>
   <i type="int" name="IVDW_NL">     1</i>
   <i type="logical" name="LSPIN_VDW"> F  </i>
   <i name="Zab_VDW">     -0.84910000</i>
   <i name="PARAM1">      0.12340000</i>
   <i name="PARAM2">      1.00000000</i>
   <i name="PARAM3">      0.00000000</i>
  </separator>
  <separator name="model GW" >
   <i type="int" name="MODEL_GW">     0</i>
   <i name="MODEL_EPS0">      6.39733692</i>
   <i name="MODEL_ALPHA">      1.00000000</i>
  </separator>
  <separator name="linear response parameters" >
   <i type="logical" name="LEPSILON"> F  </i>
   <i type="logical" name="LRPA"> F  </i>
   <i type="logical" name="LNABLA"> F  </i>
   <i type="logical" name="LVEL"> F  </i>
   <i name="CSHIFT">      0.10000000</i>
   <i name="OMEGAMAX">     -1.00000000</i>
   <i name="DEG_THRESHOLD">      0.00200000</i>
   <i name="RTIME">     -0.10000000</i>
   <i name="WPLASMAI">      0.00000000</i>
   <v name="DFIELD">      0.00000000      0.00000000      0.00000000</v>
   <v name="WPLASMA">      0.00000000      0.00000000      0.00000000      0.00000000      0.00000000      0.00000000      0.00000000      0.00000000      0.00000000</v>
  </separator>
  <separator name="orbital magnetization" >
   <i type="logical" name="NUCIND"> F  </i>
   <v name="MAGPOS">      0.00000000      0.00000000      0.00000000</v>
   <i type="logical" name="LNICSALL"> T  </i>
   <i type="logical" name="ORBITALMAG"> F  </i>
   <i type="logical" name="LMAGBLOCH"> F  </i>
   <i type="logical" name="LCHIMAG"> F  </i>
   <i type="logical" name="LGAUGE"> T  </i>
   <i type="int" name="MAGATOM">     0</i>
   <v name="MAGDIPOL">      0.00000000      0.00000000      0.00000000</v>
   <v name="AVECCONST">      0.00000000      0.00000000      0.00000000</v>
  </separator>
  <separator name="response functions" >
   <i type="logical" name="LALL_IN_ONE"> F  </i>
   <i type="int" name="IALL_IN_ONE">    -1</i>
   <i type="int" name="NBANDS_WAVE">    -1</i>
   <i type="logical" name="LFINITE_TEMPERATURE"> F  </i>
   <i type="logical" name="LADDER"> F  </i>
   <i type="logical" name="LRPAFORCE"> F  </i>
   <i type="logical" name="LFXC"> F  </i>
   <i type="logical" name="LHARTREE"> T  </i>
   <i type="int" name="IBSE">     0</i>
   <v type="int" name="KPOINT">    -1     0     0     0</v>
   <i type="logical" name="LTCTC"> F  </i>
   <i type="logical" name="LTCTE"> F  </i>
   <i type="logical" name="LTETE"> F  </i>
   <i type="logical" name="LTRIPLET"> F  </i>
   <i type="logical" name="LFXCEPS"> F  </i>
   <i type="logical" name="LFXHEG"> F  </i>
   <i type="int" name="NATURALO">     2</i>
   <i type="logical" name="LHOLEGF"> F  </i>
   <i type="logical" name="L2ORDER"> F  </i>
   <i type="logical" name="LDMP1"> F  </i>
   <i type="logical" name="LMP2LT"> F  </i>
   <i type="logical" name="LSMP2LT"> F  </i>
   <i type="logical" name="LGWLF"> F  </i>
   <i name="ENCUTGW">     -1.60000002</i>
   <i name="ENCUTGWSOFT">     -1.60000002</i>
   <i name="ENCUTLF">     -1.00000000</i>
   <i type="logical" name="LESF_SPLINES"> F  </i>
   <i type="int" name="LMAXMP2">    -1</i>
   <i name="SCISSOR">      0.00000000</i>
   <i type="int" name="NOMEGA">     0</i>
   <i type="int" name="NOMEGAR">     0</i>
   <i type="int" name="NBANDSGW">    -1</i>
   <i type="int" name="NBANDSO">    -1</i>
   <i type="int" name="NBANDSV">    -1</i>
   <i type="int" name="NELMGW">     1</i>
   <i type="int" name="NELMHF">     1</i>
   <i type="int" name="DIM">     3</i>
   <i type="int" name="IESPILON">     4</i>
   <i type="int" name="ANTIRES">     0</i>
   <i name="OMEGAMAX">    -30.00000000</i>
   <i name="OMEGAMIN">    -30.00000000</i>
   <i name="OMEGATL">   -200.00000000</i>
   <i type="int" name="OMEGAGRID">     0</i>
   <i name="CSHIFT">     -0.10000000</i>
   <i type="logical" name="LSELFENERGY"> F  </i>
   <i type="logical" name="LSPECTRAL"> F  </i>
   <i type="logical" name="LSPECTRALGW"> F  </i>
   <i type="logical" name="LSINGLES"> F  </i>
   <i type="logical" name="LFERMIGW"> F  </i>
   <i type="logical" name="ODDONLYGW"> F  </i>
   <i type="logical" name="EVENONLYGW"> F  </i>
   <i type="int" name="NKREDLFX">     1</i>
   <i type="int" name="NKREDLFY">     1</i>
   <i type="int" name="NKREDLFZ">     1</i>
   <i type="int" name="MAXMEM">  2800</i>
   <i type="int" name="TELESCOPE">     0</i>
   <i type="int" name="NTAUPAR">    -1</i>
   <i type="int" name="NOMEGAPAR">    -1</i>
   <i name="DAMP_NEWTON">      0.80000001</i>
   <i name="LAMBDA">      1.00000000</i>
  </separator>
  <separator name="External order field" >
   <i name="OFIELD_KAPPA">      0.00000000</i>
   <v name="OFIELD_K">      0.00000000      0.00000000      0.00000000</v>
   <i name="OFIELD_Q6_NEAR">      0.00000000</i>
   <i name="OFIELD_Q6_FAR">      0.00000000</i>
   <i name="OFIELD_A">      0.00000000</i>
  </separator>
  <separator name="optional k-points parameters" >
   <i type="int" name="KPOINTS_OPT_MODE">     1</i>
   <i type="logical" name="LKPOINTS_OPT"> F  </i>
  </separator>
 </parameters>
 <atominfo>
  <atoms>     119 </atoms>
  <types>       3 </types>
  <array name="atoms" >
   <dimension dim="1">ion</dimension>
   <field type="string">element</field>
   <field type="int">atomtype</field>
   <set>
    <rc><c>Ga</c><c>   1</c></rc>
    <rc><c>Ga</c><c>   1</c></rc>
    <rc><c>Ga</c><c>   1</c></rc>
    <rc><c>Ga</c><c>   1</c></rc>
    <rc><c>Ga</c><c>   1</c></rc>
    <rc><c>Ga</c><c>   1</c></rc>
    <rc><c>Ga</c><c>   1</c></rc>
    <rc><c>Ga</c><c>   1</c></rc>
    <rc><c>Ga</c><c>   1</c></rc>
    <rc><c>Ga</c><c>   1</c></rc>
    <rc><c>Ga</c><c>   1</c></rc>
    <rc><c>Ga</c><c>   1</c></rc>
    <rc><c>Ga</c><c>   1</c></rc>
    <rc><c>Ga</c><c>   1</c></rc>
    <rc><c>Ga</c><c>   1</c></rc>
    <rc><c>Ga</c><c>   1</c></rc>
    <rc><c>Ga</c><c>   1</c></rc>
    <rc><c>Ga</c><c>   1</c></rc>
    <rc><c>Ga</c><c>   1</c></rc>
    <rc><c>Ga</c><c>   1</c></rc>
    <rc><c>Ga</c><c>   1</c></rc>
    <rc><c>Ga</c><c>   1</c></rc>
    <rc><c>Ga</c><c>   1</c></rc>
    <rc><c>Ga</c><c>   1</c></rc>
    <rc><c>Ga</c><c>   1</c></rc>
    <rc><c>Ga</c><c>   1</c></rc>
    <rc><c>Ga</c><c>   1</c></rc>
    <rc><c>Ga</c><c>   1</c></rc>
    <rc><c>Ga</c><c>   1</c></rc>
    <rc><c>Ga</c><c>   1</c></rc>
    <rc><c>Ga</c><c>   1</c></rc>
    <rc><c>Ga</c><c>   1</c></rc>
    <rc><c>Ga</c><c>   1</c></rc>
    <rc><c>Ga</c><c>   1</c></rc>
    <rc><c>Ga</c><c>   1</c></rc>
    <rc><c>Ga</c><c>   1</c></rc>
    <rc><c>Ga</c><c>   1</c></rc>
    <rc><c>Ga</c><c>   1</c></rc>
    <rc><c>Ga</c><c>   1</c></rc>
    <rc><c>Ga</c><c>   1</c></rc>
    <rc><c>Ga</c><c>   1</c></rc>
    <rc><c>Ga</c><c>   1</c></rc>
    <rc><c>Ga</c><c>   1</c></rc>
    <rc><c>Ga</c><c>   1</c></rc>
    <rc><c>Ga</c><c>   1</c></rc>
    <rc><c>Ga</c><c>   1</c></rc>
    <rc><c>Ga</c><c>   1</c></rc>
    <rc><c>O </c><c>   2</c></rc>
    <rc><c>O </c><c>   2</c></rc>
    <rc><c>O </c><c>   2</c></rc>
    <rc><c>O </c><c>   2</c></rc>
    <rc><c>O </c><c>   2</c></rc>
    <rc><c>O </c><c>   2</c></rc>
    <rc><c>O </c><c>   2</c></rc>
    <rc><c>O </c><c>   2</c></rc>
    <rc><c>O </c><c>   2</c></rc>
    <rc><c>O </c><c>   2</c></rc>
    <rc><c>O </c><c>   2</c></rc>
    <rc><c>O </c><c>   2</c></rc>
    <rc><c>O </c><c>   2</c></rc>
    <rc><c>O </c><c>   2</c></rc>
    <rc><c>O </c><c>   2</c></rc>
    <rc><c>O </c><c>   2</c></rc>
    <rc><c>O </c><c>   2</c></rc>
    <rc><c>O </c><c>   2</c></rc>
    <rc><c>O </c><c>   2</c></rc>
    <rc><c>O </c><c>   2</c></rc>
    <rc><c>O </c><c>   2</c></rc>
    <rc><c>O </c><c>   2</c></rc>
    <rc><c>O </c><c>   2</c></rc>
    <rc><c>O </c><c>   2</c></rc>
    <rc><c>O </c><c>   2</c></rc>
    <rc><c>O </c><c>   2</c></rc>
    <rc><c>O </c><c>   2</c></rc>
    <rc><c>O </c><c>   2</c></rc>
    <rc><c>O </c><c>   2</c></rc>
    <rc><c>O </c><c>   2</c></rc>
    <rc><c>O </c><c>   2</c></rc>
    <rc><c>O </c><c>   2</c></rc>
    <rc><c>O </c><c>   2</c></rc>
    <rc><c>O </c><c>   2</c></rc>
    <rc><c>O </c><c>   2</c></rc>
    <rc><c>O </c><c>   2</c></rc>
    <rc><c>O </c><c>   2</c></rc>
    <rc><c>O </c><c>   2</c></rc>
    <rc><c>O </c><c>   2</c></rc>
    <rc><c>O </c><c>   2</c></rc>
    <rc><c>O </c><c>   2</c></rc>
    <rc><c>O </c><c>   2</c></rc>
    <rc><c>O </c><c>   2</c></rc>
    <rc><c>O </c><c>   2</c></rc>
    <rc><c>O </c><c>   2</c></rc>
    <rc><c>O </c><c>   2</c></rc>
    <rc><c>O </c><c>   2</c></rc>
    <rc><c>O </c><c>   2</c></rc>
    <rc><c>O </c><c>   2</c></rc>
    <rc><c>O </c><c>   2</c></rc>
    <rc><c>O </c><c>   2</c></rc>
    <rc><c>O </c><c>   2</c></rc>
    <rc><c>O </c><c>   2</c></rc>
    <rc><c>O </c><c>   2</c></rc>
    <rc><c>O </c><c>   2</c></rc>
    <rc><c>O </c><c>   2</c></rc>
    <rc><c>O </c><c>   2</c></rc>
    <rc><c>O </c><c>   2</c></rc>
    <rc><c>O </c><c>   2</c></rc>
    <rc><c>O </c><c>   2</c></rc>
    <rc><c>O </c><c>   2</c></rc>
    <rc><c>O </c><c>   2</c></rc>
    <rc><c>O </c><c>   2</c></rc>
    <rc><c>O </c><c>   2</c></rc>
    <rc><c>O </c><c>   2</c></rc>
    <rc><c>O </c><c>   2</c></rc>
    <rc><c>O </c><c>   2</c></rc>
    <rc><c>O </c><c>   2</c></rc>
    <rc><c>O </c><c>   2</c></rc>
    <rc><c>O </c><c>   2</c></rc>
    <rc><c>O </c><c>   2</c></rc>
    <rc><c>P </c><c>   3</c></rc>
   </set>
  </array>
  <array name="atomtypes" >
   <dimension dim="1">type</dimension>
   <field type="int">atomspertype</field>
   <field type="string">element</field>
   <field>mass</field>
   <field>valence</field>
   <field type="string">pseudopotential</field>
   <set>
    <rc><c>  47</c><c>Ga</c><c>     69.72300000</c><c>     13.00000000</c><c>  PAW_PBE Ga_d 06Jul2010                </c></rc>
    <rc><c>  71</c><c>O </c><c>     16.00000000</c><c>      6.00000000</c><c>   PAW_PBE O 08Apr2002                  </c></rc>
    <rc><c>   1</c><c>P </c><c>     30.97400000</c><c>      5.00000000</c><c>  PAW_PBE P 06Sep2000                   </c></rc>
   </set>
  </array>
 </atominfo>
 <structure name="initialpos" >
  <crystal>
   <varray name="basis" >
    <v>       0.00000000      12.28047342       0.00000000 </v>
    <v>       9.14270205       0.00000000       0.00000000 </v>
    <v>       0.00000000      -2.76826177     -11.30069772 </v>
   </varray>
   <i name="volume">   1268.80515525 </i>
   <varray name="rec_basis" >
    <v>       0.00000000       0.08143009      -0.01994742 </v>
    <v>       0.10937686      -0.00000000       0.00000000 </v>
    <v>       0.00000000       0.00000000      -0.08849011 </v>
   </varray>
  </crystal>
  <varray name="positions" >
   <v>       0.65883830       0.00000000       0.15736517 </v>
   <v>       0.65883830       0.00000000       0.65736517 </v>
   <v>       0.65883830       0.33333333       0.15736517 </v>
   <v>       0.65883830       0.33333333       0.65736517 </v>
   <v>       0.65883830       0.66666667       0.15736517 </v>
   <v>       0.65883830       0.66666667       0.65736517 </v>
   <v>       0.84116170       0.16666667       0.34263483 </v>
   <v>       0.84116170       0.16666667       0.84263483 </v>
   <v>       0.84116170       0.50000000       0.34263483 </v>
   <v>       0.84116170       0.50000000       0.84263483 </v>
   <v>       0.84116170       0.83333333       0.34263483 </v>
   <v>       0.84116170       0.83333333       0.84263483 </v>
   <v>       0.59047440       0.16666667       0.39739300 </v>
   <v>       0.59047440       0.16666667       0.89739300 </v>
   <v>       0.59047440       0.50000000       0.39739300 </v>
   <v>       0.59047440       0.50000000       0.89739300 </v>
   <v>       0.59047440       0.83333333       0.39739300 </v>
   <v>       0.59047440       0.83333333       0.89739300 </v>
   <v>       0.90952560       0.00000000       0.10260700 </v>
   <v>       0.90952560       0.00000000       0.60260700 </v>
   <v>       0.90952560       0.33333333       0.10260700 </v>
   <v>       0.90952560       0.33333333       0.60260700 </v>
   <v>       0.90952560       0.66666667       0.10260700 </v>
   <v>       0.90952560       0.66666667       0.60260700 </v>
   <v>       0.15883830       0.16666667       0.15736517 </v>
   <v>       0.15883830       0.16666667       0.65736517 </v>
   <v>       0.15883830       0.50000000       0.15736517 </v>
   <v>       0.15883830       0.50000000       0.65736517 </v>
   <v>       0.15883830       0.83333333       0.15736517 </v>
   <v>       0.15883830       0.83333333       0.65736517 </v>
   <v>       0.34116170       0.00000000       0.34263483 </v>
   <v>       0.34116170       0.00000000       0.84263483 </v>
   <v>       0.34116170       0.33333333       0.34263483 </v>
   <v>       0.34116170       0.33333333       0.84263483 </v>
   <v>       0.34116170       0.66666667       0.34263483 </v>
   <v>       0.34116170       0.66666667       0.84263483 </v>
   <v>       0.09047440       0.00000000       0.89739300 </v>
   <v>       0.09047440       0.33333333       0.39739300 </v>
   <v>       0.09047440       0.33333333       0.89739300 </v>
   <v>       0.09047440       0.66666667       0.39739300 </v>
   <v>       0.09047440       0.66666667       0.89739300 </v>
   <v>       0.40952560       0.16666667       0.10260700 </v>
   <v>       0.40952560       0.16666667       0.60260700 </v>
   <v>       0.40952560       0.50000000       0.10260700 </v>
   <v>       0.40952560       0.50000000       0.60260700 </v>
   <v>       0.40952560       0.83333333       0.10260700 </v>
   <v>       0.40952560       0.83333333       0.60260700 </v>
   <v>       0.99646913       0.16666667       0.12833205 </v>
   <v>       0.99646913       0.16666667       0.62833205 </v>
   <v>       0.99646913       0.50000000       0.12833205 </v>
   <v>       0.99646913       0.50000000       0.62833205 </v>
   <v>       0.99646913       0.83333333       0.12833205 </v>
   <v>       0.99646913       0.83333333       0.62833205 </v>
   <v>       0.50353087       0.00000000       0.37166795 </v>
   <v>       0.50353087       0.00000000       0.87166795 </v>
   <v>       0.50353087       0.33333333       0.37166795 </v>
   <v>       0.50353087       0.33333333       0.87166795 </v>
   <v>       0.50353087       0.66666667       0.37166795 </v>
   <v>       0.50353087       0.66666667       0.87166795 </v>
   <v>       0.67337106       0.16666667       0.28161508 </v>
   <v>       0.67337106       0.16666667       0.78161508 </v>
   <v>       0.67337106       0.50000000       0.28161508 </v>
   <v>       0.67337106       0.50000000       0.78161508 </v>
   <v>       0.67337106       0.83333333       0.28161508 </v>
   <v>       0.67337106       0.83333333       0.78161508 </v>
   <v>       0.82662894       0.00000000       0.21838492 </v>
   <v>       0.82662894       0.00000000       0.71838492 </v>
   <v>       0.82662894       0.33333333       0.21838492 </v>
   <v>       0.82662894       0.33333333       0.71838492 </v>
   <v>       0.82662894       0.66666667       0.21838492 </v>
   <v>       0.82662894       0.66666667       0.71838492 </v>
   <v>       0.83549502       0.00000000       0.44542296 </v>
   <v>       0.83549502       0.00000000       0.94542296 </v>
   <v>       0.83549502       0.33333333       0.44542296 </v>
   <v>       0.83549502       0.33333333       0.94542296 </v>
   <v>       0.83549502       0.66666667       0.44542296 </v>
   <v>       0.83549502       0.66666667       0.94542296 </v>
   <v>       0.66450498       0.16666667       0.05457704 </v>
   <v>       0.66450498       0.16666667       0.55457704 </v>
   <v>       0.66450498       0.50000000       0.05457704 </v>
   <v>       0.66450498       0.50000000       0.55457704 </v>
   <v>       0.66450498       0.83333333       0.05457704 </v>
   <v>       0.66450498       0.83333333       0.55457704 </v>
   <v>       0.49646913       0.00000000       0.12833205 </v>
   <v>       0.49646913       0.00000000       0.62833205 </v>
   <v>       0.49646913       0.33333333       0.12833205 </v>
   <v>       0.49646913       0.33333333       0.62833205 </v>
   <v>       0.49646913       0.66666667       0.12833205 </v>
   <v>       0.49646913       0.66666667       0.62833205 </v>
   <v>       0.00353087       0.16666667       0.37166795 </v>
   <v>       0.00353087       0.16666667       0.87166795 </v>
   <v>       0.00353087       0.50000000       0.37166795 </v>
   <v>       0.00353087       0.50000000       0.87166795 </v>
   <v>       0.00353087       0.83333333       0.37166795 </v>
   <v>       0.00353087       0.83333333       0.87166795 </v>
   <v>       0.17337106       0.00000000       0.28161508 </v>
   <v>       0.17337106       0.00000000       0.78161508 </v>
   <v>       0.17337106       0.33333333       0.28161508 </v>
   <v>       0.17337106       0.33333333       0.78161508 </v>
   <v>       0.17337106       0.66666667       0.28161508 </v>
   <v>       0.17337106       0.66666667       0.78161508 </v>
   <v>       0.32662894       0.16666667       0.21838492 </v>
   <v>       0.32662894       0.16666667       0.71838492 </v>
   <v>       0.32662894       0.50000000       0.21838492 </v>
   <v>       0.32662894       0.50000000       0.71838492 </v>
   <v>       0.32662894       0.83333333       0.21838492 </v>
   <v>       0.32662894       0.83333333       0.71838492 </v>
   <v>       0.33549502       0.16666667       0.44542296 </v>
   <v>       0.33549502       0.16666667       0.94542296 </v>
   <v>       0.33549502       0.50000000       0.44542296 </v>
   <v>       0.33549502       0.50000000       0.94542296 </v>
   <v>       0.33549502       0.83333333       0.44542296 </v>
   <v>       0.33549502       0.83333333       0.94542296 </v>
   <v>       0.16450498       0.00000000       0.05457704 </v>
   <v>       0.16450498       0.33333333       0.05457704 </v>
   <v>       0.16450498       0.33333333       0.55457704 </v>
   <v>       0.16450498       0.66666667       0.05457704 </v>
   <v>       0.16450498       0.66666667       0.55457704 </v>
   <v>       0.16450498       0.00000000       0.55457704 </v>
  </varray>
 </structure>
 <calculation>
  <scstep>
   <time name="dav">    0.88    0.88</time>
   <time name="total">    1.01    1.01</time>
   <energy>
    <i name="alphaZ">   5376.25786726 </i>
    <i name="ewald"> -86186.08526395 </i>
    <i name="hartreedc"> -33713.75777736 </i>
    <i name="XCdc">   4078.38769252 </i>
    <i name="pawpsdc"> 100093.09196360 </i>
    <i name="pawaedc">-115889.62880893 </i>
    <i name="eentropy">     -0.02820953 </i>
    <i name="bandstr">  16159.75704183 </i>
    <i name="atom"> 131866.99277783 </i>
    <i name="e_fr_energy">  21784.98728326 </i>
    <i name="e_wo_entrp">  21785.01549280 </i>
    <i name="e_0_energy">  21785.00138803 </i>
   </energy>
  </scstep>
  <scstep>
   <time name="dav">    0.84    0.84</time>
   <time name="total">    0.84    0.84</time>
   <energy>
    <i name="e_fr_energy">   4866.40192680 </i>
    <i name="e_wo_entrp">   4866.43020213 </i>
    <i name="e_0_energy">   4866.41606446 </i>
   </energy>
  </scstep>
  <scstep>
   <time name="dav">    1.04    1.04</time>
   <time name="total">    1.04    1.04</time>
   <energy>
    <i name="e_fr_energy">   -132.28862463 </i>
    <i name="e_wo_entrp">   -132.26041515 </i>
    <i name="e_0_energy">   -132.27451989 </i>
   </energy>
  </scstep>
  <scstep>
   <time name="dav">    1.01    1.01</time>
   <time name="total">    1.01    1.01</time>
   <energy>
    <i name="e_fr_energy">   -762.06274679 </i>
    <i name="e_wo_entrp">   -762.03453731 </i>
    <i name="e_0_energy">   -762.04864205 </i>
   </energy>
  </scstep>
  <scstep>
   <time name="dav">    1.14    1.14</time>
   <time name="total">    1.34    1.34</time>
   <energy>
    <i name="e_fr_energy">   -802.92087300 </i>
    <i name="e_wo_entrp">   -802.89266352 </i>
    <i name="e_0_energy">   -802.90676826 </i>
   </energy>
  </scstep>
  <scstep>
   <time name="diag">    0.12    0.12</time>
   <time name="diis">    1.22    1.22</time>
   <time name="orth">    0.02    0.02</time>
   <time name="total">    1.66    1.66</time>
   <energy>
    <i name="e_fr_energy">   -689.69982901 </i>
    <i name="e_wo_entrp">   -689.67161588 </i>
    <i name="e_0_energy">   -689.68572245 </i>
   </energy>
  </scstep>
  <scstep>
   <time name="diag">    0.12    0.12</time>
   <time name="diis">    1.29    1.48</time>
   <time name="orth">    0.02    0.02</time>
   <time name="total">    1.73    1.93</time>
   <energy>
    <i name="e_fr_energy">   -694.51137998 </i>
    <i name="e_wo_entrp">   -694.48317050 </i>
    <i name="e_0_energy">   -694.49727524 </i>
   </energy>
  </scstep>
  <scstep>
   <time name="diag">    0.12    0.12</time>
   <time name="diis">    1.45    1.45</time>
   <time name="orth">    0.02    0.02</time>
   <time name="total">    1.90    1.90</time>
   <energy>
    <i name="e_fr_energy">   -691.97329562 </i>
    <i name="e_wo_entrp">   -691.94508615 </i>
    <i name="e_0_energy">   -691.95919089 </i>
   </energy>
  </scstep>
  <scstep>
   <time name="diag">    0.12    0.12</time>
   <time name="diis">    1.16    1.16</time>
   <time name="orth">    0.02    0.02</time>
   <time name="total">    1.61    1.61</time>
   <energy>
    <i name="e_fr_energy">   -694.80238210 </i>
    <i name="e_wo_entrp">   -694.75883963 </i>
    <i name="e_0_energy">   -694.78061087 </i>
   </energy>
  </scstep>
  <scstep>
   <time name="diag">    0.12    0.12</time>
   <time name="diis">    1.35    1.35</time>
   <time name="orth">    0.02    0.02</time>
   <time name="total">    1.80    1.80</time>
   <energy>
    <i name="e_fr_energy">   -691.48493095 </i>
    <i name="e_wo_entrp">   -691.45668675 </i>
    <i name="e_0_energy">   -691.47080885 </i>
   </energy>
  </scstep>
  <scstep>
   <time name="diag">    0.12    0.12</time>
   <time name="diis">    1.16    1.16</time>
   <time name="orth">    0.02    0.02</time>
   <time name="total">    1.62    1.62</time>
   <energy>
    <i name="e_fr_energy">   -691.45294516 </i>
    <i name="e_wo_entrp">   -691.42473568 </i>
    <i name="e_0_energy">   -691.43884042 </i>
   </energy>
  </scstep>
  <scstep>
   <time name="diag">    0.12    0.12</time>
   <time name="diis">    1.37    1.37</time>
   <time name="orth">    0.02    0.02</time>
   <time name="total">    1.82    1.82</time>
   <energy>
    <i name="e_fr_energy">   -691.31431885 </i>
    <i name="e_wo_entrp">   -691.28610937 </i>
    <i name="e_0_energy">   -691.30021411 </i>
   </energy>
  </scstep>
  <scstep>
   <time name="diag">    0.12    0.12</time>
   <time name="diis">    1.22    1.22</time>
   <time name="orth">    0.02    0.02</time>
   <time name="total">    1.68    1.68</time>
   <energy>
    <i name="e_fr_energy">   -691.22054477 </i>
    <i name="e_wo_entrp">   -691.19233529 </i>
    <i name="e_0_energy">   -691.20644003 </i>
   </energy>
  </scstep>
  <scstep>
   <time name="diag">    0.12    0.12</time>
   <time name="diis">    1.38    1.38</time>
   <time name="orth">    0.02    0.02</time>
   <time name="total">    1.84    1.84</time>
   <energy>
    <i name="e_fr_energy">   -691.21018610 </i>
    <i name="e_wo_entrp">   -691.18197662 </i>
    <i name="e_0_energy">   -691.19608136 </i>
   </energy>
  </scstep>
  <scstep>
   <time name="diag">    0.12    0.12</time>
   <time name="diis">    1.25    1.24</time>
   <time name="orth">    0.02    0.02</time>
   <time name="total">    1.71    1.71</time>
   <energy>
    <i name="e_fr_energy">   -691.20346182 </i>
    <i name="e_wo_entrp">   -691.17521269 </i>
    <i name="e_0_energy">   -691.18933725 </i>
   </energy>
  </scstep>
  <scstep>
   <time name="diag">    0.12    0.12</time>
   <time name="diis">    1.25    1.25</time>
   <time name="orth">    0.02    0.02</time>
   <time name="total">    1.71    1.71</time>
   <energy>
    <i name="e_fr_energy">   -691.20376020 </i>
    <i name="e_wo_entrp">   -691.17548630 </i>
    <i name="e_0_energy">   -691.18962325 </i>
   </energy>
  </scstep>
  <scstep>
   <time name="diag">    0.12    0.12</time>
   <time name="diis">    1.25    1.25</time>
   <time name="orth">    0.02    0.02</time>
   <time name="total">    1.72    1.72</time>
   <energy>
    <i name="e_fr_energy">   -691.20266819 </i>
    <i name="e_wo_entrp">   -691.17348612 </i>
    <i name="e_0_energy">   -691.18807715 </i>
   </energy>
  </scstep>
  <scstep>
   <time name="diag">    0.12    0.12</time>
   <time name="diis">    1.11    1.11</time>
   <time name="orth">    0.02    0.02</time>
   <time name="total">    1.57    1.57</time>
   <energy>
    <i name="e_fr_energy">   -691.20277236 </i>
    <i name="e_wo_entrp">   -691.17323648 </i>
    <i name="e_0_energy">   -691.18800442 </i>
   </energy>
  </scstep>
  <scstep>
   <time name="diag">    0.12    0.12</time>
   <time name="diis">    0.97    0.97</time>
   <time name="orth">    0.02    0.02</time>
   <time name="total">    1.44    1.44</time>
   <energy>
    <i name="e_fr_energy">   -691.20276131 </i>
    <i name="e_wo_entrp">   -691.17381633 </i>
    <i name="e_0_energy">   -691.18828882 </i>
   </energy>
  </scstep>
  <scstep>
   <time name="diag">    0.12    0.12</time>
   <time name="diis">    0.89    0.89</time>
   <time name="orth">    0.02    0.02</time>
   <time name="total">    1.36    1.36</time>
   <energy>
    <i name="e_fr_energy">   -691.20276656 </i>
    <i name="e_wo_entrp">   -691.17384673 </i>
    <i name="e_0_energy">   -691.18830665 </i>
   </energy>
  </scstep>
  <scstep>
   <time name="diag">    0.12    0.12</time>
   <time name="diis">    0.79    0.79</time>
   <time name="orth">    0.02    0.02</time>
   <time name="total">    1.04    1.04</time>
   <energy>
    <i name="alphaZ">   5376.25786726 </i>
    <i name="ewald"> -86186.08526395 </i>
    <i name="hartreedc"> -34176.42814751 </i>
    <i name="XCdc">   4142.14400762 </i>
    <i name="pawpsdc"> 118354.22542125 </i>
    <i name="pawaedc">-134407.02903083 </i>
    <i name="eentropy">     -0.02895051 </i>
    <i name="bandstr">  -5661.25144600 </i>
    <i name="atom"> 131866.99277783 </i>
    <i name="e_fr_energy">   -691.20276484 </i>
    <i name="e_wo_entrp">   -691.17381433 </i>
    <i name="e_0_energy">   -691.18828958 </i>
   </energy>
  </scstep>
  <structure>
   <crystal>
    <varray name="basis" >
     <v>       0.00000000      12.28047342       0.00000000 </v>
     <v>       9.14270205       0.00000000       0.00000000 </v>
     <v>       0.00000000      -2.76826177     -11.30069772 </v>
    </varray>
    <i name="volume">   1268.80515525 </i>
    <varray name="rec_basis" >
     <v>       0.00000000       0.08143009      -0.01994742 </v>
     <v>       0.10937686      -0.00000000       0.00000000 </v>
     <v>       0.00000000       0.00000000      -0.08849011 </v>
    </varray>
   </crystal>
   <varray name="positions" >
    <v>       0.65883830       0.00000000       0.15736517 </v>
    <v>       0.65883830       0.00000000       0.65736517 </v>
    <v>       0.65883830       0.33333333       0.15736517 </v>
    <v>       0.65883830       0.33333333       0.65736517 </v>
    <v>       0.65883830       0.66666667       0.15736517 </v>
    <v>       0.65883830       0.66666667       0.65736517 </v>
    <v>       0.84116170       0.16666667       0.34263483 </v>
    <v>       0.84116170       0.16666667       0.84263483 </v>
    <v>       0.84116170       0.50000000       0.34263483 </v>
    <v>       0.84116170       0.50000000       0.84263483 </v>
    <v>       0.84116170       0.83333333       0.34263483 </v>
    <v>       0.84116170       0.83333333       0.84263483 </v>
    <v>       0.59047440       0.16666667       0.39739300 </v>
    <v>       0.59047440       0.16666667       0.89739300 </v>
    <v>       0.59047440       0.50000000       0.39739300 </v>
    <v>       0.59047440       0.50000000       0.89739300 </v>
    <v>       0.59047440       0.83333333       0.39739300 </v>
    <v>       0.59047440       0.83333333       0.89739300 </v>
    <v>       0.90952560       0.00000000       0.10260700 </v>
    <v>       0.90952560       0.00000000       0.60260700 </v>
    <v>       0.90952560       0.33333333       0.10260700 </v>
    <v>       0.90952560       0.33333333       0.60260700 </v>
    <v>       0.90952560       0.66666667       0.10260700 </v>
    <v>       0.90952560       0.66666667       0.60260700 </v>
    <v>       0.15883830       0.16666667       0.15736517 </v>
    <v>       0.15883830       0.16666667       0.65736517 </v>
    <v>       0.15883830       0.50000000       0.15736517 </v>
    <v>       0.15883830       0.50000000       0.65736517 </v>
    <v>       0.15883830       0.83333333       0.15736517 </v>
    <v>       0.15883830       0.83333333       0.65736517 </v>
    <v>       0.34116170       0.00000000       0.34263483 </v>
    <v>       0.34116170       0.00000000       0.84263483 </v>
    <v>       0.34116170       0.33333333       0.34263483 </v>
    <v>       0.34116170       0.33333333       0.84263483 </v>
    <v>       0.34116170       0.66666667       0.34263483 </v>
    <v>       0.34116170       0.66666667       0.84263483 </v>
    <v>       0.09047440       0.00000000       0.89739300 </v>
    <v>       0.09047440       0.33333333       0.39739300 </v>
    <v>       0.09047440       0.33333333       0.89739300 </v>
    <v>       0.09047440       0.66666667       0.39739300 </v>
    <v>       0.09047440       0.66666667       0.89739300 </v>
    <v>       0.40952560       0.16666667       0.10260700 </v>
    <v>       0.40952560       0.16666667       0.60260700 </v>
    <v>       0.40952560       0.50000000       0.10260700 </v>
    <v>       0.40952560       0.50000000       0.60260700 </v>
    <v>       0.40952560       0.83333333       0.10260700 </v>
    <v>       0.40952560       0.83333333       0.60260700 </v>
    <v>       0.99646913       0.16666667       0.12833205 </v>
    <v>       0.99646913       0.16666667       0.62833205 </v>
    <v>       0.99646913       0.50000000       0.12833205 </v>
    <v>       0.99646913       0.50000000       0.62833205 </v>
    <v>       0.99646913       0.83333333       0.12833205 </v>
    <v>       0.99646913       0.83333333       0.62833205 </v>
    <v>       0.50353087       0.00000000       0.37166795 </v>
    <v>       0.50353087       0.00000000       0.87166795 </v>
    <v>       0.50353087       0.33333333       0.37166795 </v>
    <v>       0.50353087       0.33333333       0.87166795 </v>
    <v>       0.50353087       0.66666667       0.37166795 </v>
    <v>       0.50353087       0.66666667       0.87166795 </v>
    <v>       0.67337106       0.16666667       0.28161508 </v>
    <v>       0.67337106       0.16666667       0.78161508 </v>
    <v>       0.67337106       0.50000000       0.28161508 </v>
    <v>       0.67337106       0.50000000       0.78161508 </v>
    <v>       0.67337106       0.83333333       0.28161508 </v>
    <v>       0.67337106       0.83333333       0.78161508 </v>
    <v>       0.82662894       0.00000000       0.21838492 </v>
    <v>       0.82662894       0.00000000       0.71838492 </v>
    <v>       0.82662894       0.33333333       0.21838492 </v>
    <v>       0.82662894       0.33333333       0.71838492 </v>
    <v>       0.82662894       0.66666667       0.21838492 </v>
    <v>       0.82662894       0.66666667       0.71838492 </v>
    <v>       0.83549502       0.00000000       0.44542296 </v>
    <v>       0.83549502       0.00000000       0.94542296 </v>
    <v>       0.83549502       0.33333333       0.44542296 </v>
    <v>       0.83549502       0.33333333       0.94542296 </v>
    <v>       0.83549502       0.66666667       0.44542296 </v>
    <v>       0.83549502       0.66666667       0.94542296 </v>
    <v>       0.66450498       0.16666667       0.05457704 </v>
    <v>       0.66450498       0.16666667       0.55457704 </v>
    <v>       0.66450498       0.50000000       0.05457704 </v>
    <v>       0.66450498       0.50000000       0.55457704 </v>
    <v>       0.66450498       0.83333333       0.05457704 </v>
    <v>       0.66450498       0.83333333       0.55457704 </v>
    <v>       0.49646913       0.00000000       0.12833205 </v>
    <v>       0.49646913       0.00000000       0.62833205 </v>
    <v>       0.49646913       0.33333333       0.12833205 </v>
    <v>       0.49646913       0.33333333       0.62833205 </v>
    <v>       0.49646913       0.66666667       0.12833205 </v>
    <v>       0.49646913       0.66666667       0.62833205 </v>
    <v>       0.00353087       0.16666667       0.37166795 </v>
    <v>       0.00353087       0.16666667       0.87166795 </v>
    <v>       0.00353087       0.50000000       0.37166795 </v>
    <v>       0.00353087       0.50000000       0.87166795 </v>
    <v>       0.00353087       0.83333333       0.37166795 </v>
    <v>       0.00353087       0.83333333       0.87166795 </v>
    <v>       0.17337106       0.00000000       0.28161508 </v>
    <v>       0.17337106       0.00000000       0.78161508 </v>
    <v>       0.17337106       0.33333333       0.28161508 </v>
    <v>       0.17337106       0.33333333       0.78161508 </v>
    <v>       0.17337106       0.66666667       0.28161508 </v>
    <v>       0.17337106       0.66666667       0.78161508 </v>
    <v>       0.32662894       0.16666667       0.21838492 </v>
    <v>       0.32662894       0.16666667       0.71838492 </v>
    <v>       0.32662894       0.50000000       0.21838492 </v>
    <v>       0.32662894       0.50000000       0.71838492 </v>
    <v>       0.32662894       0.83333333       0.21838492 </v>
    <v>       0.32662894       0.83333333       0.71838492 </v>
    <v>       0.33549502       0.16666667       0.44542296 </v>
    <v>       0.33549502       0.16666667       0.94542296 </v>
    <v>       0.33549502       0.50000000       0.44542296 </v>
    <v>       0.33549502       0.50000000       0.94542296 </v>
    <v>       0.33549502       0.83333333       0.44542296 </v>
    <v>       0.33549502       0.83333333       0.94542296 </v>
    <v>       0.16450498       0.00000000       0.05457704 </v>
    <v>       0.16450498       0.33333333       0.05457704 </v>
    <v>       0.16450498       0.33333333       0.55457704 </v>
    <v>       0.16450498       0.66666667       0.05457704 </v>
    <v>       0.16450498       0.66666667       0.55457704 </v>
    <v>       0.16450498       0.00000000       0.55457704 </v>
   </varray>
  </structure>
  <varray name="forces" >
   <v>       0.00000000       0.30123912      -0.20443066 </v>
   <v>       0.00000000       0.05083096       0.14178841 </v>
   <v>      -0.04440092       0.14471079      -0.14454935 </v>
   <v>      -0.01236634       0.01980614       0.13703945 </v>
   <v>       0.04440092       0.14471079      -0.14454935 </v>
   <v>       0.01236634       0.01980614       0.13703945 </v>
   <v>      -0.36180158       1.61013202      -0.46653015 </v>
   <v>      -0.02823572       0.08546770      -0.13280811 </v>
   <v>       0.00000000       0.52258939      -0.23656545 </v>
   <v>       0.00000000       0.08517871      -0.11607787 </v>
   <v>       0.36180158       1.61013202      -0.46653015 </v>
   <v>       0.02823572       0.08546770      -0.13280811 </v>
   <v>      -0.04113668       0.07541929       0.06003007 </v>
   <v>      -0.00048284       0.08131485      -0.14591436 </v>
   <v>       0.00000000       0.06293130       0.03054191 </v>
   <v>       0.00000000       0.06275116      -0.10928746 </v>
   <v>       0.04113668       0.07541929       0.06003007 </v>
   <v>       0.00048284       0.08131485      -0.14591436 </v>
   <v>       0.00000000       0.34930178      -0.94683798 </v>
   <v>       0.00000000       0.01653601       0.72037927 </v>
   <v>      -0.21272484       0.19255136      -0.36389180 </v>
   <v>      -0.01364455       0.13168446       0.49310596 </v>
   <v>       0.21272484       0.19255136      -0.36389180 </v>
   <v>       0.01364455       0.13168446       0.49310596 </v>
   <v>      -0.82840794      -0.53674075      -1.31829487 </v>
   <v>       6.54320387      -1.67743257      -3.30296256 </v>
   <v>       0.00000000      -0.20284182      -0.42069430 </v>
   <v>       0.00000000      -0.00853038       0.76097813 </v>
   <v>       0.82840794      -0.53674075      -1.31829487 </v>
   <v>      -6.54320387      -1.67743257      -3.30296256 </v>
   <v>       0.00000000      -1.60395592       0.42935920 </v>
   <v>       0.00000000       0.13244489      -0.31998352 </v>
   <v>      -0.14499349      -0.37708938       0.13003584 </v>
   <v>       0.14311948      -0.03640574      -0.10511698 </v>
   <v>       0.14499349      -0.37708938       0.13003584 </v>
   <v>      -0.14311948      -0.03640574      -0.10511698 </v>
   <v>       0.00000000      -0.16824425      -0.40445783 </v>
   <v>      -1.51731831      -0.69134249       0.22119343 </v>
   <v>      -0.01362200      -0.03145161      -0.20758457 </v>
   <v>       1.51731831      -0.69134249       0.22119343 </v>
   <v>       0.01362200      -0.03145161      -0.20758457 </v>
   <v>      -0.00968746      -0.19888946      -0.27691628 </v>
   <v>       0.09270534       0.09736500       0.41594614 </v>
   <v>       0.00000000      -0.10238187      -0.15366172 </v>
   <v>       0.00000000      -0.14431419       0.24365921 </v>
   <v>       0.00968746      -0.19888946      -0.27691628 </v>
   <v>      -0.09270534       0.09736500       0.41594614 </v>
   <v>       0.24809118      -0.24195178       0.37469917 </v>
   <v>       0.17362071      -0.66264634      -0.41441173 </v>
   <v>       0.00000000      -0.06986228       0.14522264 </v>
   <v>       0.00000000      -0.08993026      -0.18807236 </v>
   <v>      -0.24809118      -0.24195178       0.37469917 </v>
   <v>      -0.17362071      -0.66264634      -0.41441173 </v>
   <v>       0.00000000       0.09758457      -0.03126209 </v>
   <v>       0.00000000      -0.04395448       0.06920486 </v>
   <v>       0.02731434       0.07487060      -0.02060024 </v>
   <v>      -0.01882421      -0.03394502       0.06265469 </v>
   <v>      -0.02731434       0.07487060      -0.02060024 </v>
   <v>       0.01882421      -0.03394502       0.06265469 </v>
   <v>       0.05894551      -0.19788334       0.04163209 </v>
   <v>       0.00455694      -0.07892370      -0.01631414 </v>
   <v>       0.00000000      -0.16258566       0.04297041 </v>
   <v>       0.00000000      -0.07330897      -0.01532236 </v>
   <v>      -0.05894551      -0.19788334       0.04163209 </v>
   <v>      -0.00455694      -0.07892370      -0.01631414 </v>
   <v>       0.00000000      -0.49313911       0.44511092 </v>
   <v>       0.00000000      -0.09795950      -0.09856507 </v>
   <v>       0.18650224      -0.28180472       0.32091827 </v>
   <v>       0.00990252      -0.10269382      -0.08483767 </v>
   <v>      -0.18650224      -0.28180472       0.32091827 </v>
   <v>      -0.00990252      -0.10269382      -0.08483767 </v>
   <v>       0.00000000      -0.69831698      -0.38212799 </v>
   <v>       0.00000000      -0.20634479       0.20053196 </v>
   <v>       0.30293668      -0.58182602      -0.31988618 </v>
   <v>       0.04127835      -0.21215827       0.14712461 </v>
   <v>      -0.30293668      -0.58182602      -0.31988618 </v>
   <v>      -0.04127835      -0.21215827       0.14712461 </v>
   <v>       0.03619354       0.07200563       0.24302050 </v>
   <v>       0.01929856       0.07676798      -0.06215761 </v>
   <v>       0.00000000       0.09578366       0.21350348 </v>
   <v>       0.00000000       0.08200709      -0.05058772 </v>
   <v>      -0.03619354       0.07200563       0.24302050 </v>
   <v>      -0.01929856       0.07676798      -0.06215761 </v>
   <v>       0.00000000       0.05635280       0.06314005 </v>
   <v>       0.00000000       0.04650103      -0.14215702 </v>
   <v>       0.04468457       0.06343147       0.04964577 </v>
   <v>       0.00361431       0.03602812      -0.12283473 </v>
   <v>      -0.04468457       0.06343147       0.04964577 </v>
   <v>      -0.00361431       0.03602812      -0.12283473 </v>
   <v>       0.11740435      -0.04413542      -0.32401837 </v>
   <v>      -0.00704738       0.00054491       0.10894717 </v>
   <v>       0.00000000      -0.10488139       0.03257151 </v>
   <v>       0.00000000       0.00305588       0.06832762 </v>
   <v>      -0.11740435      -0.04413542      -0.32401837 </v>
   <v>       0.00704738       0.00054491       0.10894717 </v>
   <v>       0.00000000       1.03354146       0.81849442 </v>
   <v>       0.00000000       0.07701636      -1.00835167 </v>
   <v>       0.40372009       0.40628115       0.19568117 </v>
   <v>      -0.14511929       0.06895973      -0.05607025 </v>
   <v>      -0.40372009       0.40628115       0.19568117 </v>
   <v>       0.14511929       0.06895973      -0.05607025 </v>
   <v>       0.35467183       0.61925897       0.27981861 </v>
   <v>      -0.08910810       0.49253432      -0.41359226 </v>
   <v>       0.00000000       0.26344835       0.13200450 </v>
   <v>       0.00000000       0.13894210      -0.19813351 </v>
   <v>      -0.35467183       0.61925897       0.27981861 </v>
   <v>       0.08910810       0.49253432      -0.41359226 </v>
   <v>       0.20759629       0.20341023      -0.46269942 </v>
   <v>      -0.01125647      -0.10690483       0.11887667 </v>
   <v>       0.00000000      -0.00039264      -0.19104056 </v>
   <v>       0.00000000      -0.11698622       0.01582427 </v>
   <v>      -0.20759629       0.20341023      -0.46269942 </v>
   <v>       0.01125647      -0.10690483       0.11887667 </v>
   <v>       0.00000000       0.33731599       0.76220168 </v>
   <v>       0.05396768       0.21756996       0.29985538 </v>
   <v>       0.86315609       0.31818668      -0.46736481 </v>
   <v>      -0.05396768       0.21756996       0.29985538 </v>
   <v>      -0.86315609       0.31818668      -0.46736481 </v>
   <v>       0.00000000       2.58442592      10.94006555 </v>
  </varray>
  <varray name="stress" >
   <v>     112.98472594       0.00000000       0.00000000 </v>
   <v>       0.00000000      70.89414487       7.64412661 </v>
   <v>       0.00000000       7.64412619      80.33251807 </v>
  </varray>
  <energy>
   <i name="e_fr_energy">   -691.20276484 </i>
   <i name="e_wo_entrp">   -691.17381433 </i>
   <i name="e_0_energy">   -691.18828958 </i>
  </energy>
  <time name="totalsc">   36.33   36.54</time>
 </calculation>
 <calculation>
  <scstep>
   <time name="dav">    1.01    1.01</time>
   <time name="total">    1.32    1.32</time>
   <energy>
    <i name="alphaZ">   5376.25786726 </i>
    <i name="ewald"> -86064.00730990 </i>
    <i name="hartreedc"> -34296.56295896 </i>
    <i name="XCdc">   4141.73541519 </i>
    <i name="pawpsdc"> 118354.51681882 </i>
    <i name="pawaedc">-134407.29799304 </i>
    <i name="eentropy">     -0.02837286 </i>
    <i name="bandstr">  -5635.81487383 </i>
    <i name="atom"> 131866.99277783 </i>
    <i name="e_fr_energy">   -664.20862949 </i>
    <i name="e_wo_entrp">   -664.18025663 </i>
    <i name="e_0_energy">   -664.19444306 </i>
   </energy>
  </scstep>
  <scstep>
   <time name="diag">    0.12    0.12</time>
   <time name="diis">    1.23    1.23</time>
   <time name="orth">    0.02    0.02</time>
   <time name="total">    1.67    1.67</time>
   <energy>
    <i name="e_fr_energy">   -688.52209355 </i>
    <i name="e_wo_entrp">   -688.49303830 </i>
    <i name="e_0_energy">   -688.50756593 </i>
   </energy>
  </scstep>
  <scstep>
   <time name="diag">    0.12    0.12</time>
   <time name="diis">    1.32    1.32</time>
   <time name="orth">    0.02    0.02</time>
   <time name="total">    1.77    1.77</time>
   <energy>
    <i name="e_fr_energy">   -692.63039059 </i>
    <i name="e_wo_entrp">   -692.59973490 </i>
    <i name="e_0_energy">   -692.61506274 </i>
   </energy>
  </scstep>
  <scstep>
   <time name="diag">    0.12    0.12</time>
   <time name="diis">    1.48    1.48</time>
   <time name="orth">    0.02    0.02</time>
   <time name="total">    1.92    1.92</time>
   <energy>
    <i name="e_fr_energy">   -693.61039624 </i>
    <i name="e_wo_entrp">   -693.57314709 </i>
    <i name="e_0_energy">   -693.59177166 </i>
   </energy>
  </scstep>
  <scstep>
   <time name="diag">    0.12    0.12</time>
   <time name="diis">    1.36    1.36</time>
   <time name="orth">    0.02    0.02</time>
   <time name="total">    1.81    1.81</time>
   <energy>
    <i name="e_fr_energy">   -693.45724373 </i>
    <i name="e_wo_entrp">   -693.42803370 </i>
    <i name="e_0_energy">   -693.44263872 </i>
   </energy>
  </scstep>
  <scstep>
   <time name="diag">    0.12    0.12</time>
   <time name="diis">    1.22    1.22</time>
   <time name="orth">    0.02    0.02</time>
   <time name="total">    1.67    1.67</time>
   <energy>
    <i name="e_fr_energy">   -693.31770862 </i>
    <i name="e_wo_entrp">   -693.27466410 </i>
    <i name="e_0_energy">   -693.29618636 </i>
   </energy>
  </scstep>
  <scstep>
   <time name="diag">    0.12    0.12</time>
   <time name="diis">    1.28    1.27</time>
   <time name="orth">    0.02    0.02</time>
   <time name="total">    1.73    1.73</time>
   <energy>
    <i name="e_fr_energy">   -693.33944338 </i>
    <i name="e_wo_entrp">   -693.29803682 </i>
    <i name="e_0_energy">   -693.31874010 </i>
   </energy>
  </scstep>
  <scstep>
   <time name="diag">    0.12    0.12</time>
   <time name="diis">    1.39    1.39</time>
   <time name="orth">    0.02    0.02</time>
   <time name="total">    1.85    1.85</time>
   <energy>
    <i name="e_fr_energy">   -693.33069933 </i>
    <i name="e_wo_entrp">   -693.28590047 </i>
    <i name="e_0_energy">   -693.30829990 </i>
   </energy>
  </scstep>
  <scstep>
   <time name="diag">    0.12    0.12</time>
   <time name="diis">    1.35    1.35</time>
   <time name="orth">    0.02    0.02</time>
   <time name="total">    1.81    1.81</time>
   <energy>
    <i name="e_fr_energy">   -693.33104612 </i>
    <i name="e_wo_entrp">   -693.28928275 </i>
    <i name="e_0_energy">   -693.31016443 </i>
   </energy>
  </scstep>
  <scstep>
   <time name="diag">    0.12    0.12</time>
   <time name="diis">    1.26    1.26</time>
   <time name="orth">    0.02    0.02</time>
   <time name="total">    1.72    1.72</time>
   <energy>
    <i name="e_fr_energy">   -693.33065851 </i>
    <i name="e_wo_entrp">   -693.28736014 </i>
    <i name="e_0_energy">   -693.30900933 </i>
   </energy>
  </scstep>
  <scstep>
   <time name="diag">    0.12    0.12</time>
   <time name="diis">    1.40    1.40</time>
   <time name="orth">    0.02    0.02</time>
   <time name="total">    1.86    1.86</time>
   <energy>
    <i name="e_fr_energy">   -693.33056328 </i>
    <i name="e_wo_entrp">   -693.28785723 </i>
    <i name="e_0_energy">   -693.30921025 </i>
   </energy>
  </scstep>
  <scstep>
   <time name="diag">    0.12    0.12</time>
   <time name="diis">    1.25    1.25</time>
   <time name="orth">    0.02    0.02</time>
   <time name="total">    1.71    1.71</time>
   <energy>
    <i name="e_fr_energy">   -693.33062222 </i>
    <i name="e_wo_entrp">   -693.28815539 </i>
    <i name="e_0_energy">   -693.30938880 </i>
   </energy>
  </scstep>
  <scstep>
   <time name="diag">    0.12    0.12</time>
   <time name="diis">    1.04    1.04</time>
   <time name="orth">    0.02    0.02</time>
   <time name="total">    1.50    1.50</time>
   <energy>
    <i name="e_fr_energy">   -693.33066212 </i>
    <i name="e_wo_entrp">   -693.28812698 </i>
    <i name="e_0_energy">   -693.30939455 </i>
   </energy>
  </scstep>
  <scstep>
   <time name="diag">    0.12    0.12</time>
   <time name="diis">    0.82    0.82</time>
   <time name="orth">    0.02    0.02</time>
   <time name="total">    1.07    1.07</time>
   <energy>
    <i name="alphaZ">   5376.25786726 </i>
    <i name="ewald"> -86064.00730990 </i>
    <i name="hartreedc"> -34313.77851810 </i>
    <i name="XCdc">   4142.46029501 </i>
    <i name="pawpsdc"> 118072.61376080 </i>
    <i name="pawaedc">-134127.73321436 </i>
    <i name="eentropy">     -0.04255846 </i>
    <i name="bandstr">  -5646.09376103 </i>
    <i name="atom"> 131866.99277783 </i>
    <i name="e_fr_energy">   -693.33066096 </i>
    <i name="e_wo_entrp">   -693.28810250 </i>
    <i name="e_0_energy">   -693.30938173 </i>
   </energy>
  </scstep>
  <structure>
   <crystal>
    <varray name="basis" >
     <v>       0.00000000      12.28047342       0.00000000 </v>
     <v>       9.14270205       0.00000000       0.00000000 </v>
     <v>       0.00000000      -2.76826177     -11.30069772 </v>
    </varray>
    <i name="volume">   1268.80515525 </i>
    <varray name="rec_basis" >
     <v>       0.00000000       0.08143009      -0.01994742 </v>
     <v>       0.10937686      -0.00000000       0.00000000 </v>
     <v>       0.00000000       0.00000000      -0.08849011 </v>
    </varray>
   </crystal>
   <varray name="positions" >
    <v>       0.66021842       0.00000000       0.15823788 </v>
    <v>       0.65890154       0.00000000       0.65675988 </v>
    <v>       0.65954588       0.33309905       0.15798225 </v>
    <v>       0.65878423       0.33326808       0.65678015 </v>
    <v>       0.65954588       0.66690095       0.15798225 </v>
    <v>       0.65878423       0.66673192       0.65678015 </v>
    <v>       0.84793590       0.16475757       0.34462645 </v>
    <v>       0.84162526       0.16651768       0.84320179 </v>
    <v>       0.84344229       0.50000000       0.34364473 </v>
    <v>       0.84160802       0.50000000       0.84313037 </v>
    <v>       0.84793590       0.83524243       0.34462645 </v>
    <v>       0.84162526       0.83348232       0.84320179 </v>
    <v>       0.59071291       0.16644960       0.39713673 </v>
    <v>       0.59093425       0.16666412       0.89801591 </v>
    <v>       0.59069223       0.50000000       0.39726262 </v>
    <v>       0.59082608       0.50000000       0.89785955 </v>
    <v>       0.59071291       0.83355040       0.39713673 </v>
    <v>       0.59093425       0.83333588       0.89801591 </v>
    <v>       0.91180896       0.00000000       0.10664905 </v>
    <v>       0.90889733       0.00000000       0.59953170 </v>
    <v>       0.91063220       0.33221086       0.10416045 </v>
    <v>       0.90956839       0.33326134       0.60050193 </v>
    <v>       0.91063220       0.66778914       0.10416045 </v>
    <v>       0.90956839       0.66673866       0.60050193 </v>
    <v>       0.15799838       0.16229546       0.16299297 </v>
    <v>       0.15542716       0.20119273       0.67146551 </v>
    <v>       0.15844630       0.50000000       0.15916111 </v>
    <v>       0.15807249       0.50000000       0.65411656 </v>
    <v>       0.15799838       0.83770454       0.16299297 </v>
    <v>       0.15542716       0.79880727       0.67146551 </v>
    <v>       0.33444753       0.00000000       0.34080190 </v>
    <v>       0.34198992       0.00000000       0.84400084 </v>
    <v>       0.33955521       0.33256826       0.34207971 </v>
    <v>       0.34111984       0.33408852       0.84308357 </v>
    <v>       0.33955521       0.66743174       0.34207971 </v>
    <v>       0.34111984       0.66591148       0.84308357 </v>
    <v>       0.09020269       0.00000000       0.89911963 </v>
    <v>       0.08754567       0.32532701       0.39644873 </v>
    <v>       0.09055061       0.33326146       0.89827918 </v>
    <v>       0.08754567       0.67467299       0.39644873 </v>
    <v>       0.09055061       0.66673854       0.89827918 </v>
    <v>       0.40901076       0.16661555       0.10378915 </v>
    <v>       0.40950782       0.16715584       0.60083133 </v>
    <v>       0.40927127       0.50000000       0.10326298 </v>
    <v>       0.40872420       0.50000000       0.60156682 </v>
    <v>       0.40901076       0.83338445       0.10378915 </v>
    <v>       0.40950782       0.83284416       0.60083133 </v>
    <v>       0.99515807       0.16797575       0.12673246 </v>
    <v>       0.99426478       0.16758280       0.63010117 </v>
    <v>       0.99605493       0.50000000       0.12771209 </v>
    <v>       0.99629683       0.50000000       0.62913493 </v>
    <v>       0.99515807       0.83202425       0.12673246 </v>
    <v>       0.99426478       0.83241720       0.63010117 </v>
    <v>       0.50394431       0.00000000       0.37180141 </v>
    <v>       0.50329160       0.00000000       0.87137252 </v>
    <v>       0.50384482       0.33347746       0.37175590 </v>
    <v>       0.50333723       0.33323400       0.87140048 </v>
    <v>       0.50384482       0.66652254       0.37175590 </v>
    <v>       0.50333723       0.66676600       0.87140048 </v>
    <v>       0.67255364       0.16697770       0.28143735 </v>
    <v>       0.67307672       0.16669071       0.78168473 </v>
    <v>       0.67269101       0.50000000       0.28143164 </v>
    <v>       0.67309782       0.50000000       0.78168049 </v>
    <v>       0.67255364       0.83302230       0.28143735 </v>
    <v>       0.67307672       0.83330929       0.78168473 </v>
    <v>       0.82426335       0.00000000       0.21648474 </v>
    <v>       0.82633896       0.00000000       0.71880569 </v>
    <v>       0.82521307       0.33431744       0.21701492 </v>
    <v>       0.82630715       0.33338559       0.71874709 </v>
    <v>       0.82521307       0.66568256       0.21701492 </v>
    <v>       0.82630715       0.66661441       0.71874709 </v>
    <v>       0.83311948       0.00000000       0.44705426 </v>
    <v>       0.83449144       0.00000000       0.94456689 </v>
    <v>       0.83351720       0.33493182       0.44678855 </v>
    <v>       0.83452000       0.33355114       0.94479489 </v>
    <v>       0.83351720       0.66506818       0.44678855 </v>
    <v>       0.83452000       0.66644886       0.94479489 </v>
    <v>       0.66455398       0.16685765       0.05353959 </v>
    <v>       0.66486637       0.16676850       0.55484239 </v>
    <v>       0.66467580       0.50000000       0.05366559 </v>
    <v>       0.66487582       0.50000000       0.55479300 </v>
    <v>       0.66455398       0.83314235       0.05353959 </v>
    <v>       0.66486637       0.83323150       0.55484239 </v>
    <v>       0.49662975       0.00000000       0.12806250 </v>
    <v>       0.49678860       0.00000000       0.62893891 </v>
    <v>       0.49667054       0.33356912       0.12812011 </v>
    <v>       0.49672887       0.33335240       0.62885643 </v>
    <v>       0.49667054       0.66643088       0.12812011 </v>
    <v>       0.49672887       0.66664760       0.62885643 </v>
    <v>       0.00366930       0.16728617       0.37305119 </v>
    <v>       0.00342817       0.16662948       0.87120286 </v>
    <v>       0.00308751       0.50000000       0.37152891 </v>
    <v>       0.00347712       0.50000000       0.87137626 </v>
    <v>       0.00366930       0.83271383       0.37305119 </v>
    <v>       0.00342817       0.83337052       0.87120286 </v>
    <v>       0.17664358       0.00000000       0.27812093 </v>
    <v>       0.17464397       0.00000000       0.78591973 </v>
    <v>       0.17477879       0.33546361       0.28077972 </v>
    <v>       0.17369592       0.33256759       0.78185444 </v>
    <v>       0.17477879       0.66453639       0.28077972 </v>
[...]
       <r>   -10.7617     0.0000   142.0000 </r>
       <r>   -10.6490     0.0000   142.0000 </r>
       <r>   -10.5364     0.0000   142.0000 </r>
       <r>   -10.4237     0.0000   142.0000 </r>
       <r>   -10.3110     0.0000   142.0000 </r>
       <r>   -10.1984     0.0000   142.0000 </r>
       <r>   -10.0857     0.0000   142.0000 </r>
       <r>    -9.9730     0.0000   142.0000 </r>
       <r>    -9.8603     0.0000   142.0000 </r>
       <r>    -9.7477     0.0000   142.0000 </r>
       <r>    -9.6350     0.0000   142.0000 </r>
       <r>    -9.5223     0.0000   142.0000 </r>
       <r>    -9.4097     0.2182   142.0246 </r>
       <r>    -9.2970    22.2633   144.5330 </r>
       <r>    -9.1843    69.5286   152.3667 </r>
       <r>    -9.0717   135.5003   167.6334 </r>
       <r>    -8.9590   422.9390   215.2857 </r>
       <r>    -8.8463   692.2414   293.2800 </r>
       <r>    -8.7337   801.4263   383.5761 </r>
       <r>    -8.6210   654.0986   457.2729 </r>
       <r>    -8.5083   530.9703   517.0969 </r>
       <r>    -8.3956   231.9927   543.2354 </r>
       <r>    -8.2830   127.7032   557.6236 </r>
       <r>    -8.1703   105.9182   569.5573 </r>
       <r>    -8.0576    79.4977   578.5142 </r>
       <r>    -7.9450   145.2144   594.8754 </r>
       <r>    -7.8323   113.7329   607.6896 </r>
       <r>    -7.7196    27.9637   610.8403 </r>
       <r>    -7.6070    10.2682   611.9972 </r>
       <r>    -7.4943     0.0248   612.0000 </r>
       <r>    -7.3816     0.0000   612.0000 </r>
       <r>    -7.2690     0.0000   612.0000 </r>
       <r>    -7.1563     0.0000   612.0000 </r>
       <r>    -7.0436     0.0000   612.0000 </r>
       <r>    -6.9309     0.0000   612.0000 </r>
       <r>    -6.8183     0.0000   612.0000 </r>
       <r>    -6.7056     0.0000   612.0000 </r>
       <r>    -6.5929     0.0000   612.0000 </r>
       <r>    -6.4803     0.0000   612.0000 </r>
       <r>    -6.3676     0.0000   612.0000 </r>
       <r>    -6.2549     0.0000   612.0000 </r>
       <r>    -6.1423     0.0000   612.0000 </r>
       <r>    -6.0296     0.0000   612.0000 </r>
       <r>    -5.9169     0.0000   612.0000 </r>
       <r>    -5.8043     0.0000   612.0000 </r>
       <r>    -5.6916     0.0000   612.0000 </r>
       <r>    -5.5789     0.0000   612.0000 </r>
       <r>    -5.4662     0.0000   612.0000 </r>
       <r>    -5.3536     0.0000   612.0000 </r>
       <r>    -5.2409     0.0000   612.0000 </r>
       <r>    -5.1282     0.0000   612.0000 </r>
       <r>    -5.0156     0.0956   612.0108 </r>
       <r>    -4.9029    13.0021   613.4757 </r>
       <r>    -4.7902     4.6523   613.9999 </r>
       <r>    -4.6776     0.0012   614.0000 </r>
       <r>    -4.5649     0.0000   614.0000 </r>
       <r>    -4.4522     0.0000   614.0000 </r>
       <r>    -4.3396     0.0000   614.0000 </r>
       <r>    -4.2269     0.0000   614.0000 </r>
       <r>    -4.1142     0.0000   614.0000 </r>
       <r>    -4.0015     0.0000   614.0000 </r>
       <r>    -3.8889     0.0000   614.0000 </r>
       <r>    -3.7762     0.0000   614.0000 </r>
       <r>    -3.6635     0.0000   614.0000 </r>
       <r>    -3.5509     0.0000   614.0000 </r>
       <r>    -3.4382     0.0000   614.0000 </r>
       <r>    -3.3255     0.1000   614.0113 </r>
       <r>    -3.2129    14.8842   615.6883 </r>
       <r>    -3.1002    20.0211   617.9440 </r>
       <r>    -2.9875     1.4843   618.1113 </r>
       <r>    -2.8749    29.0763   621.3873 </r>
       <r>    -2.7622    23.4106   624.0249 </r>
       <r>    -2.6495    17.2211   625.9652 </r>
       <r>    -2.5368    45.8055   631.1261 </r>
       <r>    -2.4242    38.9098   635.5100 </r>
       <r>    -2.3115    53.3396   641.5197 </r>
       <r>    -2.1988    84.5529   651.0462 </r>
       <r>    -2.0862    48.0782   656.4632 </r>
       <r>    -1.9735    19.4674   658.6566 </r>
       <r>    -1.8608    45.8420   663.8215 </r>
       <r>    -1.7482    47.9678   669.2260 </r>
       <r>    -1.6355    63.3224   676.3605 </r>
       <r>    -1.5228    48.9474   681.8754 </r>
       <r>    -1.4101    32.4889   685.5359 </r>
       <r>    -1.2975    46.6882   690.7962 </r>
       <r>    -1.1848    46.1917   696.0006 </r>
       <r>    -1.0721    23.8506   698.6878 </r>
       <r>    -0.9595    32.2861   702.3255 </r>
       <r>    -0.8468    28.6723   705.5560 </r>
       <r>    -0.7341    29.7358   708.9063 </r>
       <r>    -0.6215    46.2095   714.1127 </r>
       <r>    -0.5088    72.2389   722.2518 </r>
       <r>    -0.3961    65.0615   729.5822 </r>
       <r>    -0.2835    22.2450   732.0885 </r>
       <r>    -0.1708    47.9618   737.4924 </r>
       <r>    -0.0581    56.1754   743.8216 </r>
       <r>     0.0546    46.2154   749.0287 </r>
       <r>     0.1672    65.8029   756.4426 </r>
       <r>     0.2799    63.0310   763.5443 </r>
       <r>     0.3926    69.9493   771.4254 </r>
       <r>     0.5052    36.9219   775.5854 </r>
       <r>     0.6179    44.4429   780.5927 </r>
       <r>     0.7306    60.9233   787.4569 </r>
       <r>     0.8432    60.5148   794.2750 </r>
       <r>     0.9559    80.4855   803.3433 </r>
       <r>     1.0686    29.3489   806.6500 </r>
       <r>     1.1812    82.7646   815.9750 </r>
       <r>     1.2939    98.4614   827.0686 </r>
       <r>     1.4066    75.1689   835.5378 </r>
       <r>     1.5193   123.1915   849.4177 </r>
       <r>     1.6319    97.4281   860.3949 </r>
       <r>     1.7446    83.7691   869.8331 </r>
       <r>     1.8573    58.6788   876.4444 </r>
       <r>     1.9699    53.5902   882.4823 </r>
       <r>     2.0826    54.0388   888.5709 </r>
       <r>     2.1953    52.2654   894.4596 </r>
       <r>     2.3079    79.7144   903.4409 </r>
       <r>     2.4206    70.5844   911.3936 </r>
       <r>     2.5333   101.0254   922.7761 </r>
       <r>     2.6459   138.9732   938.4341 </r>
       <r>     2.7586    71.2896   946.4662 </r>
       <r>     2.8713    75.8279   955.0097 </r>
       <r>     2.9840   125.9284   969.1980 </r>
       <r>     3.0966   123.8823   983.1557 </r>
       <r>     3.2093   132.0145   998.0297 </r>
       <r>     3.3220   104.3594  1009.7877 </r>
       <r>     3.4346    90.4785  1019.9819 </r>
       <r>     3.5473    51.5886  1025.7943 </r>
       <r>     3.6600    25.2284  1028.6368 </r>
       <r>     3.7726    64.9361  1035.9531 </r>
       <r>     3.8853    18.2691  1038.0115 </r>
       <r>     3.9980    13.3769  1039.5186 </r>
       <r>     4.1106     4.2714  1039.9999 </r>
       <r>     4.2233     0.0009  1040.0000 </r>
       <r>     4.3360     0.0000  1040.0000 </r>
       <r>     4.4487     0.0000  1040.0000 </r>
       <r>     4.5613     0.0000  1040.0000 </r>
       <r>     4.6740     0.0000  1040.0000 </r>
       <r>     4.7867     0.0000  1040.0000 </r>
       <r>     4.8993     0.0000  1040.0000 </r>
       <r>     5.0120     0.0000  1040.0000 </r>
       <r>     5.1247     0.0000  1040.0000 </r>
       <r>     5.2373     0.0000  1040.0000 </r>
       <r>     5.3500     0.0000  1040.0000 </r>
       <r>     5.4627     0.0000  1040.0000 </r>
       <r>     5.5753     0.0000  1040.0000 </r>
       <r>     5.6880     0.0000  1040.0000 </r>
       <r>     5.8007     0.0000  1040.0000 </r>
       <r>     5.9134     0.0000  1040.0000 </r>
       <r>     6.0260     0.1749  1040.0197 </r>
       <r>     6.1387    14.0913  1041.6074 </r>
       <r>     6.2514     3.4844  1041.9999 </r>
       <r>     6.3640     0.0005  1042.0000 </r>
       <r>     6.4767     0.0000  1042.0000 </r>
       <r>     6.5894     0.0000  1042.0000 </r>
       <r>     6.7020     0.0000  1042.0000 </r>
       <r>     6.8147     0.0000  1042.0000 </r>
       <r>     6.9274     0.0017  1042.0002 </r>
       <r>     7.0400     5.2033  1042.5864 </r>
       <r>     7.1527    12.4731  1043.9918 </r>
       <r>     7.2654     0.0730  1044.0000 </r>
       <r>     7.3781     0.0000  1044.0000 </r>
       <r>     7.4907     0.0000  1044.0000 </r>
       <r>     7.6034     0.0000  1044.0000 </r>
       <r>     7.7161     0.0000  1044.0000 </r>
       <r>     7.8287     0.0000  1044.0000 </r>
       <r>     7.9414     0.0000  1044.0000 </r>
       <r>     8.0541     0.0539  1044.0061 </r>
       <r>     8.1667    11.8586  1045.3422 </r>
       <r>     8.2794     5.8944  1046.0063 </r>
       <r>     8.3921    24.1894  1048.7317 </r>
       <r>     8.5047    28.9892  1051.9979 </r>
       <r>     8.6174    13.4321  1053.5113 </r>
       <r>     8.7301    15.5773  1055.2664 </r>
       <r>     8.8428     6.5228  1056.0013 </r>
       <r>     8.9554     9.2127  1057.0393 </r>
       <r>     9.0681     9.4061  1058.0991 </r>
       <r>     9.1808    16.4150  1059.9485 </r>
       <r>     9.2934    17.0334  1061.8677 </r>
       <r>     9.4061    29.4894  1065.1902 </r>
       <r>     9.5188    53.5430  1071.2229 </r>
       <r>     9.6314     8.4891  1072.1793 </r>
       <r>     9.7441    35.1411  1076.1386 </r>
       <r>     9.8568    64.0497  1083.3551 </r>
       <r>     9.9694    42.6338  1088.1586 </r>
       <r>    10.0821    29.0896  1091.4361 </r>
       <r>    10.1948    34.7020  1095.3459 </r>
       <r>    10.3075    32.7282  1099.0334 </r>
       <r>    10.4201    43.6284  1103.9490 </r>
       <r>    10.5328    37.1835  1108.1384 </r>
       <r>    10.6455    21.8940  1110.6052 </r>
       <r>    10.7581    18.3675  1112.6747 </r>
       <r>    10.8708    39.7594  1117.1543 </r>
       <r>    10.9835    26.2414  1120.1109 </r>
       <r>    11.0961    51.7246  1125.9387 </r>
       <r>    11.2088    36.6736  1130.0707 </r>
       <r>    11.3215    41.1239  1134.7041 </r>
       <r>    11.4341    28.0894  1137.8689 </r>
       <r>    11.5468    10.8171  1139.0876 </r>
       <r>    11.6595    38.1967  1143.3912 </r>
       <r>    11.7722    27.4939  1146.4890 </r>
       <r>    11.8848    34.0979  1150.3307 </r>
       <r>    11.9975    14.8007  1151.9983 </r>
       <r>    12.1102     0.0154  1152.0000 </r>
       <r>    12.2228     3.7030  1152.4173 </r>
       <r>    12.3355    30.7896  1155.8863 </r>
       <r>    12.4482    38.2318  1160.1939 </r>
       <r>    12.5608    48.2871  1165.6343 </r>
       <r>    12.6735    56.6092  1172.0124 </r>
       <r>    12.7862    41.2276  1176.6575 </r>
       <r>    12.8988    55.7903  1182.9434 </r>
       <r>    13.0115    59.0292  1189.5942 </r>
       <r>    13.1242    41.0921  1194.2240 </r>
       <r>    13.2369    40.7047  1198.8101 </r>
       <r>    13.3495    58.0597  1205.3517 </r>
       <r>    13.4622    32.8549  1209.0534 </r>
       <r>    13.5749    54.9452  1215.2441 </r>
       <r>    13.6875    63.2212  1222.3671 </r>
       <r>    13.8002    47.9497  1227.7696 </r>
       <r>    13.9129    32.0770  1231.3837 </r>
       <r>    14.0255    24.2326  1234.1140 </r>
       <r>    14.1382    15.8796  1235.9031 </r>
       <r>    14.2509    12.8650  1237.3526 </r>
       <r>    14.3635    35.0896  1241.3061 </r>
       <r>    14.4762    49.2736  1246.8577 </r>
       <r>    14.5889    12.3224  1248.2461 </r>
       <r>    14.7016    15.1890  1249.9574 </r>
       <r>    14.8142     0.3778  1250.0000 </r>
       <r>    14.9269     0.0000  1250.0000 </r>
       <r>    15.0396     0.0000  1250.0000 </r>
       <r>    15.1522     0.0000  1250.0000 </r>
       <r>    15.2649     0.0000  1250.0000 </r>
       <r>    15.3776     0.0000  1250.0000 </r>
       <r>    15.4902     0.0000  1250.0000 </r>
       <r>    15.6029     0.0000  1250.0000 </r>
       <r>    15.7156     0.0000  1250.0000 </r>
       <r>    15.8282     0.0000  1250.0000 </r>
       <r>    15.9409     0.0000  1250.0000 </r>
       <r>    16.0536     0.0000  1250.0000 </r>
       <r>    16.1663     0.0000  1250.0000 </r>
      </set>
     </set>
    </array>
   </total>
  </dos>
 </calculation>
 <structure name="finalpos" >
  <crystal>
   <varray name="basis" >
    <v>       0.00000000      12.28047342       0.00000000 </v>
    <v>       9.14270205       0.00000000       0.00000000 </v>
    <v>       0.00000000      -2.76826177     -11.30069772 </v>
   </varray>
   <i name="volume">   1268.80515525 </i>
   <varray name="rec_basis" >
    <v>       0.00000000       0.08143009      -0.01994742 </v>
    <v>       0.10937686      -0.00000000       0.00000000 </v>
    <v>       0.00000000       0.00000000      -0.08849011 </v>
   </varray>
  </crystal>
  <varray name="positions" >
   <v>       0.65763608       0.00000000       0.15600516 </v>
   <v>       0.66021686       0.00000000       0.65726015 </v>
   <v>       0.65933239       0.33334081       0.15816452 </v>
   <v>       0.66031463       0.33379810       0.65692019 </v>
   <v>       0.65933239       0.66665919       0.15816452 </v>
   <v>       0.66031463       0.66620190       0.65692019 </v>
   <v>       0.83940566       0.16361902       0.34246673 </v>
   <v>       0.84018474       0.16674759       0.84449979 </v>
   <v>       0.84419980       0.50000000       0.34362777 </v>
   <v>       0.84089069       0.50000000       0.84364127 </v>
   <v>       0.83940566       0.83638098       0.34246673 </v>
   <v>       0.84018474       0.83325241       0.84449979 </v>
   <v>       0.59137682       0.16712874       0.39899909 </v>
   <v>       0.59198566       0.16724688       0.89860966 </v>
   <v>       0.59043718       0.50000000       0.39794452 </v>
   <v>       0.59256914       0.50000000       0.89893195 </v>
   <v>       0.59137682       0.83287126       0.39899909 </v>
   <v>       0.59198566       0.83275312       0.89860966 </v>
   <v>       0.90952164       0.00000000       0.10328539 </v>
   <v>       0.90724405       0.00000000       0.60344700 </v>
   <v>       0.90813525       0.33403471       0.10130837 </v>
   <v>       0.91077204       0.33300003       0.60474499 </v>
   <v>       0.90813525       0.66596529       0.10130837 </v>
   <v>       0.91077204       0.66699997       0.60474499 </v>
   <v>       0.15748914       0.17079275       0.15547415 </v>
   <v>       0.15958409       0.16143484       0.66088603 </v>
   <v>       0.15883241       0.50000000       0.15635316 </v>
   <v>       0.15995469       0.50000000       0.65711922 </v>
   <v>       0.15748914       0.82920725       0.15547415 </v>
   <v>       0.15958409       0.83856516       0.66088603 </v>
   <v>       0.34291439       0.00000000       0.34667124 </v>
   <v>       0.34303987       0.00000000       0.84779591 </v>
   <v>       0.34003355       0.33324114       0.34545886 </v>
   <v>       0.34139137       0.33331384       0.84525184 </v>
   <v>       0.34003355       0.66675886       0.34545886 </v>
   <v>       0.34139137       0.66668616       0.84525184 </v>
   <v>       0.08939873       0.00000000       0.90274408 </v>
   <v>       0.09272651       0.32925330       0.39922813 </v>
   <v>       0.09144875       0.33356020       0.89720608 </v>
   <v>       0.09272651       0.67074670       0.39922813 </v>
   <v>       0.09144875       0.66643980       0.89720608 </v>
   <v>       0.40829930       0.16701880       0.10547581 </v>
   <v>       0.41102433       0.16695563       0.60454155 </v>
   <v>       0.40808103       0.50000000       0.10361028 </v>
   <v>       0.40912260       0.50000000       0.60341126 </v>
   <v>       0.40829930       0.83298120       0.10547581 </v>
   <v>       0.41102433       0.83304437       0.60454155 </v>
   <v>       0.99623522       0.16771930       0.12882375 </v>
   <v>       0.99671147       0.16452361       0.62723186 </v>
   <v>       0.99668361       0.50000000       0.12667719 </v>
   <v>       0.99802020       0.50000000       0.62888524 </v>
   <v>       0.99623522       0.83228070       0.12882375 </v>
   <v>       0.99671147       0.83547639       0.62723186 </v>
   <v>       0.50407605       0.00000000       0.37434639 </v>
   <v>       0.50480769       0.00000000       0.87486403 </v>
   <v>       0.50225517       0.33311111       0.37378765 </v>
   <v>       0.50387996       0.33381606       0.87364021 </v>
   <v>       0.50225517       0.66688889       0.37378765 </v>
   <v>       0.50387996       0.66618394       0.87364021 </v>
   <v>       0.67268329       0.16728453       0.28158098 </v>
   <v>       0.67260620       0.16702577       0.78065568 </v>
   <v>       0.67576080       0.50000000       0.28355402 </v>
   <v>       0.67279859       0.50000000       0.78026879 </v>
   <v>       0.67268329       0.83271547       0.28158098 </v>
   <v>       0.67260620       0.83297423       0.78065568 </v>
   <v>       0.82766684       0.00000000       0.22072606 </v>
   <v>       0.82741439       0.00000000       0.72124924 </v>
   <v>       0.83054577       0.33077062       0.22186275 </v>
   <v>       0.82827536       0.33337308       0.72038515 </v>
   <v>       0.83054577       0.66922938       0.22186275 </v>
   <v>       0.82827536       0.66662692       0.72038515 </v>
   <v>       0.83209668       0.00000000       0.44602855 </v>
   <v>       0.83189406       0.00000000       0.94723362 </v>
   <v>       0.84307303       0.33008882       0.44537138 </v>
   <v>       0.83007242       0.33377961       0.94585196 </v>
   <v>       0.84307303       0.66991118       0.44537138 </v>
   <v>       0.83007242       0.66622039       0.94585196 </v>
   <v>       0.66859397       0.16709162       0.05560314 </v>
   <v>       0.67046589       0.16717571       0.55464210 </v>
   <v>       0.66940757       0.50000000       0.05639712 </v>
   <v>       0.67107792       0.50000000       0.55349376 </v>
   <v>       0.66859397       0.83290838       0.05560314 </v>
   <v>       0.67046589       0.83282429       0.55464210 </v>
   <v>       0.49588408       0.00000000       0.13001602 </v>
   <v>       0.49827560       0.00000000       0.62693263 </v>
   <v>       0.49643380       0.33357696       0.13030881 </v>
   <v>       0.49760454       0.33404732       0.62683846 </v>
   <v>       0.49643380       0.66642304       0.13030881 </v>
   <v>       0.49760454       0.66595268       0.62683846 </v>
   <v>       0.01663158       0.14097986       0.37328524 </v>
   <v>       0.00290442       0.16732666       0.87489465 </v>
   <v>       0.00721609       0.50000000       0.37254786 </v>
   <v>       0.00351865       0.50000000       0.87352342 </v>
   <v>       0.01663158       0.85902014       0.37328524 </v>
   <v>       0.00290442       0.83267334       0.87489465 </v>
   <v>       0.16107915       0.00000000       0.28825159 </v>
   <v>       0.17473580       0.00000000       0.78975581 </v>
   <v>       0.17131072       0.33169215       0.28051219 </v>
   <v>       0.17325143       0.33189153       0.78060817 </v>
   <v>       0.17131072       0.66830785       0.28051219 </v>
   <v>       0.17325143       0.66810847       0.78060817 </v>
   <v>       0.32424172       0.16314817       0.22220160 </v>
   <v>       0.32865981       0.16369943       0.72063813 </v>
   <v>       0.32616042       0.50000000       0.22112838 </v>
   <v>       0.32697095       0.50000000       0.71983063 </v>
   <v>       0.32424172       0.83685183       0.22220160 </v>
   <v>       0.32865981       0.83630057       0.72063813 </v>
   <v>       0.33096609       0.16538375       0.44828482 </v>
   <v>       0.33296359       0.16750080       0.94846836 </v>
   <v>       0.32945969       0.50000000       0.44722426 </v>
   <v>       0.33174887       0.50000000       0.94677078 </v>
   <v>       0.33096609       0.83461625       0.44828482 </v>
   <v>       0.33296359       0.83249920       0.94846836 </v>
   <v>       0.16622802       0.00000000       0.06007683 </v>
   <v>       0.16916616       0.33412378       0.05390004 </v>
   <v>       0.16663412       0.32936904       0.55534147 </v>
   <v>       0.16916616       0.66587622       0.05390004 </v>
   <v>       0.16663412       0.67063096       0.55534147 </v>
   <v>       0.10314475       0.00000000       0.40306771 </v>
  </varray>
 </structure>
</modeling>
