 running    4 mpi-ranks, on    1 nodes
 distrk:  each k-point on    1 cores,    4 groups
 distr:  one band on    1 cores,    1 groups
 OpenACC runtime initialized ...    4 GPUs detected
 vasp.6.4.2 20Jul23 (build Nov 12 2023 22:16:35) complex                         
 POSCAR found type information on POSCAR GaO P 
 POSCAR found :  3 types and     119 ions
 scaLAPACK will be used selectively (only on CPU)
 LDA part: xc-table for Pade appr. of Perdew
 POSCAR, INCAR and KPOINTS ok, starting setup
 FFT: planning ... GRIDC
 FFT: planning ... GRID_SOFT
 FFT: planning ... GRID
 WAVECAR not read
 initial charge from wavefunction
 entering main loop
       N       E                     dE             d eps       ncg     rms          ort
DAV:   1    -0.183717825196E+05   -0.18372E+05   -0.54225E+05  5000   0.749E+03
DAV:   2    -0.627730214164E+05   -0.44401E+05   -0.42893E+05  5000   0.124E+03
DAV:   3    -0.678566069066E+05   -0.50836E+04   -0.45948E+04  5000   0.376E+02
DAV:   4    -0.686291505676E+05   -0.77254E+03   -0.69190E+03  5000   0.120E+02
DAV:   5    -0.390388872254E+05    0.29590E+05   -0.68120E+02  5000   0.567E+01
 gam= 0.000 g(H,U,f)=  0.833E+05 0.292E+05 0.657E+03 ort(H,U,f) = 0.000E+00 0.000E+00 0.000E+00
SDA:   6     0.352232884121E+05    0.74262E+05   -0.68120E+02  5000   0.113E+06 0.000E+00
 gam= 0.000 trial= 0.400  step= 0.434 mean= 0.400
 gam= 0.592 g(H,U,f)=  0.433E+05 0.218E+05 0.181E+04 ort(H,U,f) =-0.877E+04-0.137E+05-0.179E+04
CGA:   7     0.119236834037E+05   -0.23300E+05   -0.24533E+05  5000   0.669E+05-0.242E+05
 gam= 0.592 trial= 0.402  step= 0.263 mean= 0.402
 gam= 0.302 g(H,U,f)=  0.141E+05 0.588E+04 0.220E+03 ort(H,U,f) =-0.164E+04 0.450E+04-0.481E+03
CGA:   8     0.471202014257E+04   -0.72117E+04   -0.69280E+04  5000   0.202E+05 0.238E+04
 gam= 0.302 trial= 0.395  step= 0.225 mean= 0.395
 gam= 0.818 g(H,U,f)=  0.108E+05 0.524E+04 0.482E+03 ort(H,U,f) = 0.311E+04-0.167E+04-0.261E+03
CGA:   9     0.319209544725E+04   -0.15199E+04   -0.23513E+04  5000   0.165E+05 0.119E+04
 gam= 0.818 trial= 0.386  step= 0.252 mean= 0.386
 gam= 0.309 g(H,U,f)=  0.433E+04 0.747E+03 0.222E+02 ort(H,U,f) = 0.514E+03 0.545E+03-0.667E+01
CGA:  10     0.141281344917E+04   -0.17793E+04   -0.22028E+04  5000   0.510E+04 0.105E+04
 gam= 0.309 trial= 0.380  step= 0.390 mean= 0.380
 gam= 0.431 g(H,U,f)=  0.180E+04 0.395E+03 0.912E+01 ort(H,U,f) = 0.616E+03 0.744E+02 0.256E+00
CGA:  11     0.346236091706E+03   -0.10666E+04   -0.10593E+04  5000   0.220E+04 0.690E+03
 gam= 0.431 trial= 0.380  step= 0.501 mean= 0.380
 gam= 0.477 g(H,U,f)=  0.910E+03 0.138E+03 0.132E+01 ort(H,U,f) =-0.103E+03 0.193E+03 0.258E+01
CGA:  12    -0.287120810860E+03   -0.63336E+03   -0.62672E+03  5000   0.105E+04 0.926E+02
 gam= 0.477 trial= 0.386  step= 0.657 mean= 0.386
 gam= 0.545 g(H,U,f)=  0.492E+03 0.802E+02 0.220E+00 ort(H,U,f) =-0.217E+03 0.168E+03-0.103E+01
CGA:  13    -0.641582602018E+03   -0.35446E+03   -0.35950E+03  5000   0.572E+03-0.498E+02
 gam= 0.545 trial= 0.400  step= 0.602 mean= 0.400
 gam= 0.514 g(H,U,f)=  0.265E+03 0.288E+02 0.166E+00 ort(H,U,f) =-0.791E+02 0.142E+02 0.315E+00
CGA:  14    -0.798463792101E+03   -0.15688E+03   -0.16409E+03  5000   0.294E+03-0.646E+02
 gam= 0.514 trial= 0.410  step= 0.474 mean= 0.410
 gam= 0.512 g(H,U,f)=  0.118E+03 0.296E+02 0.272E+01 ort(H,U,f) = 0.228E+02-0.304E+02 0.260E+01
CGA:  15    -0.860240358396E+03   -0.61777E+02   -0.61948E+02  5000   0.151E+03-0.502E+01
 gam= 0.512 trial= 0.413  step= 0.462 mean= 0.413
 gam= 0.515 g(H,U,f)=  0.566E+02 0.209E+02 0.125E+00 ort(H,U,f) = 0.416E+01-0.340E+00 0.428E+00
CGA:  16    -0.894645897717E+03   -0.34406E+02   -0.34220E+02  5000   0.776E+02 0.425E+01
 gam= 0.515 trial= 0.416  step= 0.534 mean= 0.416
 gam= 0.598 g(H,U,f)=  0.346E+02 0.117E+02 0.115E+00 ort(H,U,f) =-0.943E+01 0.997E+01 0.762E+00
CGA:  17    -0.916008530366E+03   -0.21363E+02   -0.21311E+02  5000   0.464E+02 0.130E+01
 gam= 0.598 trial= 0.421  step= 0.570 mean= 0.421
 gam= 0.634 g(H,U,f)=  0.236E+02 0.580E+01 0.227E-16 ort(H,U,f) =-0.902E+01 0.890E+01 0.107E-15
CGA:  18    -0.929440008315E+03   -0.13431E+02   -0.13445E+02  5000   0.294E+02-0.126E+00
 gam= 0.634 trial= 0.429  step= 0.524 mean= 0.429
 gam= 0.567 g(H,U,f)=  0.138E+02 0.290E+01 0.616E-11 ort(H,U,f) =-0.452E+01 0.432E+01 0.243E-10
CGA:  19    -0.937105114688E+03   -0.76651E+01   -0.76821E+01  5000   0.167E+02-0.200E+00
 gam= 0.567 trial= 0.434  step= 0.521 mean= 0.434
 gam= 0.557 g(H,U,f)=  0.777E+01 0.152E+01 0.204E-16 ort(H,U,f) =-0.128E+01 0.141E+01 0.176E-15
CGA:  20    -0.941423926673E+03   -0.43188E+01   -0.43140E+01  5000   0.929E+01 0.131E+00
 gam= 0.557 trial= 0.438  step= 0.513 mean= 0.438
 gam= 0.489 g(H,U,f)=  0.381E+01 0.735E+00 0.649E-12 ort(H,U,f) =-0.181E+00 0.326E+00-0.256E-11
CGA:  21    -0.943830880726E+03   -0.24070E+01   -0.24006E+01  5000   0.454E+01 0.145E+00
 gam= 0.489 trial= 0.442  step= 0.521 mean= 0.442
 gam= 0.603 g(H,U,f)=  0.227E+01 0.472E+00 0.181E-13 ort(H,U,f) =-0.982E-01 0.154E+00-0.743E-14
CGA:  22    -0.945035192729E+03   -0.12043E+01   -0.12017E+01  5000   0.274E+01 0.560E-01
 gam= 0.603 trial= 0.446  step= 0.518 mean= 0.446
 gam= 0.567 g(H,U,f)=  0.124E+01 0.313E+00 0.212E-12 ort(H,U,f) =-0.178E+00 0.195E+00 0.231E-12
CGA:  23    -0.945752883251E+03   -0.71769E+00   -0.71707E+00  5000   0.155E+01 0.165E-01
 gam= 0.567 trial= 0.449  step= 0.465 mean= 0.449
 gam= 0.529 g(H,U,f)=  0.632E+00 0.188E+00 0.436E-14 ort(H,U,f) =-0.216E+00 0.219E+00 0.146E-13
CGA:  24    -0.946115554277E+03   -0.36267E+00   -0.36266E+00  5000   0.821E+00 0.300E-02
 gam= 0.529 trial= 0.450  step= 0.554 mean= 0.450
 gam= 0.611 g(H,U,f)=  0.408E+00 0.938E-01 0.568E-17 ort(H,U,f) =-0.139E+00 0.140E+00 0.547E-16
CGA:  25    -0.946343432811E+03   -0.22788E+00   -0.22788E+00  5000   0.501E+00 0.589E-03
 gam= 0.611 trial= 0.455  step= 0.553 mean= 0.455
 gam= 0.507 g(H,U,f)=  0.214E+00 0.408E-01 0.816E-14 ort(H,U,f) =-0.545E-01 0.553E-01 0.184E-12
CGA:  26    -0.946482172816E+03   -0.13874E+00   -0.13870E+00  5000   0.254E+00 0.843E-03
 gam= 0.507 trial= 0.460  step= 0.567 mean= 0.460
 gam= 0.585 g(H,U,f)=  0.125E+00 0.242E-01 0.122E-18 ort(H,U,f) =-0.123E-01 0.127E-01-0.375E-17
CGA:  27    -0.946554496375E+03   -0.72324E-01   -0.72303E-01  5000   0.149E+00 0.366E-03
 gam= 0.585 trial= 0.465  step= 0.568 mean= 0.465
 gam= 0.600 g(H,U,f)=  0.731E-01 0.163E-01 0.138E-13 ort(H,U,f) =-0.331E-02 0.331E-02 0.437E-13
CGA:  28    -0.946596815775E+03   -0.42319E-01   -0.42321E-01  5000   0.894E-01 0.543E-05
 gam= 0.600 trial= 0.471  step= 0.490 mean= 0.471
 gam= 0.521 g(H,U,f)=  0.360E-01 0.105E-01 0.181E-13 ort(H,U,f) =-0.357E-02 0.360E-02 0.928E-13
CGA:  29    -0.946618732499E+03   -0.21917E-01   -0.21917E-01  5000   0.466E-01 0.264E-04
 gam= 0.521 trial= 0.472  step= 0.508 mean= 0.472
 gam= 0.603 g(H,U,f)=  0.211E-01 0.696E-02 0.547E-14 ort(H,U,f) =-0.494E-02 0.504E-02 0.769E-14
CGA:  30    -0.946630558235E+03   -0.11826E-01   -0.11824E-01  5000   0.281E-01 0.101E-03
 gam= 0.603 trial= 0.473  step= 0.555 mean= 0.473
 gam= 0.579 g(H,U,f)=  0.127E-01 0.354E-02 0.987E-15 ort(H,U,f) =-0.432E-02 0.443E-02-0.384E-15
CGA:  31    -0.946638363532E+03   -0.78053E-02   -0.78002E-02  5000   0.162E-01 0.120E-03
 gam= 0.579 trial= 0.477  step= 0.553 mean= 0.477
 gam= 0.555 g(H,U,f)=  0.750E-02 0.151E-02 0.349E-15 ort(H,U,f) =-0.216E-02 0.222E-02 0.220E-15
CGA:  32    -0.946642874014E+03   -0.45105E-02   -0.45082E-02  5000   0.901E-02 0.594E-04
 gam= 0.555 trial= 0.481  step= 0.599 mean= 0.481
 gam= 0.627 g(H,U,f)=  0.489E-02 0.762E-03 0.925E-15 ort(H,U,f) =-0.543E-03 0.541E-03 0.139E-14
CGA:  33    -0.946645582959E+03   -0.27089E-02   -0.27091E-02  5000   0.565E-02-0.213E-05
 gam= 0.627 trial= 0.487  step= 0.537 mean= 0.487
 gam= 0.546 g(H,U,f)=  0.259E-02 0.492E-03 0.557E-23 ort(H,U,f) =-0.260E-04 0.727E-05-0.508E-22
CGA:  34    -0.946647099128E+03   -0.15162E-02   -0.15166E-02  5000   0.308E-02-0.187E-04
 gam= 0.546 trial= 0.490  step= 0.509 mean= 0.490
 gam= 0.577 g(H,U,f)=  0.139E-02 0.387E-03 0.425E-20 ort(H,U,f) =-0.688E-04 0.641E-04-0.107E-19
CGA:  35    -0.946647881063E+03   -0.78194E-03   -0.78198E-03  5000   0.178E-02-0.474E-05
 gam= 0.577 trial= 0.491  step= 0.528 mean= 0.491
 gam= 0.581 g(H,U,f)=  0.775E-03 0.259E-03 0.403E-17 ort(H,U,f) =-0.171E-03 0.175E-03-0.136E-17
CGA:  36    -0.946648349966E+03   -0.46890E-03   -0.46884E-03  5000   0.103E-02 0.338E-05
 gam= 0.581 trial= 0.492  step= 0.546 mean= 0.492
 gam= 0.000 g(H,U,f)=  0.452E-03 0.136E-03 0.238E-14 ort(H,U,f) =-0.158E-03 0.157E-03 0.196E-14
SDA:  37    -0.946648632659E+03   -0.28269E-03   -0.28271E-03  5000   0.587E-03-0.531E-06
 gam= 0.000 trial= 0.495  step= 0.973 mean= 0.495
 gam= 0.482 g(H,U,f)=  0.231E-03 0.521E-04 0.280E-16 ort(H,U,f) =-0.877E-04 0.749E-04 0.449E-16
CGA:  38    -0.946648915369E+03   -0.28271E-03   -0.28577E-03  5000   0.283E-03-0.128E-04
 gam= 0.482 trial= 0.519  step= 0.615 mean= 0.519
 gam= 0.441 g(H,U,f)=  0.108E-03 0.170E-04 0.155E-16 ort(H,U,f) =-0.502E-04 0.505E-04 0.496E-16
CGA:  39    -0.946649000537E+03   -0.85168E-04   -0.85155E-04  5000   0.125E-03 0.288E-06
 gam= 0.441 trial= 0.524  step= 0.527 mean= 0.524
 gam= 0.338 g(H,U,f)=  0.376E-04 0.458E-05 0.161E-23 ort(H,U,f) =-0.173E-04 0.194E-04 0.585E-23
CGA:  40    -0.946649033458E+03   -0.32921E-04   -0.32917E-04  5000   0.422E-04 0.207E-05
 gam= 0.338 trial= 0.524  step= 0.513 mean= 0.524
 gam= 0.376 g(H,U,f)=  0.147E-04 0.119E-05 0.265E-22 ort(H,U,f) =-0.584E-05 0.543E-05 0.117E-21
CGA:  41    -0.946649044452E+03   -0.10994E-04   -0.10992E-04  5000   0.158E-04-0.410E-06
 gam= 0.376 trial= 0.523  step= 0.556 mean= 0.523
 gam= 0.419 g(H,U,f)=  0.644E-05 0.199E-06 0.621E-22 ort(H,U,f) =-0.280E-05 0.110E-05 0.893E-21
CGA:  42    -0.946649048787E+03   -0.43343E-05   -0.43619E-05  5000   0.664E-05-0.170E-05
 gam= 0.419 trial= 0.525  step= 0.512 mean= 0.525
 final diagonalization
   1 F= -.94664905E+03 E0= -.94664905E+03  d E =-.701255E-16
 writing wavefunctions
Warning: ieee_invalid is signaling
Warning: ieee_divide_by_zero is signaling
Warning: ieee_underflow is signaling
Warning: ieee_inexact is signaling
FORTRAN STOP
Warning: ieee_invalid is signaling
Warning: ieee_divide_by_zero is signaling
Warning: ieee_underflow is signaling
Warning: ieee_inexact is signaling
FORTRAN STOP
Warning: ieee_invalid is signaling
Warning: ieee_divide_by_zero is signaling
Warning: ieee_underflow is signaling
Warning: ieee_inexact is signaling
FORTRAN STOP
Warning: ieee_invalid is signaling
Warning: ieee_divide_by_zero is signaling
Warning: ieee_underflow is signaling
Warning: ieee_inexact is signaling
FORTRAN STOP
