       N       E                     dE             d eps       ncg     rms          ort
DAV:   1    -0.183717825196E+05   -0.18372E+05   -0.54225E+05  5000   0.749E+03
DAV:   2    -0.627730214164E+05   -0.44401E+05   -0.42893E+05  5000   0.124E+03
DAV:   3    -0.678566069066E+05   -0.50836E+04   -0.45948E+04  5000   0.376E+02
DAV:   4    -0.686291505676E+05   -0.77254E+03   -0.69190E+03  5000   0.120E+02
DAV:   5    -0.390388872254E+05    0.29590E+05   -0.68120E+02  5000   0.567E+01
SDA:   6     0.352232884121E+05    0.74262E+05   -0.68120E+02  5000   0.113E+06 0.000E+00
CGA:   7     0.119236834037E+05   -0.23300E+05   -0.24533E+05  5000   0.669E+05-0.242E+05
CGA:   8     0.471202014257E+04   -0.72117E+04   -0.69280E+04  5000   0.202E+05 0.238E+04
CGA:   9     0.319209544725E+04   -0.15199E+04   -0.23513E+04  5000   0.165E+05 0.119E+04
CGA:  10     0.141281344917E+04   -0.17793E+04   -0.22028E+04  5000   0.510E+04 0.105E+04
CGA:  11     0.346236091706E+03   -0.10666E+04   -0.10593E+04  5000   0.220E+04 0.690E+03
CGA:  12    -0.287120810860E+03   -0.63336E+03   -0.62672E+03  5000   0.105E+04 0.926E+02
CGA:  13    -0.641582602018E+03   -0.35446E+03   -0.35950E+03  5000   0.572E+03-0.498E+02
CGA:  14    -0.798463792101E+03   -0.15688E+03   -0.16409E+03  5000   0.294E+03-0.646E+02
CGA:  15    -0.860240358396E+03   -0.61777E+02   -0.61948E+02  5000   0.151E+03-0.502E+01
CGA:  16    -0.894645897717E+03   -0.34406E+02   -0.34220E+02  5000   0.776E+02 0.425E+01
CGA:  17    -0.916008530366E+03   -0.21363E+02   -0.21311E+02  5000   0.464E+02 0.130E+01
CGA:  18    -0.929440008315E+03   -0.13431E+02   -0.13445E+02  5000   0.294E+02-0.126E+00
CGA:  19    -0.937105114688E+03   -0.76651E+01   -0.76821E+01  5000   0.167E+02-0.200E+00
CGA:  20    -0.941423926673E+03   -0.43188E+01   -0.43140E+01  5000   0.929E+01 0.131E+00
CGA:  21    -0.943830880726E+03   -0.24070E+01   -0.24006E+01  5000   0.454E+01 0.145E+00
CGA:  22    -0.945035192729E+03   -0.12043E+01   -0.12017E+01  5000   0.274E+01 0.560E-01
CGA:  23    -0.945752883251E+03   -0.71769E+00   -0.71707E+00  5000   0.155E+01 0.165E-01
CGA:  24    -0.946115554277E+03   -0.36267E+00   -0.36266E+00  5000   0.821E+00 0.300E-02
CGA:  25    -0.946343432811E+03   -0.22788E+00   -0.22788E+00  5000   0.501E+00 0.589E-03
CGA:  26    -0.946482172816E+03   -0.13874E+00   -0.13870E+00  5000   0.254E+00 0.843E-03
CGA:  27    -0.946554496375E+03   -0.72324E-01   -0.72303E-01  5000   0.149E+00 0.366E-03
CGA:  28    -0.946596815775E+03   -0.42319E-01   -0.42321E-01  5000   0.894E-01 0.543E-05
CGA:  29    -0.946618732499E+03   -0.21917E-01   -0.21917E-01  5000   0.466E-01 0.264E-04
CGA:  30    -0.946630558235E+03   -0.11826E-01   -0.11824E-01  5000   0.281E-01 0.101E-03
CGA:  31    -0.946638363532E+03   -0.78053E-02   -0.78002E-02  5000   0.162E-01 0.120E-03
CGA:  32    -0.946642874014E+03   -0.45105E-02   -0.45082E-02  5000   0.901E-02 0.594E-04
CGA:  33    -0.946645582959E+03   -0.27089E-02   -0.27091E-02  5000   0.565E-02-0.213E-05
CGA:  34    -0.946647099128E+03   -0.15162E-02   -0.15166E-02  5000   0.308E-02-0.187E-04
CGA:  35    -0.946647881063E+03   -0.78194E-03   -0.78198E-03  5000   0.178E-02-0.474E-05
CGA:  36    -0.946648349966E+03   -0.46890E-03   -0.46884E-03  5000   0.103E-02 0.338E-05
SDA:  37    -0.946648632659E+03   -0.28269E-03   -0.28271E-03  5000   0.587E-03-0.531E-06
CGA:  38    -0.946648915369E+03   -0.28271E-03   -0.28577E-03  5000   0.283E-03-0.128E-04
CGA:  39    -0.946649000537E+03   -0.85168E-04   -0.85155E-04  5000   0.125E-03 0.288E-06
CGA:  40    -0.946649033458E+03   -0.32921E-04   -0.32917E-04  5000   0.422E-04 0.207E-05
CGA:  41    -0.946649044452E+03   -0.10994E-04   -0.10992E-04  5000   0.158E-04-0.410E-06
CGA:  42    -0.946649048787E+03   -0.43343E-05   -0.43619E-05  5000   0.664E-05-0.170E-05
   1 F= -.94664905E+03 E0= -.94664905E+03  d E =-.701255E-16
