 vasp.6.4.2 20Jul23 (build Nov 12 2023 22:16:35) complex                         
 executed on              LinuxNV date 2025.03.29  18:24:26
 running    4 mpi-ranks, on    1 nodes
 distrk:  each k-point on    1 cores,    4 groups
 distr:  one band on NCORE=   1 cores,    1 groups
 OpenACC runtime initialized ...    4 GPUs detected


--------------------------------------------------------------------------------------------------------


 INCAR:
   PREC = Normal
   ENCUT = 450
   NELM = 500
   IBRION = -1
   ISPIN = 1
   NSW = 0
   ISIF = 2
   EDIFF = 1E-5
   EDIFFG = -5E-3
   ISTART = 0
   ICHARG = 0
   ISMEAR = 0
   SIGMA = 0.05
   LWAVE = .T.
   LCHARG = .T.
   LREAL = Auto
   LPLANE = .TRUE.
   NPAR = 1
   KPAR = 4
   NCORE = 1
   ALGO = All
   LHFCALC = .TRUE.
   HSE06 = .TRUE.
   HFSCREEN = 0.2
   TIME = 0.4
   AEXX = 0.32
   LMAXFOCK = 4
   PRECFOCK = Fast

 POTCAR:    PAW_PBE Ga_d 06Jul2010                
 POTCAR:     PAW_PBE O 08Apr2002                  
 POTCAR:    PAW_PBE P 06Sep2000                   
 POTCAR:    PAW_PBE Ga_d 06Jul2010                
   SHA256 =  a60ddf36e14f00ea098d9e3914b3745f1b7105e68786148f49ae384e44b4226c Ga_d/POTCAR           
   COPYR  = (c) Copyright 06Jul2010 Georg Kresse                                                    
   COPYR  = This file is part of the software VASP. Any use, copying, and all other rights are regul
   COPYR  = If you do not have a valid VASP license, you may not use, copy or distribute this file. 
   VRHFIN =Ga: s2p1                                                                                 
   LEXCH  = PE                                                                                      
   EATOM  =  2148.8298 eV,  157.9345 Ry                                                             
                                                                                                    
   TITEL  = PAW_PBE Ga_d 06Jul2010                                                                  
   LULTRA =        F    use ultrasoft PP ?                                                          
   IUNSCR =        1    unscreen: 0-lin 1-nonlin 2-no                                               
   RPACOR =    1.700    partial core radius                                                         
   POMASS =   69.723; ZVAL   =   13.000    mass and valenz                                          
   RCORE  =    2.300    outmost cutoff radius                                                       
   RWIGS  =    2.300; RWIGS  =    1.217    wigner-seitz radius (au A)                               
   ENMAX  =  282.691; ENMIN  =  212.018 eV                                                          
   ICORE  =        3    local potential                                                             
   LCOR   =        T    correct aug charges                                                         
   LPAW   =        T    paw PP                                                                      
   EAUG   =  490.690                                                                                
   DEXC   =    0.000                                                                                
   RMAX   =    2.341    core radius for proj-oper                                                   
   RAUG   =    1.300    factor for augmentation sphere                                              
   RDEP   =    2.413    radius for radial grids                                                     
   RDEPT  =    1.856    core radius for aug-charge                                                  
                                                                                                    
   Atomic configuration                                                                             
    9 entries                                                                                       
     n  l   j            E        occ.                                                              
     1  0  0.50    -10228.7831   2.0000                                                             
     2  0  0.50     -1262.1604   2.0000                                                             
     2  1  1.50     -1098.6333   6.0000                                                             
     3  0  0.50      -148.1110   2.0000                                                             
     3  1  1.50       -98.8436   6.0000                                                             
     3  2  2.50       -19.1549  10.0000                                                             
     4  0  0.50        -8.9483   2.0000                                                             
     4  1  0.50        -2.5791   1.0000                                                             
     4  3  2.50        -2.7416   0.0000                                                             
   Description                                                                                      
     l       E           TYP  RCUT    TYP  RCUT                                                     
     2    -19.1549037     23  2.300                                                                 
     2     -5.4423304     23  2.300                                                                 
     0     -8.9483111     23  2.300                                                                 
     0     68.0291300     23  2.300                                                                 
     1     -2.5790802     23  2.100                                                                 
     1     81.6349560     23  2.300                                                                 
     3      6.8029130     23  2.300                                                                 
  local pseudopotential read in
  partial core-charges read in
  partial kinetic energy density read in
  atomic valenz-charges read in
  non local Contribution for L=            2  read in
    real space projection operators read in
  non local Contribution for L=            2  read in
    real space projection operators read in
  non local Contribution for L=            0  read in
    real space projection operators read in
  non local Contribution for L=            0  read in
    real space projection operators read in
  non local Contribution for L=            1  read in
    real space projection operators read in
  non local Contribution for L=            1  read in
    real space projection operators read in
    PAW grid and wavefunctions read in
 
   number of l-projection  operators is LMAX  =            6
   number of lm-projection operators is LMMAX =           18
 
 POTCAR:     PAW_PBE O 08Apr2002                  
   SHA256 =  818f92134a0a090dccd8ba1447fa70422a3b330e708bb4f08108d8ae51209ddf O/POTCAR              
   COPYR  = (c) Copyright 08Apr2002 Georg Kresse                                                    
   COPYR  = This file is part of the software VASP. Any use, copying, and all other rights are regul
   COPYR  = If you do not have a valid VASP license, you may not use, copy or distribute this file. 
   VRHFIN =O: s2p4                                                                                  
   LEXCH  = PE                                                                                      
   EATOM  =   432.3788 eV,   31.7789 Ry                                                             
                                                                                                    
   TITEL  = PAW_PBE O 08Apr2002                                                                     
   LULTRA =        F    use ultrasoft PP ?                                                          
   IUNSCR =        1    unscreen: 0-lin 1-nonlin 2-no                                               
   RPACOR =    1.200    partial core radius                                                         
   POMASS =   16.000; ZVAL   =    6.000    mass and valenz                                          
   RCORE  =    1.520    outmost cutoff radius                                                       
   RWIGS  =    1.550; RWIGS  =    0.820    wigner-seitz radius (au A)                               
   ENMAX  =  400.000; ENMIN  =  300.000 eV                                                          
   ICORE  =        2    local potential                                                             
   LCOR   =        T    correct aug charges                                                         
   LPAW   =        T    paw PP                                                                      
   EAUG   =  605.392                                                                                
   DEXC   =    0.000                                                                                
   RMAX   =    1.553    core radius for proj-oper                                                   
   RAUG   =    1.300    factor for augmentation sphere                                              
   RDEP   =    1.550    radius for radial grids                                                     
   RDEPT  =    1.329    core radius for aug-charge                                                  
                                                                                                    
   Atomic configuration                                                                             
    4 entries                                                                                       
     n  l   j            E        occ.                                                              
     1  0  0.50      -514.6923   2.0000                                                             
     2  0  0.50       -23.9615   2.0000                                                             
     2  1  0.50        -9.0305   4.0000                                                             
     3  2  1.50        -9.5241   0.0000                                                             
   Description                                                                                      
     l       E           TYP  RCUT    TYP  RCUT                                                     
     0    -23.9615318     23  1.200                                                                 
     0     -9.5240782     23  1.200                                                                 
     1     -9.0304911     23  1.520                                                                 
     1      8.1634956     23  1.520                                                                 
     2     -9.5240782      7  1.500                                                                 
  local pseudopotential read in
  partial core-charges read in
  partial kinetic energy density read in
  kinetic energy density of atom read in
  atomic valenz-charges read in
  non local Contribution for L=            0  read in
    real space projection operators read in
  non local Contribution for L=            0  read in
    real space projection operators read in
  non local Contribution for L=            1  read in
    real space projection operators read in
  non local Contribution for L=            1  read in
    real space projection operators read in
    PAW grid and wavefunctions read in
 
   number of l-projection  operators is LMAX  =            4
   number of lm-projection operators is LMMAX =            8
 
 POTCAR:    PAW_PBE P 06Sep2000                   
   SHA256 =  df60c54a93efe35c9e85ae94c010c75e9f6960a95d5595d7cdba4096d109af88 P/POTCAR              
   COPYR  = (c) Copyright 06Sep2000 Georg Kresse                                                    
   COPYR  = This file is part of the software VASP. Any use, copying, and all other rights are regul
   COPYR  = If you do not have a valid VASP license, you may not use, copy or distribute this file. 
   VRHFIN =P : s2p3                                                                                 
   LEXCH  = PE                                                                                      
   EATOM  =   176.0430 eV,   12.9388 Ry                                                             
                                                                                                    
   TITEL  = PAW_PBE P 06Sep2000                                                                     
   LULTRA =        F    use ultrasoft PP ?                                                          
   IUNSCR =        1    unscreen: 0-lin 1-nonlin 2-no                                               
   RPACOR =    1.500    partial core radius                                                         
   POMASS =   30.974; ZVAL   =    5.000    mass and valenz                                          
   RCORE  =    1.900    outmost cutoff radius                                                       
   RWIGS  =    2.330; RWIGS  =    1.233    wigner-seitz radius (au A)                               
   ENMAX  =  255.040; ENMIN  =  191.280 eV                                                          
   ICORE  =        2    local potential                                                             
   LCOR   =        T    correct aug charges                                                         
   LPAW   =        T    paw PP                                                                      
   EAUG   =  342.924                                                                                
   DEXC   =    0.000                                                                                
   RMAX   =    1.935    core radius for proj-oper                                                   
   RAUG   =    1.300    factor for augmentation sphere                                              
   RDEP   =    1.931    radius for radial grids                                                     
   RDEPT  =    1.794    core radius for aug-charge                                                  
                                                                                                    
   Atomic configuration                                                                             
    6 entries                                                                                       
     n  l   j            E        occ.                                                              
     1  0  0.50     -2084.0982   2.0000                                                             
     2  0  0.50      -173.9859   2.0000                                                             
     2  1  1.50      -124.4865   6.0000                                                             
     3  0  0.50       -13.9692   2.0000                                                             
     3  1  0.50        -5.5067   3.0000                                                             
     3  2  1.50        -5.4423   0.0000                                                             
   Description                                                                                      
     l       E           TYP  RCUT    TYP  RCUT                                                     
     0    -13.9691527     23  1.900                                                                 
     0    -11.7794650     23  1.900                                                                 
     1     -5.5066937     23  1.900                                                                 
     1     -0.2556953     23  1.900                                                                 
     2     -5.4423304     23  1.900                                                                 
  local pseudopotential read in
  partial core-charges read in
  partial kinetic energy density read in
  atomic valenz-charges read in
  non local Contribution for L=            0  read in
    real space projection operators read in
  non local Contribution for L=            0  read in
    real space projection operators read in
  non local Contribution for L=            1  read in
    real space projection operators read in
  non local Contribution for L=            1  read in
    real space projection operators read in
    PAW grid and wavefunctions read in
 
   number of l-projection  operators is LMAX  =            4
   number of lm-projection operators is LMMAX =            8
 
 Optimization of the real space projectors (new method)

 maximal supplied QI-value         = 16.25
 optimisation between [QCUT,QGAM] = [ 10.73, 21.61] = [ 32.22,130.83] Ry 
 Optimized for a Real-space Cutoff    1.42 Angstroem

   l    n(q)    QCUT    max X(q) W(low)/X(q) W(high)/X(q)  e(spline) 
   2      8    10.726     7.143    0.22E-03    0.16E-03    0.73E-07
   2      8    10.726     5.586    0.40E-03    0.26E-03    0.10E-06
   0      9    10.726    12.382    0.25E-04    0.21E-05    0.37E-07
   0      9    10.726     6.622    0.42E-04    0.48E-05    0.77E-07
   1      9    10.726     7.935    0.27E-03    0.13E-04    0.16E-06
   1      9    10.726     2.425    0.23E-03    0.15E-04    0.14E-06
 Optimization of the real space projectors (new method)

 maximal supplied QI-value         = 24.76
 optimisation between [QCUT,QGAM] = [ 10.64, 21.54] = [ 31.73,129.89] Ry 
 Optimized for a Real-space Cutoff    1.23 Angstroem

   l    n(q)    QCUT    max X(q) W(low)/X(q) W(high)/X(q)  e(spline) 
   0      8    10.645    20.381    0.38E-03    0.60E-03    0.15E-06
   0      8    10.645    15.268    0.40E-03    0.65E-03    0.17E-06
   1      7    10.645     5.964    0.30E-03    0.63E-03    0.18E-06
   1      7    10.645     5.382    0.24E-03    0.53E-03    0.16E-06
 Optimization of the real space projectors (new method)

 maximal supplied QI-value         = 19.84
 optimisation between [QCUT,QGAM] = [ 10.71, 21.63] = [ 32.15,130.99] Ry 
 Optimized for a Real-space Cutoff    1.19 Angstroem

   l    n(q)    QCUT    max X(q) W(low)/X(q) W(high)/X(q)  e(spline) 
   0      8    10.715   160.924    0.37E-03    0.37E-04    0.63E-07
   0      8    10.715   130.086    0.37E-03    0.36E-04    0.63E-07
   1      7    10.715    74.434    0.19E-03    0.56E-03    0.65E-07
   1      7    10.715    49.120    0.19E-03    0.55E-03    0.63E-07
  PAW_PBE Ga_d 06Jul2010                :
 energy of atom  1       EATOM=-2148.8298
 kinetic energy error for atom=    0.0038 (will be added to EATOM!!)
   PAW_PBE O 08Apr2002                  :
 energy of atom  2       EATOM= -432.3788
 kinetic energy error for atom=    0.0389 (will be added to EATOM!!)
  PAW_PBE P 06Sep2000                   :
 energy of atom  3       EATOM= -176.0430
 kinetic energy error for atom=    0.0019 (will be added to EATOM!!)
 
 
 POSCAR: Ga48 O72
  positions in direct lattice
  velocities in cartesian coordinates
 exchange correlation table for  LEXCH =        8
   RHO(1)=    0.500       N(1)  =     2000
   RHO(2)=  100.500       N(2)  =     4000
 


--------------------------------------------------------------------------------------------------------


 ion  position               nearest neighbor table
   1  0.658  0.998  0.156-  84 1.95  78 1.95  82 1.96  66 2.02  64 2.08  60 2.08
   2  0.662  0.999  0.656-  85 1.93  83 1.95  79 1.96  67 2.02  61 2.08  65 2.08
   3  0.658  0.330  0.156-  86 1.94  78 1.95  80 1.96  68 2.04  60 2.07  62 2.08
   4  0.660  0.332  0.657-  87 1.92  79 1.96  81 1.96  69 2.02  61 2.07  63 2.08
   5  0.658  0.665  0.156-  88 1.95  82 1.95  80 1.95  70 2.02  62 2.08  64 2.08
   6  0.662  0.665  0.656-  89 1.94  83 1.95  81 1.96  71 2.01  63 2.07  65 2.09
   7  0.844  0.164  0.341-  72 1.94  90 1.97  74 1.97  60 2.05  68 2.06  66 2.06
   8  0.842  0.162  0.845-  75 1.94  73 1.94  91 1.95  61 2.02  67 2.05  69 2.11
   9  0.840  0.501  0.341-  92 1.95  74 1.95  76 1.97  62 2.01  70 2.04  68 2.09
  10  0.842  0.498  0.844-  77 1.94  93 1.95  75 1.96  63 2.02  69 2.05  71 2.10
  11  0.842  0.834  0.343-  94 1.91  76 1.95  72 1.98  64 2.04  66 2.06  70 2.11
  12  0.841  0.830  0.845-  95 1.93  73 1.95  77 1.95  65 2.02  71 2.06  67 2.13
  13  0.593  0.164  0.397-  79 1.85  54 1.85  56 1.85  60 1.87
  14  0.591  0.164  0.897-  78 1.84  57 1.84  55 1.84  61 1.87
  15  0.592  0.497  0.398-  58 1.85  81 1.85  56 1.85  62 1.87
  16  0.593  0.501  0.898-  57 1.84  80 1.84  59 1.85  63 1.87
  17  0.591  0.831  0.397-  83 1.85  54 1.85  58 1.85  64 1.87
  18  0.589  0.832  0.896-  55 1.84  82 1.85  59 1.85  65 1.88
  19  0.911  0.996  0.104-  52 1.84  48 1.85  73 1.85  66 1.87
  20  0.909  0.009  0.602-  72 1.83  53 1.84  67 1.86  49 1.92
  21  0.909  0.330  0.102-  75 1.84  48 1.84  50 1.85  68 1.87
  22  0.900  0.351  0.599-  74 1.82  51 1.84  69 1.85  49 1.90
  23  0.909  0.663  0.102-  52 1.84  77 1.84  50 1.85  70 1.87
  24  0.909  0.680  0.602-  76 1.85  51 1.85  53 1.85  71 1.88
  25  0.159  0.160  0.159-  48 1.94 114 1.95 115 1.98 102 2.03  96 2.07  98 2.08
  26  0.160  0.496  0.155- 117 1.94  50 1.95 115 1.96 104 2.02 100 2.07  98 2.09
  27  0.156  0.520  0.657- 118 1.88 101 1.92  51 1.94 116 2.01 105 2.03  99 2.23
  28  0.160  0.830  0.159-  52 1.94 114 1.95 117 1.97 106 2.03 100 2.06  96 2.08
  29  0.161  0.867  0.628-  53 2.00 118 2.01 107 2.03  97 2.05  36 2.56
  30  0.340  0.997  0.343- 112 1.95  54 1.95 108 1.98  96 2.00 102 2.07 106 2.09
  31  0.337  0.001  0.838-  97 1.96  55 1.98 109 1.98 113 1.98 103 2.04 107 2.09
  32  0.342  0.329  0.344-  56 1.94 110 1.96 108 1.97  98 2.03 102 2.06 104 2.08
  33  0.347  0.329  0.839-  57 1.92 111 1.95 109 1.96 103 1.97 105 2.07  99 2.23
  34  0.341  0.663  0.342-  58 1.95 112 1.95 110 1.97 100 2.02 106 2.07 104 2.08
  35  0.338  0.666  0.841- 113 1.93 101 1.96  59 1.96 111 1.98 105 2.12 107 2.15
  36  0.107  0.986  0.423-  94 1.93  90 1.94  96 1.98  29 2.56
  37  0.094  0.989  0.896-  97 1.84  95 1.85 114 1.85  91 1.87
  38  0.086  0.326  0.391-  90 1.83  92 1.84  98 1.85 116 1.92
  39  0.090  0.323  0.898-  91 1.83 115 1.84  93 1.84  99 1.95
  40  0.088  0.665  0.393-  94 1.84 118 1.85  92 1.85 100 1.87
  41  0.092  0.660  0.898- 117 1.84  95 1.85 101 1.85  93 1.85
  42  0.407  0.164  0.100- 109 1.84  84 1.85  86 1.85 102 1.88
  43  0.413  0.165  0.604- 103 1.84  85 1.85  87 1.85 108 1.85
  44  0.408  0.496  0.099-  86 1.85  88 1.85 111 1.85 104 1.88
  45  0.410  0.499  0.601- 110 1.84  87 1.84  89 1.84 105 1.88
  46  0.409  0.831  0.100- 113 1.84  84 1.85  88 1.85 106 1.87
  47  0.414  0.831  0.601- 112 1.84  89 1.84  85 1.84 107 1.87
  48  0.997  0.164  0.129-  21 1.84  19 1.85  25 1.94
  49  0.996  0.186  0.628- 119 1.73  22 1.90  20 1.92
  50  0.997  0.497  0.127-  21 1.85  23 1.85  26 1.95
  51  0.994  0.511  0.627-  22 1.84  24 1.85  27 1.94
  52  0.997  0.829  0.125-  19 1.84  23 1.84  28 1.94
  53  0.998  0.845  0.626-  20 1.84  24 1.85  29 2.00
  54  0.504  0.999  0.373-  13 1.85  17 1.85  30 1.95
  55  0.502  0.999  0.872-  18 1.84  14 1.84  31 1.98
  56  0.504  0.330  0.374-  15 1.85  13 1.85  32 1.94
  57  0.508  0.334  0.874-  16 1.84  14 1.84  33 1.92
  58  0.504  0.663  0.373-  15 1.85  17 1.85  34 1.95
  59  0.501  0.665  0.869-  16 1.85  18 1.85  35 1.96
  60  0.673  0.165  0.280-  13 1.87   7 2.05   3 2.07   1 2.08
  61  0.674  0.165  0.780-  14 1.87   8 2.02   4 2.07   2 2.08
  62  0.672  0.498  0.280-  15 1.87   9 2.01   5 2.08   3 2.08
  63  0.674  0.500  0.780-  16 1.87  10 2.02   6 2.07   4 2.08
  64  0.673  0.832  0.280-  17 1.87  11 2.04   1 2.08   5 2.08
  65  0.674  0.833  0.781-  18 1.88  12 2.02   2 2.08   6 2.09
  66  0.827  0.998  0.219-  19 1.87   1 2.02  11 2.06   7 2.06
  67  0.830  0.002  0.719-  20 1.86   2 2.02   8 2.05  12 2.13
  68  0.829  0.330  0.219-  21 1.87   3 2.04   7 2.06   9 2.09
  69  0.827  0.333  0.721-  22 1.85   4 2.02  10 2.05   8 2.11
  70  0.826  0.663  0.218-  23 1.87   5 2.02   9 2.04  11 2.11
  71  0.829  0.668  0.720-  24 1.88   6 2.01  12 2.06  10 2.10
  72  0.832  0.003  0.447-  20 1.83   7 1.94  11 1.98
  73  0.833  0.997  0.947-  19 1.85   8 1.94  12 1.95
  74  0.832  0.333  0.443-  22 1.82   9 1.95   7 1.97
  75  0.834  0.330  0.945-  21 1.84   8 1.94  10 1.96
  76  0.832  0.668  0.445-  24 1.85  11 1.95   9 1.97
  77  0.832  0.662  0.946-  23 1.84  10 1.94  12 1.95
  78  0.668  0.164  0.054-  14 1.84   1 1.95   3 1.95
  79  0.670  0.166  0.554-  13 1.85   2 1.96   4 1.96
  80  0.669  0.498  0.054-  16 1.84   5 1.95   3 1.96
  81  0.672  0.498  0.554-  15 1.85   6 1.96   4 1.96
  82  0.666  0.831  0.053-  18 1.85   5 1.95   1 1.96
  83  0.669  0.832  0.554-  17 1.85   6 1.95   2 1.95
  84  0.495  0.998  0.127-  42 1.85  46 1.85   1 1.95
  85  0.500  0.998  0.626-  47 1.84  43 1.85   2 1.93
  86  0.496  0.330  0.126-  44 1.85  42 1.85   3 1.94
  87  0.498  0.334  0.626-  45 1.84  43 1.85   4 1.92
  88  0.495  0.663  0.125-  44 1.85  46 1.85   5 1.95
  89  0.499  0.663  0.627-  47 1.84  45 1.84   6 1.94
  90  0.009  0.154  0.381-  38 1.83  36 1.94   7 1.97
  91  0.004  0.156  0.871-  39 1.83  37 1.87   8 1.95
  92  0.003  0.495  0.372-  38 1.84  40 1.85   9 1.95
  93  0.005  0.492  0.872-  39 1.84  41 1.85  10 1.95
  94  0.001  0.831  0.365-  40 1.84  11 1.91  36 1.93
  95  0.003  0.825  0.873-  41 1.85  37 1.85  12 1.93
  96  0.173  0.995  0.284-  36 1.98  30 2.00  25 2.07  28 2.08
  97  0.174  0.985  0.781-  37 1.84  31 1.96  29 2.05
  98  0.173  0.330  0.281-  38 1.85  32 2.03  25 2.08  26 2.09
  99  0.162  0.318  0.766- 119 1.73  39 1.95  27 2.23  33 2.23
 100  0.173  0.662  0.280-  40 1.87  34 2.02  28 2.06  26 2.07
 101  0.174  0.658  0.784-  41 1.85  27 1.92  35 1.96
 102  0.328  0.164  0.220-  42 1.88  25 2.03  32 2.06  30 2.07
 103  0.338  0.170  0.724-  43 1.84  33 1.97  31 2.04 119 2.40
 104  0.328  0.495  0.218-  44 1.88  26 2.02  32 2.08  34 2.08
 105  0.324  0.496  0.715-  45 1.88  27 2.03  33 2.07  35 2.12
 106  0.329  0.829  0.219-  46 1.87  28 2.03  34 2.07  30 2.09
 107  0.325  0.836  0.711-  47 1.87  29 2.03  31 2.09  35 2.15
 108  0.330  0.164  0.449-  43 1.85  32 1.97  30 1.98
 109  0.329  0.168  0.944-  42 1.84  33 1.96  31 1.98
 110  0.331  0.496  0.445-  45 1.84  32 1.96  34 1.97
 111  0.331  0.493  0.941-  44 1.85  33 1.95  35 1.98
 112  0.335  0.830  0.445-  47 1.84  30 1.95  34 1.95
 113  0.335  0.832  0.943-  46 1.84  35 1.93  31 1.98
 114  0.168  0.995  0.055-  37 1.85  25 1.95  28 1.95
 115  0.168  0.327  0.054-  39 1.84  26 1.96  25 1.98
 116  0.151  0.339  0.558- 119 1.68  38 1.92  27 2.01
 117  0.169  0.663  0.054-  41 1.84  26 1.94  28 1.97
 118  0.166  0.671  0.550-  40 1.85  27 1.88  29 2.01
 119  0.140  0.199  0.648- 116 1.68  49 1.73  99 1.73 103 2.40
 
  LATTYP: Found a simple monoclinic cell.
 ALAT       =    11.6348202465
 B/A-ratio  =     0.7858051831
 C/A-ratio  =     1.0554931797
 COS(beta)  =    -0.2379290539
  
  Lattice vectors:
  
 A1 = (   0.0000000000,  -2.7682617730, -11.3006977184)
 A2 = (  -9.1427020537,   0.0000000000,   0.0000000000)
 A3 = (   0.0000000000,  12.2804734172,   0.0000000000)


Analysis of symmetry for initial positions (statically):
=====================================================================
 Subroutine PRICEL returns:
 Original cell was already a primitive cell.
 

 Routine SETGRP: Setting up the symmetry group for a 
 simple monoclinic supercell.


 Subroutine GETGRP returns: Found  1 space group operations
 (whereof  1 operations were pure point group operations)
 out of a pool of  4 trial point group operations.


The static configuration has the point symmetry C_1 .


Analysis of symmetry for dynamics (positions and initial velocities):
=====================================================================
 Subroutine PRICEL returns:
 Original cell was already a primitive cell.
 

 Routine SETGRP: Setting up the symmetry group for a 
 simple monoclinic supercell.


 Subroutine GETGRP returns: Found  1 space group operations
 (whereof  1 operations were pure point group operations)
 out of a pool of  4 trial point group operations.


The dynamic configuration has the point symmetry C_1 .


 Subroutine INISYM returns: Found  1 space group operations
 (whereof  1 operations are pure point group operations),
 and found     1 'primitive' translations


----------------------------------------------------------------------------------------

                                     Primitive cell                                     

  volume of cell :    1268.8052

  direct lattice vectors                    reciprocal lattice vectors
     0.000000000 12.280473417  0.000000000     0.000000000  0.081430085 -0.019947423
     9.142702054  0.000000000  0.000000000     0.109376855 -0.000000000  0.000000000
     0.000000000 -2.768261773-11.300697718     0.000000000  0.000000000 -0.088490111

  length of vectors
    12.280473417  9.142702054 11.634820246     0.083837691  0.109376855  0.088490111

  position of ions in fractional coordinates (direct lattice)
     0.658056707  0.998037050  0.155537887
     0.661600481  0.998668839  0.656218019
     0.658479844  0.330294273  0.155963372
     0.659556148  0.331880560  0.657447348
     0.658050849  0.664651934  0.155929770
     0.661633858  0.664956648  0.656395818
     0.843885274  0.163902267  0.341450816
     0.841898149  0.162303611  0.845026845
     0.839845865  0.500821988  0.341133955
     0.842286864  0.497517437  0.843629157
     0.841988067  0.833916477  0.342587957
     0.841418145  0.829986688  0.845420879
     0.592589482  0.164237892  0.397271687
     0.591248561  0.163875829  0.896812569
     0.591862160  0.497086336  0.397914051
     0.592999772  0.501434642  0.897644341
     0.590829375  0.831287349  0.397021780
     0.588924601  0.832249897  0.896135328
     0.911032032  0.996110382  0.104372375
     0.909230026  0.008862005  0.602056005
     0.909306792  0.330354033  0.101787298
     0.899995396  0.350941669  0.599104524
     0.909251780  0.663009881  0.102447705
     0.909420836  0.679982678  0.601517598
     0.159042282  0.159885953  0.159030679
     0.159931604  0.496451270  0.155266582
     0.155743610  0.520307373  0.656675775
     0.159510318  0.830181528  0.158688554
     0.160959590  0.866750353  0.628193442
     0.340412218  0.997078628  0.342575666
     0.336907906  0.001277460  0.837612396
     0.341700991  0.329397192  0.343611619
     0.347200237  0.329479852  0.839460846
     0.341285289  0.662971582  0.341951366
     0.337618605  0.666442896  0.840854485
     0.107299082  0.985791781  0.423017549
     0.093940945  0.988557344  0.896163341
     0.085626438  0.325767568  0.390667189
     0.089653205  0.323097087  0.898109370
     0.087582496  0.665036457  0.393116730
     0.091841258  0.660219629  0.897731034
     0.406877786  0.164043327  0.099989231
     0.412897859  0.165100851  0.603912016
     0.407533851  0.495795566  0.098955445
     0.409505884  0.498707295  0.601480911
     0.408571866  0.830502244  0.100146183
     0.413824989  0.831031696  0.601048946
     0.996770198  0.164071646  0.129111041
     0.996487977  0.185760750  0.627830044
     0.997188212  0.496547574  0.127038851
     0.993591130  0.510699870  0.627052990
     0.996768523  0.828842777  0.124635831
     0.998486826  0.845024581  0.625803839
     0.503804923  0.998611955  0.373094933
     0.502357502  0.998781167  0.872099664
     0.504134823  0.330475343  0.373793984
     0.508062837  0.333778713  0.873701896
     0.504301550  0.663415207  0.372883977
     0.501470354  0.664882973  0.868949166
     0.673311232  0.165005007  0.279816283
     0.673793899  0.164821002  0.780437172
     0.672147682  0.497601999  0.279681911
     0.674184448  0.499787987  0.780287312
     0.672512821  0.831889272  0.279910612
     0.673647215  0.832596895  0.780761926
     0.826576201  0.998091073  0.218646629
     0.829511565  0.001687017  0.719382938
     0.828673047  0.329763429  0.219253532
     0.827427625  0.333129327  0.720518089
     0.826426940  0.663471650  0.218075036
     0.828814968  0.667915877  0.719543585
     0.832073696  0.002502345  0.446529106
     0.833055368  0.996592812  0.947241212
     0.832266800  0.333318486  0.442675902
     0.833669077  0.329799593  0.945354657
     0.832196529  0.668035163  0.445038944
     0.831949916  0.661859743  0.946032686
     0.668026564  0.164292977  0.053504419
     0.670032602  0.166177154  0.554062421
     0.668535662  0.497976349  0.054379198
     0.671955082  0.497567565  0.553930466
     0.666104516  0.830704729  0.052993536
     0.669333954  0.831620134  0.553575746
     0.495328838  0.998158066  0.126623533
     0.500026086  0.998186763  0.625718912
     0.495785049  0.329855732  0.126340696
     0.498460427  0.333729768  0.625647016
     0.495213683  0.662537070  0.125126452
     0.498987763  0.663186240  0.626779652
     0.008770002  0.153517661  0.380900020
     0.004494098  0.156382171  0.870815253
     0.002787281  0.495363941  0.371698561
     0.005154889  0.491858051  0.871704274
     0.001147974  0.831199743  0.364858950
     0.002538021  0.825276350  0.872807867
     0.173166264  0.995399496  0.283843814
     0.173893415  0.984923377  0.780842999
     0.172904290  0.329886162  0.280748915
     0.162110840  0.318308489  0.765819773
     0.173189818  0.662131993  0.279663436
     0.174209719  0.658421883  0.783929205
     0.327835197  0.163917255  0.220187260
     0.338479950  0.170182626  0.723920551
     0.327847030  0.495144018  0.218381592
     0.323993637  0.495975396  0.715274403
     0.328517346  0.829119813  0.218676906
     0.324858554  0.836185210  0.710537831
     0.329813089  0.163708995  0.448631260
     0.328576099  0.167555537  0.943615476
     0.330982471  0.496232540  0.445479021
     0.330829796  0.492965314  0.941357692
     0.335384327  0.829950290  0.445257123
     0.334536153  0.832010648  0.943123410
     0.167677515  0.995495036  0.054639127
     0.167641478  0.327381144  0.053693556
     0.150756605  0.338901127  0.557739210
     0.169130251  0.663049979  0.054203427
     0.165672300  0.671361838  0.549551663
     0.139949807  0.198528170  0.647780015

  ion indices of the primitive-cell ions
   primitive index   ion index
                 1           1
                 2           2
                 3           3
                 4           4
                 5           5
                 6           6
                 7           7
                 8           8
                 9           9
                10          10
                11          11
                12          12
                13          13
                14          14
                15          15
                16          16
                17          17
                18          18
                19          19
                20          20
                21          21
                22          22
                23          23
                24          24
                25          25
                26          26
                27          27
                28          28
                29          29
                30          30
                31          31
                32          32
                33          33
                34          34
                35          35
                36          36
                37          37
                38          38
                39          39
                40          40
                41          41
                42          42
                43          43
                44          44
                45          45
                46          46
                47          47
                48          48
                49          49
                50          50
                51          51
                52          52
                53          53
                54          54
                55          55
                56          56
                57          57
                58          58
                59          59
                60          60
                61          61
                62          62
                63          63
                64          64
                65          65
                66          66
                67          67
                68          68
                69          69
                70          70
                71          71
                72          72
                73          73
                74          74
                75          75
                76          76
                77          77
                78          78
                79          79
                80          80
                81          81
                82          82
                83          83
                84          84
                85          85
                86          86
                87          87
                88          88
                89          89
                90          90
                91          91
                92          92
                93          93
                94          94
                95          95
                96          96
                97          97
                98          98
                99          99
               100         100
               101         101
               102         102
               103         103
               104         104
               105         105
               106         106
               107         107
               108         108
               109         109
               110         110
               111         111
               112         112
               113         113
               114         114
               115         115
               116         116
               117         117
               118         118
               119         119

----------------------------------------------------------------------------------------

 
 
 KPOINTS: Automatic mesh                          

Automatic generation of k-mesh.
 Grid dimensions read from file:
 generate k-points for:    2    2    2

 Generating k-lattice:

  Cartesian coordinates                     Fractional coordinates (reciprocal lattice)
     0.000000000  0.040715043 -0.009973711     0.500000000  0.000000000  0.000000000
     0.054688428 -0.000000000  0.000000000     0.000000000  0.500000000  0.000000000
     0.000000000  0.000000000 -0.044245056     0.000000000  0.000000000  0.500000000

  Length of vectors
     0.041918846  0.054688428  0.044245056

  Shift w.r.t. Gamma in fractional coordinates (k-lattice)
     0.000000000  0.000000000  0.000000000

 
 Subroutine IBZKPT returns following result:
 ===========================================
 
 Found      8 irreducible k-points:
 
 Following reciprocal coordinates:
            Coordinates               Weight
  0.000000  0.000000  0.000000      1.000000
  0.500000  0.000000  0.000000      1.000000
  0.000000  0.500000  0.000000      1.000000
  0.500000  0.500000  0.000000      1.000000
  0.000000  0.000000  0.500000      1.000000
  0.500000  0.000000  0.500000      1.000000
  0.000000  0.500000  0.500000      1.000000
  0.500000  0.500000  0.500000      1.000000
 
 Following cartesian coordinates:
            Coordinates               Weight
  0.000000  0.000000 -0.000000      1.000000
  0.000000  0.040715 -0.009974      1.000000
  0.054688  0.000000 -0.000000      1.000000
  0.054688  0.040715 -0.009974      1.000000
  0.000000  0.000000 -0.044245      1.000000
  0.000000  0.040715 -0.054219      1.000000
  0.054688  0.000000 -0.044245      1.000000
  0.054688  0.040715 -0.054219      1.000000
 
 
 Subroutine IBZKPT_HF returns following result:
 ==============================================
 
 Found      8 k-points in 1st BZ
 the following      8 k-points will be used (e.g. in the exchange kernel)
 Following reciprocal coordinates:   # in IRBZ
  0.000000  0.000000  0.000000    0.12500000   1 t-inv F
  0.500000  0.000000  0.000000    0.12500000   2 t-inv F
  0.000000  0.500000  0.000000    0.12500000   3 t-inv F
  0.500000  0.500000  0.000000    0.12500000   4 t-inv F
  0.000000  0.000000  0.500000    0.12500000   5 t-inv F
  0.500000  0.000000  0.500000    0.12500000   6 t-inv F
  0.000000  0.500000  0.500000    0.12500000   7 t-inv F
  0.500000  0.500000  0.500000    0.12500000   8 t-inv F


--------------------------------------------------------------------------------------------------------




 Dimension of arrays:
   k-points           NKPTS =      8   k-points in BZ     NKDIM =      8   number of bands    NBANDS=    625
   number of dos      NEDOS =    301   number of ions     NIONS =    119
   non local maximal  LDIM  =      6   non local SUM 2l+1 LMDIM =     18
   total plane-waves  NPLWV = 184320
   max r-space proj   IRMAX =   1800   max aug-charges    IRDMAX=   5704
   dimension x,y,z NGX =    64 NGY =   48 NGZ =   60
   dimension x,y,z NGXF=   128 NGYF=   96 NGZF=  120
   support grid    NGXF=   128 NGYF=   96 NGZF=  120
   ions per type =              47  71   1
   NGX,Y,Z   is equivalent  to a cutoff of   8.66,  8.73,  8.57 a.u.
   NGXF,Y,Z  is equivalent  to a cutoff of  17.33, 17.46, 17.15 a.u.

 SYSTEM =  unknown system                          
 POSCAR =  Ga48 O72                                

 Startparameter for this run:
   NWRITE =      2    write-flag & timer
   PREC   = normal    normal or accurate (medium, high low for compatibility)
   ISTART =      0    job   : 0-new  1-cont  2-samecut
   ICHARG =      0    charge: 1-file 2-atom 10-const
   ISPIN  =      1    spin polarized calculation?
   LNONCOLLINEAR =      F non collinear calculations
   LSORBIT =      F    spin-orbit coupling
   INIWAV =      1    electr: 0-lowe 1-rand  2-diag
   LASPH  =      F    aspherical Exc in radial PAW
 Electronic Relaxation 1
   ENCUT  =  450.0 eV  33.07 Ry    5.75 a.u.  21.24 15.81 20.12*2*pi/ulx,y,z
   ENINI  =  450.0     initial cutoff
   ENAUG  =  605.4 eV  augmentation charge cutoff
   NELM   =    500;   NELMIN=  2; NELMDL= -5     # of ELM steps 
   EDIFF  = 0.1E-04   stopping-criterion for ELM
   LREAL  =      T    real-space projection
   NLSPLINE    = F    spline interpolate recip. space projectors
   LCOMPAT=      F    compatible to vasp.4.4
   GGA_COMPAT  = T    GGA compatible to vasp.4.4-vasp.4.6
   LMAXPAW     = -100 max onsite density
   LMAXMIX     =    2 max onsite mixed and CHGCAR
   VOSKOWN=      0    Vosko Wilk Nusair interpolation
   ROPT   =   -0.00050  -0.00050  -0.00050
 Ionic relaxation
   EDIFFG = -.5E-02   stopping-criterion for IOM
   NSW    =      0    number of steps for IOM
   NBLOCK =      1;   KBLOCK =      1    inner block; outer block 
   IBRION =     -1    ionic relax: 0-MD 1-quasi-New 2-CG
   NFREE  =      0    steps in history (QN), initial steepest desc. (CG)
   ISIF   =      2    stress and relaxation
   IWAVPR =     10    prediction:  0-non 1-charg 2-wave 3-comb
   ISYM   =      3    0-nonsym 1-usesym 2-fastsym
   LCORR  =      T    Harris-Foulkes like correction to forces

   POTIM  = 0.5000    time-step for ionic-motion
   TEIN   =    0.0    initial temperature
   TEBEG  =    0.0;   TEEND  =   0.0 temperature during run
   SMASS  =  -3.00    Nose mass-parameter (am)
   estimated Nose-frequenzy (Omega)   =  0.10E-29 period in steps = 0.13E+47 mass=  -0.345E-26a.u.
   SCALEE = 1.0000    scale energy and forces
   NPACO  =    256;   APACO  = 10.0  distance and # of slots for P.C.
   PSTRESS=    0.0 pullay stress

  Mass of Ions in am
   POMASS =  69.72 16.00 30.97
  Ionic Valenz
   ZVAL   =  13.00  6.00  5.00
  Atomic Wigner-Seitz radii
   RWIGS  =  -1.00 -1.00 -1.00
  virtual crystal weights 
   VCA    =   1.00  1.00  1.00
   NELECT =    1042.0000    total number of electrons
   NUPDOWN=      -1.0000    fix difference up-down

 DOS related values:
   EMIN   =  10.00;   EMAX   =-10.00  energy-range for DOS
   EFERMI =   0.00;   METHOD = LEGACY      
   ISMEAR =     0;   SIGMA  =   0.05  broadening in eV -4-tet -1-fermi 0-gaus

 Electronic relaxation 2 (details)
   IALGO  =     58    algorithm
   LDIAG  =      T    sub-space diagonalisation (order eigenvalues)
   LSUBROT=      F    optimize rotation matrix (better conditioning)
   TURBO    =      0    0=normal 1=particle mesh
   IRESTART =      0    0=no restart 2=restart with 2 vectors
   NREBOOT  =      0    no. of reboots
   NMIN     =      0    reboot dimension
   EREF     =   0.00    reference energy to select bands
   IMIX   =      4    mixing-type and parameters
     AMIX     =   0.40;   BMIX     =  1.00
     AMIX_MAG =   1.60;   BMIX_MAG =  1.00
     AMIN     =   0.10
     WC   =   100.;   INIMIX=   1;  MIXPRE=   1;  MAXMIX= -45

 Intra band minimization:
   WEIMIN = 0.0000     energy-eigenvalue tresh-hold
   EBREAK =  0.40E-08  absolut break condition
   DEPER  =   0.30     relativ break condition  

   TIME   =   0.40     timestep for ELM

  volume/ion in A,a.u.               =      10.66        71.95
  Fermi-wavevector in a.u.,A,eV,Ry     =   1.533083  2.897107 31.978378  2.350344
  Thomas-Fermi vector in A             =   2.640200
 
 Write flags
   LWAVE        =      T    write WAVECAR
   LDOWNSAMPLE  =      F    k-point downsampling of WAVECAR
   LCHARG       =      T    write CHGCAR
   LVTOT        =      F    write LOCPOT, total local potential
   LVHAR        =      F    write LOCPOT, Hartree potential only
   LELF         =      F    write electronic localiz. function (ELF)
   LORBIT       =      0    0 simple, 1 ext, 2 COOP (PROOUT), +10 PAW based schemes


 Dipole corrections
   LMONO  =      F    monopole corrections only (constant potential shift)
   LDIPOL =      F    correct potential (dipole corrections)
   IDIPOL =      0    1-x, 2-y, 3-z, 4-all directions 
   EPSILON=  1.0000000 bulk dielectric constant

 Exchange correlation treatment:
   GGA     =    --    GGA type
   LEXCH   =     8    internal setting for exchange type
   LIBXC   =     F    Libxc                    
   VOSKOWN =     0    Vosko Wilk Nusair interpolation
   EXXOEP  =     0    0=HF, 1=EXX-LHF (local Hartree Fock) 2=EXX OEP
   LHFCALC =     T    Hartree Fock is set to
   LSYMGRAD=     F    symmetrize gradient (conserves proper symmetry)
   PRECFOCK=fast      Normal, Fast or Accurate (Low or Medium for compatibility)
   LRHFCALC=     F    long range Hartree Fock
   LRSCOR  =     F    long range correlation only (use DFT for short range part)
   LTHOMAS =     F    Thomas Fermi screening in HF
   LMODELHF=     F    short range full HF, long range fraction AEXX
   FOCKCORR=     1    mode to apply convergence corrections
   LFOCKACE=     T    use Adeptively-Compressed-Exchange operator
   ENCUT4O =  -1.0   cutoff for four orbital integrals eV
   LMAXFOCK=     4    L truncation for augmentation on plane wave grid
   LMAXFOCKAE=  -1    L truncation for all-electron charge restoration on plane wave grid
   NMAXFOCKAE=   1    number of basis functions for all-electron charge restoration
   LFOCKAEDFT=     F  apply the AE augmentation even for DFT
   NKREDX  =     1    reduce k-point grid by
   NKREDY  =     1    reduce k-point grid by
   NKREDZ  =     1    reduce k-point grid by
   SHIFTRED=     F    shift reduced grid of Gamma
   HFKIDENT=     F    idential grid for each k-point
   ODDONLY =     F    use only odd q-grid points
   EVENONLY=     F    use only even q-grid points
   HFALPHA =   -1.0000 decay constant for conv. correction
   MCALPHA =    0.0000 extent of test-charge in conv. correction in multipole expansion
   AEXX    =    0.3200 exact exchange contribution
   HFSCREEN=    0.2000 screening length (either q_TF or 0.3 A-1)
   HFSCREENC=   0.2000 screening length for correlation (either q_TF or 0.3 A-1)
   HFRCUT  =    0.0000 spherical cutoff for potential kernel
   ALDAX   =    0.6800 LDA exchange part
   AGGAX   =    0.6800 GGA exchange part
   ALDAC   =    1.0000 LDA correlation
   AGGAC   =    1.0000 GGA correlation
   ENCUTFOCK=  -1.0 apply spherical cutoff to Coloumb kernel
   NBANDSGWLOW=     1    first orbital included in HF term
   NBLOCK_FOCK=    64    blocking factor in FOCK_ACC

 Linear response parameters
   LEPSILON=     F    determine dielectric tensor
   LRPA    =     F    only Hartree local field effects (RPA)
   LNABLA  =     F    use nabla operator in PAW spheres
   LVEL    =     F    velocity operator in full k-point grid
   CSHIFT  =0.1000    complex shift for real part using Kramers Kronig
   OMEGAMAX=  -1.0    maximum frequency
   DEG_THRESHOLD= 0.2000000E-02 threshold for treating states as degnerate
   RTIME   =   -0.100 relaxation time in fs
  (WPLASMAI=    0.000 imaginary part of plasma frequency in eV, 0.658/RTIME)
   DFIELD  = 0.0000000 0.0000000 0.0000000 field for delta impulse in time
 
  Optional k-point grid parameters
   LKPOINTS_OPT  =     F    use optional k-point grid
   KPOINTS_OPT_MODE=     1    mode for optional k-point grid
 
 Orbital magnetization related:
   ORBITALMAG=     F  switch on orbital magnetization
   LCHIMAG   =     F  perturbation theory with respect to B field
   DQ        =  0.001000  dq finite difference perturbation B field
   LLRAUG    =     F  two centre corrections for induced B field
   LBONE     =     F  B-component reconstruction in AE one-centre
   LVGVCALC  =     T  calculate vGv susceptibility
   LVGVAPPL  =     F  apply vGv susceptibility instead of pGv for G=0

 Random number generation:
   RANDOM_GENERATOR = DEFAULT
   PCG_SEED         = not used


--------------------------------------------------------------------------------------------------------


 Static calculation
 charge density and potential will be updated during run
 non-spin polarized calculation
 Conjugate gradient for all bands (Freysoldt, et al. PRB 79, 241103 (2009))
 preconditioned conjugated gradient                                        
 perform sub-space diagonalisation
    before iterative eigenvector-optimisation
 modified Broyden-mixing scheme, WC =      100.0
 initial mixing is a Kerker type mixing with AMIX =  0.4000 and BMIX =      1.0000
 Hartree-type preconditioning will be used
 using additional bands           104
 real space projection scheme for non local part
 use partial core corrections
 no Harris-corrections to forces 
 use gradient corrections 
 use of overlap-Matrix (Vanderbilt PP)
 Gauss-broadening in eV      SIGMA  =   0.05


--------------------------------------------------------------------------------------------------------


  energy-cutoff  :      450.00
  volume of cell :     1268.81
      direct lattice vectors                 reciprocal lattice vectors
     0.000000000 12.280473417  0.000000000     0.000000000  0.081430085 -0.019947423
     9.142702054  0.000000000  0.000000000     0.109376855 -0.000000000  0.000000000
     0.000000000 -2.768261773-11.300697718     0.000000000  0.000000000 -0.088490111

  length of vectors
    12.280473417  9.142702054 11.634820246     0.083837691  0.109376855  0.088490111


 
 k-points in units of 2pi/SCALE and weight: Automatic mesh                          
   0.00000000  0.00000000 -0.00000000       0.125
   0.00000000  0.04071504 -0.00997371       0.125
   0.05468843  0.00000000 -0.00000000       0.125
   0.05468843  0.04071504 -0.00997371       0.125
   0.00000000  0.00000000 -0.04424506       0.125
   0.00000000  0.04071504 -0.05421877       0.125
   0.05468843  0.00000000 -0.04424506       0.125
   0.05468843  0.04071504 -0.05421877       0.125
 
 k-points in reciprocal lattice and weights: Automatic mesh                          
   0.00000000  0.00000000  0.00000000       0.125
   0.50000000  0.00000000  0.00000000       0.125
   0.00000000  0.50000000  0.00000000       0.125
   0.50000000  0.50000000  0.00000000       0.125
   0.00000000  0.00000000  0.50000000       0.125
   0.50000000  0.00000000  0.50000000       0.125
   0.00000000  0.50000000  0.50000000       0.125
   0.50000000  0.50000000  0.50000000       0.125
 
 position of ions in fractional coordinates (direct lattice) 
   0.65805671  0.99803705  0.15553789
   0.66160048  0.99866884  0.65621802
   0.65847984  0.33029427  0.15596337
   0.65955615  0.33188056  0.65744735
   0.65805085  0.66465193  0.15592977
   0.66163386  0.66495665  0.65639582
   0.84388527  0.16390227  0.34145082
   0.84189815  0.16230361  0.84502684
   0.83984587  0.50082199  0.34113395
   0.84228686  0.49751744  0.84362916
   0.84198807  0.83391648  0.34258796
   0.84141815  0.82998669  0.84542088
   0.59258948  0.16423789  0.39727169
   0.59124856  0.16387583  0.89681257
   0.59186216  0.49708634  0.39791405
   0.59299977  0.50143464  0.89764434
   0.59082938  0.83128735  0.39702178
   0.58892460  0.83224990  0.89613533
   0.91103203  0.99611038  0.10437237
   0.90923003  0.00886201  0.60205600
   0.90930679  0.33035403  0.10178730
   0.89999540  0.35094167  0.59910452
   0.90925178  0.66300988  0.10244771
   0.90942084  0.67998268  0.60151760
   0.15904228  0.15988595  0.15903068
   0.15993160  0.49645127  0.15526658
   0.15574361  0.52030737  0.65667577
   0.15951032  0.83018153  0.15868855
   0.16095959  0.86675035  0.62819344
   0.34041222  0.99707863  0.34257567
   0.33690791  0.00127746  0.83761240
   0.34170099  0.32939719  0.34361162
   0.34720024  0.32947985  0.83946085
   0.34128529  0.66297158  0.34195137
   0.33761861  0.66644290  0.84085449
   0.10729908  0.98579178  0.42301755
   0.09394095  0.98855734  0.89616334
   0.08562644  0.32576757  0.39066719
   0.08965320  0.32309709  0.89810937
   0.08758250  0.66503646  0.39311673
   0.09184126  0.66021963  0.89773103
   0.40687779  0.16404333  0.09998923
   0.41289786  0.16510085  0.60391202
   0.40753385  0.49579557  0.09895544
   0.40950588  0.49870730  0.60148091
   0.40857187  0.83050224  0.10014618
   0.41382499  0.83103170  0.60104895
   0.99677020  0.16407165  0.12911104
   0.99648798  0.18576075  0.62783004
   0.99718821  0.49654757  0.12703885
   0.99359113  0.51069987  0.62705299
   0.99676852  0.82884278  0.12463583
   0.99848683  0.84502458  0.62580384
   0.50380492  0.99861195  0.37309493
   0.50235750  0.99878117  0.87209966
   0.50413482  0.33047534  0.37379398
   0.50806284  0.33377871  0.87370190
   0.50430155  0.66341521  0.37288398
   0.50147035  0.66488297  0.86894917
   0.67331123  0.16500501  0.27981628
   0.67379390  0.16482100  0.78043717
   0.67214768  0.49760200  0.27968191
   0.67418445  0.49978799  0.78028731
   0.67251282  0.83188927  0.27991061
   0.67364722  0.83259689  0.78076193
   0.82657620  0.99809107  0.21864663
   0.82951157  0.00168702  0.71938294
   0.82867305  0.32976343  0.21925353
   0.82742763  0.33312933  0.72051809
   0.82642694  0.66347165  0.21807504
   0.82881497  0.66791588  0.71954358
   0.83207370  0.00250235  0.44652911
   0.83305537  0.99659281  0.94724121
   0.83226680  0.33331849  0.44267590
   0.83366908  0.32979959  0.94535466
   0.83219653  0.66803516  0.44503894
   0.83194992  0.66185974  0.94603269
   0.66802656  0.16429298  0.05350442
   0.67003260  0.16617715  0.55406242
   0.66853566  0.49797635  0.05437920
   0.67195508  0.49756757  0.55393047
   0.66610452  0.83070473  0.05299354
   0.66933395  0.83162013  0.55357575
   0.49532884  0.99815807  0.12662353
   0.50002609  0.99818676  0.62571891
   0.49578505  0.32985573  0.12634070
   0.49846043  0.33372977  0.62564702
   0.49521368  0.66253707  0.12512645
   0.49898776  0.66318624  0.62677965
   0.00877000  0.15351766  0.38090002
   0.00449410  0.15638217  0.87081525
   0.00278728  0.49536394  0.37169856
   0.00515489  0.49185805  0.87170427
   0.00114797  0.83119974  0.36485895
   0.00253802  0.82527635  0.87280787
   0.17316626  0.99539950  0.28384381
   0.17389341  0.98492338  0.78084300
   0.17290429  0.32988616  0.28074891
   0.16211084  0.31830849  0.76581977
   0.17318982  0.66213199  0.27966344
   0.17420972  0.65842188  0.78392921
   0.32783520  0.16391725  0.22018726
   0.33847995  0.17018263  0.72392055
   0.32784703  0.49514402  0.21838159
   0.32399364  0.49597540  0.71527440
   0.32851735  0.82911981  0.21867691
   0.32485855  0.83618521  0.71053783
   0.32981309  0.16370900  0.44863126
   0.32857610  0.16755554  0.94361548
   0.33098247  0.49623254  0.44547902
   0.33082980  0.49296531  0.94135769
   0.33538433  0.82995029  0.44525712
   0.33453615  0.83201065  0.94312341
   0.16767751  0.99549504  0.05463913
   0.16764148  0.32738114  0.05369356
   0.15075661  0.33890113  0.55773921
   0.16913025  0.66304998  0.05420343
   0.16567230  0.67136184  0.54955166
   0.13994981  0.19852817  0.64778002
 
 position of ions in cartesian coordinates  (Angst):
   9.12475539  7.65067830 -1.75768665
   9.13053165  6.30818386 -7.41572147
   3.01978212  7.65469677 -1.76249492
   3.03428508  6.27967538 -7.42961374
   6.07671460  7.64952154 -1.76211520
   6.07950051  6.30810155 -7.41773073
   1.49850959  9.41808543 -3.85863246
   1.48389356  7.99965233 -9.54939293
   4.57886622  9.36935674 -3.85505170
   4.54865370  8.00829510 -9.53359809
   7.62424989  9.39163893 -3.87148295
   7.58832100  7.99266686 -9.55384580
   1.50157812  6.17752736 -4.48944725
   1.49826788  4.77820029-10.13460776
   4.54471227  6.16681727 -4.49670641
   4.58446753  4.79740342-10.14400736
   7.60021255  6.15660422 -4.48662312
   7.60901285  4.75153573-10.12695446
   9.10714043 10.89897460 -1.17948066
   0.08102267  9.49912654 -6.80365292
   3.02032849 10.88494400 -1.15026749
   3.20855512  9.39389139 -6.77029913
   6.06170180 10.88244025 -1.15773055
   6.21687902  9.50296023 -6.79756855
   1.46178963  1.51287597 -1.79715763
   4.53890604  1.53421726 -1.75462071
   4.75701528  0.09475482 -7.42089443
   7.59010236  1.51957076 -1.79329138
   7.92444023  0.23765608 -7.09902420
   9.11599282  3.23208408 -3.87134405
   0.01167944  1.81865820 -9.46560449
   3.01158039  3.24504302 -3.88305104
   3.01233612  1.93993591 -9.48649327
   6.06135165  3.24453402 -3.86428902
   6.09308884  1.81841098 -9.50224236
   9.01280054  0.14666022 -4.78039346
   9.03808526 -1.32717544-10.12727103
   2.97839582 -0.02993585 -4.41481181
   2.95398040 -1.38521804-10.14926251
   6.08023019 -0.01269550 -4.44249333
   6.03619136 -1.35730037-10.14498705
   1.49979926  4.71985547 -1.12994807
   1.50946789  3.39879463 -6.82462714
   4.53291114  4.73077405 -1.11826557
   4.55953221  3.36386951 -6.79715396
   7.59303457  4.74022509 -1.13172174
   7.59787519  3.41810596 -6.79227245
   1.50005818 11.88339677 -1.45904485
   1.69835519 10.49934620 -7.09491755
   4.53978652 11.89426653 -1.43562766
   4.66917675 10.46592264 -7.08613630
   7.57786256 11.89576474 -1.40847185
   7.72580797 10.52950208 -7.07202002
   9.13001157  5.15413852 -4.21623305
   9.13155863  3.75498779 -9.85533468
   3.02143760  5.15625470 -4.22413282
   3.05163932  3.82061660 -9.87344103
   6.06540757  5.16082132 -4.21384911
   6.07882692  3.75281460 -9.81973185
   1.50859162  7.49397596 -3.16211924
   1.50690931  6.11405368 -8.81948457
   4.54942682  7.48005900 -3.16060074
   4.56941266  6.11926466 -8.81779105
   7.60571575  7.48390997 -3.16318522
   7.61218534  6.11135332 -8.82315451
   9.12524931  9.54547597 -2.47085946
   0.01542389  8.19535444 -8.12952913
   3.01492878  9.56954616 -2.47771789
   3.04570218  8.16662028 -8.14235712
   6.06592362  9.54522529 -2.46440007
   6.10655586  8.18635518 -8.13134455
   0.02287820  8.98214945 -5.04609045
   9.11155115  7.60810267-10.70448661
   3.04743161  8.99518753 -5.00254655
   3.01525942  7.62086178-10.68316721
   6.10764646  8.98778306 -5.02925058
   6.05118643  7.59787271-10.69082942
   1.50208174  8.05556822 -0.60463726
   1.51930821  6.69452773 -6.26129194
   4.55284939  8.05939856 -0.61452288
   4.54911200  6.71850198 -6.25980075
   7.59488583  8.03337883 -0.59886394
   7.60325511  6.68729525 -6.25579217
   9.12586180  5.73234554 -1.43093427
   9.12612416  4.40840331 -7.07106028
   3.01577268  5.73873100 -1.42773801
   3.05119184  4.38937530 -7.07024781
   6.05737903  5.73507570 -1.41401621
   6.06331420  4.39271581 -7.08304739
   1.40356624 -0.94673119 -4.30443599
   1.42975560 -2.35545493 -9.84081995
   4.52896492 -0.99472979 -4.20045308
   4.49691161 -2.34980114 -9.85086650
   7.59941160 -0.99592742 -4.12316070
   7.54525578 -2.38499256 -9.86333787
   9.10064101  1.34080972 -3.20763315
   9.00486098 -0.02608437 -8.82407070
   3.01605089  1.34616005 -3.17265862
   2.91019968 -0.12919175 -8.65429776
   6.05367553  1.35267135 -3.16039196
   6.01975511 -0.03074342 -8.85894698
   1.49864662  3.41643545 -2.48826966
   1.55592905  2.15269244 -8.18080732
   4.52695423  3.42157932 -2.46786435
   4.53455527  1.99872846 -8.08309981
   7.58039542  3.42899362 -2.47120161
   7.64499224  2.02246213 -8.02957325
   1.49674257  2.80833211 -5.06984625
   1.53191035  1.42289540-10.66351326
   4.53690626  2.83141889 -5.03422376
   4.50703499  1.45682200-10.63799873
   7.58798822  2.88609004 -5.03171616
   7.60682546  1.49744985-10.65795256
   9.10151451  1.90790386 -0.61746026
   2.99314825  1.91007889 -0.60677464
   3.09847203  0.30739435 -6.30284222
   6.06206840  1.92695027 -0.61253654
   6.13806125  0.51323141 -6.21031722
   1.81508390 -0.07457477 -7.32036614
 


--------------------------------------------------------------------------------------------------------


 k-point   1 :   0.0000 0.0000 0.0000  plane waves:   27533
 k-point   2 :   0.5000 0.0000 0.0000  plane waves:   27522
 k-point   3 :   0.0000 0.5000 0.0000  plane waves:   27488
 k-point   4 :   0.5000 0.5000 0.0000  plane waves:   27488
 k-point   5 :   0.0000 0.0000 0.5000  plane waves:   27482
 k-point   6 :   0.5000 0.0000 0.5000  plane waves:   27476
 k-point   7 :   0.0000 0.5000 0.5000  plane waves:   27468
 k-point   8 :   0.5000 0.5000 0.5000  plane waves:   27564

 maximum and minimum number of plane-waves per node :     27564    27468

 maximum number of plane-waves:     27564
 maximum index in each direction: 
   IXMAX=   21   IYMAX=   15   IZMAX=   20
   IXMIN=  -21   IYMIN=  -16   IZMIN=  -20


 serial   3D FFT for wavefunctions
 parallel 3D FFT for charge:
    minimum data exchange during FFTs selected (reduces bandwidth)


 FFT grid for exact exchange (Hartree Fock) 
  NGX = 48; NGY = 36; NGZ = 48

 
 Radii for the augmentation spheres in the non-local exchange
 for species   1 augmentation radius   1.392 (default was   1.031)
       energy cutoff for augmentation   1800.0
 for species   2 augmentation radius   0.974 (default was   0.722)
       energy cutoff for augmentation   1800.0
 for species   3 augmentation radius   1.294 (default was   0.959)
       energy cutoff for augmentation   1800.0
 Maximum index for augmentation-charges in exchange           746
  SETUP_FOCK is finished

 total amount of memory used by VASP MPI-rank0  7175103. kBytes
=======================================================================

   base      :      30000. kBytes
   nonlr-proj:      32434. kBytes
   fftplans  :      51012. kBytes
   grid      :     102973. kBytes
   one-center:       1850. kBytes
   HF        :        194. kBytes
   wavefun   :    6956640. kBytes
 
     INWAV:  cpu time      0.0001: real time      0.0001
 Broyden mixing: mesh for mixing (old mesh)
   NGX = 43   NGY = 31   NGZ = 41
  (NGX  =128   NGY  = 96   NGZ  =120)
  gives a total of  54653 points

 charge density for first step will be calculated from the start-wavefunctions


--------------------------------------------------------------------------------------------------------


 Maximum index for non-local projection operator          1713
 Maximum index for augmentation-charges          5359 (set IRDMAX)


--------------------------------------------------------------------------------------------------------


 initial charge from wavefunction
 First call to EWALD:  gamma=   0.164
 Maximum number of real-space cells 3x 3x 3
 Maximum number of reciprocal cells 3x 2x 3

    FEWALD:  cpu time      0.0729: real time      0.0729


--------------------------------------- Ionic step        1  -------------------------------------------




--------------------------------------- Iteration      1(   1)  ---------------------------------------


    POTLOK:  cpu time      0.0318: real time      0.0319
    SETDIJ:  cpu time      0.1608: real time      0.1608
    TRIAL :  cpu time      2.8490: real time      2.8591
    CORREC:  cpu time      0.0015: real time      0.0015
    --------------------------------------------
      LOOP:  cpu time      3.9192: real time      3.9291

 eigenvalue-minimisations  : 10448
 total energy-change (2. order) :-0.1837178E+05  (-0.5422539E+05)
 number of electron    1041.9999940 magnetization 
 augmentation part      118.4126153 magnetization 

 Free energy of the ion-electron system (eV)
  ---------------------------------------------------
  alpha Z        PSCENC =      5376.25786726
  Ewald energy   TEWEN  =    -86733.40628013
  -Hartree energ DENC   =     -2072.93038642
  -exchange      EXHF   =         0.00000000
  -V(xc)+E(xc)   XCENC  =      2751.54014431
  PAW double counting   =    330046.84367464  -358793.47392060
  entropy T*S    EENTRO =        -0.01003107
  eigenvalues    EBANDS =    -40446.84254872
  atomic energy  EATOM  =    131500.23896116
  ---------------------------------------------------
  free energy    TOTEN  =    -18371.78251958 eV

  energy without entropy =   -18371.77248851  energy(sigma->0) =   -18371.77750404
  exchange ACFDT corr.  =         0.00000000  see jH, gK, PRB 81, 115126


--------------------------------------------------------------------------------------------------------




--------------------------------------- Iteration      1(   2)  ---------------------------------------


    TRIAL :  cpu time      3.0971: real time      3.1010
    CORREC:  cpu time      0.0015: real time      0.0015
    --------------------------------------------
      LOOP:  cpu time      3.0988: real time      3.1036

 eigenvalue-minimisations  : 13280
 total energy-change (2. order) :-0.4440124E+05  (-0.4289304E+05)
 number of electron    1041.9999940 magnetization 
 augmentation part      118.4126153 magnetization 

 Free energy of the ion-electron system (eV)
  ---------------------------------------------------
  alpha Z        PSCENC =      5376.25786726
  Ewald energy   TEWEN  =    -86733.40628013
  -Hartree energ DENC   =     -2072.93038642
  -exchange      EXHF   =         0.00000000
  -V(xc)+E(xc)   XCENC  =      2751.54014431
  PAW double counting   =    330046.84367464  -358793.47392060
  entropy T*S    EENTRO =        -0.01305904
  eigenvalues    EBANDS =    -84848.07841757
  atomic energy  EATOM  =    131500.23896116
  ---------------------------------------------------
  free energy    TOTEN  =    -62773.02141640 eV

  energy without entropy =   -62773.00835736  energy(sigma->0) =   -62773.01488688
  exchange ACFDT corr.  =         0.00000000  see jH, gK, PRB 81, 115126


--------------------------------------------------------------------------------------------------------




--------------------------------------- Iteration      1(   3)  ---------------------------------------


    TRIAL :  cpu time      3.2846: real time      3.2917
    CORREC:  cpu time      0.0016: real time      0.0016
    --------------------------------------------
      LOOP:  cpu time      3.2864: real time      3.2937

 eigenvalue-minimisations  : 14355
 total energy-change (2. order) :-0.5083585E+04  (-0.4594807E+04)
 number of electron    1041.9999940 magnetization 
 augmentation part      118.4126153 magnetization 

 Free energy of the ion-electron system (eV)
  ---------------------------------------------------
  alpha Z        PSCENC =      5376.25786726
  Ewald energy   TEWEN  =    -86733.40628013
  -Hartree energ DENC   =     -2072.93038642
  -exchange      EXHF   =         0.00000000
  -V(xc)+E(xc)   XCENC  =      2751.54014431
  PAW double counting   =    330046.84367464  -358793.47392060
  entropy T*S    EENTRO =        -0.02222861
  eigenvalues    EBANDS =    -89931.65473819
  atomic energy  EATOM  =    131500.23896116
  ---------------------------------------------------
  free energy    TOTEN  =    -67856.60690658 eV

  energy without entropy =   -67856.58467798  energy(sigma->0) =   -67856.59579228
  exchange ACFDT corr.  =         0.00000000  see jH, gK, PRB 81, 115126


--------------------------------------------------------------------------------------------------------




--------------------------------------- Iteration      1(   4)  ---------------------------------------


    TRIAL :  cpu time      3.8433: real time      3.8429
    CORREC:  cpu time      0.0016: real time      0.0016
    --------------------------------------------
      LOOP:  cpu time      3.8451: real time      3.8449

 eigenvalue-minimisations  : 18296
 total energy-change (2. order) :-0.7725437E+03  (-0.6918983E+03)
 number of electron    1041.9999940 magnetization 
 augmentation part      118.4126153 magnetization 

 Free energy of the ion-electron system (eV)
  ---------------------------------------------------
  alpha Z        PSCENC =      5376.25786726
  Ewald energy   TEWEN  =    -86733.40628013
  -Hartree energ DENC   =     -2072.93038642
  -exchange      EXHF   =         0.00000000
  -V(xc)+E(xc)   XCENC  =      2751.54014431
  PAW double counting   =    330046.84367464  -358793.47392060
  entropy T*S    EENTRO =        -0.02792423
  eigenvalues    EBANDS =    -90704.19270362
  atomic energy  EATOM  =    131500.23896116
  ---------------------------------------------------
  free energy    TOTEN  =    -68629.15056764 eV

  energy without entropy =   -68629.12264341  energy(sigma->0) =   -68629.13660553
  exchange ACFDT corr.  =         0.00000000  see jH, gK, PRB 81, 115126


--------------------------------------------------------------------------------------------------------




--------------------------------------- Iteration      1(   5)  ---------------------------------------


    POTLOK:  cpu time      1.3729: real time      1.3733
    SETDIJ:  cpu time      0.4481: real time      0.4481
    TRIAL :  cpu time    228.5839: real time    228.5837
    CORREC:  cpu time      0.0015: real time      0.0015
    CHARGE:  cpu time      0.2057: real time      0.2057
    --------------------------------------------
      LOOP:  cpu time    230.6123: real time    230.6128

 eigenvalue-minimisations  : 17632
 total energy-change (2. order) : 0.2959026E+05  (-0.6812029E+02)
 number of electron    1042.0000071 magnetization 
 augmentation part      470.6723577 magnetization 

 Free energy of the ion-electron system (eV)
  ---------------------------------------------------
  alpha Z        PSCENC =      5376.25786726
  Ewald energy   TEWEN  =    -86733.40628013
  -Hartree energ DENC   =     -2072.93038642
  -exchange      EXHF   =      4730.09936616
  -V(xc)+E(xc)   XCENC  =      1902.04385615
  PAW double counting   =    331252.17971106  -333241.45738175
  entropy T*S    EENTRO =        -0.01076719
  eigenvalues    EBANDS =    -91751.90217167
  atomic energy  EATOM  =    131500.23896116
  ---------------------------------------------------
  free energy    TOTEN  =    -39038.88722537 eV

  energy without entropy =   -39038.87645818  energy(sigma->0) =   -39038.88184178
  exchange ACFDT corr.  =        -0.16863145  see jH, gK, PRB 81, 115126


--------------------------------------------------------------------------------------------------------




--------------------------------------- Iteration      1(   6)  ---------------------------------------


    POTLOK:  cpu time      1.3912: real time      1.3929
    SETDIJ:  cpu time      0.4873: real time      0.4891
    TRIAL :  cpu time    227.6243: real time    227.6358
    CORREC:  cpu time    230.2258: real time    230.2415
    CHARGE:  cpu time      0.2111: real time      0.2111
    --------------------------------------------
      LOOP:  cpu time    459.9400: real time    459.9709

 eigenvalue-minimisations  :     0
 total energy-change (2. order) : 0.7426218E+05  (-0.2453278E+05)
 number of electron    1041.9999942 magnetization 
 augmentation part      454.8370200 magnetization 

 Free energy of the ion-electron system (eV)
  ---------------------------------------------------
  alpha Z        PSCENC =      5376.25786726
  Ewald energy   TEWEN  =    -86733.40628013
  -Hartree energ DENC   =    -83863.46911493
  -exchange      EXHF   =      4809.20806568
  -V(xc)+E(xc)   XCENC  =      3731.51564596
  PAW double counting   =    151621.41454903  -176656.22817977
  entropy T*S    EENTRO =        -0.02911825
  eigenvalues    EBANDS =     85437.76766504
  atomic energy  EATOM  =    131500.23896116
  ---------------------------------------------------
  free energy    TOTEN  =     35223.28841209 eV

  energy without entropy =    35223.31753034  energy(sigma->0) =    35223.30297122
  exchange ACFDT corr.  =        -0.12928812  see jH, gK, PRB 81, 115126


--------------------------------------------------------------------------------------------------------




--------------------------------------- Iteration      1(   7)  ---------------------------------------


    POTLOK:  cpu time      1.5028: real time      1.5026
    SETDIJ:  cpu time      0.4450: real time      0.4449
    TRIAL :  cpu time    227.7746: real time    227.7922
    CORREC:  cpu time    230.2606: real time    230.2611
    CHARGE:  cpu time      0.2121: real time      0.2121
    --------------------------------------------
      LOOP:  cpu time    460.1954: real time    460.2135

 eigenvalue-minimisations  :     0
 total energy-change (2. order) :-0.2329961E+05  (-0.6928035E+04)
 number of electron    1042.0000040 magnetization 
 augmentation part      420.3864858 magnetization 

 Free energy of the ion-electron system (eV)
  ---------------------------------------------------
  alpha Z        PSCENC =      5376.25786726
  Ewald energy   TEWEN  =    -86733.40628013
  -Hartree energ DENC   =    -42546.60039940
  -exchange      EXHF   =      3710.21067049
  -V(xc)+E(xc)   XCENC  =      2882.30924211
  PAW double counting   =    151604.00695303  -169113.42482963
  entropy T*S    EENTRO =        -0.04457739
  eigenvalues    EBANDS =     15244.12033709
  atomic energy  EATOM  =    131500.23896116
  ---------------------------------------------------
  free energy    TOTEN  =     11923.68340372 eV

  energy without entropy =    11923.72798112  energy(sigma->0) =    11923.70569242
  exchange ACFDT corr.  =      -155.37745246  see jH, gK, PRB 81, 115126


--------------------------------------------------------------------------------------------------------




--------------------------------------- Iteration      1(   8)  ---------------------------------------


    POTLOK:  cpu time      1.4945: real time      1.4946
    SETDIJ:  cpu time      0.4808: real time      0.4808
    TRIAL :  cpu time    228.6739: real time    228.6806
    CORREC:  cpu time    229.8705: real time    229.8705
    CHARGE:  cpu time      0.2136: real time      0.2136
    --------------------------------------------
      LOOP:  cpu time    460.7335: real time    460.7456

 eigenvalue-minimisations  :     0
 total energy-change (2. order) :-0.7211663E+04  (-0.2351252E+04)
 number of electron    1042.0000092 magnetization 
 augmentation part      431.0527909 magnetization 

 Free energy of the ion-electron system (eV)
  ---------------------------------------------------
  alpha Z        PSCENC =      5376.25786726
  Ewald energy   TEWEN  =    -86733.40628013
  -Hartree energ DENC   =    -29503.57123343
  -exchange      EXHF   =      3373.05351238
  -V(xc)+E(xc)   XCENC  =      2642.37704623
  PAW double counting   =    142522.63587150  -156598.27315879
  entropy T*S    EENTRO =        -0.02810760
  eigenvalues    EBANDS =     -7867.24786621
  atomic energy  EATOM  =    131500.23896116
  ---------------------------------------------------
  free energy    TOTEN  =      4712.02014257 eV

  energy without entropy =     4712.04825017  energy(sigma->0) =     4712.03419637
  exchange ACFDT corr.  =       -96.68483418  see jH, gK, PRB 81, 115126


--------------------------------------------------------------------------------------------------------




--------------------------------------- Iteration      1(   9)  ---------------------------------------


    POTLOK:  cpu time      1.4564: real time      1.4562
    SETDIJ:  cpu time      0.5214: real time      0.5214
    TRIAL :  cpu time    228.0612: real time    228.0585
    CORREC:  cpu time    229.9825: real time    229.9879
    CHARGE:  cpu time      0.2070: real time      0.2070
    --------------------------------------------
      LOOP:  cpu time    460.2288: real time    460.2315

 eigenvalue-minimisations  :     0
 total energy-change (2. order) :-0.1519925E+04  (-0.2202768E+04)
 number of electron    1042.0000037 magnetization 
 augmentation part      449.4028813 magnetization 

 Free energy of the ion-electron system (eV)
  ---------------------------------------------------
  alpha Z        PSCENC =      5376.25786726
  Ewald energy   TEWEN  =    -86733.40628013
  -Hartree energ DENC   =    -30596.74139056
  -exchange      EXHF   =      3434.18598156
  -V(xc)+E(xc)   XCENC  =      2679.86243901
  PAW double counting   =    138570.60976538  -153210.60860462
  entropy T*S    EENTRO =        -0.01484377
  eigenvalues    EBANDS =     -7828.27518420
  atomic energy  EATOM  =    131500.23896116
  ---------------------------------------------------
  free energy    TOTEN  =      3192.09544725 eV

  energy without entropy =     3192.11029102  energy(sigma->0) =     3192.10286914
  exchange ACFDT corr.  =       -88.06564968  see jH, gK, PRB 81, 115126


--------------------------------------------------------------------------------------------------------




--------------------------------------- Iteration      1(  10)  ---------------------------------------


    POTLOK:  cpu time      1.5096: real time      1.5094
    SETDIJ:  cpu time      0.4399: real time      0.4398
    TRIAL :  cpu time    227.9711: real time    228.0093
    CORREC:  cpu time    229.6344: real time    229.6347
    CHARGE:  cpu time      0.2061: real time      0.2061
    --------------------------------------------
      LOOP:  cpu time    459.7615: real time    459.8002

 eigenvalue-minimisations  :     0
 total energy-change (2. order) :-0.1779282E+04  (-0.1059311E+04)
 number of electron    1041.9999959 magnetization 
 augmentation part      452.3308578 magnetization 

 Free energy of the ion-electron system (eV)
  ---------------------------------------------------
  alpha Z        PSCENC =      5376.25786726
  Ewald energy   TEWEN  =    -86733.40628013
  -Hartree energ DENC   =    -32507.24295938
  -exchange      EXHF   =      3569.23735066
  -V(xc)+E(xc)   XCENC  =      2778.64754624
  PAW double counting   =    140340.11942724  -156089.49448094
  entropy T*S    EENTRO =        -0.00786091
  eigenvalues    EBANDS =     -6821.52913916
  atomic energy  EATOM  =    131500.23896116
  ---------------------------------------------------
  free energy    TOTEN  =      1412.81344917 eV

  energy without entropy =     1412.82131009  energy(sigma->0) =     1412.81737963
  exchange ACFDT corr.  =        -7.17639238  see jH, gK, PRB 81, 115126


--------------------------------------------------------------------------------------------------------




--------------------------------------- Iteration      1(  11)  ---------------------------------------


    POTLOK:  cpu time      1.4788: real time      1.4787
    SETDIJ:  cpu time      0.4715: real time      0.4715
    TRIAL :  cpu time    227.6064: real time    227.5918
    CORREC:  cpu time    229.6253: real time    229.6032
    CHARGE:  cpu time      0.2051: real time      0.2051
    --------------------------------------------
      LOOP:  cpu time    459.3874: real time    459.3506

 eigenvalue-minimisations  :     0
 total energy-change (2. order) :-0.1066577E+04  (-0.6267166E+03)
 number of electron    1041.9999970 magnetization 
[...]
   0.164E+02 0.253E+03 -.470E+02   -.161E+02 -.253E+03 0.461E+02   -.247E+00 -.242E-01 0.785E+00
   0.827E+00 0.785E+02 -.655E+02   -.134E+01 -.758E+02 0.664E+02   0.450E+00 -.250E+01 -.947E+00
   0.294E+02 0.155E+03 -.198E+02   -.299E+02 -.153E+03 0.219E+02   0.413E+00 -.190E+01 -.197E+01
   -.887E+01 0.750E+02 -.600E+02   0.891E+01 -.730E+02 0.621E+02   -.208E-01 -.178E+01 -.195E+01
   -.379E+02 0.145E+03 -.518E+01   0.381E+02 -.145E+03 0.669E+01   -.174E+00 -.414E+00 -.142E+01
   0.543E+01 -.325E+02 0.317E+02   -.530E+01 0.396E+02 -.359E+02   -.110E+00 -.608E+01 0.362E+01
   0.439E+02 -.182E+03 0.355E+02   -.455E+02 0.176E+03 -.379E+02   0.143E+01 0.555E+01 0.202E+01
   0.561E+01 -.338E+02 0.186E+02   -.545E+01 0.413E+02 -.224E+02   -.144E+00 -.643E+01 0.331E+01
   0.314E+02 -.715E+02 0.278E+02   -.319E+02 0.793E+02 -.321E+02   0.377E+00 -.667E+01 0.371E+01
   -.115E+02 -.336E+02 0.151E+02   0.114E+02 0.416E+02 -.177E+02   0.114E+00 -.688E+01 0.226E+01
   -.294E+02 -.102E+03 0.513E+02   0.280E+02 0.112E+03 -.580E+02   0.117E+01 -.927E+01 0.578E+01
   -.757E+01 0.386E+02 -.111E+02   0.775E+01 -.463E+02 0.147E+02   -.150E+00 0.667E+01 -.309E+01
   -.169E+01 0.626E+02 -.317E+02   0.199E+01 -.719E+02 0.353E+02   -.261E+00 0.808E+01 -.312E+01
   0.487E+01 0.388E+02 -.107E+02   -.499E+01 -.460E+02 0.142E+02   0.104E+00 0.616E+01 -.299E+01
   -.147E+00 0.429E+02 -.244E+02   0.204E+00 -.492E+02 0.274E+02   -.453E-01 0.537E+01 -.256E+01
   0.864E+00 0.313E+02 -.143E+02   -.695E+00 -.387E+02 0.180E+02   -.147E+00 0.639E+01 -.319E+01
   0.136E+01 0.509E+02 -.361E+02   -.165E+01 -.587E+02 0.406E+02   0.238E+00 0.671E+01 -.391E+01
   0.244E+01 0.584E+02 0.443E+02   -.266E+01 -.555E+02 -.400E+02   0.193E+00 -.252E+01 -.372E+01
   0.229E+01 0.701E+02 0.349E+02   -.232E+01 -.682E+02 -.304E+02   0.267E-01 -.165E+01 -.388E+01
   0.347E+01 0.714E+02 0.359E+02   -.356E+01 -.699E+02 -.309E+02   0.714E-01 -.128E+01 -.431E+01
   0.197E+01 0.752E+02 0.349E+02   -.214E+01 -.734E+02 -.303E+02   0.139E+00 -.158E+01 -.395E+01
   -.285E+01 0.622E+02 0.412E+02   0.280E+01 -.598E+02 -.367E+02   0.445E-01 -.208E+01 -.387E+01
   -.550E+01 0.731E+02 0.361E+02   0.545E+01 -.716E+02 -.316E+02   0.310E-01 -.135E+01 -.386E+01
   -.540E+01 -.800E+02 -.282E+02   0.541E+01 0.775E+02 0.244E+02   -.476E-02 0.209E+01 0.332E+01
   0.671E+01 -.104E+03 -.348E+02   -.867E+01 0.102E+03 0.289E+02   0.169E+01 0.185E+01 0.507E+01
   0.540E+01 -.728E+02 -.245E+02   -.463E+01 0.699E+02 0.200E+02   -.670E+00 0.245E+01 0.394E+01
   0.341E+02 -.100E+03 -.234E+02   -.367E+02 0.980E+02 0.167E+02   0.221E+01 0.191E+01 0.576E+01
   -.114E+02 -.692E+02 -.326E+02   0.129E+02 0.669E+02 0.281E+02   -.129E+01 0.195E+01 0.391E+01
   0.268E+01 -.928E+02 -.339E+02   -.403E+01 0.917E+02 0.290E+02   0.116E+01 0.983E+00 0.427E+01
   -.227E-01 0.838E+02 0.777E+02   -.145E+01 -.970E+02 -.733E+02   0.127E+01 0.113E+02 -.379E+01
   -.320E+01 0.108E+03 0.624E+02   0.322E+01 -.121E+03 -.600E+02   -.126E-01 0.109E+02 -.210E+01
   0.355E+02 0.776E+02 0.670E+02   -.378E+02 -.893E+02 -.611E+02   0.201E+01 0.101E+02 -.512E+01
   0.426E+01 0.107E+03 0.578E+02   -.377E+01 -.120E+03 -.540E+02   -.422E+00 0.109E+02 -.324E+01
   0.469E+01 0.999E+02 0.725E+02   -.588E+01 -.112E+03 -.691E+02   0.103E+01 0.107E+02 -.294E+01
   -.336E+01 0.114E+03 0.606E+02   0.363E+01 -.127E+03 -.574E+02   -.235E+00 0.112E+02 -.269E+01
   0.138E+01 -.118E+03 -.665E+02   -.136E+01 0.131E+03 0.632E+02   -.107E-01 -.110E+02 0.284E+01
   0.106E+01 -.122E+03 -.627E+02   -.783E+00 0.135E+03 0.594E+02   -.240E+00 -.108E+02 0.287E+01
   0.617E+01 -.114E+03 -.642E+02   -.655E+01 0.127E+03 0.604E+02   0.332E+00 -.109E+02 0.335E+01
   -.177E+01 -.116E+03 -.638E+02   0.179E+01 0.129E+03 0.604E+02   -.249E-01 -.111E+02 0.297E+01
   -.317E+01 -.116E+03 -.671E+02   0.325E+01 0.128E+03 0.639E+02   -.681E-01 -.108E+02 0.282E+01
   -.632E+01 -.122E+03 -.629E+02   0.639E+01 0.134E+03 0.598E+02   -.649E-01 -.108E+02 0.262E+01
   -.358E+01 -.223E+01 0.760E+01   0.361E+01 0.930E+01 -.118E+02   -.238E-01 -.608E+01 0.363E+01
   -.949E+01 0.341E+02 0.935E+01   0.972E+01 -.272E+02 -.126E+02   -.205E+00 -.589E+01 0.281E+01
   0.362E+01 -.433E+01 0.101E+02   -.384E+01 0.116E+02 -.144E+02   0.191E+00 -.623E+01 0.368E+01
   0.573E+01 0.310E+02 0.416E+01   -.567E+01 -.245E+02 -.705E+01   -.507E-01 -.557E+01 0.249E+01
   0.159E+01 -.322E+01 0.671E+01   -.164E+01 0.102E+02 -.105E+02   0.461E-01 -.603E+01 0.329E+01
   0.426E+01 0.135E+02 0.181E+02   -.480E+01 -.597E+01 -.222E+02   0.461E+00 -.648E+01 0.350E+01
   0.562E+02 -.382E+02 0.641E+02   -.642E+02 0.325E+02 -.617E+02   0.689E+01 0.489E+01 -.209E+01
   0.156E+02 -.383E+02 -.557E+02   -.182E+02 0.313E+02 0.600E+02   0.227E+01 0.603E+01 -.371E+01
   0.161E+02 -.125E+02 0.279E+02   -.153E+02 0.521E+01 -.255E+02   -.640E+00 0.622E+01 -.210E+01
   0.110E+02 -.213E+02 -.338E+02   -.103E+02 0.145E+02 0.381E+02   -.592E+00 0.588E+01 -.370E+01
   -.654E+02 -.195E+02 -.945E+01   0.718E+02 0.166E+02 0.163E+02   -.550E+01 0.244E+01 -.581E+01
   -.144E+02 -.179E+02 -.402E+02   0.145E+02 0.110E+02 0.440E+02   -.643E-01 0.588E+01 -.331E+01
   -.213E+02 0.119E+03 0.878E+02   0.215E+02 -.123E+03 -.863E+02   -.133E+00 0.349E+01 -.132E+01
   -.955E+02 0.498E+02 -.111E+03   0.984E+02 -.486E+02 0.120E+03   -.257E+01 -.104E+01 -.765E+01
   0.104E+02 0.614E+02 0.746E+02   -.984E+01 -.577E+02 -.693E+02   -.488E+00 -.319E+01 -.457E+01
   0.949E+02 0.442E+01 -.488E+02   -.836E+02 -.469E+00 0.403E+02   -.976E+01 -.342E+01 0.742E+01
   0.645E+01 0.628E+02 0.606E+02   -.696E+01 -.607E+02 -.566E+02   0.437E+00 -.176E+01 -.345E+01
   -.757E+02 0.561E+02 -.120E+02   0.852E+02 -.552E+02 0.182E+02   -.818E+01 -.827E+00 -.533E+01
   -.121E+01 -.543E+02 -.344E+02   0.126E+01 0.530E+02 0.304E+02   -.455E-01 0.118E+01 0.346E+01
   0.210E+02 0.139E+03 -.139E+03   -.229E+02 -.148E+03 0.138E+03   0.166E+01 0.784E+01 0.543E+00
   0.747E+01 -.605E+02 -.330E+02   -.760E+01 0.591E+02 0.281E+02   0.110E+00 0.114E+01 0.416E+01
   0.395E+02 -.911E+01 -.591E+02   -.395E+02 0.634E+01 0.545E+02   0.107E-01 0.239E+01 0.400E+01
   -.737E+01 -.588E+02 -.379E+02   0.764E+01 0.570E+02 0.333E+02   -.244E+00 0.153E+01 0.400E+01
   -.206E+02 0.100E+02 -.445E+02   0.189E+02 -.140E+02 0.379E+02   0.144E+01 0.349E+01 0.564E+01
   0.428E+01 0.201E+03 0.111E+03   -.484E+01 -.214E+03 -.107E+03   0.494E+00 0.113E+02 -.319E+01
   -.336E+00 0.160E+03 0.253E+01   0.885E-01 -.174E+03 0.145E+01   0.227E+00 0.114E+02 -.345E+01
   0.191E+02 0.162E+03 0.836E+02   -.187E+02 -.176E+03 -.797E+02   -.287E+00 0.113E+02 -.333E+01
   0.141E+02 0.141E+03 0.252E+02   -.132E+02 -.153E+03 -.214E+02   -.836E+00 0.108E+02 -.327E+01
   -.161E+02 0.150E+03 0.861E+02   0.158E+02 -.162E+03 -.827E+02   0.279E+00 0.107E+02 -.291E+01
   -.200E+02 0.125E+03 0.237E+02   0.221E+02 -.137E+03 -.197E+02   -.184E+01 0.990E+01 -.345E+01
   -.148E+02 -.122E+03 -.864E+02   0.152E+02 0.134E+03 0.837E+02   -.376E+00 -.103E+02 0.233E+01
   0.104E+02 -.129E+03 -.803E+02   -.109E+02 0.141E+03 0.755E+02   0.439E+00 -.108E+02 0.415E+01
   0.127E+03 -.109E+03 0.125E+02   -.115E+03 0.120E+03 -.613E+01   -.106E+02 -.996E+01 -.552E+01
   -.860E+01 -.129E+03 -.766E+02   0.101E+02 0.142E+03 0.730E+02   -.128E+01 -.108E+02 0.312E+01
   -.151E+02 -.121E+03 -.174E+02   0.191E+02 0.134E+03 0.142E+02   -.346E+01 -.108E+02 0.274E+01
   0.130E+03 -.677E+02 -.386E+02   -.148E+03 0.778E+02 0.433E+02   0.184E+02 -.101E+02 -.452E+01
 -----------------------------------------------------------------------------------------------
   0.193E+01 -.322E+02 0.675E+01   -.142E-12 -.203E-11 -.109E-11   0.251E+00 0.265E+02 -.536E+01
 
 
 POSITION                                       TOTAL-FORCE (eV/Angst)
 -----------------------------------------------------------------------------------
      9.12476      7.65068     -1.75769         0.002500      0.076799      0.005128
      9.13053      6.30818     -7.41572         0.000713      0.043951      0.009395
      3.01978      7.65470     -1.76249        -0.017641      0.053637      0.011013
      3.03429      6.27968     -7.42961        -0.006492      0.055458      0.010134
      6.07671      7.64952     -1.76212        -0.003080      0.079057      0.016538
      6.07950      6.30810     -7.41773        -0.004323      0.070333     -0.001509
      1.49851      9.41809     -3.85863        -0.053399     -0.084116     -0.015522
      1.48389      7.99965     -9.54939        -0.042936     -0.070925     -0.010944
      4.57887      9.36936     -3.85505         0.008220     -0.070387      0.006907
      4.54865      8.00830     -9.53360        -0.016759     -0.085191     -0.015221
      7.62425      9.39164     -3.87148         0.010388      0.010433      0.005743
      7.58832      7.99267     -9.55385        -0.030262     -0.040127     -0.027457
      1.50158      6.17753     -4.48945        -0.000133     -0.022119      0.021672
      1.49827      4.77820    -10.13461         0.015290     -0.028863      0.005246
      4.54471      6.16682     -4.49671         0.004752     -0.018999      0.028179
      4.58447      4.79740    -10.14401        -0.051982     -0.033967      0.019321
      7.60021      6.15660     -4.48662         0.000223     -0.007371      0.019167
      7.60901      4.75154    -10.12695         0.021062     -0.032948      0.006421
      9.10714     10.89897     -1.17948        -0.011571      0.021883     -0.032079
      0.08102      9.49913     -6.80365        -0.162635     -0.013047      0.001132
      3.02033     10.88494     -1.15027        -0.013407      0.018186     -0.018597
      3.20856      9.39389     -6.77030        -0.009796      0.076388     -0.037574
      6.06170     10.88244     -1.15773         0.022981      0.022644     -0.007532
      6.21688      9.50296     -6.79757        -0.036760      0.049105     -0.031947
      1.46179      1.51288     -1.79716        -0.038930      0.060082      0.003098
      4.53891      1.53422     -1.75462         0.021819      0.076643     -0.001253
      4.75702      0.09475     -7.42089         0.234037      0.040442      0.026927
      7.59010      1.51957     -1.79329         0.013987      0.052594      0.003902
      7.92444      0.23766     -7.09902        -0.138428     -0.008861     -0.192647
      9.11599      3.23208     -3.87134        -0.025324     -0.099438     -0.005415
      0.01168      1.81866     -9.46560         0.026042     -0.148942      0.054713
      3.01158      3.24504     -3.88305         0.002323     -0.068336      0.003936
      3.01234      1.93994     -9.48649        -0.109970      0.109028     -0.004231
      6.06135      3.24453     -3.86429         0.026065     -0.080317     -0.011616
      6.09309      1.81841     -9.50224         0.038704     -0.139487     -0.033339
      9.01280      0.14666     -4.78039        -0.079245     -0.239128      0.491924
      9.03809     -1.32718    -10.12727        -0.026205      0.026366      0.079368
      2.97840     -0.02994     -4.41481         0.009655     -0.067284      0.065346
      2.95398     -1.38522    -10.14926        -0.027519     -0.140728     -0.044353
      6.08023     -0.01270     -4.44249         0.069532     -0.003644     -0.004490
      6.03619     -1.35730    -10.14499         0.038079      0.018496      0.047702
      1.49980      4.71986     -1.12995         0.001620      0.028167     -0.013020
      1.50947      3.39879     -6.82463         0.003175     -0.027425     -0.085988
      4.53291      4.73077     -1.11827        -0.007317      0.036932     -0.034987
      4.55953      3.36387     -6.79715        -0.019372      0.023365     -0.002548
      7.59303      4.74023     -1.13172         0.008335      0.021049      0.003846
      7.59788      3.41811     -6.79227         0.005408     -0.040250     -0.009162
      1.50006     11.88340     -1.45904         0.009042     -0.157606      0.128888
      1.69836     10.49935     -7.09492         0.136457      0.234747      0.067192
      4.53979     11.89427     -1.43563        -0.005992     -0.177019      0.116747
      4.66918     10.46592     -7.08614        -0.019957     -0.205209      0.132429
      7.57786     11.89576     -1.40847        -0.000690     -0.185857      0.084497
      7.72581     10.52950     -7.07202         0.003652     -0.335114      0.195241
      9.13001      5.15414     -4.21623        -0.007505      0.182815     -0.111415
      9.13156      3.75499     -9.85533        -0.008948      0.248052     -0.116705
      3.02144      5.15625     -4.22413         0.006614      0.168989     -0.108676
      3.05164      3.82062     -9.87344        -0.000466      0.139271     -0.094020
      6.06541      5.16082     -4.21385        -0.001116      0.173636     -0.114548
      6.07883      3.75281     -9.81973         0.003246      0.200458     -0.139676
      1.50859      7.49398     -3.16212         0.010995     -0.071309     -0.096315
      1.50691      6.11405     -8.81948         0.001104     -0.036438     -0.106940
      4.54943      7.48006     -3.16060         0.003777     -0.022790     -0.121025
      4.56941      6.11926     -8.81779        -0.000193     -0.026859     -0.108063
      7.60572      7.48391     -3.16319        -0.002832     -0.053254     -0.104489
      7.61219      6.11135     -8.82315        -0.008696     -0.026511     -0.110228
      9.12525      9.54548     -2.47086         0.010212      0.039478      0.091020
      0.01542      8.19535     -8.12953         0.054575      0.026653      0.149903
      3.01493      9.56955     -2.47772        -0.018579      0.068371      0.104959
      3.04570      8.16662     -8.14236         0.081014      0.048971      0.192827
      6.06592      9.54523     -2.46440        -0.046844      0.042223      0.108892
      6.10656      8.18636     -8.13134         0.026716      0.007047      0.124993
      0.02288      8.98215     -5.04609         0.039609      0.402780     -0.101041
      9.11155      7.60810    -10.70449         0.000537      0.396356     -0.041462
      3.04743      8.99519     -5.00255         0.073723      0.363151     -0.148495
      3.01526      7.62086    -10.68317        -0.010731      0.399358     -0.078916
      6.10765      8.98778     -5.02925         0.036366      0.392952     -0.076217
      6.05119      7.59787    -10.69083        -0.008039      0.408427     -0.059367
      1.50208      8.05557     -0.60464         0.002655     -0.403484      0.065267
      1.51931      6.69453     -6.26129        -0.008804     -0.393202      0.067247
      4.55285      8.05940     -0.61452         0.019843     -0.401928      0.085671
      4.54911      6.71850     -6.25980        -0.002008     -0.411577      0.072007
      7.59489      8.03338     -0.59886         0.001209     -0.398602      0.074852
      7.60326      6.68730     -6.25579        -0.004690     -0.395956      0.060123
      9.12586      5.73235     -1.43093         0.000740     -0.157960      0.127166
      9.12612      4.40840     -7.07106        -0.004978     -0.149381      0.102363
      3.01577      5.73873     -1.42774         0.014968     -0.173484      0.133572
      3.05119      4.38938     -7.07025        -0.007713     -0.140208      0.092292
      6.05738      5.73508     -1.41402         0.010364     -0.160487      0.114717
      6.06331      4.39272     -7.08305         0.020538     -0.173455      0.123219
      1.40357     -0.94673     -4.30444         0.245210      0.147982     -0.077957
      1.42976     -2.35545     -9.84082         0.100576      0.165287     -0.134391
      4.52896     -0.99473     -4.20045        -0.009243      0.154536     -0.067112
      4.49691     -2.34980     -9.85087        -0.021247      0.162798     -0.131792
      7.59941     -0.99593     -4.12316        -0.196992      0.042766     -0.166852
      7.54526     -2.38499     -9.86334         0.003264      0.154063     -0.131424
      9.10064      1.34081     -3.20763         0.004419      0.136151     -0.049161
      9.00486     -0.02608     -8.82407        -0.172730     -0.019886     -0.308007
      3.01605      1.34616     -3.17266        -0.017860     -0.094844     -0.131168
      2.91020     -0.12919     -8.65430        -0.373871     -0.097621      0.331038
      6.05368      1.35267     -3.16039         0.016029     -0.033839     -0.077221
      6.01976     -0.03074     -8.85895        -0.308295     -0.004705     -0.186132
      1.49865      3.41644     -2.48827        -0.003768      0.012933      0.089763
      1.55593      2.15269     -8.18081         0.073545      0.352876     -0.076565
      4.52695      3.42158     -2.46786         0.009278      0.019800      0.122484
      4.53456      1.99873     -8.08310        -0.000504      0.057226      0.108149
      7.58040      3.42899     -2.47120        -0.001160      0.024988      0.109679
      7.64499      2.02246     -8.02957         0.023946      0.112740      0.180394
      1.49674      2.80833     -5.06985         0.027733      0.432027     -0.064390
      1.53191      1.42290    -10.66351         0.019925      0.426728     -0.110661
      4.53691      2.83142     -5.03422        -0.009181      0.421289     -0.079737
      4.50703      1.45682    -10.63800        -0.015836      0.394665     -0.080873
      7.58799      2.88609     -5.03172         0.002652      0.410763     -0.055610
      7.60683      1.49745    -10.65795        -0.066142      0.365894     -0.106268
      9.10151      1.90790     -0.61746        -0.012507     -0.380047      0.037549
      2.99315      1.91008     -0.60677         0.020367     -0.396128      0.122756
      3.09847      0.30739     -6.30284        -0.355229     -0.402704     -0.251172
      6.06207      1.92695     -0.61254        -0.052075     -0.399995      0.075922
      6.13806      0.51323     -6.21032        -0.142611     -0.392216      0.068888
      1.81508     -0.07457     -7.32037         1.161709     -0.558708     -0.043942
 -----------------------------------------------------------------------------------
    total drift:                                0.077676      0.068763      0.017825


--------------------------------------------------------------------------------------------------------



  FREE ENERGIE OF THE ION-ELECTRON SYSTEM (eV)
  ---------------------------------------------------
  free  energy   TOTEN  =      -946.64904879 eV

  energy  without entropy=     -946.64904879  energy(sigma->0) =     -946.64904879
 


--------------------------------------------------------------------------------------------------------


    POTLOK:  cpu time      1.9129: real time      1.9205


--------------------------------------------------------------------------------------------------------


 writing wavefunctions
     LOOP+:  cpu time  18024.1782: real time  18026.8639
    4ORBIT:  cpu time      0.0000: real time      0.0000

 total amount of memory used by VASP MPI-rank0  7418385. kBytes
=======================================================================

   base      :      30000. kBytes
   nonlr-proj:      46483. kBytes
   fftplans  :      51012. kBytes
   grid      :     102973. kBytes
   one-center:       1850. kBytes
   HF        :        194. kBytes
   wavefun   :    6956640. kBytes
   fock_wrk  :     229233. kBytes
 
  
  
 General timing and accounting informations for this job:
 ========================================================
  
                  Total CPU time used (sec):    18055.432
                            User time (sec):    18041.082
                          System time (sec):       14.350
                         Elapsed time (sec):    18060.301
  
                   Maximum memory used (kb):    13200256.
                   Average memory used (kb):          N/A
  
                          Minor page faults:      4326692
                          Major page faults:            5
                 Voluntary context switches:       347833
