 running    4 mpi-ranks, on    1 nodes
 distrk:  each k-point on    1 cores,    4 groups
 distr:  one band on    1 cores,    1 groups
 OpenACC runtime initialized ...    4 GPUs detected
 vasp.6.4.2 20Jul23 (build Nov 12 2023 22:16:35) complex                         
 POSCAR found type information on POSCAR GaO P 
 POSCAR found :  3 types and     120 ions
 scaLAPACK will be used selectively (only on CPU)
 LDA part: xc-table for Pade appr. of Perdew
 POSCAR, INCAR and KPOINTS ok, starting setup
 FFT: planning ... GRIDC
 FFT: planning ... GRID_SOFT
 FFT: planning ... GRID
 WAVECAR not read
 entering main loop
       N       E                     dE             d eps       ncg     rms          rms(c)
DAV:   1     0.219896406143E+05    0.21990E+05   -0.32119E+05 10128   0.282E+03
DAV:   2     0.487380436014E+04   -0.17116E+05   -0.16134E+05 10128   0.816E+02
DAV:   3    -0.137799941520E+03   -0.50116E+04   -0.47086E+04 12928   0.320E+02
DAV:   4    -0.766297410554E+03   -0.62850E+03   -0.61589E+03 12496   0.121E+02
DAV:   5    -0.810217662533E+03   -0.43920E+02   -0.43587E+02 14576   0.346E+01BRMIX: very serious problems
 the old and the new charge density differ
BRMIX: very serious problems
 the old and the new charge density differ
 old charge density:  1055.00000 new 1055.99974
 old charge density:  1055.00000 new 1055.99974
BRMIX: very serious problems
 the old and the new charge density differ
 old charge density:  1055.00000 new 1055.99974
BRMIX: very serious problems
 the old and the new charge density differ
 old charge density:  1055.00000 new 1055.99974
    0.611E+01
RMM:   6    -0.696541512409E+03    0.11368E+03   -0.38189E+02 13153   0.236E+01    0.167E+01
RMM:   7    -0.700172668769E+03   -0.36312E+01   -0.67173E+01 14026   0.984E+00    0.135E+01
RMM:   8    -0.700122507899E+03    0.50161E-01   -0.10924E+01 12610   0.555E+00    0.490E+00
RMM:   9    -0.699499138832E+03    0.62337E+00   -0.30343E+00 15045   0.226E+00    0.122E+00
RMM:  10    -0.699556513701E+03   -0.57375E-01   -0.83303E-01 13738   0.106E+00    0.622E-01
RMM:  11    -0.699567261896E+03   -0.10748E-01   -0.13828E-01 14930   0.536E-01    0.216E-01
RMM:  12    -0.699573711694E+03   -0.64498E-02   -0.44203E-02 15239   0.224E-01    0.173E-01
RMM:  13    -0.699574614858E+03   -0.90316E-03   -0.18011E-02 14500   0.131E-01    0.596E-02
RMM:  14    -0.699574942055E+03   -0.32720E-03   -0.40118E-03 14674   0.666E-02    0.264E-02
RMM:  15    -0.699575077155E+03   -0.13510E-03   -0.14383E-03 11643   0.342E-02    0.770E-03
RMM:  16    -0.699575125163E+03   -0.48007E-04   -0.46716E-04 10451   0.210E-02    0.233E-03
RMM:  17    -0.699575144903E+03   -0.19740E-04   -0.19022E-04  9873   0.126E-02    0.273E-03
RMM:  18    -0.699575151731E+03   -0.68279E-05   -0.69805E-05  9227   0.825E-03
   1 F= -.69957515E+03 E0= -.69957346E+03  d E =-.699575E+03
 curvature:   0.00 expect dE= 0.000E+00 dE for cont linesearch  0.000E+00
 trial: gam= 0.00000 g(F)=  0.109E+02 g(S)=  0.000E+00 ort = 0.000E+00 (trialstep = 0.100E+01)
 search vector abs. value=  0.109E+02
 bond charge predicted
       N       E                     dE             d eps       ncg     rms          rms(c)
DAV:   1    -0.659933656094E+03    0.39641E+02   -0.56408E+03 12792   0.119E+02    0.153E+01
RMM:   2    -0.694290695727E+03   -0.34357E+02   -0.36663E+02 13624   0.294E+01    0.441E+00
RMM:   3    -0.700779066646E+03   -0.64884E+01   -0.73487E+01 14993   0.117E+01    0.799E+00
RMM:   4    -0.701696924398E+03   -0.91786E+00   -0.11568E+01 15771   0.458E+00    0.823E+00
RMM:   5    -0.701756155585E+03   -0.59231E-01   -0.15231E+00 15816   0.157E+00    0.706E+00
RMM:   6    -0.701673342780E+03    0.82813E-01   -0.18261E+00 13341   0.207E+00    0.513E+00
RMM:   7    -0.701794831883E+03   -0.12149E+00   -0.50312E-01 13382   0.105E+00    0.764E+00
RMM:   8    -0.701571219731E+03    0.22361E+00   -0.16270E-01 13236   0.643E-01    0.359E+00
RMM:   9    -0.701557205164E+03    0.14015E-01   -0.53313E-01 13493   0.913E-01    0.137E+00
RMM:  10    -0.701516550240E+03    0.40655E-01   -0.68116E-02 12745   0.423E-01    0.607E-01
RMM:  11    -0.701515750714E+03    0.79953E-03   -0.11309E-02 14381   0.147E-01    0.476E-01
RMM:  12    -0.701516162217E+03   -0.41150E-03   -0.12658E-02 13108   0.220E-01    0.502E-01
RMM:  13    -0.701514150360E+03    0.20119E-02   -0.19949E-03 14091   0.624E-02    0.298E-01
RMM:  14    -0.701514162493E+03   -0.12134E-04   -0.26986E-03 13314   0.727E-02    0.972E-02
RMM:  15    -0.701513912604E+03    0.24989E-03   -0.35732E-04 13207   0.247E-02    0.408E-02
RMM:  16    -0.701513901352E+03    0.11252E-04   -0.87378E-05  9958   0.148E-02    0.272E-02
RMM:  17    -0.701513889677E+03    0.11675E-04   -0.19536E-05  6158   0.810E-03    0.170E-02
RMM:  18    -0.701513891555E+03   -0.18773E-05   -0.14769E-05  6080   0.697E-03
   2 F= -.70151389E+03 E0= -.70150891E+03  d E =-.193874E+01
 trial-energy change:   -1.938740  1 .order   -3.286903  -10.943934    4.370128
 step:   0.5865(harm=  0.7146)  dis= 0.25157  next Energy=  -702.512626 (dE=-0.294E+01)
 bond charge predicted
       N       E                     dE             d eps       ncg     rms          rms(c)
DAV:   1    -0.700709737733E+03    0.80415E+00   -0.36350E+02 13320   0.268E+01    0.504E+00
RMM:   2    -0.702025954471E+03   -0.13162E+01   -0.13877E+01 13266   0.741E+00    0.135E+00
RMM:   3    -0.702399916644E+03   -0.37396E+00   -0.37562E+00 15263   0.284E+00    0.109E+00
RMM:   4    -0.702442137571E+03   -0.42221E-01   -0.49251E-01 15698   0.942E-01    0.961E-01
RMM:   5    -0.702437814512E+03    0.43231E-02   -0.63111E-02 15499   0.352E-01    0.367E-01
RMM:   6    -0.702436676420E+03    0.11381E-02   -0.26498E-02 13412   0.229E-01    0.386E-01
RMM:   7    -0.702436255942E+03    0.42048E-03   -0.58285E-03 15352   0.105E-01    0.161E-01
RMM:   8    -0.702436249155E+03    0.67873E-05   -0.19706E-03 13529   0.488E-02    0.480E-02
RMM:   9    -0.702436253697E+03   -0.45419E-05   -0.39473E-04 12406   0.260E-02    0.146E-02
RMM:  10    -0.702436264491E+03   -0.10794E-04   -0.13766E-04 10323   0.140E-02    0.133E-02
RMM:  11    -0.702436266336E+03   -0.18459E-05   -0.39417E-05  8698   0.926E-03
   3 F= -.70243627E+03 E0= -.70243167E+03  d E =-.286111E+01
 curvature:  -0.29 expect dE=-0.517E+00 dE for cont linesearch -0.540E-03
 trial: gam= 0.15248 g(F)=  0.181E+01 g(S)=  0.000E+00 ort = 0.144E+00 (trialstep = 0.917E+00)
 search vector abs. value=  0.211E+01
 bond charge predicted
       N       E                     dE             d eps       ncg     rms          rms(c)
DAV:   1    -0.701805059017E+03    0.63121E+00   -0.28728E+02 10616   0.238E+01    0.463E+00
RMM:   2    -0.703065996559E+03   -0.12609E+01   -0.13376E+01 13834   0.692E+00    0.111E+00
RMM:   3    -0.703291353268E+03   -0.22536E+00   -0.25987E+00 15511   0.255E+00    0.193E+00
RMM:   4    -0.703305861838E+03   -0.14509E-01   -0.29040E-01 15663   0.845E-01    0.154E+00
RMM:   5    -0.703287599785E+03    0.18262E-01   -0.11142E-01 13634   0.467E-01    0.681E-01
RMM:   6    -0.703288551565E+03   -0.95178E-03   -0.23497E-02 15018   0.232E-01    0.626E-01
RMM:   7    -0.703285863326E+03    0.26882E-02   -0.13229E-02 13457   0.132E-01    0.142E-01
RMM:   8    -0.703285870749E+03   -0.74229E-05   -0.19381E-03 14650   0.610E-02    0.608E-02
RMM:   9    -0.703285885407E+03   -0.14658E-04   -0.72901E-04 13767   0.328E-02    0.263E-02
RMM:  10    -0.703285900753E+03   -0.15346E-04   -0.19159E-04 11062   0.171E-02    0.277E-02
RMM:  11    -0.703285898232E+03    0.25211E-05   -0.55500E-05  8882   0.107E-02
   4 F= -.70328590E+03 E0= -.70328590E+03  d E =-.849632E+00
 trial-energy change:   -0.849632  1 .order   -0.850589   -1.682893   -0.018285
 step:   0.9274(harm=  0.9274)  dis= 0.13746  next Energy=  -703.286956 (dE=-0.851E+00)
 bond charge predicted
       N       E                     dE             d eps       ncg     rms          rms(c)
DAV:   1    -0.703285857211E+03    0.43542E-04   -0.34705E-02 12032   0.259E-01    0.347E-02
RMM:   2    -0.703285987180E+03   -0.12997E-03   -0.14048E-03 13346   0.702E-02    0.108E-02
RMM:   3    -0.703286010624E+03   -0.23443E-04   -0.28686E-04 13490   0.267E-02    0.116E-02
RMM:   4    -0.703286010862E+03   -0.23810E-06   -0.37967E-05  7931   0.121E-02
   5 F= -.70328601E+03 E0= -.70328601E+03  d E =-.849745E+00
 curvature:  -0.53 expect dE=-0.400E+00 dE for cont linesearch -0.133E-06
 trial: gam= 0.39245 g(F)=  0.749E+00 g(S)=  0.000E+00 ort =-0.725E-03 (trialstep = 0.919E+00)
 search vector abs. value=  0.107E+01
 bond charge predicted
       N       E                     dE             d eps       ncg     rms          rms(c)
DAV:   1    -0.702888498504E+03    0.39751E+00   -0.14236E+02 11048   0.175E+01    0.272E+00
RMM:   2    -0.703508969425E+03   -0.62047E+00   -0.66172E+00 13809   0.545E+00    0.755E-01
RMM:   3    -0.703658613201E+03   -0.14964E+00   -0.16388E+00 15318   0.208E+00    0.978E-01
RMM:   4    -0.703671216158E+03   -0.12603E-01   -0.19840E-01 15692   0.711E-01    0.717E-01
RMM:   5    -0.703665910047E+03    0.53061E-02   -0.41956E-02 14851   0.324E-01    0.209E-01
RMM:   6    -0.703666756035E+03   -0.84599E-03   -0.11977E-02 14145   0.169E-01    0.259E-01
RMM:   7    -0.703666303838E+03    0.45220E-03   -0.44952E-03 14378   0.881E-02    0.457E-02
RMM:   8    -0.703666358685E+03   -0.54847E-04   -0.82841E-04 13994   0.383E-02    0.364E-02
RMM:   9    -0.703666358423E+03    0.26180E-06   -0.20448E-04 11702   0.204E-02    0.129E-02
RMM:  10    -0.703666362187E+03   -0.37644E-05   -0.65558E-05  9276   0.110E-02
   6 F= -.70366636E+03 E0= -.70366636E+03  d E =-.380351E+00
 trial-energy change:   -0.380351  1 .order   -0.382793   -0.688520   -0.077065
 step:   1.0384(harm=  1.0352)  dis= 0.12831  next Energy=  -703.671348 (dE=-0.385E+00)
 bond charge predicted
       N       E                     dE             d eps       ncg     rms          rms(c)
DAV:   1    -0.703661032041E+03    0.53264E-02   -0.23865E+00 11792   0.226E+00    0.269E-01
RMM:   2    -0.703669684416E+03   -0.86524E-02   -0.92887E-02 13611   0.649E-01    0.945E-02
RMM:   3    -0.703671660557E+03   -0.19761E-02   -0.22090E-02 15202   0.244E-01    0.930E-02
RMM:   4    -0.703671793807E+03   -0.13325E-03   -0.26205E-03 15414   0.852E-02    0.661E-02
RMM:   5    -0.703671728669E+03    0.65138E-04   -0.59301E-04 14462   0.391E-02    0.157E-02
RMM:   6    -0.703671740226E+03   -0.11557E-04   -0.18095E-04 12287   0.204E-02    0.177E-02
RMM:   7    -0.703671738402E+03    0.18246E-05   -0.54048E-05  9668   0.118E-02
   7 F= -.70367174E+03 E0= -.70367174E+03  d E =-.385728E+00
 curvature:  -0.74 expect dE=-0.234E+00 dE for cont linesearch -0.708E-06
 trial: gam= 0.33788 g(F)=  0.316E+00 g(S)=  0.000E+00 ort = 0.101E-02 (trialstep = 0.943E+00)
 search vector abs. value=  0.439E+00
 bond charge predicted
       N       E                     dE             d eps       ncg     rms          rms(c)
DAV:   1    -0.703495392878E+03    0.17635E+00   -0.67679E+01 10952   0.123E+01    0.148E+00
RMM:   2    -0.703763140548E+03   -0.26775E+00   -0.28367E+00 13631   0.363E+00    0.481E-01
RMM:   3    -0.703828391747E+03   -0.65251E-01   -0.71519E-01 15260   0.141E+00    0.533E-01
RMM:   4    -0.703833242263E+03   -0.48505E-02   -0.82374E-02 15794   0.477E-01    0.409E-01
RMM:   5    -0.703830260363E+03    0.29819E-02   -0.18955E-02 14120   0.222E-01    0.130E-01
RMM:   6    -0.703830532175E+03   -0.27181E-03   -0.51074E-03 14749   0.114E-01    0.137E-01
RMM:   7    -0.703830368999E+03    0.16318E-03   -0.20189E-03 14212   0.601E-02    0.416E-02
RMM:   8    -0.703830365546E+03    0.34525E-05   -0.34445E-04 13347   0.268E-02    0.250E-02
RMM:   9    -0.703830363780E+03    0.17660E-05   -0.10794E-04 10374   0.144E-02    0.637E-03
RMM:  10    -0.703830365945E+03   -0.21646E-05   -0.29685E-05  8334   0.895E-03
   8 F= -.70383037E+03 E0= -.70383037E+03  d E =-.158628E+00
 trial-energy change:   -0.158628  1 .order   -0.158528   -0.297907   -0.019149
 step:   1.0079(harm=  1.0079)  dis= 0.07029  next Energy=  -703.830924 (dE=-0.159E+00)
 bond charge predicted
       N       E                     dE             d eps       ncg     rms          rms(c)
DAV:   1    -0.703829684303E+03    0.67948E-03   -0.31999E-01 11664   0.844E-01    0.923E-02
RMM:   2    -0.703830847665E+03   -0.11634E-02   -0.12338E-02 13539   0.235E-01    0.316E-02
RMM:   3    -0.703831105283E+03   -0.25762E-03   -0.28596E-03 15137   0.896E-02    0.310E-02
RMM:   4    -0.703831119521E+03   -0.14238E-04   -0.33311E-04 14236   0.314E-02    0.211E-02
RMM:   5    -0.703831110780E+03    0.87410E-05   -0.92997E-05 11156   0.165E-02
   9 F= -.70383111E+03 E0= -.70383111E+03  d E =-.159372E+00
 curvature:  -0.70 expect dE=-0.107E+00 dE for cont linesearch -0.441E-06
 trial: gam= 0.46150 g(F)=  0.153E+00 g(S)=  0.000E+00 ort = 0.526E-03 (trialstep = 0.956E+00)
 search vector abs. value=  0.247E+00
 bond charge predicted
       N       E                     dE             d eps       ncg     rms          rms(c)
DAV:   1    -0.703705085009E+03    0.12603E+00   -0.46193E+01 10968   0.102E+01    0.111E+00
RMM:   2    -0.703870035839E+03   -0.16495E+00   -0.17441E+00 13603   0.282E+00    0.363E-01
RMM:   3    -0.703906218596E+03   -0.36183E-01   -0.40049E-01 15315   0.108E+00    0.371E-01
RMM:   4    -0.703907324222E+03   -0.11056E-02   -0.44520E-02 15616   0.360E-01    0.208E-01
RMM:   5    -0.703906445022E+03    0.87920E-03   -0.10979E-02 14802   0.163E-01    0.861E-02
RMM:   6    -0.703906545684E+03   -0.10066E-03   -0.23124E-03 15604   0.735E-02    0.564E-02
RMM:   7    -0.703906542211E+03    0.34729E-05   -0.73690E-04 14661   0.369E-02    0.233E-02
RMM:   8    -0.703906548582E+03   -0.63708E-05   -0.18536E-04 11555   0.182E-02    0.133E-02
RMM:   9    -0.703906550163E+03   -0.15814E-05   -0.59837E-05  9492   0.118E-02
  10 F= -.70390655E+03 E0= -.70390655E+03  d E =-.754394E-01
 trial-energy change:   -0.075439  1 .order   -0.074560   -0.146369   -0.002751
 step:   0.9738(harm=  0.9744)  dis= 0.03187  next Energy=  -703.906576 (dE=-0.755E-01)
 bond charge predicted
       N       E                     dE             d eps       ncg     rms          rms(c)
DAV:   1    -0.703906525139E+03    0.23443E-04   -0.15860E-02 11712   0.188E-01    0.202E-02
RMM:   2    -0.703906580573E+03   -0.55434E-04   -0.58635E-04 13396   0.509E-02    0.673E-03
RMM:   3    -0.703906591422E+03   -0.10850E-04   -0.12961E-04 12589   0.196E-02    0.634E-03
RMM:   4    -0.703906592130E+03   -0.70719E-06   -0.20707E-05  6350   0.102E-02
  11 F= -.70390659E+03 E0= -.70390659E+03  d E =-.754813E-01
 curvature:  -0.78 expect dE=-0.545E-01 dE for cont linesearch -0.306E-07
 trial: gam= 0.46352 g(F)=  0.695E-01 g(S)=  0.000E+00 ort =-0.980E-04 (trialstep = 0.960E+00)
 search vector abs. value=  0.122E+00
 bond charge predicted
       N       E                     dE             d eps       ncg     rms          rms(c)
DAV:   1    -0.703840480777E+03    0.66111E-01   -0.25121E+01 10832   0.739E+00    0.813E-01
RMM:   2    -0.703925424259E+03   -0.84943E-01   -0.89990E-01 13448   0.198E+00    0.259E-01
RMM:   3    -0.703943102955E+03   -0.17679E-01   -0.19638E-01 15319   0.754E-01    0.265E-01
RMM:   4    -0.703943415625E+03   -0.31267E-03   -0.21151E-02 15450   0.250E-01    0.133E-01
RMM:   5    -0.703943065622E+03    0.35000E-03   -0.54787E-03 14971   0.115E-01    0.609E-02
RMM:   6    -0.703943106979E+03   -0.41357E-04   -0.10966E-03 15591   0.503E-02    0.374E-02
RMM:   7    -0.703943102667E+03    0.43121E-05   -0.34934E-04 13207   0.264E-02    0.162E-02
RMM:   8    -0.703943105411E+03   -0.27445E-05   -0.98635E-05 10248   0.145E-02
  12 F= -.70394311E+03 E0= -.70394311E+03  d E =-.365133E-01
 trial-energy change:   -0.036513  1 .order   -0.035688   -0.066683   -0.004694
 step:   1.0266(harm=  1.0323)  dis= 0.01657  next Energy=  -703.943269 (dE=-0.367E-01)
 bond charge predicted
       N       E                     dE             d eps       ncg     rms          rms(c)
DAV:   1    -0.703942862469E+03    0.24020E-03   -0.12252E-01 11672   0.516E-01    0.544E-02
RMM:   2    -0.703943272144E+03   -0.40967E-03   -0.43327E-03 13389   0.138E-01    0.180E-02
RMM:   3    -0.703943359086E+03   -0.86943E-04   -0.97199E-04 15129   0.529E-02    0.186E-02
RMM:   4    -0.703943361926E+03   -0.28392E-05   -0.11101E-04 12120   0.184E-02    0.103E-02
RMM:   5    -0.703943359809E+03    0.21162E-05   -0.34837E-05  9021   0.113E-02
  13 F= -.70394336E+03 E0= -.70394336E+03  d E =-.367677E-01
 curvature:  -0.90 expect dE=-0.287E-01 dE for cont linesearch -0.120E-04
 trial: gam= 0.43921 g(F)=  0.317E-01 g(S)=  0.000E+00 ort = 0.127E-02 (trialstep = 0.973E+00)
 search vector abs. value=  0.565E-01
 bond charge predicted
       N       E                     dE             d eps       ncg     rms          rms(c)
DAV:   1    -0.703912114969E+03    0.31247E-01   -0.12054E+01 10656   0.507E+00    0.573E-01
RMM:   2    -0.703952563007E+03   -0.40448E-01   -0.42724E-01 13323   0.135E+00    0.174E-01
RMM:   3    -0.703961150934E+03   -0.85879E-02   -0.93204E-02 15303   0.515E-01    0.180E-01
RMM:   4    -0.703961409461E+03   -0.25853E-03   -0.98793E-03 15368   0.170E-01    0.908E-02
RMM:   5    -0.703961340502E+03    0.68958E-04   -0.25546E-03 15033   0.766E-02    0.436E-02
RMM:   6    -0.703961362533E+03   -0.22031E-04   -0.50876E-04 15070   0.333E-02    0.250E-02
RMM:   7    -0.703961366420E+03   -0.38874E-05   -0.16865E-04 11460   0.178E-02    0.101E-02
RMM:   8    -0.703961369002E+03   -0.25821E-05   -0.46286E-05  8927   0.107E-02
  14 F= -.70396137E+03 E0= -.70396137E+03  d E =-.180092E-01
 trial-energy change:   -0.018009  1 .order   -0.017733   -0.031413   -0.004053
 step:   1.1078(harm=  1.1171)  dis= 0.01217  next Energy=  -703.961650 (dE=-0.183E-01)
 bond charge predicted
       N       E                     dE             d eps       ncg     rms          rms(c)
DAV:   1    -0.703960843698E+03    0.52272E-03   -0.23194E-01 11656   0.703E-01    0.775E-02
RMM:   2    -0.703961617058E+03   -0.77336E-03   -0.81577E-03 13333   0.183E-01    0.239E-02
RMM:   3    -0.703961771426E+03   -0.15437E-03   -0.16963E-03 15259   0.692E-02    0.249E-02
RMM:   4    -0.703961775193E+03   -0.37669E-05   -0.18627E-04 12642   0.230E-02    0.118E-02
RMM:   5    -0.703961774146E+03    0.10467E-05   -0.53309E-05  9816   0.131E-02
  15 F= -.70396177E+03 E0= -.70396177E+03  d E =-.184143E-01
 curvature:  -0.97 expect dE=-0.168E-01 dE for cont linesearch -0.136E-04
 trial: gam= 0.54677 g(F)=  0.173E-01 g(S)=  0.000E+00 ort = 0.887E-03 (trialstep = 0.100E+01)
 search vector abs. value=  0.351E-01
 bond charge predicted
       N       E                     dE             d eps       ncg     rms          rms(c)
DAV:   1    -0.703940716711E+03    0.21058E-01   -0.83867E+00 10678   0.417E+00    0.475E-01
RMM:   2    -0.703966476189E+03   -0.25759E-01   -0.27139E-01 12913   0.107E+00    0.145E-01
RMM:   3    -0.703972670842E+03   -0.61947E-02   -0.66303E-02 15204   0.428E-01    0.147E-01
RMM:   4    -0.703972868884E+03   -0.19804E-03   -0.64102E-03 15221   0.136E-01    0.730E-02
RMM:   5    -0.703972826855E+03    0.42029E-04   -0.16526E-03 14847   0.616E-02    0.421E-02
RMM:   6    -0.703972833059E+03   -0.62039E-05   -0.32452E-04 13730   0.266E-02    0.203E-02
RMM:   7    -0.703972835617E+03   -0.25584E-05   -0.10734E-04 10092   0.141E-02    0.861E-03
RMM:   8    -0.703972836397E+03   -0.77981E-06   -0.28589E-05  8372   0.921E-03
  16 F= -.70397284E+03 E0= -.70397284E+03  d E =-.110623E-01
 trial-energy change:   -0.011062  1 .order   -0.010807   -0.017766   -0.003848
 step:   1.2432(harm=  1.2765)  dis= 0.01110  next Energy=  -703.973308 (dE=-0.115E-01)
 bond charge predicted
       N       E                     dE             d eps       ncg     rms          rms(c)
DAV:   1    -0.703971598240E+03    0.12374E-02   -0.49676E-01 11408   0.101E+00    0.113E-01
RMM:   2    -0.703973100653E+03   -0.15024E-02   -0.15823E-02 12861   0.255E-01    0.351E-02
RMM:   3    -0.703973460637E+03   -0.35998E-03   -0.38650E-03 15186   0.103E-01    0.360E-02
RMM:   4    -0.703973471531E+03   -0.10895E-04   -0.37169E-04 13932   0.325E-02    0.182E-02
RMM:   5    -0.703973468959E+03    0.25724E-05   -0.10465E-04 10880   0.167E-02    0.116E-02
RMM:   6    -0.703973468838E+03    0.12136E-06   -0.22508E-05  8036   0.809E-03
  17 F= -.70397347E+03 E0= -.70397347E+03  d E =-.116947E-01
 curvature:  -1.24 expect dE=-0.127E-01 dE for cont linesearch -0.126E-04
 trial: gam= 0.58110 g(F)=  0.102E-01 g(S)=  0.000E+00 ort = 0.597E-03 (trialstep = 0.105E+01)
 search vector abs. value=  0.227E-01
 bond charge predicted
       N       E                     dE             d eps       ncg     rms          rms(c)
DAV:   1    -0.703957232451E+03    0.16237E-01   -0.59445E+00 10824   0.357E+00    0.388E-01
RMM:   2    -0.703975660623E+03   -0.18428E-01   -0.19379E-01 13045   0.914E-01    0.117E-01
RMM:   3    -0.703980084724E+03   -0.44241E-02   -0.46279E-02 15271   0.363E-01    0.119E-01
RMM:   4    -0.703980309971E+03   -0.22525E-03   -0.49764E-03 15435   0.117E-01    0.660E-02
RMM:   5    -0.703980278411E+03    0.31560E-04   -0.11887E-03 14771   0.514E-02    0.332E-02
RMM:   6    -0.703980286273E+03   -0.78626E-05   -0.24146E-04 13124   0.227E-02    0.175E-02
RMM:   7    -0.703980288803E+03   -0.25297E-05   -0.78528E-05  9698   0.122E-02
  18 F= -.70398029E+03 E0= -.70398029E+03  d E =-.681997E-02
 trial-energy change:   -0.006820  1 .order   -0.006417   -0.011041   -0.001794
 step:   1.2051(harm=  1.2520)  dis= 0.00673  next Energy=  -703.980424 (dE=-0.696E-02)
 bond charge predicted
       N       E                     dE             d eps       ncg     rms          rms(c)
DAV:   1    -0.703980030595E+03    0.25568E-03   -0.13273E-01 11790   0.534E-01    0.560E-02
RMM:   2    -0.703980452069E+03   -0.42147E-03   -0.44270E-03 13087   0.139E-01    0.172E-02
RMM:   3    -0.703980549247E+03   -0.97178E-04   -0.10398E-03 15065   0.544E-02    0.181E-02
RMM:   4    -0.703980554710E+03   -0.54633E-05   -0.12339E-04 12086   0.187E-02    0.974E-03
RMM:   5    -0.703980554209E+03    0.50121E-06   -0.36548E-05  8821   0.118E-02
  19 F= -.70398055E+03 E0= -.70398055E+03  d E =-.708537E-02
 curvature:  -1.28 expect dE=-0.710E-02 dE for cont linesearch -0.435E-04
 trial: gam= 0.54461 g(F)=  0.555E-02 g(S)=  0.000E+00 ort = 0.879E-03 (trialstep = 0.108E+01)
 search vector abs. value=  0.132E-01
 bond charge predicted
       N       E                     dE             d eps       ncg     rms          rms(c)
DAV:   1    -0.703970185566E+03    0.10369E-01   -0.37202E+00 10710   0.280E+00    0.312E-01
RMM:   2    -0.703981483835E+03   -0.11298E-01   -0.11910E-01 12852   0.709E-01    0.951E-02
RMM:   3    -0.703984221890E+03   -0.27381E-02   -0.29114E-02 15251   0.285E-01    0.962E-02
RMM:   4    -0.703984347939E+03   -0.12605E-03   -0.31022E-03 15287   0.921E-02    0.540E-02
RMM:   5    -0.703984318336E+03    0.29604E-04   -0.78197E-04 14450   0.415E-02    0.293E-02
RMM:   6    -0.703984320069E+03   -0.17339E-05   -0.15117E-04 12004   0.183E-02    0.143E-02
RMM:   7    -0.703984321815E+03   -0.17453E-05   -0.56882E-05  9305   0.107E-02
  20 F= -.70398432E+03 E0= -.70398432E+03  d E =-.376761E-02
 trial-energy change:   -0.003768  1 .order   -0.003519   -0.006506   -0.000532
 step:   1.1558(harm=  1.1761)  dis= 0.00545  next Energy=  -703.984341 (dE=-0.379E-02)
 bond charge predicted
       N       E                     dE             d eps       ncg     rms          rms(c)
DAV:   1    -0.703984298821E+03    0.21248E-04   -0.18397E-02 11888   0.198E-01    0.192E-02
RMM:   2    -0.703984358329E+03   -0.59507E-04   -0.62726E-04 12833   0.530E-02    0.661E-03
RMM:   3    -0.703984370721E+03   -0.12392E-04   -0.14768E-04 12587   0.211E-02    0.730E-03
RMM:   4    -0.703984371479E+03   -0.75863E-06   -0.23016E-05  6726   0.105E-02
  21 F= -.70398437E+03 E0= -.70398437E+03  d E =-.381727E-02
 curvature:  -1.24 expect dE=-0.434E-02 dE for cont linesearch -0.490E-05
 trial: gam= 0.64622 g(F)=  0.351E-02 g(S)=  0.000E+00 ort = 0.229E-03 (trialstep = 0.110E+01)
 search vector abs. value=  0.934E-02
 bond charge predicted
       N       E                     dE             d eps       ncg     rms          rms(c)
DAV:   1    -0.703977097055E+03    0.72737E-02   -0.26053E+00 11006   0.238E+00    0.254E-01
RMM:   2    -0.703984926057E+03   -0.78290E-02   -0.82182E-02 12892   0.608E-01    0.791E-02
RMM:   3    -0.703986957486E+03   -0.20314E-02   -0.20963E-02 15218   0.247E-01    0.767E-02
RMM:   4    -0.703987086482E+03   -0.12900E-03   -0.23285E-03 15376   0.809E-02    0.474E-02
RMM:   5    -0.703987070461E+03    0.16021E-04   -0.54174E-04 14093   0.360E-02    0.205E-02
RMM:   6    -0.703987076482E+03   -0.60207E-05   -0.11433E-04 11321   0.164E-02    0.128E-02
RMM:   7    -0.703987077317E+03   -0.83555E-06   -0.38275E-05  8942   0.981E-03
  22 F= -.70398708E+03 E0= -.70398708E+03  d E =-.270584E-02
 trial-energy change:   -0.002706  1 .order   -0.002391   -0.004010   -0.000771
 step:   1.2514(harm=  1.3556)  dis= 0.00414  next Energy=  -703.987133 (dE=-0.276E-02)
 bond charge predicted
       N       E                     dE             d eps       ncg     rms          rms(c)
DAV:   1    -0.703986996077E+03    0.80405E-04   -0.53416E-02 11896   0.340E-01    0.341E-02
RMM:   2    -0.703987159387E+03   -0.16331E-03   -0.17119E-03 12879   0.874E-02    0.111E-02
RMM:   3    -0.703987199511E+03   -0.40124E-04   -0.42986E-04 14050   0.354E-02    0.114E-02
RMM:   4    -0.703987202590E+03   -0.30789E-05   -0.56861E-05  9532   0.146E-02
  23 F= -.70398720E+03 E0= -.70398720E+03  d E =-.283111E-02
 curvature:  -1.45 expect dE=-0.315E-02 dE for cont linesearch -0.159E-04
 trial: gam= 0.56447 g(F)=  0.217E-02 g(S)=  0.000E+00 ort = 0.320E-03 (trialstep = 0.113E+01)
 search vector abs. value=  0.551E-02
 bond charge predicted
       N       E                     dE             d eps       ncg     rms          rms(c)
DAV:   1    -0.703982798617E+03    0.44009E-02   -0.15764E+00 11088   0.187E+00    0.197E-01
RMM:   2    -0.703987738330E+03   -0.49397E-02   -0.51812E-02 13076   0.485E-01    0.614E-02
RMM:   3    -0.703988946273E+03   -0.12079E-02   -0.12608E-02 15178   0.193E-01    0.587E-02
RMM:   4    -0.703989025655E+03   -0.79383E-04   -0.14605E-03 15337   0.644E-02    0.356E-02
RMM:   5    -0.703989014075E+03    0.11580E-04   -0.33473E-04 13177   0.285E-02    0.149E-02
RMM:   6    -0.703989017465E+03   -0.33899E-05   -0.67775E-05  9729   0.135E-02
  24 F= -.70398902E+03 E0= -.70398902E+03  d E =-.181488E-02
 trial-energy change:   -0.001815  1 .order   -0.001559   -0.002647   -0.000471
 step:   1.2625(harm=  1.3701)  dis= 0.00347  next Energy=  -703.989046 (dE=-0.184E-02)
 bond charge predicted
       N       E                     dE             d eps       ncg     rms          rms(c)
DAV:   1    -0.703988986541E+03    0.27534E-04   -0.23699E-02 11920   0.230E-01    0.218E-02
RMM:   2    -0.703989071934E+03   -0.85393E-04   -0.89539E-04 13147   0.641E-02    0.781E-03
RMM:   3    -0.703989090377E+03   -0.18443E-04   -0.21050E-04 13038   0.256E-02    0.877E-03
RMM:   4    -0.703989091759E+03   -0.13822E-05   -0.34110E-05  7808   0.130E-02
  25 F= -.70398909E+03 E0= -.70398909E+03  d E =-.188917E-02
 curvature:  -1.29 expect dE=-0.172E-02 dE for cont linesearch -0.105E-04
 trial: gam= 0.66640 g(F)=  0.133E-02 g(S)=  0.000E+00 ort = 0.211E-03 (trialstep = 0.115E+01)
 search vector abs. value=  0.406E-02
 bond charge predicted
       N       E                     dE             d eps       ncg     rms          rms(c)
DAV:   1    -0.703985480012E+03    0.36104E-02   -0.12684E+00 10942   0.164E+00    0.180E-01
RMM:   2    -0.703989193358E+03   -0.37133E-02   -0.39155E-02 12664   0.413E-01    0.557E-02
RMM:   3    -0.703990166628E+03   -0.97327E-03   -0.10275E-02 15227   0.170E-01    0.543E-02
RMM:   4    -0.703990227431E+03   -0.60803E-04   -0.11223E-03 15197   0.556E-02    0.349E-02
RMM:   5    -0.703990215067E+03    0.12364E-04   -0.29397E-04 12673   0.259E-02    0.175E-02
RMM:   6    -0.703990216203E+03   -0.11358E-05   -0.55491E-05  9289   0.119E-02
  26 F= -.70399022E+03 E0= -.70399022E+03  d E =-.112444E-02
 trial-energy change:   -0.001124  1 .order   -0.000947   -0.001695   -0.000199
 step:   1.2405(harm=  1.3069)  dis= 0.00306  next Energy=  -703.990224 (dE=-0.113E-02)
 bond charge predicted
       N       E                     dE             d eps       ncg     rms          rms(c)
DAV:   1    -0.703990208957E+03    0.61102E-05   -0.75655E-03 12112   0.128E-01    0.115E-02
RMM:   2    -0.703990236812E+03   -0.27855E-04   -0.29661E-04 12625   0.356E-02    0.515E-03
RMM:   3    -0.703990242271E+03   -0.54586E-05   -0.71867E-05 10411   0.148E-02
  27 F= -.70399024E+03 E0= -.70399024E+03  d E =-.115051E-02
 curvature:  -1.46 expect dE=-0.148E-02 dE for cont linesearch -0.650E-06
 trial: gam= 0.83149 g(F)=  0.101E-02 g(S)=  0.000E+00 ort = 0.424E-04 (trialstep = 0.117E+01)
 search vector abs. value=  0.389E-02
 bond charge predicted
       N       E                     dE             d eps       ncg     rms          rms(c)
DAV:   1    -0.703986481007E+03    0.37558E-02   -0.12400E+00 10998   0.165E+00    0.173E-01
RMM:   2    -0.703990108914E+03   -0.36279E-02   -0.38108E-02 12800   0.412E-01    0.543E-02
RMM:   3    -0.703991070483E+03   -0.96157E-03   -0.99554E-03 15202   0.169E-01    0.524E-02
RMM:   4    -0.703991140105E+03   -0.69622E-04   -0.11212E-03 15268   0.555E-02    0.353E-02
RMM:   5    -0.703991128774E+03    0.11331E-04   -0.27727E-04 12537   0.251E-02    0.172E-02
RMM:   6    -0.703991129830E+03   -0.10562E-05   -0.53263E-05  9314   0.118E-02
  28 F= -.70399113E+03 E0= -.70399113E+03  d E =-.887559E-03
 trial-energy change:   -0.000888  1 .order   -0.000668   -0.001228   -0.000109
 step:   1.2221(harm=  1.2847)  dis= 0.00311  next Energy=  -703.991132 (dE=-0.890E-03)
 bond charge predicted
       N       E                     dE             d eps       ncg     rms          rms(c)
DAV:   1    -0.703991130394E+03   -0.16204E-05   -0.25623E-03 11656   0.764E-02    0.680E-03
RMM:   2    -0.703991141517E+03   -0.11123E-04   -0.11922E-04 11451   0.233E-02    0.316E-03
RMM:   3    -0.703991143156E+03   -0.16392E-05   -0.30309E-05  6959   0.107E-02
  29 F= -.70399114E+03 E0= -.70399114E+03  d E =-.900885E-03
 curvature:  -1.66 expect dE=-0.125E-02 dE for cont linesearch -0.127E-05
 trial: gam= 0.72806 g(F)=  0.753E-03 g(S)=  0.000E+00 ort = 0.545E-04 (trialstep = 0.118E+01)
 search vector abs. value=  0.289E-02
 bond charge predicted
       N       E                     dE             d eps       ncg     rms          rms(c)
DAV:   1    -0.703988349666E+03    0.27919E-02   -0.92075E-01 11152   0.143E+00    0.144E-01
RMM:   2    -0.703991071717E+03   -0.27221E-02   -0.28451E-02 12834   0.365E-01    0.465E-02
RMM:   3    -0.703991807076E+03   -0.73536E-03   -0.75391E-03 15084   0.150E-01    0.440E-02
RMM:   4    -0.703991866832E+03   -0.59756E-04   -0.88546E-04 15076   0.499E-02    0.298E-02
RMM:   5    -0.703991862219E+03    0.46136E-05   -0.20575E-04 12377   0.229E-02    0.130E-02
RMM:   6    -0.703991863617E+03   -0.13978E-05   -0.39659E-05  8993   0.106E-02
  30 F= -.70399186E+03 E0= -.70399186E+03  d E =-.720460E-03
 trial-energy change:   -0.000720  1 .order   -0.000569   -0.000937   -0.000202
 step:   1.3177(harm=  1.5059)  dis= 0.00289  next Energy=  -703.991876 (dE=-0.732E-03)
 bond charge predicted
       N       E                     dE             d eps       ncg     rms          rms(c)
DAV:   1    -0.703991846047E+03    0.16172E-04   -0.12660E-02 12280   0.169E-01    0.158E-02
RMM:   2    -0.703991889043E+03   -0.42996E-04   -0.44883E-04 12779   0.457E-02    0.551E-03
RMM:   3    -0.703991898890E+03   -0.98473E-05   -0.11375E-04 12046   0.189E-02    0.607E-03
RMM:   4    -0.703991899819E+03   -0.92864E-06   -0.19608E-05  6421   0.102E-02
  31 F= -.70399190E+03 E0= -.70399190E+03  d E =-.756663E-03
 curvature:  -1.83 expect dE=-0.712E-03 dE for cont linesearch -0.110E-04
 ZBRENT: increasing intervall
 opt :   1.5909  next Energy=  -703.991925 (dE=-0.782E-03)
 bond charge predicted
       N       E                     dE             d eps       ncg     rms          rms(c)
DAV:   1    -0.703991765263E+03    0.13363E-03   -0.49147E-02 11238   0.331E-01    0.343E-02
RMM:   2    -0.703991908689E+03   -0.14343E-03   -0.15005E-03 12769   0.846E-02    0.108E-02
RMM:   3    -0.703991947535E+03   -0.38846E-04   -0.40375E-04 14218   0.351E-02    0.946E-03
RMM:   4    -0.703991951148E+03   -0.36129E-05   -0.53321E-05  9068   0.141E-02
  32 F= -.70399195E+03 E0= -.70399195E+03  d E =-.807992E-03
 curvature:  -4.23 expect dE=-0.242E-02 dE for cont linesearch -0.924E-05
 trial: gam= 0.87869 g(F)=  0.573E-03 g(S)=  0.000E+00 ort =-0.795E-04 (trialstep = 0.126E+01)
 search vector abs. value=  0.267E-02
 bond charge predicted
       N       E                     dE             d eps       ncg     rms          rms(c)
DAV:   1    -0.703988885081E+03    0.30625E-02   -0.95469E-01 11262   0.147E+00    0.146E-01
RMM:   2    -0.703991647517E+03   -0.27624E-02   -0.28836E-02 12806   0.371E-01    0.478E-02
RMM:   3    -0.703992392424E+03   -0.74491E-03   -0.76949E-03 15025   0.153E-01    0.431E-02
RMM:   4    -0.703992455416E+03   -0.62992E-04   -0.92849E-04 15204   0.515E-02    0.285E-02
RMM:   5    -0.703992452300E+03    0.31161E-05   -0.19999E-04 12425   0.225E-02    0.122E-02
RMM:   6    -0.703992453809E+03   -0.15093E-05   -0.39379E-05  8952   0.105E-02
  33 F= -.70399245E+03 E0= -.70399245E+03  d E =-.502661E-03
 trial-energy change:   -0.000503  1 .order   -0.000302   -0.000635    0.000031
 step:   1.2420(harm=  1.2045)  dis= 0.00196  next Energy=  -703.992454 (dE=-0.503E-03)
 bond charge predicted
       N       E                     dE             d eps       ncg     rms          rms(c)
DAV:   1    -0.703992451464E+03    0.83659E-06   -0.23103E-04 10712   0.235E-02    0.460E-03
RMM:   2    -0.703992452202E+03   -0.73838E-06   -0.93508E-06  5913   0.766E-03
  34 F= -.70399245E+03 E0= -.70399245E+03  d E =-.501054E-03
 curvature:  -1.89 expect dE=-0.706E-03 dE for cont linesearch -0.372E-04
 ZBRENT: interpolating
 opt :   1.2611  next Energy=  -703.992454 (dE=-0.503E-03)
 bond charge predicted
       N       E                     dE             d eps       ncg     rms          rms(c)
DAV:   1    -0.703992453393E+03   -0.19290E-05   -0.19624E-04 10904   0.229E-02    0.238E-03
RMM:   2    -0.703992454764E+03   -0.13711E-05   -0.15313E-05  5890   0.945E-03
  35 F= -.70399245E+03 E0= -.70399245E+03  d E =-.503616E-03
 curvature:  -0.00 expect dE=-0.449E-06 dE for cont linesearch -0.386E-10
 trial: gam= 0.51119 g(F)=  0.354E-03 g(S)=  0.000E+00 ort =-0.901E-05 (trialstep = 0.126E+01)
 search vector abs. value=  0.104E-02
 bond charge predicted
       N       E                     dE             d eps       ncg     rms          rms(c)
DAV:   1    -0.703991348920E+03    0.11045E-02   -0.35806E-01 11176   0.915E-01    0.835E-02
RMM:   2    -0.703992427501E+03   -0.10786E-02   -0.11252E-02 13023   0.242E-01    0.291E-02
RMM:   3    -0.703992734781E+03   -0.30728E-03   -0.32053E-03 15031   0.996E-02    0.272E-02
RMM:   4    -0.703992759783E+03   -0.25002E-04   -0.36389E-04 14627   0.331E-02    0.187E-02
RMM:   5    -0.703992756660E+03    0.31233E-05   -0.88851E-05 11021   0.165E-02
  36 F= -.70399276E+03 E0= -.70399276E+03  d E =-.301896E-03
 trial-energy change:   -0.000302  1 .order   -0.000210   -0.000441    0.000021
 step:   1.2365(harm=  1.2061)  dis= 0.00147  next Energy=  -703.992757 (dE=-0.302E-03)
 bond charge predicted
       N       E                     dE             d eps       ncg     rms          rms(c)
DAV:   1    -0.703992755015E+03    0.47684E-05   -0.14524E-04 10950   0.228E-02    0.511E-03
RMM:   2    -0.703992755783E+03   -0.76828E-06   -0.14032E-05  5923   0.953E-03
  37 F= -.70399276E+03 E0= -.70399276E+03  d E =-.301019E-03
 curvature:  -1.28 expect dE=-0.296E-03 dE for cont linesearch -0.170E-04
 ZBRENT: interpolating
 opt :   1.2595  next Energy=  -703.992757 (dE=-0.302E-03)
 bond charge predicted
       N       E                     dE             d eps       ncg     rms          rms(c)
DAV:   1    -0.703992755659E+03   -0.64460E-06   -0.10461E-04 11420   0.200E-02    0.311E-03
RMM:   2    -0.703992757213E+03   -0.15540E-05   -0.17738E-05  5833   0.978E-03
  38 F= -.70399276E+03 E0= -.70399276E+03  d E =-.302450E-03
 curvature:  -0.00 expect dE=-0.466E-06 dE for cont linesearch -0.325E-08
 trial: gam= 0.73150 g(F)=  0.236E-03 g(S)=  0.000E+00 ort =-0.414E-04 (trialstep = 0.126E+01)
 search vector abs. value=  0.733E-03
 bond charge predicted
       N       E                     dE             d eps       ncg     rms          rms(c)
DAV:   1    -0.703991967506E+03    0.78815E-03   -0.26150E-01 11204   0.770E-01    0.744E-02
RMM:   2    -0.703992745543E+03   -0.77804E-03   -0.81202E-03 12903   0.199E-01    0.249E-02
RMM:   3    -0.703992951897E+03   -0.20635E-03   -0.21705E-03 14987   0.814E-02    0.236E-02
RMM:   4    -0.703992968852E+03   -0.16955E-04   -0.25780E-04 13545   0.278E-02    0.160E-02
RMM:   5    -0.703992967604E+03    0.12479E-05   -0.66674E-05 10391   0.153E-02
  39 F= -.70399297E+03 E0= -.70399297E+03  d E =-.210391E-03
 trial-energy change:   -0.000210  1 .order   -0.000145   -0.000259   -0.000032
 step:   1.3246(harm=  1.4371)  dis= 0.00186  next Energy=  -703.992968 (dE=-0.211E-03)
 bond charge predicted
       N       E                     dE             d eps       ncg     rms          rms(c)
DAV:   1    -0.703992968523E+03    0.32943E-06   -0.69660E-04 11301   0.403E-02    0.731E-03
RMM:   2    -0.703992971169E+03   -0.26464E-05   -0.30226E-05  6712   0.124E-02
  40 F= -.70399297E+03 E0= -.70399297E+03  d E =-.213956E-03
 curvature:  -1.50 expect dE=-0.261E-03 dE for cont linesearch -0.105E-05
 trial: gam= 0.81112 g(F)=  0.174E-03 g(S)=  0.000E+00 ort =-0.226E-04 (trialstep = 0.127E+01)
 search vector abs. value=  0.619E-03
 bond charge predicted
       N       E                     dE             d eps       ncg     rms          rms(c)
DAV:   1    -0.703992283841E+03    0.68468E-03   -0.21862E-01 11310   0.712E-01    0.653E-02
RMM:   2    -0.703992944711E+03   -0.66087E-03   -0.68649E-03 13076   0.185E-01    0.225E-02
RMM:   3    -0.703993121681E+03   -0.17697E-03   -0.18402E-03 14933   0.753E-02    0.211E-02
RMM:   4    -0.703993136959E+03   -0.15278E-04   -0.21409E-04 13177   0.257E-02    0.154E-02
RMM:   5    -0.703993135466E+03    0.14932E-05   -0.60123E-05 10225   0.147E-02
  41 F= -.70399314E+03 E0= -.70399314E+03  d E =-.164297E-03
 trial-energy change:   -0.000164  1 .order   -0.000100   -0.000198   -0.000002
 step:   1.2795(harm=  1.2891)  dis= 0.00147  next Energy=  -703.993135 (dE=-0.164E-03)
 bond charge predicted
       N       E                     dE             d eps       ncg     rms          rms(c)
DAV:   1    -0.703993135462E+03    0.14967E-05   -0.17596E-05  7703   0.808E-03    0.479E-03
RMM:   2    -0.703993135661E+03   -0.19852E-06   -0.50394E-06  5900   0.557E-03
  42 F= -.70399314E+03 E0= -.70399314E+03  d E =-.164492E-03
 curvature:  -1.44 expect dE=-0.173E-03 dE for cont linesearch -0.516E-06
 trial: gam= 0.79417 g(F)=  0.121E-03 g(S)=  0.000E+00 ort =-0.149E-04 (trialstep = 0.128E+01)
 search vector abs. value=  0.487E-03
 bond charge predicted
       N       E                     dE             d eps       ncg     rms          rms(c)
DAV:   1    -0.703992563628E+03    0.57183E-03   -0.17823E-01 11256   0.635E-01    0.622E-02
RMM:   2    -0.703993095090E+03   -0.53146E-03   -0.55466E-03 12887   0.163E-01    0.207E-02
RMM:   3    -0.703993238307E+03   -0.14322E-03   -0.14941E-03 15018   0.671E-02    0.195E-02
RMM:   4    -0.703993249831E+03   -0.11524E-04   -0.17647E-04 12708   0.229E-02    0.131E-02
RMM:   5    -0.703993248999E+03    0.83255E-06   -0.51285E-05  9737   0.140E-02
  43 F= -.70399325E+03 E0= -.70399325E+03  d E =-.113338E-03
 trial-energy change:   -0.000113  1 .order   -0.000071   -0.000139   -0.000004
 step:   1.2882(harm=  1.3121)  dis= 0.00101  next Energy=  -703.993249 (dE=-0.113E-03)
 bond charge predicted
       N       E                     dE             d eps       ncg     rms          rms(c)
DAV:   1    -0.703993249097E+03    0.73486E-06   -0.33232E-05  8503   0.996E-03    0.420E-03
RMM:   2    -0.703993249454E+03   -0.35786E-06   -0.57192E-06  5902   0.587E-03
  44 F= -.70399325E+03 E0= -.70399325E+03  d E =-.113794E-03
 curvature:  -1.68 expect dE=-0.128E-03 dE for cont linesearch -0.174E-05
 ZBRENT: interpolating
 opt :   1.2771  next Energy=  -703.993249 (dE=-0.113E-03)
 bond charge predicted
       N       E                     dE             d eps       ncg     rms          rms(c)
DAV:   1    -0.703993249013E+03    0.83593E-07   -0.70916E-06  7310   0.796E-03    0.961E-04
RMM:   2    -0.703993249347E+03   -0.33410E-06   -0.37528E-06  5504   0.459E-03
  45 F= -.70399325E+03 E0= -.70399325E+03  d E =-.113686E-03
 curvature:  -0.00 expect dE=-0.204E-06 dE for cont linesearch -0.382E-07
 ZBRENT: interpolating
 opt :   1.2860  next Energy=  -703.993249 (dE=-0.114E-03)
 bond charge predicted
       N       E                     dE             d eps       ncg     rms          rms(c)
DAV:   1    -0.703993249528E+03   -0.51499E-06   -0.29341E-06  6286   0.553E-03    0.877E-04
RMM:   2    -0.703993249688E+03   -0.15971E-06   -0.17459E-06  5247   0.306E-03
  46 F= -.70399325E+03 E0= -.70399325E+03  d E =-.114027E-03
 curvature:  -0.00 expect dE=-0.109E-06 dE for cont linesearch -0.124E-08
 ZBRENT: bisectioning
 opt :   1.2815  next Energy=  -703.993250 (dE=-0.114E-03)
 bond charge predicted
       N       E                     dE             d eps       ncg     rms          rms(c)
DAV:   1    -0.703993249599E+03   -0.70562E-07   -0.57947E-07  5632   0.385E-03    0.532E-04
RMM:   2    -0.703993249627E+03   -0.28384E-07   -0.35923E-07  4118   0.130E-03
  47 F= -.70399325E+03 E0= -.70399325E+03  d E =-.113966E-03
 curvature:  -0.10 expect dE=-0.778E-05 dE for cont linesearch -0.531E-06
 ZBRENT: interpolating
 opt :   1.2848  next Energy=  -703.993250 (dE=-0.114E-03)
 bond charge predicted
       N       E                     dE             d eps       ncg     rms          rms(c)
DAV:   1    -0.703993249715E+03   -0.11628E-06   -0.36286E-07  5510   0.195E-03    0.377E-04
RMM:   2    -0.703993249735E+03   -0.20518E-07   -0.24146E-07  4180   0.120E-03
  48 F= -.70399325E+03 E0= -.70399325E+03  d E =-.114075E-03
 curvature:  -0.00 expect dE=-0.181E-06 dE for cont linesearch -0.393E-09
 trial: gam= 0.68207 g(F)=  0.755E-04 g(S)=  0.000E+00 ort = 0.894E-05 (trialstep = 0.128E+01)
 search vector abs. value=  0.314E-03
 bond charge predicted
       N       E                     dE             d eps       ncg     rms          rms(c)
DAV:   1    -0.703992890874E+03    0.35884E-03   -0.11559E-01 11296   0.511E-01    0.501E-02
RMM:   2    -0.703993233717E+03   -0.34284E-03   -0.35837E-03 12907   0.129E-01    0.165E-02
RMM:   3    -0.703993318348E+03   -0.84631E-04   -0.89492E-04 14877   0.523E-02    0.155E-02
RMM:   4    -0.703993325254E+03   -0.69056E-05   -0.11414E-04 12144   0.186E-02    0.982E-03
RMM:   5    -0.703993324614E+03    0.64018E-06   -0.30474E-05  8297   0.111E-02
  49 F= -.70399332E+03 E0= -.70399332E+03  d E =-.748783E-04
 trial-energy change:   -0.000075  1 .order   -0.000053   -0.000104   -0.000001
 step:   1.2903(harm=  1.2903)  dis= 0.00071  next Energy=  -703.993302 (dE=-0.526E-04)
 bond charge predicted
       N       E                     dE             d eps       ncg     rms          rms(c)
DAV:   1    -0.703993324552E+03    0.70174E-06   -0.19410E-05  7607   0.825E-03    0.290E-03
RMM:   2    -0.703993324886E+03   -0.33402E-06   -0.45546E-06  5900   0.544E-03
  50 F= -.70399332E+03 E0= -.70399332E+03  d E =-.751508E-04
 curvature:  -2.49 expect dE=-0.191E-03 dE for cont linesearch -0.100E-04
 ZBRENT: interpolating
 opt :   1.2777  next Energy=  -703.993325 (dE=-0.749E-04)
 bond charge predicted
       N       E                     dE             d eps       ncg     rms          rms(c)
DAV:   1    -0.703993324684E+03   -0.13158E-06   -0.51330E-06  7325   0.657E-03    0.899E-04
RMM:   2    -0.703993324922E+03   -0.23872E-06   -0.26898E-06  5381   0.398E-03
  51 F= -.70399332E+03 E0= -.70399332E+03  d E =-.751871E-04
 curvature:  -0.00 expect dE=-0.242E-08 dE for cont linesearch -0.311E-09
 ZBRENT: interpolating
 opt :   1.2855  next Energy=  -703.993325 (dE=-0.752E-04)
 bond charge predicted
       N       E                     dE             d eps       ncg     rms          rms(c)
DAV:   1    -0.703993325032E+03   -0.34786E-06   -0.11148E-06  5951   0.434E-03    0.691E-04
RMM:   2    -0.703993325111E+03   -0.79825E-07   -0.87805E-07  5161   0.202E-03
  52 F= -.70399333E+03 E0= -.70399333E+03  d E =-.753760E-04
 curvature:  -0.01 expect dE=-0.596E-06 dE for cont linesearch -0.402E-08
 trial: gam= 1.16961 g(F)=  0.749E-04 g(S)=  0.000E+00 ort =-0.126E-04 (trialstep = 0.846E+00)
 search vector abs. value=  0.476E-03
 bond charge predicted
       N       E                     dE             d eps       ncg     rms          rms(c)
DAV:   1    -0.703993089077E+03    0.23595E-03   -0.75797E-02 11382   0.416E-01    0.399E-02
RMM:   2    -0.703993307612E+03   -0.21853E-03   -0.22716E-03 12786   0.104E-01    0.133E-02
RMM:   3    -0.703993365543E+03   -0.57931E-04   -0.60048E-04 14696   0.432E-02    0.119E-02
RMM:   4    -0.703993370682E+03   -0.51393E-05   -0.76391E-05 10782   0.156E-02
  53 F= -.70399337E+03 E0= -.70399337E+03  d E =-.455706E-04
 trial-energy change:   -0.000046  1 .order   -0.000009   -0.000051    0.000033
 step:   0.5131(harm=  0.5131)  dis= 0.00038  next Energy=  -703.993341 (dE=-0.154E-04)
 bond charge predicted
       N       E                     dE             d eps       ncg     rms          rms(c)
DAV:   1    -0.703993306212E+03    0.59331E-04   -0.11749E-02 11414   0.165E-01    0.144E-02
RMM:   2    -0.703993347074E+03   -0.40863E-04   -0.42752E-04 12886   0.456E-02    0.550E-03
RMM:   3    -0.703993356018E+03   -0.89439E-05   -0.10397E-04 11771   0.187E-02    0.612E-03
RMM:   4    -0.703993356360E+03   -0.34211E-06   -0.14950E-05  5964   0.944E-03
  54 F= -.70399336E+03 E0= -.70399336E+03  d E =-.312490E-04
 curvature:  -2.03 expect dE=-0.144E-03 dE for cont linesearch -0.495E-04
 ZBRENT: interpolating
 opt :   0.7573  next Energy=  -703.993372 (dE=-0.473E-04)
 bond charge predicted
       N       E                     dE             d eps       ncg     rms          rms(c)
DAV:   1    -0.703993342644E+03    0.13375E-04   -0.62762E-03 11206   0.120E-01    0.112E-02
RMM:   2    -0.703993363011E+03   -0.20368E-04   -0.21179E-04 12701   0.303E-02    0.387E-03
RMM:   3    -0.703993366343E+03   -0.33317E-05   -0.44883E-05  7870   0.124E-02
  55 F= -.70399337E+03 E0= -.70399337E+03  d E =-.412317E-04
 curvature:  -0.07 expect dE=-0.301E-05 dE for cont linesearch -0.979E-07
 ZBRENT: interpolating
 opt :   0.6197  next Energy=  -703.993368 (dE=-0.433E-04)
 bond charge predicted
       N       E                     dE             d eps       ncg     rms          rms(c)
DAV:   1    -0.703993354166E+03    0.88455E-05   -0.19459E-03 11198   0.670E-02    0.792E-03
RMM:   2    -0.703993361490E+03   -0.73242E-05   -0.75972E-05  9675   0.178E-02
  56 F= -.70399336E+03 E0= -.70399336E+03  d E =-.363786E-04
 curvature:  -1.52 expect dE=-0.152E-03 dE for cont linesearch -0.912E-04
 ZBRENT: interpolating
 opt :   0.7391  next Energy=  -703.993367 (dE=-0.415E-04)
 bond charge predicted
       N       E                     dE             d eps       ncg     rms          rms(c)
DAV:   1    -0.703993360766E+03   -0.65997E-05   -0.13973E-03 10632   0.558E-02    0.641E-03
RMM:   2    -0.703993365008E+03   -0.42423E-05   -0.44940E-05  7578   0.149E-02
  57 F= -.70399337E+03 E0= -.70399337E+03  d E =-.398964E-04
 curvature:  -0.00 expect dE=-0.195E-06 dE for cont linesearch -0.357E-07
 ZBRENT: bisectioning
 opt :   0.6794  next Energy=  -703.993373 (dE=-0.478E-04)
 bond charge predicted
       N       E                     dE             d eps       ncg     rms          rms(c)
DAV:   1    -0.703993363270E+03   -0.25049E-05   -0.32830E-04 10368   0.291E-02    0.367E-03
RMM:   2    -0.703993365138E+03   -0.18672E-05   -0.22035E-05  5556   0.116E-02
  58 F= -.70399337E+03 E0= -.70399337E+03  d E =-.400263E-04
 curvature:  -0.86 expect dE=-0.613E-04 dE for cont linesearch -0.256E-04
 ZBRENT: interpolating
 opt :   0.7178  next Energy=  -703.993366 (dE=-0.406E-04)
 bond charge predicted
       N       E                     dE             d eps       ncg     rms          rms(c)
DAV:   1    -0.703993363879E+03   -0.60866E-06   -0.12460E-04 11296   0.208E-02    0.203E-03
RMM:   2    -0.703993365393E+03   -0.15143E-05   -0.16473E-05  5340   0.948E-03
  59 F= -.70399337E+03 E0= -.70399337E+03  d E =-.402821E-04
 curvature:  -0.02 expect dE=-0.104E-05 dE for cont linesearch -0.206E-07
 ZBRENT: interpolating
 opt :   0.7097  next Energy=  -703.993365 (dE=-0.404E-04)
 bond charge predicted
       N       E                     dE             d eps       ncg     rms          rms(c)
DAV:   1    -0.703993364784E+03   -0.90495E-06   -0.47747E-06  5622   0.982E-03    0.106E-03
RMM:   2    -0.703993364968E+03   -0.18379E-06   -0.22864E-06  4848   0.339E-03
  60 F= -.70399336E+03 E0= -.70399336E+03  d E =-.398565E-04
 curvature:  -0.11 expect dE=-0.616E-05 dE for cont linesearch -0.167E-05
 ZBRENT: interpolating
 opt :   0.7162  next Energy=  -703.993365 (dE=-0.403E-04)
 bond charge predicted
       N       E                     dE             d eps       ncg     rms          rms(c)
DAV:   1    -0.703993365134E+03   -0.35044E-06   -0.12323E-06  5318   0.556E-03    0.863E-04
RMM:   2    -0.703993365256E+03   -0.12172E-06   -0.14019E-06  5103   0.247E-03
  61 F= -.70399337E+03 E0= -.70399337E+03  d E =-.401449E-04
 curvature:  -0.00 expect dE=-0.414E-07 dE for cont linesearch -0.847E-11
 trial: gam= 0.04412 g(F)=  0.406E-04 g(S)=  0.000E+00 ort = 0.199E-05 (trialstep = 0.820E+00)
 search vector abs. value=  0.417E-04
 bond charge predicted
       N       E                     dE             d eps       ncg     rms          rms(c)
DAV:   1    -0.703993355294E+03    0.98402E-05   -0.61817E-03 10764   0.119E-01    0.117E-02
RMM:   2    -0.703993379182E+03   -0.23888E-04   -0.25149E-04 13562   0.332E-02    0.418E-03
RMM:   3    -0.703993382718E+03   -0.35352E-05   -0.49120E-05  8859   0.124E-02
  62 F= -.70399338E+03 E0= -.70399338E+03  d E =-.174613E-04
 trial-energy change:   -0.000017  1 .order   -0.000013   -0.000033    0.000008
 step:   0.6647(harm=  0.6647)  dis= 0.00023  next Energy=  -703.993379 (dE=-0.135E-04)
 bond charge predicted
       N       E                     dE             d eps       ncg     rms          rms(c)
DAV:   1    -0.703993380106E+03   -0.92396E-06   -0.21978E-04 11964   0.242E-02    0.339E-03
RMM:   2    -0.703993380987E+03   -0.88053E-06   -0.10210E-05  5677   0.683E-03
  63 F= -.70399338E+03 E0= -.70399338E+03  d E =-.157307E-04
 curvature:  -0.34 expect dE=-0.103E-04 dE for cont linesearch -0.565E-05
 ZBRENT: interpolating
 opt :   0.7786  next Energy=  -703.993383 (dE=-0.177E-04)
 bond charge predicted
       N       E                     dE             d eps       ncg     rms          rms(c)
DAV:   1    -0.703993381856E+03   -0.17497E-05   -0.10842E-04 11996   0.173E-02    0.179E-03
RMM:   2    -0.703993382537E+03   -0.68121E-06   -0.74398E-06  5225   0.590E-03
  64 F= -.70399338E+03 E0= -.70399338E+03  d E =-.172811E-04
 curvature:  -0.01 expect dE=-0.205E-06 dE for cont linesearch -0.825E-10
 trial: gam= 0.45447 g(F)=  0.173E-04 g(S)=  0.000E+00 ort = 0.540E-06 (trialstep = 0.812E+00)
 search vector abs. value=  0.265E-04
 bond charge predicted
       N       E                     dE             d eps       ncg     rms          rms(c)
DAV:   1    -0.703993381640E+03    0.21575E-06   -0.39861E-03 10894   0.932E-02    0.100E-02
RMM:   2    -0.703993396158E+03   -0.14518E-04   -0.15138E-04 11702   0.252E-02    0.320E-03
RMM:   3    -0.703993397909E+03   -0.17513E-05   -0.30813E-05  6941   0.106E-02
  65 F= -.70399340E+03 E0= -.70399340E+03  d E =-.153721E-04
 trial-energy change:   -0.000015  1 .order   -0.000007   -0.000014    0.000001
 step:   0.7540(harm=  0.7540)  dis= 0.00017  next Energy=  -703.993389 (dE=-0.663E-05)
 reached required accuracy - stopping structural energy minimisation
Warning: ieee_invalid is signaling
Warning: ieee_divide_by_zero is signaling
Warning: ieee_underflow is signaling
Warning: ieee_inexact is signaling
FORTRAN STOP
Warning: ieee_invalid is signaling
Warning: ieee_divide_by_zero is signaling
Warning: ieee_underflow is signaling
Warning: ieee_inexact is signaling
FORTRAN STOP
Warning: ieee_invalid is signaling
Warning: ieee_divide_by_zero is signaling
Warning: ieee_underflow is signaling
Warning: ieee_inexact is signaling
FORTRAN STOP
Warning: ieee_invalid is signaling
Warning: ieee_divide_by_zero is signaling
Warning: ieee_underflow is signaling
Warning: ieee_inexact is signaling
FORTRAN STOP
