<?xml version="1.0" encoding="ISO-8859-1"?>
<modeling>
 <generator>
  <i name="program" type="string">vasp </i>
  <i name="version" type="string">6.4.2  </i>
  <i name="subversion" type="string">20Jul23 (build Nov 12 2023 22:16:35) complex                          parallel </i>
  <i name="platform" type="string">LinuxNV </i>
  <i name="date" type="string">2025 03 11 </i>
  <i name="time" type="string">16:13:16 </i>
 </generator>
 <incar>
  <i type="int" name="ISTART">     0</i>
  <i type="string" name="PREC">Normal</i>
  <i type="string" name="ALGO">Fast</i>
  <i type="int" name="ISPIN">     1</i>
  <i type="int" name="ICHARG">     2</i>
  <i type="int" name="IBRION">     2</i>
  <i name="EDIFF">      0.00001000</i>
  <i name="EDIFFG">     -0.00500000</i>
  <i type="int" name="NSW">   300</i>
  <i type="int" name="ISIF">     2</i>
  <i name="ENCUT">    450.00000000</i>
  <i name="NELECT">   1056.00000000</i>
  <i type="string" name="LREAL">Auto</i>
  <i type="logical" name="LPLANE"> T  </i>
  <i type="int" name="ISMEAR">     0</i>
  <i name="SIGMA">      0.05000000</i>
  <i type="logical" name="LWAVE"> F  </i>
  <i type="logical" name="LCHARG"> F  </i>
 </incar>
 <primitive_cell>
  <structure name="primitive_cell" >
   <crystal>
    <varray name="basis" >
     <v>       0.00000000      12.28047342       0.00000000 </v>
     <v>       9.14270205       0.00000000       0.00000000 </v>
     <v>       0.00000000      -2.76826177     -11.30069772 </v>
    </varray>
    <i name="volume">   1268.80515525 </i>
    <varray name="rec_basis" >
     <v>       0.00000000       0.08143009      -0.01994742 </v>
     <v>       0.10937686      -0.00000000       0.00000000 </v>
     <v>       0.00000000       0.00000000      -0.08849011 </v>
    </varray>
   </crystal>
   <varray name="positions" >
    <v>       0.65883830       0.00000000       0.15736517 </v>
    <v>       0.65883830       0.00000000       0.65736517 </v>
    <v>       0.65883830       0.33333333       0.15736517 </v>
    <v>       0.65883830       0.33333333       0.65736517 </v>
    <v>       0.65883830       0.66666667       0.15736517 </v>
    <v>       0.65883830       0.66666667       0.65736517 </v>
    <v>       0.84116170       0.16666667       0.34263483 </v>
    <v>       0.84116170       0.16666667       0.84263483 </v>
    <v>       0.84116170       0.50000000       0.34263483 </v>
    <v>       0.84116170       0.50000000       0.84263483 </v>
    <v>       0.84116170       0.83333333       0.34263483 </v>
    <v>       0.84116170       0.83333333       0.84263483 </v>
    <v>       0.59047440       0.16666667       0.39739300 </v>
    <v>       0.59047440       0.16666667       0.89739300 </v>
    <v>       0.59047440       0.50000000       0.39739300 </v>
    <v>       0.59047440       0.50000000       0.89739300 </v>
    <v>       0.59047440       0.83333333       0.39739300 </v>
    <v>       0.59047440       0.83333333       0.89739300 </v>
    <v>       0.90952560       0.00000000       0.10260700 </v>
    <v>       0.90952560       0.00000000       0.60260700 </v>
    <v>       0.90952560       0.33333333       0.10260700 </v>
    <v>       0.90952560       0.33333333       0.60260700 </v>
    <v>       0.90952560       0.66666667       0.10260700 </v>
    <v>       0.90952560       0.66666667       0.60260700 </v>
    <v>       0.15883830       0.16666667       0.15736517 </v>
    <v>       0.15883830       0.16666667       0.65736517 </v>
    <v>       0.15883830       0.50000000       0.15736517 </v>
    <v>       0.15883830       0.50000000       0.65736517 </v>
    <v>       0.15883830       0.83333333       0.15736517 </v>
    <v>       0.15883830       0.83333333       0.65736517 </v>
    <v>       0.34116170       0.00000000       0.34263483 </v>
    <v>       0.34116170       0.00000000       0.84263483 </v>
    <v>       0.34116170       0.33333333       0.34263483 </v>
    <v>       0.34116170       0.33333333       0.84263483 </v>
    <v>       0.34116170       0.66666667       0.34263483 </v>
    <v>       0.34116170       0.66666667       0.84263483 </v>
    <v>       0.09047440       0.00000000       0.39739300 </v>
    <v>       0.09047440       0.00000000       0.89739300 </v>
    <v>       0.09047440       0.33333333       0.39739300 </v>
    <v>       0.09047440       0.33333333       0.89739300 </v>
    <v>       0.09047440       0.66666667       0.39739300 </v>
    <v>       0.09047440       0.66666667       0.89739300 </v>
    <v>       0.40952560       0.16666667       0.10260700 </v>
    <v>       0.40952560       0.16666667       0.60260700 </v>
    <v>       0.40952560       0.50000000       0.10260700 </v>
    <v>       0.40952560       0.50000000       0.60260700 </v>
    <v>       0.40952560       0.83333333       0.10260700 </v>
    <v>       0.40952560       0.83333333       0.60260700 </v>
    <v>       0.99646913       0.16666667       0.12833205 </v>
    <v>       0.99646913       0.16666667       0.62833205 </v>
    <v>       0.99646913       0.50000000       0.12833205 </v>
    <v>       0.99646913       0.50000000       0.62833205 </v>
    <v>       0.99646913       0.83333333       0.12833205 </v>
    <v>       0.99646913       0.83333333       0.62833205 </v>
    <v>       0.50353087       0.00000000       0.37166795 </v>
    <v>       0.50353087       0.00000000       0.87166795 </v>
    <v>       0.50353087       0.33333333       0.37166795 </v>
    <v>       0.50353087       0.33333333       0.87166795 </v>
    <v>       0.50353087       0.66666667       0.37166795 </v>
    <v>       0.50353087       0.66666667       0.87166795 </v>
    <v>       0.67337106       0.16666667       0.28161508 </v>
    <v>       0.67337106       0.16666667       0.78161508 </v>
    <v>       0.67337106       0.50000000       0.28161508 </v>
    <v>       0.67337106       0.50000000       0.78161508 </v>
    <v>       0.67337106       0.83333333       0.28161508 </v>
    <v>       0.67337106       0.83333333       0.78161508 </v>
    <v>       0.82662894       0.00000000       0.21838492 </v>
    <v>       0.82662894       0.00000000       0.71838492 </v>
    <v>       0.82662894       0.33333333       0.21838492 </v>
    <v>       0.82662894       0.33333333       0.71838492 </v>
    <v>       0.82662894       0.66666667       0.21838492 </v>
    <v>       0.82662894       0.66666667       0.71838492 </v>
    <v>       0.83549502       0.00000000       0.44542296 </v>
    <v>       0.83549502       0.00000000       0.94542296 </v>
    <v>       0.83549502       0.33333333       0.44542296 </v>
    <v>       0.83549502       0.33333333       0.94542296 </v>
    <v>       0.83549502       0.66666667       0.44542296 </v>
    <v>       0.83549502       0.66666667       0.94542296 </v>
    <v>       0.66450498       0.16666667       0.05457704 </v>
    <v>       0.66450498       0.16666667       0.55457704 </v>
    <v>       0.66450498       0.50000000       0.05457704 </v>
    <v>       0.66450498       0.50000000       0.55457704 </v>
    <v>       0.66450498       0.83333333       0.05457704 </v>
    <v>       0.66450498       0.83333333       0.55457704 </v>
    <v>       0.49646913       0.00000000       0.12833205 </v>
    <v>       0.49646913       0.00000000       0.62833205 </v>
    <v>       0.49646913       0.33333333       0.12833205 </v>
    <v>       0.49646913       0.33333333       0.62833205 </v>
    <v>       0.49646913       0.66666667       0.12833205 </v>
    <v>       0.49646913       0.66666667       0.62833205 </v>
    <v>       0.00353087       0.16666667       0.37166795 </v>
    <v>       0.00353087       0.16666667       0.87166795 </v>
    <v>       0.00353087       0.50000000       0.37166795 </v>
    <v>       0.00353087       0.50000000       0.87166795 </v>
    <v>       0.00353087       0.83333333       0.37166795 </v>
    <v>       0.00353087       0.83333333       0.87166795 </v>
    <v>       0.17337106       0.00000000       0.28161508 </v>
    <v>       0.17337106       0.00000000       0.78161508 </v>
    <v>       0.17337106       0.33333333       0.28161508 </v>
    <v>       0.17337106       0.33333333       0.78161508 </v>
    <v>       0.17337106       0.66666667       0.28161508 </v>
    <v>       0.17337106       0.66666667       0.78161508 </v>
    <v>       0.32662894       0.16666667       0.21838492 </v>
    <v>       0.32662894       0.16666667       0.71838492 </v>
    <v>       0.32662894       0.50000000       0.21838492 </v>
    <v>       0.32662894       0.50000000       0.71838492 </v>
    <v>       0.32662894       0.83333333       0.21838492 </v>
    <v>       0.32662894       0.83333333       0.71838492 </v>
    <v>       0.33549502       0.16666667       0.44542296 </v>
    <v>       0.33549502       0.16666667       0.94542296 </v>
    <v>       0.33549502       0.50000000       0.44542296 </v>
    <v>       0.33549502       0.50000000       0.94542296 </v>
    <v>       0.33549502       0.83333333       0.44542296 </v>
    <v>       0.33549502       0.83333333       0.94542296 </v>
    <v>       0.16450498       0.00000000       0.05457704 </v>
    <v>       0.16450498       0.33333333       0.05457704 </v>
    <v>       0.16450498       0.33333333       0.55457704 </v>
    <v>       0.16450498       0.66666667       0.05457704 </v>
    <v>       0.16450498       0.66666667       0.55457704 </v>
    <v>       0.16450498       0.00000000       0.55457704 </v>
   </varray>
  </structure>
  <varray name="primitive_index" >
   <v type="int" >        1 </v>
   <v type="int" >        2 </v>
   <v type="int" >        3 </v>
   <v type="int" >        4 </v>
   <v type="int" >        5 </v>
   <v type="int" >        6 </v>
   <v type="int" >        7 </v>
   <v type="int" >        8 </v>
   <v type="int" >        9 </v>
   <v type="int" >       10 </v>
   <v type="int" >       11 </v>
   <v type="int" >       12 </v>
   <v type="int" >       13 </v>
   <v type="int" >       14 </v>
   <v type="int" >       15 </v>
   <v type="int" >       16 </v>
   <v type="int" >       17 </v>
   <v type="int" >       18 </v>
   <v type="int" >       19 </v>
   <v type="int" >       20 </v>
   <v type="int" >       21 </v>
   <v type="int" >       22 </v>
   <v type="int" >       23 </v>
   <v type="int" >       24 </v>
   <v type="int" >       25 </v>
   <v type="int" >       26 </v>
   <v type="int" >       27 </v>
   <v type="int" >       28 </v>
   <v type="int" >       29 </v>
   <v type="int" >       30 </v>
   <v type="int" >       31 </v>
   <v type="int" >       32 </v>
   <v type="int" >       33 </v>
   <v type="int" >       34 </v>
   <v type="int" >       35 </v>
   <v type="int" >       36 </v>
   <v type="int" >       37 </v>
   <v type="int" >       38 </v>
   <v type="int" >       39 </v>
   <v type="int" >       40 </v>
   <v type="int" >       41 </v>
   <v type="int" >       42 </v>
   <v type="int" >       43 </v>
   <v type="int" >       44 </v>
   <v type="int" >       45 </v>
   <v type="int" >       46 </v>
   <v type="int" >       47 </v>
   <v type="int" >       48 </v>
   <v type="int" >       49 </v>
   <v type="int" >       50 </v>
   <v type="int" >       51 </v>
   <v type="int" >       52 </v>
   <v type="int" >       53 </v>
   <v type="int" >       54 </v>
   <v type="int" >       55 </v>
   <v type="int" >       56 </v>
   <v type="int" >       57 </v>
   <v type="int" >       58 </v>
   <v type="int" >       59 </v>
   <v type="int" >       60 </v>
   <v type="int" >       61 </v>
   <v type="int" >       62 </v>
   <v type="int" >       63 </v>
   <v type="int" >       64 </v>
   <v type="int" >       65 </v>
   <v type="int" >       66 </v>
   <v type="int" >       67 </v>
   <v type="int" >       68 </v>
   <v type="int" >       69 </v>
   <v type="int" >       70 </v>
   <v type="int" >       71 </v>
   <v type="int" >       72 </v>
   <v type="int" >       73 </v>
   <v type="int" >       74 </v>
   <v type="int" >       75 </v>
   <v type="int" >       76 </v>
   <v type="int" >       77 </v>
   <v type="int" >       78 </v>
   <v type="int" >       79 </v>
   <v type="int" >       80 </v>
   <v type="int" >       81 </v>
   <v type="int" >       82 </v>
   <v type="int" >       83 </v>
   <v type="int" >       84 </v>
   <v type="int" >       85 </v>
   <v type="int" >       86 </v>
   <v type="int" >       87 </v>
   <v type="int" >       88 </v>
   <v type="int" >       89 </v>
   <v type="int" >       90 </v>
   <v type="int" >       91 </v>
   <v type="int" >       92 </v>
   <v type="int" >       93 </v>
   <v type="int" >       94 </v>
   <v type="int" >       95 </v>
   <v type="int" >       96 </v>
   <v type="int" >       97 </v>
   <v type="int" >       98 </v>
   <v type="int" >       99 </v>
   <v type="int" >      100 </v>
   <v type="int" >      101 </v>
   <v type="int" >      102 </v>
   <v type="int" >      103 </v>
   <v type="int" >      104 </v>
   <v type="int" >      105 </v>
   <v type="int" >      106 </v>
   <v type="int" >      107 </v>
   <v type="int" >      108 </v>
   <v type="int" >      109 </v>
   <v type="int" >      110 </v>
   <v type="int" >      111 </v>
   <v type="int" >      112 </v>
   <v type="int" >      113 </v>
   <v type="int" >      114 </v>
   <v type="int" >      115 </v>
   <v type="int" >      116 </v>
   <v type="int" >      117 </v>
   <v type="int" >      118 </v>
   <v type="int" >      119 </v>
   <v type="int" >      120 </v>
  </varray>
 </primitive_cell>
 <kpoints>
  <generation param="Gamma">
   <v type="int" name="divisions">       2        2        2 </v>
   <v name="usershift">      0.00000000       0.00000000       0.00000000 </v>
   <v name="genvec1">      0.50000000       0.00000000       0.00000000 </v>
   <v name="genvec2">      0.00000000       0.50000000       0.00000000 </v>
   <v name="genvec3">      0.00000000       0.00000000       0.50000000 </v>
   <v name="shift">      0.00000000       0.00000000       0.00000000 </v>
  </generation>
  <varray name="kpointlist" >
   <v>       0.00000000       0.00000000       0.00000000 </v>
   <v>       0.50000000       0.00000000       0.00000000 </v>
   <v>       0.00000000       0.50000000       0.00000000 </v>
   <v>       0.50000000       0.50000000       0.00000000 </v>
   <v>       0.00000000       0.00000000       0.50000000 </v>
   <v>       0.50000000       0.00000000       0.50000000 </v>
   <v>       0.00000000       0.50000000       0.50000000 </v>
   <v>       0.50000000       0.50000000       0.50000000 </v>
  </varray>
  <varray name="weights" >
   <v>       0.12500000 </v>
   <v>       0.12500000 </v>
   <v>       0.12500000 </v>
   <v>       0.12500000 </v>
   <v>       0.12500000 </v>
   <v>       0.12500000 </v>
   <v>       0.12500000 </v>
   <v>       0.12500000 </v>
  </varray>
 </kpoints>
 <parameters>
  <separator name="general" >
   <i type="string" name="SYSTEM">unknown system</i>
   <i type="logical" name="LCOMPAT"> F  </i>
  </separator>
  <separator name="electronic" >
   <i type="string" name="PREC">normal</i>
   <i name="ENMAX">    450.00000000</i>
   <i name="ENAUG">    605.39200000</i>
   <i name="EDIFF">      0.00001000</i>
   <i type="int" name="IALGO">    68</i>
   <i type="int" name="IWAVPR">    11</i>
   <i type="int" name="NBANDS">   633</i>
   <i type="int" name="NBANDSLOW">    -1</i>
   <i type="int" name="NBANDSHIGH">    -1</i>
   <i name="NELECT">   1056.00000000</i>
   <i type="int" name="TURBO">     0</i>
   <i type="int" name="IRESTART">     0</i>
   <i type="int" name="NREBOOT">     0</i>
   <i type="int" name="NMIN">     0</i>
   <i name="EREF">      0.00000000</i>
   <separator name="electronic smearing" >
    <i type="int" name="ISMEAR">     0</i>
    <i name="SIGMA">      0.05000000</i>
    <i name="KSPACING">      0.50000000</i>
    <i type="logical" name="KGAMMA"> T  </i>
    <i type="logical" name="KBLOWUP"> T  </i>
   </separator>
   <separator name="electronic projectors" >
    <i type="logical" name="LREAL"> T  </i>
    <v name="ROPT">     -0.00050000     -0.00050000     -0.00050000</v>
    <i type="int" name="LMAXPAW">  -100</i>
    <i type="int" name="LMAXMIX">     2</i>
    <i type="logical" name="NLSPLINE"> F  </i>
   </separator>
   <separator name="electronic startup" >
    <i type="int" name="ISTART">     0</i>
    <i type="int" name="ICHARG">     2</i>
    <i type="int" name="INIWAV">     1</i>
   </separator>
   <separator name="electronic spin" >
    <i type="int" name="ISPIN">     1</i>
    <i type="logical" name="LNONCOLLINEAR"> F  </i>
    <v name="MAGMOM">      1.00000000      1.00000000      1.00000000      1.00000000      1.00000000      1.00000000      1.00000000      1.00000000      1.00000000      1.00000000      1.00000000      1.00000000      1.00000000      1.00000000      1.00000000      1.00000000      1.00000000      1.00000000      1.00000000      1.00000000
      1.00000000      1.00000000      1.00000000      1.00000000      1.00000000      1.00000000      1.00000000      1.00000000      1.00000000      1.00000000      1.00000000      1.00000000      1.00000000      1.00000000      1.00000000      1.00000000      1.00000000      1.00000000      1.00000000      1.00000000
      1.00000000      1.00000000      1.00000000      1.00000000      1.00000000      1.00000000      1.00000000      1.00000000      1.00000000      1.00000000      1.00000000      1.00000000      1.00000000      1.00000000      1.00000000      1.00000000      1.00000000      1.00000000      1.00000000      1.00000000
      1.00000000      1.00000000      1.00000000      1.00000000      1.00000000      1.00000000      1.00000000      1.00000000      1.00000000      1.00000000      1.00000000      1.00000000      1.00000000      1.00000000      1.00000000      1.00000000      1.00000000      1.00000000      1.00000000      1.00000000
      1.00000000      1.00000000      1.00000000      1.00000000      1.00000000      1.00000000      1.00000000      1.00000000      1.00000000      1.00000000      1.00000000      1.00000000      1.00000000      1.00000000      1.00000000      1.00000000      1.00000000      1.00000000      1.00000000      1.00000000
      1.00000000      1.00000000      1.00000000      1.00000000      1.00000000      1.00000000      1.00000000      1.00000000      1.00000000      1.00000000      1.00000000      1.00000000      1.00000000      1.00000000      1.00000000      1.00000000      1.00000000      1.00000000      1.00000000      1.00000000
</v>
    <i name="NUPDOWN">     -1.00000000</i>
    <i type="logical" name="LSORBIT"> F  </i>
    <v name="SAXIS">      0.00000000      0.00000000      1.00000000</v>
    <i type="logical" name="LSPIRAL"> F  </i>
    <v name="QSPIRAL">      0.00000000      0.00000000      0.00000000</v>
    <i type="logical" name="LZEROZ"> F  </i>
   </separator>
   <separator name="electronic exchange-correlation" >
    <i type="logical" name="LASPH"> F  </i>
    <i type="logical" name="LMETAGGA"> F  </i>
   </separator>
   <separator name="electronic convergence" >
    <i type="int" name="NELM">    60</i>
    <i type="int" name="NELMDL">    -5</i>
    <i type="int" name="NELMIN">     2</i>
    <i name="ENINI">    450.00000000</i>
    <separator name="electronic convergence detail" >
     <i type="logical" name="LDIAG"> T  </i>
     <i type="logical" name="LSUBROT"> F  </i>
     <i name="WEIMIN">      0.00100000</i>
     <i name="EBREAK">      0.00000000</i>
     <i name="DEPER">      0.30000000</i>
     <i type="int" name="NRMM">     4</i>
     <i name="TIME">      0.40000000</i>
    </separator>
   </separator>
   <separator name="electronic mixer" >
    <i name="AMIX">      0.40000000</i>
    <i name="BMIX">      1.00000000</i>
    <i name="AMIN">      0.10000000</i>
    <i name="AMIX_MAG">      1.60000000</i>
    <i name="BMIX_MAG">      1.00000000</i>
    <separator name="electronic mixer details" >
     <i type="int" name="IMIX">     4</i>
     <i type="logical" name="MIXFIRST"> F  </i>
     <i type="int" name="MAXMIX">   -45</i>
     <i name="WC">    100.00000000</i>
     <i type="int" name="INIMIX">     1</i>
     <i type="int" name="MIXPRE">     1</i>
     <i type="int" name="MREMOVE">     5</i>
    </separator>
   </separator>
   <separator name="electronic dipolcorrection" >
    <i type="logical" name="LDIPOL"> F  </i>
    <i type="logical" name="LMONO"> F  </i>
    <i type="int" name="IDIPOL">     0</i>
    <i name="EPSILON">      1.00000000</i>
    <v name="DIPOL">   -100.00000000   -100.00000000   -100.00000000</v>
    <i name="EFIELD">      0.00000000</i>
   </separator>
  </separator>
  <separator name="grids" >
   <i type="int" name="NGX">    64</i>
   <i type="int" name="NGY">    48</i>
   <i type="int" name="NGZ">    60</i>
   <i type="int" name="NGXF">   128</i>
   <i type="int" name="NGYF">    96</i>
   <i type="int" name="NGZF">   120</i>
   <i type="logical" name="ADDGRID"> F  </i>
  </separator>
  <separator name="ionic" >
   <i type="int" name="NSW">   300</i>
   <i type="int" name="IBRION">     2</i>
   <i type="int" name="MDALGO">     0</i>
   <i type="int" name="ISIF">     2</i>
   <i name="PSTRESS">      0.00000000</i>
   <i name="EDIFFG">     -0.00500000</i>
   <i type="int" name="NFREE">     1</i>
   <i name="POTIM">      0.50000000</i>
   <i name="SMASS">     -3.00000000</i>
   <i name="SCALEE">      1.00000000</i>
  </separator>
  <separator name="ionic md" >
   <i name="TEBEG">      0.00010000</i>
   <i name="TEEND">      0.00010000</i>
   <i type="int" name="NBLOCK">     1</i>
   <i type="int" name="KBLOCK">   300</i>
   <i type="int" name="NPACO">   256</i>
   <i name="APACO">     10.00000000</i>
  </separator>
  <separator name="symmetry" >
   <i type="int" name="ISYM">     2</i>
   <i name="SYMPREC">      0.00001000</i>
  </separator>
  <separator name="dos" >
   <i type="int" name="LORBIT">     0</i>
   <v name="RWIGS">     -1.00000000     -1.00000000     -1.00000000</v>
   <i type="int" name="NEDOS">   301</i>
   <i name="EMIN">     10.00000000</i>
   <i name="EMAX">    -10.00000000</i>
   <i name="EFERMI">      0.00000000</i>
  </separator>
  <separator name="writing" >
   <i type="int" name="NWRITE">     2</i>
   <i type="logical" name="LWAVE"> F  </i>
   <i type="logical" name="LDOWNSAMPLE"> F  </i>
   <i type="logical" name="LCHARG"> F  </i>
   <i type="logical" name="LPARD"> F  </i>
   <i type="logical" name="LVTOT"> F  </i>
   <i type="logical" name="LVHAR"> F  </i>
   <i type="logical" name="LELF"> F  </i>
   <i type="logical" name="LOPTICS"> F  </i>
   <v name="STM">      0.00000000      0.00000000      0.00000000      0.00000000      0.00000000      0.00000000      0.00000000</v>
  </separator>
  <separator name="performance" >
   <i type="int" name="NPAR">     1</i>
   <i type="int" name="NSIM">     4</i>
   <i type="int" name="NBLK">    -1</i>
   <i type="logical" name="LPLANE"> T  </i>
   <i type="logical" name="LSCALAPACK"> T  </i>
   <i type="logical" name="LSCAAWARE"> F  </i>
   <i type="logical" name="LSCALU"> F  </i>
   <i type="logical" name="LASYNC"> F  </i>
   <i type="logical" name="LORBITALREAL"> F  </i>
  </separator>
  <separator name="miscellaneous" >
   <i type="int" name="IDIOT">     3</i>
   <i type="int" name="PHON_NSTRUCT">    -1</i>
   <i type="logical" name="LMUSIC"> F  </i>
   <v name="POMASS">     69.72300000     16.00000000     30.97400000</v>
   <v name="DARWINR">      0.00000000      0.00000000      0.00000000</v>
   <v name="DARWINV">      1.00000000      1.00000000      1.00000000</v>
   <i type="logical" name="LCORR"> T  </i>
  </separator>
  <i type="logical" name="GGA_COMPAT"> T  </i>
  <i type="logical" name="LBERRY"> F  </i>
  <i type="int" name="ICORELEVEL">     0</i>
  <i type="logical" name="LDAU"> F  </i>
  <i type="int" name="I_CONSTRAINED_M">     0</i>
  <separator name="electronic exchange-correlation" >
   <i type="string" name="GGA">--</i>
   <i type="int" name="VOSKOWN">     0</i>
   <i type="logical" name="LHFCALC"> F  </i>
   <i type="string" name="PRECFOCK"></i>
   <i type="logical" name="LSYMGRAD"> F  </i>
   <i type="logical" name="LHFONE"> F  </i>
   <i type="logical" name="LRHFCALC"> F  </i>
   <i type="logical" name="LTHOMAS"> F  </i>
   <i type="logical" name="LMODELHF"> F  </i>
   <i type="logical" name="LFOCKACE"> F  </i>
   <i name="ENCUT4O">     -1.00000000</i>
   <i type="int" name="EXXOEP">     0</i>
   <i type="int" name="FOURORBIT">     0</i>
   <i name="AEXX">      0.00000000</i>
   <i name="HFALPHA">      0.00000000</i>
   <i name="MCALPHA">      0.00000000</i>
   <i name="ALDAX">      1.00000000</i>
   <i name="AGGAX">      1.00000000</i>
   <i name="ALDAC">      1.00000000</i>
   <i name="AGGAC">      1.00000000</i>
   <i type="int" name="NKREDX">     1</i>
   <i type="int" name="NKREDY">     1</i>
   <i type="int" name="NKREDZ">     1</i>
   <i type="logical" name="SHIFTRED"> F  </i>
   <i type="logical" name="ODDONLY"> F  </i>
   <i type="logical" name="EVENONLY"> F  </i>
   <i type="int" name="LMAXFOCK">     0</i>
   <i type="int" name="NMAXFOCKAE">     0</i>
   <i type="logical" name="LFOCKAEDFT"> F  </i>
   <i name="HFSCREEN">      0.00000000</i>
   <i name="HFSCREENC">      0.00000000</i>
   <i type="int" name="NBANDSGWLOW">     0</i>
  </separator>
  <separator name="vdW DFT" >
   <i type="logical" name="LUSE_VDW"> F  </i>
   <i type="int" name="IVDW_NL">     1</i>
   <i type="logical" name="LSPIN_VDW"> F  </i>
   <i name="Zab_VDW">     -0.84910000</i>
   <i name="PARAM1">      0.12340000</i>
   <i name="PARAM2">      1.00000000</i>
   <i name="PARAM3">      0.00000000</i>
  </separator>
  <separator name="model GW" >
   <i type="int" name="MODEL_GW">     0</i>
   <i name="MODEL_EPS0">      6.34402578</i>
   <i name="MODEL_ALPHA">      1.00000000</i>
  </separator>
  <separator name="linear response parameters" >
   <i type="logical" name="LEPSILON"> F  </i>
   <i type="logical" name="LRPA"> F  </i>
   <i type="logical" name="LNABLA"> F  </i>
   <i type="logical" name="LVEL"> F  </i>
   <i name="CSHIFT">      0.10000000</i>
   <i name="OMEGAMAX">     -1.00000000</i>
   <i name="DEG_THRESHOLD">      0.00200000</i>
   <i name="RTIME">     -0.10000000</i>
   <i name="WPLASMAI">      0.00000000</i>
   <v name="DFIELD">      0.00000000      0.00000000      0.00000000</v>
   <v name="WPLASMA">      0.00000000      0.00000000      0.00000000      0.00000000      0.00000000      0.00000000      0.00000000      0.00000000      0.00000000</v>
  </separator>
  <separator name="orbital magnetization" >
   <i type="logical" name="NUCIND"> F  </i>
   <v name="MAGPOS">      0.00000000      0.00000000      0.00000000</v>
   <i type="logical" name="LNICSALL"> T  </i>
   <i type="logical" name="ORBITALMAG"> F  </i>
   <i type="logical" name="LMAGBLOCH"> F  </i>
   <i type="logical" name="LCHIMAG"> F  </i>
   <i type="logical" name="LGAUGE"> T  </i>
   <i type="int" name="MAGATOM">     0</i>
   <v name="MAGDIPOL">      0.00000000      0.00000000      0.00000000</v>
   <v name="AVECCONST">      0.00000000      0.00000000      0.00000000</v>
  </separator>
  <separator name="response functions" >
   <i type="logical" name="LALL_IN_ONE"> F  </i>
   <i type="int" name="IALL_IN_ONE">    -1</i>
   <i type="int" name="NBANDS_WAVE">    -1</i>
   <i type="logical" name="LFINITE_TEMPERATURE"> F  </i>
   <i type="logical" name="LADDER"> F  </i>
   <i type="logical" name="LRPAFORCE"> F  </i>
   <i type="logical" name="LFXC"> F  </i>
   <i type="logical" name="LHARTREE"> T  </i>
   <i type="int" name="IBSE">     0</i>
   <v type="int" name="KPOINT">    -1     0     0     0</v>
   <i type="logical" name="LTCTC"> F  </i>
   <i type="logical" name="LTCTE"> F  </i>
   <i type="logical" name="LTETE"> F  </i>
   <i type="logical" name="LTRIPLET"> F  </i>
   <i type="logical" name="LFXCEPS"> F  </i>
   <i type="logical" name="LFXHEG"> F  </i>
   <i type="int" name="NATURALO">     2</i>
   <i type="logical" name="LHOLEGF"> F  </i>
   <i type="logical" name="L2ORDER"> F  </i>
   <i type="logical" name="LDMP1"> F  </i>
   <i type="logical" name="LMP2LT"> F  </i>
   <i type="logical" name="LSMP2LT"> F  </i>
   <i type="logical" name="LGWLF"> F  </i>
   <i name="ENCUTGW">     -1.60000002</i>
   <i name="ENCUTGWSOFT">     -1.60000002</i>
   <i name="ENCUTLF">     -1.00000000</i>
   <i type="logical" name="LESF_SPLINES"> F  </i>
   <i type="int" name="LMAXMP2">    -1</i>
   <i name="SCISSOR">      0.00000000</i>
   <i type="int" name="NOMEGA">     0</i>
   <i type="int" name="NOMEGAR">     0</i>
   <i type="int" name="NBANDSGW">    -1</i>
   <i type="int" name="NBANDSO">    -1</i>
   <i type="int" name="NBANDSV">    -1</i>
   <i type="int" name="NELMGW">     1</i>
   <i type="int" name="NELMHF">     1</i>
   <i type="int" name="DIM">     3</i>
   <i type="int" name="IESPILON">     4</i>
   <i type="int" name="ANTIRES">     0</i>
   <i name="OMEGAMAX">    -30.00000000</i>
   <i name="OMEGAMIN">    -30.00000000</i>
   <i name="OMEGATL">   -200.00000000</i>
   <i type="int" name="OMEGAGRID">     0</i>
   <i name="CSHIFT">     -0.10000000</i>
   <i type="logical" name="LSELFENERGY"> F  </i>
   <i type="logical" name="LSPECTRAL"> F  </i>
   <i type="logical" name="LSPECTRALGW"> F  </i>
   <i type="logical" name="LSINGLES"> F  </i>
   <i type="logical" name="LFERMIGW"> F  </i>
   <i type="logical" name="ODDONLYGW"> F  </i>
   <i type="logical" name="EVENONLYGW"> F  </i>
   <i type="int" name="NKREDLFX">     1</i>
   <i type="int" name="NKREDLFY">     1</i>
   <i type="int" name="NKREDLFZ">     1</i>
   <i type="int" name="MAXMEM">  2800</i>
   <i type="int" name="TELESCOPE">     0</i>
   <i type="int" name="NTAUPAR">    -1</i>
   <i type="int" name="NOMEGAPAR">    -1</i>
   <i name="DAMP_NEWTON">      0.80000001</i>
   <i name="LAMBDA">      1.00000000</i>
  </separator>
  <separator name="External order field" >
   <i name="OFIELD_KAPPA">      0.00000000</i>
   <v name="OFIELD_K">      0.00000000      0.00000000      0.00000000</v>
   <i name="OFIELD_Q6_NEAR">      0.00000000</i>
   <i name="OFIELD_Q6_FAR">      0.00000000</i>
   <i name="OFIELD_A">      0.00000000</i>
  </separator>
  <separator name="optional k-points parameters" >
   <i type="int" name="KPOINTS_OPT_MODE">     1</i>
   <i type="logical" name="LKPOINTS_OPT"> F  </i>
  </separator>
 </parameters>
 <atominfo>
  <atoms>     120 </atoms>
  <types>       3 </types>
  <array name="atoms" >
   <dimension dim="1">ion</dimension>
   <field type="string">element</field>
   <field type="int">atomtype</field>
   <set>
    <rc><c>Ga</c><c>   1</c></rc>
    <rc><c>Ga</c><c>   1</c></rc>
    <rc><c>Ga</c><c>   1</c></rc>
    <rc><c>Ga</c><c>   1</c></rc>
    <rc><c>Ga</c><c>   1</c></rc>
    <rc><c>Ga</c><c>   1</c></rc>
    <rc><c>Ga</c><c>   1</c></rc>
    <rc><c>Ga</c><c>   1</c></rc>
    <rc><c>Ga</c><c>   1</c></rc>
    <rc><c>Ga</c><c>   1</c></rc>
    <rc><c>Ga</c><c>   1</c></rc>
    <rc><c>Ga</c><c>   1</c></rc>
    <rc><c>Ga</c><c>   1</c></rc>
    <rc><c>Ga</c><c>   1</c></rc>
    <rc><c>Ga</c><c>   1</c></rc>
    <rc><c>Ga</c><c>   1</c></rc>
    <rc><c>Ga</c><c>   1</c></rc>
    <rc><c>Ga</c><c>   1</c></rc>
    <rc><c>Ga</c><c>   1</c></rc>
    <rc><c>Ga</c><c>   1</c></rc>
    <rc><c>Ga</c><c>   1</c></rc>
    <rc><c>Ga</c><c>   1</c></rc>
    <rc><c>Ga</c><c>   1</c></rc>
    <rc><c>Ga</c><c>   1</c></rc>
    <rc><c>Ga</c><c>   1</c></rc>
    <rc><c>Ga</c><c>   1</c></rc>
    <rc><c>Ga</c><c>   1</c></rc>
    <rc><c>Ga</c><c>   1</c></rc>
    <rc><c>Ga</c><c>   1</c></rc>
    <rc><c>Ga</c><c>   1</c></rc>
    <rc><c>Ga</c><c>   1</c></rc>
    <rc><c>Ga</c><c>   1</c></rc>
    <rc><c>Ga</c><c>   1</c></rc>
    <rc><c>Ga</c><c>   1</c></rc>
    <rc><c>Ga</c><c>   1</c></rc>
    <rc><c>Ga</c><c>   1</c></rc>
    <rc><c>Ga</c><c>   1</c></rc>
    <rc><c>Ga</c><c>   1</c></rc>
    <rc><c>Ga</c><c>   1</c></rc>
    <rc><c>Ga</c><c>   1</c></rc>
    <rc><c>Ga</c><c>   1</c></rc>
    <rc><c>Ga</c><c>   1</c></rc>
    <rc><c>Ga</c><c>   1</c></rc>
    <rc><c>Ga</c><c>   1</c></rc>
    <rc><c>Ga</c><c>   1</c></rc>
    <rc><c>Ga</c><c>   1</c></rc>
    <rc><c>Ga</c><c>   1</c></rc>
    <rc><c>Ga</c><c>   1</c></rc>
    <rc><c>O </c><c>   2</c></rc>
    <rc><c>O </c><c>   2</c></rc>
    <rc><c>O </c><c>   2</c></rc>
    <rc><c>O </c><c>   2</c></rc>
    <rc><c>O </c><c>   2</c></rc>
    <rc><c>O </c><c>   2</c></rc>
    <rc><c>O </c><c>   2</c></rc>
    <rc><c>O </c><c>   2</c></rc>
    <rc><c>O </c><c>   2</c></rc>
    <rc><c>O </c><c>   2</c></rc>
    <rc><c>O </c><c>   2</c></rc>
    <rc><c>O </c><c>   2</c></rc>
    <rc><c>O </c><c>   2</c></rc>
    <rc><c>O </c><c>   2</c></rc>
    <rc><c>O </c><c>   2</c></rc>
    <rc><c>O </c><c>   2</c></rc>
    <rc><c>O </c><c>   2</c></rc>
    <rc><c>O </c><c>   2</c></rc>
    <rc><c>O </c><c>   2</c></rc>
    <rc><c>O </c><c>   2</c></rc>
    <rc><c>O </c><c>   2</c></rc>
    <rc><c>O </c><c>   2</c></rc>
    <rc><c>O </c><c>   2</c></rc>
    <rc><c>O </c><c>   2</c></rc>
    <rc><c>O </c><c>   2</c></rc>
    <rc><c>O </c><c>   2</c></rc>
    <rc><c>O </c><c>   2</c></rc>
    <rc><c>O </c><c>   2</c></rc>
    <rc><c>O </c><c>   2</c></rc>
    <rc><c>O </c><c>   2</c></rc>
    <rc><c>O </c><c>   2</c></rc>
    <rc><c>O </c><c>   2</c></rc>
    <rc><c>O </c><c>   2</c></rc>
    <rc><c>O </c><c>   2</c></rc>
    <rc><c>O </c><c>   2</c></rc>
    <rc><c>O </c><c>   2</c></rc>
    <rc><c>O </c><c>   2</c></rc>
    <rc><c>O </c><c>   2</c></rc>
    <rc><c>O </c><c>   2</c></rc>
    <rc><c>O </c><c>   2</c></rc>
    <rc><c>O </c><c>   2</c></rc>
    <rc><c>O </c><c>   2</c></rc>
    <rc><c>O </c><c>   2</c></rc>
    <rc><c>O </c><c>   2</c></rc>
    <rc><c>O </c><c>   2</c></rc>
    <rc><c>O </c><c>   2</c></rc>
    <rc><c>O </c><c>   2</c></rc>
    <rc><c>O </c><c>   2</c></rc>
    <rc><c>O </c><c>   2</c></rc>
    <rc><c>O </c><c>   2</c></rc>
    <rc><c>O </c><c>   2</c></rc>
    <rc><c>O </c><c>   2</c></rc>
    <rc><c>O </c><c>   2</c></rc>
    <rc><c>O </c><c>   2</c></rc>
    <rc><c>O </c><c>   2</c></rc>
    <rc><c>O </c><c>   2</c></rc>
    <rc><c>O </c><c>   2</c></rc>
    <rc><c>O </c><c>   2</c></rc>
    <rc><c>O </c><c>   2</c></rc>
    <rc><c>O </c><c>   2</c></rc>
    <rc><c>O </c><c>   2</c></rc>
    <rc><c>O </c><c>   2</c></rc>
    <rc><c>O </c><c>   2</c></rc>
    <rc><c>O </c><c>   2</c></rc>
    <rc><c>O </c><c>   2</c></rc>
    <rc><c>O </c><c>   2</c></rc>
    <rc><c>O </c><c>   2</c></rc>
    <rc><c>O </c><c>   2</c></rc>
    <rc><c>O </c><c>   2</c></rc>
    <rc><c>O </c><c>   2</c></rc>
    <rc><c>O </c><c>   2</c></rc>
    <rc><c>P </c><c>   3</c></rc>
   </set>
  </array>
  <array name="atomtypes" >
   <dimension dim="1">type</dimension>
   <field type="int">atomspertype</field>
   <field type="string">element</field>
   <field>mass</field>
   <field>valence</field>
   <field type="string">pseudopotential</field>
   <set>
    <rc><c>  48</c><c>Ga</c><c>     69.72300000</c><c>     13.00000000</c><c>  PAW_PBE Ga_d 06Jul2010                </c></rc>
    <rc><c>  71</c><c>O </c><c>     16.00000000</c><c>      6.00000000</c><c>   PAW_PBE O 08Apr2002                  </c></rc>
    <rc><c>   1</c><c>P </c><c>     30.97400000</c><c>      5.00000000</c><c>  PAW_PBE P 06Sep2000                   </c></rc>
   </set>
  </array>
 </atominfo>
 <structure name="initialpos" >
  <crystal>
   <varray name="basis" >
    <v>       0.00000000      12.28047342       0.00000000 </v>
    <v>       9.14270205       0.00000000       0.00000000 </v>
    <v>       0.00000000      -2.76826177     -11.30069772 </v>
   </varray>
   <i name="volume">   1268.80515525 </i>
   <varray name="rec_basis" >
    <v>       0.00000000       0.08143009      -0.01994742 </v>
    <v>       0.10937686      -0.00000000       0.00000000 </v>
    <v>       0.00000000       0.00000000      -0.08849011 </v>
   </varray>
  </crystal>
  <varray name="positions" >
   <v>       0.65883830       0.00000000       0.15736517 </v>
   <v>       0.65883830       0.00000000       0.65736517 </v>
   <v>       0.65883830       0.33333333       0.15736517 </v>
   <v>       0.65883830       0.33333333       0.65736517 </v>
   <v>       0.65883830       0.66666667       0.15736517 </v>
   <v>       0.65883830       0.66666667       0.65736517 </v>
   <v>       0.84116170       0.16666667       0.34263483 </v>
   <v>       0.84116170       0.16666667       0.84263483 </v>
   <v>       0.84116170       0.50000000       0.34263483 </v>
   <v>       0.84116170       0.50000000       0.84263483 </v>
   <v>       0.84116170       0.83333333       0.34263483 </v>
   <v>       0.84116170       0.83333333       0.84263483 </v>
   <v>       0.59047440       0.16666667       0.39739300 </v>
   <v>       0.59047440       0.16666667       0.89739300 </v>
   <v>       0.59047440       0.50000000       0.39739300 </v>
   <v>       0.59047440       0.50000000       0.89739300 </v>
   <v>       0.59047440       0.83333333       0.39739300 </v>
   <v>       0.59047440       0.83333333       0.89739300 </v>
   <v>       0.90952560       0.00000000       0.10260700 </v>
   <v>       0.90952560       0.00000000       0.60260700 </v>
   <v>       0.90952560       0.33333333       0.10260700 </v>
   <v>       0.90952560       0.33333333       0.60260700 </v>
   <v>       0.90952560       0.66666667       0.10260700 </v>
   <v>       0.90952560       0.66666667       0.60260700 </v>
   <v>       0.15883830       0.16666667       0.15736517 </v>
   <v>       0.15883830       0.16666667       0.65736517 </v>
   <v>       0.15883830       0.50000000       0.15736517 </v>
   <v>       0.15883830       0.50000000       0.65736517 </v>
   <v>       0.15883830       0.83333333       0.15736517 </v>
   <v>       0.15883830       0.83333333       0.65736517 </v>
   <v>       0.34116170       0.00000000       0.34263483 </v>
   <v>       0.34116170       0.00000000       0.84263483 </v>
   <v>       0.34116170       0.33333333       0.34263483 </v>
   <v>       0.34116170       0.33333333       0.84263483 </v>
   <v>       0.34116170       0.66666667       0.34263483 </v>
   <v>       0.34116170       0.66666667       0.84263483 </v>
   <v>       0.09047440       0.00000000       0.39739300 </v>
   <v>       0.09047440       0.00000000       0.89739300 </v>
   <v>       0.09047440       0.33333333       0.39739300 </v>
   <v>       0.09047440       0.33333333       0.89739300 </v>
   <v>       0.09047440       0.66666667       0.39739300 </v>
   <v>       0.09047440       0.66666667       0.89739300 </v>
   <v>       0.40952560       0.16666667       0.10260700 </v>
   <v>       0.40952560       0.16666667       0.60260700 </v>
   <v>       0.40952560       0.50000000       0.10260700 </v>
   <v>       0.40952560       0.50000000       0.60260700 </v>
   <v>       0.40952560       0.83333333       0.10260700 </v>
   <v>       0.40952560       0.83333333       0.60260700 </v>
   <v>       0.99646913       0.16666667       0.12833205 </v>
   <v>       0.99646913       0.16666667       0.62833205 </v>
   <v>       0.99646913       0.50000000       0.12833205 </v>
   <v>       0.99646913       0.50000000       0.62833205 </v>
   <v>       0.99646913       0.83333333       0.12833205 </v>
   <v>       0.99646913       0.83333333       0.62833205 </v>
   <v>       0.50353087       0.00000000       0.37166795 </v>
   <v>       0.50353087       0.00000000       0.87166795 </v>
   <v>       0.50353087       0.33333333       0.37166795 </v>
   <v>       0.50353087       0.33333333       0.87166795 </v>
   <v>       0.50353087       0.66666667       0.37166795 </v>
   <v>       0.50353087       0.66666667       0.87166795 </v>
   <v>       0.67337106       0.16666667       0.28161508 </v>
   <v>       0.67337106       0.16666667       0.78161508 </v>
   <v>       0.67337106       0.50000000       0.28161508 </v>
   <v>       0.67337106       0.50000000       0.78161508 </v>
   <v>       0.67337106       0.83333333       0.28161508 </v>
   <v>       0.67337106       0.83333333       0.78161508 </v>
   <v>       0.82662894       0.00000000       0.21838492 </v>
   <v>       0.82662894       0.00000000       0.71838492 </v>
   <v>       0.82662894       0.33333333       0.21838492 </v>
   <v>       0.82662894       0.33333333       0.71838492 </v>
   <v>       0.82662894       0.66666667       0.21838492 </v>
   <v>       0.82662894       0.66666667       0.71838492 </v>
   <v>       0.83549502       0.00000000       0.44542296 </v>
   <v>       0.83549502       0.00000000       0.94542296 </v>
   <v>       0.83549502       0.33333333       0.44542296 </v>
   <v>       0.83549502       0.33333333       0.94542296 </v>
   <v>       0.83549502       0.66666667       0.44542296 </v>
   <v>       0.83549502       0.66666667       0.94542296 </v>
   <v>       0.66450498       0.16666667       0.05457704 </v>
   <v>       0.66450498       0.16666667       0.55457704 </v>
   <v>       0.66450498       0.50000000       0.05457704 </v>
   <v>       0.66450498       0.50000000       0.55457704 </v>
   <v>       0.66450498       0.83333333       0.05457704 </v>
   <v>       0.66450498       0.83333333       0.55457704 </v>
   <v>       0.49646913       0.00000000       0.12833205 </v>
   <v>       0.49646913       0.00000000       0.62833205 </v>
   <v>       0.49646913       0.33333333       0.12833205 </v>
   <v>       0.49646913       0.33333333       0.62833205 </v>
   <v>       0.49646913       0.66666667       0.12833205 </v>
   <v>       0.49646913       0.66666667       0.62833205 </v>
   <v>       0.00353087       0.16666667       0.37166795 </v>
   <v>       0.00353087       0.16666667       0.87166795 </v>
   <v>       0.00353087       0.50000000       0.37166795 </v>
   <v>       0.00353087       0.50000000       0.87166795 </v>
   <v>       0.00353087       0.83333333       0.37166795 </v>
   <v>       0.00353087       0.83333333       0.87166795 </v>
   <v>       0.17337106       0.00000000       0.28161508 </v>
   <v>       0.17337106       0.00000000       0.78161508 </v>
   <v>       0.17337106       0.33333333       0.28161508 </v>
   <v>       0.17337106       0.33333333       0.78161508 </v>
   <v>       0.17337106       0.66666667       0.28161508 </v>
   <v>       0.17337106       0.66666667       0.78161508 </v>
   <v>       0.32662894       0.16666667       0.21838492 </v>
   <v>       0.32662894       0.16666667       0.71838492 </v>
   <v>       0.32662894       0.50000000       0.21838492 </v>
   <v>       0.32662894       0.50000000       0.71838492 </v>
   <v>       0.32662894       0.83333333       0.21838492 </v>
   <v>       0.32662894       0.83333333       0.71838492 </v>
   <v>       0.33549502       0.16666667       0.44542296 </v>
   <v>       0.33549502       0.16666667       0.94542296 </v>
   <v>       0.33549502       0.50000000       0.44542296 </v>
   <v>       0.33549502       0.50000000       0.94542296 </v>
   <v>       0.33549502       0.83333333       0.44542296 </v>
   <v>       0.33549502       0.83333333       0.94542296 </v>
   <v>       0.16450498       0.00000000       0.05457704 </v>
   <v>       0.16450498       0.33333333       0.05457704 </v>
   <v>       0.16450498       0.33333333       0.55457704 </v>
   <v>       0.16450498       0.66666667       0.05457704 </v>
   <v>       0.16450498       0.66666667       0.55457704 </v>
   <v>       0.16450498       0.00000000       0.55457704 </v>
  </varray>
 </structure>
 <calculation>
  <scstep>
   <time name="dav">    1.77    1.77</time>
   <time name="total">    1.90    1.90</time>
   <energy>
    <i name="alphaZ">   5529.70323211 </i>
    <i name="ewald"> -88600.23035105 </i>
    <i name="hartreedc"> -33372.94759937 </i>
    <i name="XCdc">   4126.43853718 </i>
    <i name="pawpsdc"> 101696.24768859 </i>
    <i name="pawaedc">-117826.33756962 </i>
    <i name="eentropy">     -0.00892794 </i>
    <i name="bandstr">  16420.95683183 </i>
    <i name="atom"> 134015.81877255 </i>
    <i name="e_fr_energy">  21989.64061428 </i>
    <i name="e_wo_entrp">  21989.64954221 </i>
    <i name="e_0_energy">  21989.64507824 </i>
   </energy>
  </scstep>
  <scstep>
   <time name="dav">    1.70    1.70</time>
   <time name="total">    1.71    1.71</time>
   <energy>
    <i name="e_fr_energy">   4873.80436014 </i>
    <i name="e_wo_entrp">   4873.82655807 </i>
    <i name="e_0_energy">   4873.81545910 </i>
   </energy>
  </scstep>
  <scstep>
   <time name="dav">    2.09    2.09</time>
   <time name="total">    2.10    2.10</time>
   <energy>
    <i name="e_fr_energy">   -137.79994152 </i>
    <i name="e_wo_entrp">   -137.79994152 </i>
    <i name="e_0_energy">   -137.79994152 </i>
   </energy>
  </scstep>
  <scstep>
   <time name="dav">    2.03    2.03</time>
   <time name="total">    2.03    2.03</time>
   <energy>
    <i name="e_fr_energy">   -766.29741055 </i>
    <i name="e_wo_entrp">   -766.29741055 </i>
    <i name="e_0_energy">   -766.29741055 </i>
   </energy>
  </scstep>
  <scstep>
   <time name="dav">    2.33    2.33</time>
   <time name="total">    2.60    2.60</time>
   <energy>
    <i name="e_fr_energy">   -810.21766253 </i>
    <i name="e_wo_entrp">   -810.21766253 </i>
    <i name="e_0_energy">   -810.21766253 </i>
   </energy>
  </scstep>
  <scstep>
   <time name="diag">    0.24    0.24</time>
   <time name="diis">    2.48    2.48</time>
   <time name="orth">    0.03    0.03</time>
   <time name="total">    3.14    3.14</time>
   <energy>
    <i name="e_fr_energy">   -696.54151241 </i>
    <i name="e_wo_entrp">   -696.54151241 </i>
    <i name="e_0_energy">   -696.54151241 </i>
   </energy>
  </scstep>
  <scstep>
   <time name="diag">    0.24    0.24</time>
   <time name="diis">    2.67    2.67</time>
   <time name="orth">    0.03    0.03</time>
   <time name="total">    3.32    3.32</time>
   <energy>
    <i name="e_fr_energy">   -700.17266877 </i>
    <i name="e_wo_entrp">   -700.17266876 </i>
    <i name="e_0_energy">   -700.17266877 </i>
   </energy>
  </scstep>
  <scstep>
   <time name="diag">    0.24    0.24</time>
   <time name="diis">    2.36    2.36</time>
   <time name="orth">    0.03    0.03</time>
   <time name="total">    3.02    3.02</time>
   <energy>
    <i name="e_fr_energy">   -700.12250790 </i>
    <i name="e_wo_entrp">   -700.10990442 </i>
    <i name="e_0_energy">   -700.11620616 </i>
   </energy>
  </scstep>
  <scstep>
   <time name="diag">    0.24    0.24</time>
   <time name="diis">    2.85    2.85</time>
   <time name="orth">    0.03    0.03</time>
   <time name="total">    3.51    3.51</time>
   <energy>
    <i name="e_fr_energy">   -699.49913883 </i>
    <i name="e_wo_entrp">   -699.49778496 </i>
    <i name="e_0_energy">   -699.49846189 </i>
   </energy>
  </scstep>
  <scstep>
   <time name="diag">    0.24    0.24</time>
   <time name="diis">    2.72    2.72</time>
   <time name="orth">    0.03    0.03</time>
   <time name="total">    3.38    3.38</time>
   <energy>
    <i name="e_fr_energy">   -699.55651370 </i>
    <i name="e_wo_entrp">   -699.55322361 </i>
    <i name="e_0_energy">   -699.55486866 </i>
   </energy>
  </scstep>
  <scstep>
   <time name="diag">    0.24    0.24</time>
   <time name="diis">    2.86    2.85</time>
   <time name="orth">    0.03    0.03</time>
   <time name="total">    3.52    3.52</time>
   <energy>
    <i name="e_fr_energy">   -699.56726190 </i>
    <i name="e_wo_entrp">   -699.56485143 </i>
    <i name="e_0_energy">   -699.56605666 </i>
   </energy>
  </scstep>
  <scstep>
   <time name="diag">    0.24    0.24</time>
   <time name="diis">    2.91    2.91</time>
   <time name="orth">    0.03    0.03</time>
   <time name="total">    3.57    3.57</time>
   <energy>
    <i name="e_fr_energy">   -699.57371169 </i>
    <i name="e_wo_entrp">   -699.57008470 </i>
    <i name="e_0_energy">   -699.57189819 </i>
   </energy>
  </scstep>
  <scstep>
   <time name="diag">    0.24    0.24</time>
   <time name="diis">    2.75    2.75</time>
   <time name="orth">    0.03    0.03</time>
   <time name="total">    3.41    3.42</time>
   <energy>
    <i name="e_fr_energy">   -699.57461486 </i>
    <i name="e_wo_entrp">   -699.57094378 </i>
    <i name="e_0_energy">   -699.57277932 </i>
   </energy>
  </scstep>
  <scstep>
   <time name="diag">    0.24    0.24</time>
   <time name="diis">    2.79    2.79</time>
   <time name="orth">    0.03    0.03</time>
   <time name="total">    3.46    3.46</time>
   <energy>
    <i name="e_fr_energy">   -699.57494205 </i>
    <i name="e_wo_entrp">   -699.57153267 </i>
    <i name="e_0_energy">   -699.57323736 </i>
   </energy>
  </scstep>
  <scstep>
   <time name="diag">    0.24    0.24</time>
   <time name="diis">    2.24    2.24</time>
   <time name="orth">    0.03    0.03</time>
   <time name="total">    2.91    2.91</time>
   <energy>
    <i name="e_fr_energy">   -699.57507716 </i>
    <i name="e_wo_entrp">   -699.57167790 </i>
    <i name="e_0_energy">   -699.57337753 </i>
   </energy>
  </scstep>
  <scstep>
   <time name="diag">    0.24    0.24</time>
   <time name="diis">    2.01    2.01</time>
   <time name="orth">    0.03    0.04</time>
   <time name="total">    2.68    2.68</time>
   <energy>
    <i name="e_fr_energy">   -699.57512516 </i>
    <i name="e_wo_entrp">   -699.57172480 </i>
    <i name="e_0_energy">   -699.57342498 </i>
   </energy>
  </scstep>
  <scstep>
   <time name="diag">    0.24    0.24</time>
   <time name="diis">    1.90    1.90</time>
   <time name="orth">    0.03    0.03</time>
   <time name="total">    2.57    2.57</time>
   <energy>
    <i name="e_fr_energy">   -699.57514490 </i>
    <i name="e_wo_entrp">   -699.57176434 </i>
    <i name="e_0_energy">   -699.57345462 </i>
   </energy>
  </scstep>
  <scstep>
   <time name="diag">    0.24    0.24</time>
   <time name="diis">    1.76    1.76</time>
   <time name="orth">    0.03    0.03</time>
   <time name="total">    2.15    2.15</time>
   <energy>
    <i name="alphaZ">   5529.70323211 </i>
    <i name="ewald"> -88600.23035105 </i>
    <i name="hartreedc"> -33832.40749892 </i>
    <i name="XCdc">   4190.23020630 </i>
    <i name="pawpsdc"> 121201.23902302 </i>
    <i name="pawaedc">-137594.13842795 </i>
    <i name="eentropy">     -0.00337794 </i>
    <i name="bandstr">  -5609.78672984 </i>
    <i name="atom"> 134015.81877255 </i>
    <i name="e_fr_energy">   -699.57515173 </i>
    <i name="e_wo_entrp">   -699.57177379 </i>
    <i name="e_0_energy">   -699.57346276 </i>
   </energy>
  </scstep>
  <structure>
   <crystal>
    <varray name="basis" >
     <v>       0.00000000      12.28047342       0.00000000 </v>
     <v>       9.14270205       0.00000000       0.00000000 </v>
     <v>       0.00000000      -2.76826177     -11.30069772 </v>
    </varray>
    <i name="volume">   1268.80515525 </i>
    <varray name="rec_basis" >
     <v>       0.00000000       0.08143009      -0.01994742 </v>
     <v>       0.10937686      -0.00000000       0.00000000 </v>
     <v>       0.00000000       0.00000000      -0.08849011 </v>
    </varray>
   </crystal>
   <varray name="positions" >
    <v>       0.65883830       0.00000000       0.15736517 </v>
    <v>       0.65883830       0.00000000       0.65736517 </v>
    <v>       0.65883830       0.33333333       0.15736517 </v>
    <v>       0.65883830       0.33333333       0.65736517 </v>
    <v>       0.65883830       0.66666667       0.15736517 </v>
    <v>       0.65883830       0.66666667       0.65736517 </v>
    <v>       0.84116170       0.16666667       0.34263483 </v>
    <v>       0.84116170       0.16666667       0.84263483 </v>
    <v>       0.84116170       0.50000000       0.34263483 </v>
    <v>       0.84116170       0.50000000       0.84263483 </v>
    <v>       0.84116170       0.83333333       0.34263483 </v>
    <v>       0.84116170       0.83333333       0.84263483 </v>
    <v>       0.59047440       0.16666667       0.39739300 </v>
    <v>       0.59047440       0.16666667       0.89739300 </v>
    <v>       0.59047440       0.50000000       0.39739300 </v>
    <v>       0.59047440       0.50000000       0.89739300 </v>
    <v>       0.59047440       0.83333333       0.39739300 </v>
    <v>       0.59047440       0.83333333       0.89739300 </v>
    <v>       0.90952560       0.00000000       0.10260700 </v>
    <v>       0.90952560       0.00000000       0.60260700 </v>
    <v>       0.90952560       0.33333333       0.10260700 </v>
    <v>       0.90952560       0.33333333       0.60260700 </v>
    <v>       0.90952560       0.66666667       0.10260700 </v>
    <v>       0.90952560       0.66666667       0.60260700 </v>
    <v>       0.15883830       0.16666667       0.15736517 </v>
    <v>       0.15883830       0.16666667       0.65736517 </v>
    <v>       0.15883830       0.50000000       0.15736517 </v>
    <v>       0.15883830       0.50000000       0.65736517 </v>
    <v>       0.15883830       0.83333333       0.15736517 </v>
    <v>       0.15883830       0.83333333       0.65736517 </v>
    <v>       0.34116170       0.00000000       0.34263483 </v>
    <v>       0.34116170       0.00000000       0.84263483 </v>
    <v>       0.34116170       0.33333333       0.34263483 </v>
    <v>       0.34116170       0.33333333       0.84263483 </v>
    <v>       0.34116170       0.66666667       0.34263483 </v>
    <v>       0.34116170       0.66666667       0.84263483 </v>
    <v>       0.09047440       0.00000000       0.39739300 </v>
    <v>       0.09047440       0.00000000       0.89739300 </v>
    <v>       0.09047440       0.33333333       0.39739300 </v>
    <v>       0.09047440       0.33333333       0.89739300 </v>
    <v>       0.09047440       0.66666667       0.39739300 </v>
    <v>       0.09047440       0.66666667       0.89739300 </v>
    <v>       0.40952560       0.16666667       0.10260700 </v>
    <v>       0.40952560       0.16666667       0.60260700 </v>
    <v>       0.40952560       0.50000000       0.10260700 </v>
    <v>       0.40952560       0.50000000       0.60260700 </v>
    <v>       0.40952560       0.83333333       0.10260700 </v>
    <v>       0.40952560       0.83333333       0.60260700 </v>
    <v>       0.99646913       0.16666667       0.12833205 </v>
    <v>       0.99646913       0.16666667       0.62833205 </v>
    <v>       0.99646913       0.50000000       0.12833205 </v>
    <v>       0.99646913       0.50000000       0.62833205 </v>
    <v>       0.99646913       0.83333333       0.12833205 </v>
    <v>       0.99646913       0.83333333       0.62833205 </v>
    <v>       0.50353087       0.00000000       0.37166795 </v>
    <v>       0.50353087       0.00000000       0.87166795 </v>
    <v>       0.50353087       0.33333333       0.37166795 </v>
    <v>       0.50353087       0.33333333       0.87166795 </v>
    <v>       0.50353087       0.66666667       0.37166795 </v>
    <v>       0.50353087       0.66666667       0.87166795 </v>
    <v>       0.67337106       0.16666667       0.28161508 </v>
    <v>       0.67337106       0.16666667       0.78161508 </v>
    <v>       0.67337106       0.50000000       0.28161508 </v>
    <v>       0.67337106       0.50000000       0.78161508 </v>
    <v>       0.67337106       0.83333333       0.28161508 </v>
    <v>       0.67337106       0.83333333       0.78161508 </v>
    <v>       0.82662894       0.00000000       0.21838492 </v>
    <v>       0.82662894       0.00000000       0.71838492 </v>
    <v>       0.82662894       0.33333333       0.21838492 </v>
    <v>       0.82662894       0.33333333       0.71838492 </v>
    <v>       0.82662894       0.66666667       0.21838492 </v>
    <v>       0.82662894       0.66666667       0.71838492 </v>
    <v>       0.83549502       0.00000000       0.44542296 </v>
    <v>       0.83549502       0.00000000       0.94542296 </v>
    <v>       0.83549502       0.33333333       0.44542296 </v>
    <v>       0.83549502       0.33333333       0.94542296 </v>
    <v>       0.83549502       0.66666667       0.44542296 </v>
    <v>       0.83549502       0.66666667       0.94542296 </v>
    <v>       0.66450498       0.16666667       0.05457704 </v>
    <v>       0.66450498       0.16666667       0.55457704 </v>
    <v>       0.66450498       0.50000000       0.05457704 </v>
    <v>       0.66450498       0.50000000       0.55457704 </v>
    <v>       0.66450498       0.83333333       0.05457704 </v>
    <v>       0.66450498       0.83333333       0.55457704 </v>
    <v>       0.49646913       0.00000000       0.12833205 </v>
    <v>       0.49646913       0.00000000       0.62833205 </v>
    <v>       0.49646913       0.33333333       0.12833205 </v>
    <v>       0.49646913       0.33333333       0.62833205 </v>
    <v>       0.49646913       0.66666667       0.12833205 </v>
    <v>       0.49646913       0.66666667       0.62833205 </v>
    <v>       0.00353087       0.16666667       0.37166795 </v>
    <v>       0.00353087       0.16666667       0.87166795 </v>
    <v>       0.00353087       0.50000000       0.37166795 </v>
    <v>       0.00353087       0.50000000       0.87166795 </v>
    <v>       0.00353087       0.83333333       0.37166795 </v>
    <v>       0.00353087       0.83333333       0.87166795 </v>
    <v>       0.17337106       0.00000000       0.28161508 </v>
    <v>       0.17337106       0.00000000       0.78161508 </v>
    <v>       0.17337106       0.33333333       0.28161508 </v>
    <v>       0.17337106       0.33333333       0.78161508 </v>
    <v>       0.17337106       0.66666667       0.28161508 </v>
    <v>       0.17337106       0.66666667       0.78161508 </v>
    <v>       0.32662894       0.16666667       0.21838492 </v>
    <v>       0.32662894       0.16666667       0.71838492 </v>
    <v>       0.32662894       0.50000000       0.21838492 </v>
    <v>       0.32662894       0.50000000       0.71838492 </v>
    <v>       0.32662894       0.83333333       0.21838492 </v>
    <v>       0.32662894       0.83333333       0.71838492 </v>
    <v>       0.33549502       0.16666667       0.44542296 </v>
    <v>       0.33549502       0.16666667       0.94542296 </v>
    <v>       0.33549502       0.50000000       0.44542296 </v>
    <v>       0.33549502       0.50000000       0.94542296 </v>
    <v>       0.33549502       0.83333333       0.44542296 </v>
    <v>       0.33549502       0.83333333       0.94542296 </v>
    <v>       0.16450498       0.00000000       0.05457704 </v>
    <v>       0.16450498       0.33333333       0.05457704 </v>
    <v>       0.16450498       0.33333333       0.55457704 </v>
    <v>       0.16450498       0.66666667       0.05457704 </v>
    <v>       0.16450498       0.66666667       0.55457704 </v>
    <v>       0.16450498       0.00000000       0.55457704 </v>
   </varray>
  </structure>
  <varray name="forces" >
   <v>      -0.00000000       0.00127540      -0.00767674 </v>
   <v>      -0.00000000      -0.12699717       0.07660830 </v>
   <v>      -0.00062958       0.00470855      -0.00179393 </v>
   <v>      -0.01616018      -0.05135126       0.05751866 </v>
   <v>       0.00062958       0.00470855      -0.00179393 </v>
   <v>       0.01616018      -0.05135126       0.05751866 </v>
   <v>      -0.03705621       0.47716911      -0.25519272 </v>
   <v>      -0.01368858       0.16274914       0.06267408 </v>
   <v>      -0.00000000       0.20285642      -0.18482780 </v>
   <v>      -0.00000000       0.09090995       0.06177807 </v>
   <v>       0.03705621       0.47716911      -0.25519272 </v>
   <v>       0.01368858       0.16274914       0.06267408 </v>
   <v>      -0.01807715      -0.04692974      -0.06760342 </v>
   <v>      -0.01458162      -0.10756220       0.06153280 </v>
   <v>      -0.00000000      -0.02248677      -0.04820094 </v>
   <v>      -0.00000000      -0.07046153       0.02873504 </v>
   <v>       0.01807715      -0.04692974      -0.06760342 </v>
   <v>       0.01458162      -0.10756220       0.06153280 </v>
   <v>      -0.00000000       0.08249428      -0.09937869 </v>
   <v>      -0.00000000       0.61386841       0.10226921 </v>
   <v>      -0.05284449       0.04629068      -0.07748179 </v>
   <v>      -0.25659311       0.29022722       0.01126612 </v>
   <v>       0.05284449       0.04629068      -0.07748179 </v>
   <v>       0.25659311       0.29022722       0.01126612 </v>
   <v>      -0.25990151      -0.06171248      -0.17714131 </v>
   <v>       4.80911009      -1.11335922      -3.10474034 </v>
   <v>      -0.00000000      -0.06396354      -0.08383793 </v>
   <v>      -0.00000000       0.04690169       0.50531310 </v>
   <v>       0.25990151      -0.06171248      -0.17714131 </v>
   <v>      -4.80911009      -1.11335922      -3.10474034 </v>
   <v>      -0.00000000      -0.40091721      -0.26566380 </v>
   <v>      -0.00000000      -0.23575216       0.38271216 </v>
   <v>      -0.14994742      -0.10205771      -0.19728885 </v>
   <v>      -0.23815849       0.02037539       0.26754990 </v>
   <v>       0.14994742      -0.10205771      -0.19728885 </v>
   <v>       0.23815849       0.02037539       0.26754990 </v>
   <v>      -0.00000000      -2.34593765       8.89063635 </v>
   <v>      -0.00000000       0.38667188       0.21129618 </v>
   <v>      -0.32124417      -0.10952114      -0.36583549 </v>
   <v>      -0.09233526       0.05359749       0.11369611 </v>
   <v>       0.32124417      -0.10952114      -0.36583549 </v>
   <v>       0.09233526       0.05359749       0.11369611 </v>
   <v>      -0.02881013      -0.11569205       0.08577033 </v>
   <v>      -0.31928479      -0.57361380       0.03167053 </v>
   <v>      -0.00000000      -0.03471945       0.04602401 </v>
   <v>      -0.00000000      -0.14681915       0.01793395 </v>
   <v>       0.02881013      -0.11569205       0.08577033 </v>
   <v>       0.31928479      -0.57361380       0.03167053 </v>
   <v>       0.04088526      -0.08594695       0.06831573 </v>
   <v>       0.70554450      -1.35032844      -0.24600739 </v>
   <v>      -0.00000000      -0.04035411       0.02067846 </v>
   <v>      -0.00000000      -0.18649313      -0.05462284 </v>
   <v>      -0.04088526      -0.08594695       0.06831573 </v>
   <v>      -0.70554450      -1.35032844      -0.24600739 </v>
   <v>      -0.00000000       0.11997769       0.05319671 </v>
   <v>      -0.00000000       0.15456243      -0.06986835 </v>
   <v>       0.04477945       0.12390244       0.04576746 </v>
   <v>       0.06124706       0.16403947      -0.06391490 </v>
   <v>      -0.04477945       0.12390244       0.04576746 </v>
   <v>      -0.06124706       0.16403947      -0.06391490 </v>
   <v>       0.01528590      -0.06073626       0.07336630 </v>
   <v>       0.02294236      -0.01792559      -0.03837895 </v>
   <v>      -0.00000000      -0.05538454       0.06957585 </v>
   <v>      -0.00000000      -0.03746613      -0.01953823 </v>
   <v>      -0.01528590      -0.06073626       0.07336630 </v>
   <v>      -0.02294236      -0.01792559      -0.03837895 </v>
   <v>      -0.00000000      -0.08149294       0.13049810 </v>
   <v>      -0.00000000      -0.17267430      -0.13800545 </v>
   <v>       0.06507753      -0.08447461       0.12590447 </v>
   <v>       0.08168024      -0.19327025      -0.14961932 </v>
   <v>      -0.06507753      -0.08447461       0.12590447 </v>
   <v>      -0.08168024      -0.19327025      -0.14961932 </v>
   <v>      -0.00000000      -0.39109060       0.11718216 </v>
   <v>      -0.00000000      -0.21262824      -0.04162118 </v>
   <v>       0.09986718      -0.30363533       0.07394380 </v>
   <v>       0.02078850      -0.20390659      -0.04707139 </v>
   <v>      -0.09986718      -0.30363533       0.07394380 </v>
   <v>      -0.02078850      -0.20390659      -0.04707139 </v>
   <v>       0.00822025       0.17237236       0.02160624 </v>
   <v>       0.03030328       0.17053557       0.04381841 </v>
   <v>      -0.00000000       0.17224647       0.01546332 </v>
   <v>      -0.00000000       0.16836562       0.03317232 </v>
   <v>      -0.00822025       0.17237236       0.02160624 </v>
   <v>      -0.03030328       0.17053557       0.04381841 </v>
   <v>      -0.00000000       0.07451443      -0.05350561 </v>
   <v>      -0.00000000       0.37056423      -0.10307091 </v>
   <v>       0.02920797       0.04658164      -0.04506984 </v>
   <v>       0.07597550       0.13883392      -0.04937097 </v>
   <v>      -0.02920797       0.04658164      -0.04506984 </v>
   <v>      -0.07597550       0.13883392      -0.04937097 </v>
   <v>       0.77771593      -0.83069472       0.91351215 </v>
   <v>       0.07994193      -0.14459443      -0.03171204 </v>
   <v>      -0.00000000      -0.12128578       0.15241200 </v>
   <v>      -0.00000000      -0.04597058      -0.01153922 </v>
   <v>      -0.77771593      -0.83069472       0.91351215 </v>
   <v>      -0.07994193      -0.14459443      -0.03171204 </v>
   <v>      -0.00000000       0.30455472       1.12840739 </v>
   <v>      -0.00000000      -0.36327622      -2.07188102 </v>
   <v>       0.09423645       0.06920752       0.18253764 </v>
   <v>       0.03714944      -0.08265597      -0.09440893 </v>
   <v>      -0.09423645       0.06920752       0.18253764 </v>
   <v>      -0.03714944      -0.08265597      -0.09440893 </v>
   <v>       0.05487693       0.15628863       0.08020170 </v>
   <v>       0.71682211       0.88708941      -1.12889436 </v>
   <v>      -0.00000000       0.09739896       0.03884329 </v>
   <v>      -0.00000000       0.13942528      -0.12569232 </v>
   <v>      -0.05487693       0.15628863       0.08020170 </v>
   <v>      -0.71682211       0.88708941      -1.12889436 </v>
   <v>       0.36685507       0.26148678       0.31944368 </v>
   <v>       0.05389301      -0.11758105      -0.25244684 </v>
   <v>      -0.00000000      -0.07835823       0.02134452 </v>
   <v>      -0.00000000      -0.15080233      -0.11708559 </v>
   <v>      -0.36685507       0.26148678       0.31944368 </v>
   <v>      -0.05389301      -0.11758105      -0.25244684 </v>
   <v>      -0.00000000       0.14026966       0.04220425 </v>
   <v>       0.04433017       0.16859681       0.03395590 </v>
   <v>       1.04462332       0.17469044       0.08071930 </v>
   <v>      -0.04433017       0.16859681       0.03395590 </v>
   <v>      -1.04462332       0.17469044       0.08071930 </v>
   <v>      -0.00000000       6.55608873      -1.37186520 </v>
  </varray>
  <varray name="stress" >
   <v>     111.29540927       0.00000000       0.00000000 </v>
   <v>       0.00000000      88.55487954      -5.45786144 </v>
   <v>       0.00000000      -5.45786066     122.45001160 </v>
  </varray>
  <energy>
   <i name="e_fr_energy">   -699.57515173 </i>
   <i name="e_wo_entrp">   -699.57177379 </i>
   <i name="e_0_energy">   -699.57346276 </i>
  </energy>
  <time name="totalsc">   60.39   60.41</time>
 </calculation>
 <calculation>
  <scstep>
   <time name="dav">    2.12    2.12</time>
   <time name="total">    2.51    2.51</time>
   <energy>
    <i name="alphaZ">   5529.70323211 </i>
    <i name="ewald"> -88376.06681831 </i>
    <i name="hartreedc"> -34044.95061500 </i>
    <i name="XCdc">   4189.59832848 </i>
    <i name="pawpsdc"> 121200.95788688 </i>
    <i name="pawaedc">-137593.85165895 </i>
    <i name="eentropy">     -0.01414527 </i>
    <i name="bandstr">  -5581.12863858 </i>
    <i name="atom"> 134015.81877255 </i>
    <i name="e_fr_energy">   -659.93365609 </i>
    <i name="e_wo_entrp">   -659.91951082 </i>
    <i name="e_0_energy">   -659.92658346 </i>
   </energy>
  </scstep>
  <scstep>
   <time name="diag">    0.24    0.24</time>
   <time name="diis">    2.57    2.57</time>
   <time name="orth">    0.03    0.03</time>
   <time name="total">    3.23    3.23</time>
   <energy>
    <i name="e_fr_energy">   -694.29069573 </i>
    <i name="e_wo_entrp">   -694.29069573 </i>
    <i name="e_0_energy">   -694.29069573 </i>
   </energy>
  </scstep>
  <scstep>
   <time name="diag">    0.24    0.24</time>
   <time name="diis">    2.87    2.87</time>
   <time name="orth">    0.03    0.03</time>
   <time name="total">    3.52    3.52</time>
   <energy>
    <i name="e_fr_energy">   -700.77906665 </i>
    <i name="e_wo_entrp">   -700.77906665 </i>
    <i name="e_0_energy">   -700.77906665 </i>
   </energy>
  </scstep>
  <scstep>
   <time name="diag">    0.24    0.24</time>
   <time name="diis">    3.02    3.02</time>
   <time name="orth">    0.03    0.03</time>
   <time name="total">    3.68    3.68</time>
   <energy>
    <i name="e_fr_energy">   -701.69692440 </i>
    <i name="e_wo_entrp">   -701.69692440 </i>
    <i name="e_0_energy">   -701.69692440 </i>
   </energy>
  </scstep>
  <scstep>
   <time name="diag">    0.24    0.24</time>
   <time name="diis">    3.03    3.03</time>
   <time name="orth">    0.03    0.04</time>
   <time name="total">    3.69    3.69</time>
   <energy>
    <i name="e_fr_energy">   -701.75615559 </i>
    <i name="e_wo_entrp">   -701.75615534 </i>
    <i name="e_0_energy">   -701.75615546 </i>
   </energy>
  </scstep>
  <scstep>
   <time name="diag">    0.24    0.24</time>
   <time name="diis">    2.51    2.51</time>
   <time name="orth">    0.03    0.03</time>
   <time name="total">    3.18    3.18</time>
   <energy>
    <i name="e_fr_energy">   -701.67334278 </i>
    <i name="e_wo_entrp">   -701.66189455 </i>
    <i name="e_0_energy">   -701.66761867 </i>
   </energy>
  </scstep>
  <scstep>
   <time name="diag">    0.24    0.24</time>
   <time name="diis">    2.52    2.52</time>
   <time name="orth">    0.03    0.03</time>
   <time name="total">    3.19    3.19</time>
   <energy>
    <i name="e_fr_energy">   -701.79483188 </i>
    <i name="e_wo_entrp">   -701.78361049 </i>
    <i name="e_0_energy">   -701.78922119 </i>
   </energy>
  </scstep>
  <scstep>
   <time name="diag">    0.24    0.24</time>
   <time name="diis">    2.48    2.48</time>
   <time name="orth">    0.03    0.03</time>
   <time name="total">    3.15    3.15</time>
   <energy>
    <i name="e_fr_energy">   -701.57121973 </i>
    <i name="e_wo_entrp">   -701.55955025 </i>
    <i name="e_0_energy">   -701.56538499 </i>
   </energy>
  </scstep>
  <scstep>
   <time name="diag">    0.24    0.24</time>
   <time name="diis">    2.55    2.54</time>
   <time name="orth">    0.03    0.03</time>
   <time name="total">    3.21    3.21</time>
   <energy>
    <i name="e_fr_energy">   -701.55720516 </i>
    <i name="e_wo_entrp">   -701.55718241 </i>
    <i name="e_0_energy">   -701.55719378 </i>
   </energy>
  </scstep>
  <scstep>
   <time name="diag">    0.24    0.24</time>
   <time name="diis">    2.39    2.39</time>
   <time name="orth">    0.03    0.03</time>
   <time name="total">    3.06    3.06</time>
   <energy>
    <i name="e_fr_energy">   -701.51655024 </i>
    <i name="e_wo_entrp">   -701.51124680 </i>
    <i name="e_0_energy">   -701.51389852 </i>
   </energy>
  </scstep>
  <scstep>
   <time name="diag">    0.24    0.24</time>
   <time name="diis">    2.71    2.70</time>
   <time name="orth">    0.03    0.03</time>
   <time name="total">    3.38    3.38</time>
   <energy>
    <i name="e_fr_energy">   -701.51575071 </i>
    <i name="e_wo_entrp">   -701.50863144 </i>
    <i name="e_0_energy">   -701.51219108 </i>
   </energy>
  </scstep>
  <scstep>
   <time name="diag">    0.24    0.24</time>
   <time name="diis">    2.46    2.46</time>
   <time name="orth">    0.03    0.03</time>
   <time name="total">    3.13    3.13</time>
   <energy>
    <i name="e_fr_energy">   -701.51616222 </i>
    <i name="e_wo_entrp">   -701.50946302 </i>
    <i name="e_0_energy">   -701.51281262 </i>
   </energy>
  </scstep>
  <scstep>
   <time name="diag">    0.24    0.24</time>
   <time name="diis">    2.67    2.67</time>
   <time name="orth">    0.03    0.03</time>
   <time name="total">    3.34    3.35</time>
   <energy>
    <i name="e_fr_energy">   -701.51415036 </i>
    <i name="e_wo_entrp">   -701.50428136 </i>
    <i name="e_0_energy">   -701.50921586 </i>
   </energy>
  </scstep>
  <scstep>
   <time name="diag">    0.24    0.24</time>
   <time name="diis">    2.51    2.51</time>
   <time name="orth">    0.03    0.03</time>
   <time name="total">    3.19    3.19</time>
   <energy>
    <i name="e_fr_energy">   -701.51416249 </i>
    <i name="e_wo_entrp">   -701.50312335 </i>
    <i name="e_0_energy">   -701.50864292 </i>
   </energy>
  </scstep>
  <scstep>
   <time name="diag">    0.24    0.24</time>
   <time name="diis">    2.51    2.51</time>
   <time name="orth">    0.03    0.03</time>
   <time name="total">    3.19    3.19</time>
   <energy>
    <i name="e_fr_energy">   -701.51391260 </i>
    <i name="e_wo_entrp">   -701.50439524 </i>
    <i name="e_0_energy">   -701.50915392 </i>
   </energy>
  </scstep>
  <scstep>
   <time name="diag">    0.24    0.24</time>
   <time name="diis">    1.86    1.86</time>
   <time name="orth">    0.03    0.03</time>
   <time name="total">    2.54    2.54</time>
   <energy>
    <i name="e_fr_energy">   -701.51390135 </i>
    <i name="e_wo_entrp">   -701.50431787 </i>
    <i name="e_0_energy">   -701.50910961 </i>
   </energy>
  </scstep>
  <scstep>
   <time name="diag">    0.24    0.24</time>
   <time name="diis">    1.14    1.14</time>
   <time name="orth">    0.03    0.03</time>
   <time name="total">    1.82    1.82</time>
   <energy>
    <i name="e_fr_energy">   -701.51388968 </i>
    <i name="e_wo_entrp">   -701.50406460 </i>
    <i name="e_0_energy">   -701.50897714 </i>
   </energy>
  </scstep>
  <scstep>
   <time name="diag">    0.24    0.24</time>
   <time name="diis">    1.13    1.13</time>
   <time name="orth">    0.03    0.03</time>
   <time name="total">    1.52    1.52</time>
   <energy>
    <i name="alphaZ">   5529.70323211 </i>
    <i name="ewald"> -88376.06681831 </i>
    <i name="hartreedc"> -34060.35849915 </i>
    <i name="XCdc">   4190.22954352 </i>
    <i name="pawpsdc"> 120404.38654589 </i>
    <i name="pawaedc">-136797.96164792 </i>
    <i name="eentropy">     -0.00995386 </i>
    <i name="bandstr">  -5607.25506640 </i>
    <i name="atom"> 134015.81877255 </i>
    <i name="e_fr_energy">   -701.51389155 </i>
    <i name="e_wo_entrp">   -701.50393770 </i>
    <i name="e_0_energy">   -701.50891463 </i>
   </energy>
  </scstep>
  <structure>
   <crystal>
    <varray name="basis" >
     <v>       0.00000000      12.28047342       0.00000000 </v>
     <v>       9.14270205       0.00000000       0.00000000 </v>
     <v>       0.00000000      -2.76826177     -11.30069772 </v>
    </varray>
    <i name="volume">   1268.80515525 </i>
    <varray name="rec_basis" >
     <v>       0.00000000       0.08143009      -0.01994742 </v>
     <v>       0.10937686      -0.00000000       0.00000000 </v>
     <v>       0.00000000       0.00000000      -0.08849011 </v>
    </varray>
   </crystal>
   <varray name="positions" >
    <v>       0.65885070      -0.00000000       0.15739794 </v>
    <v>       0.65826568      -0.00000000       0.65703813 </v>
    <v>       0.65885852       0.33333001       0.15737283 </v>
    <v>       0.65858122       0.33324806       0.65711962 </v>
    <v>       0.65885852       0.66666999       0.15737283 </v>
    <v>       0.65858122       0.66675194       0.65711962 </v>
    <v>       0.84328179       0.16647113       0.34372425 </v>
    <v>       0.84174073       0.16659444       0.84236727 </v>
    <v>       0.84213646       0.50000000       0.34342386 </v>
    <v>       0.84145938       0.50000000       0.84237110 </v>
    <v>       0.84328179       0.83352887       0.34372425 </v>
    <v>       0.84174073       0.83340556       0.84236727 </v>
    <v>       0.59035510       0.16657128       0.39768160 </v>
    <v>       0.58999264       0.16658972       0.89713032 </v>
    <v>       0.59043245       0.50000000       0.39759877 </v>
    <v>       0.59016995       0.50000000       0.89727033 </v>
    <v>       0.59035510       0.83342872       0.39768160 </v>
    <v>       0.58999264       0.83341028       0.89713032 </v>
    <v>       0.90994530      -0.00000000       0.10303125 </v>
    <v>       0.91183871      -0.00000000       0.60217041 </v>
    <v>       0.90978201       0.33305449       0.10293777 </v>
    <v>       0.91065489       0.33197939       0.60255890 </v>
    <v>       0.90978201       0.66694551       0.10293777 </v>
    <v>       0.91065489       0.66802061       0.60255890 </v>
    <v>       0.15876633       0.16529526       0.15812139 </v>
    <v>       0.15745232       0.19204256       0.67061930 </v>
    <v>       0.15866770       0.50000000       0.15772307 </v>
    <v>       0.15853628       0.50000000       0.65520799 </v>
    <v>       0.15876633       0.83470474       0.15812139 </v>
    <v>       0.15745232       0.80795744       0.67061930 </v>
    <v>       0.33984239      -0.00000000       0.34376895 </v>
    <v>       0.33986728      -0.00000000       0.84100103 </v>
    <v>       0.34095063       0.33254212       0.34347706 </v>
    <v>       0.34098428       0.33207666       0.84149266 </v>
    <v>       0.34095063       0.66745788       0.34347706 </v>
    <v>       0.34098428       0.66792334       0.84149266 </v>
    <v>       0.07270300      -0.00000000       0.35943889 </v>
    <v>       0.09179007      -0.00000000       0.89649098 </v>
    <v>       0.09039621       0.33163825       0.39895475 </v>
    <v>       0.09057554       0.33284611       0.89690763 </v>
    <v>       0.09039621       0.66836175       0.39895475 </v>
    <v>       0.09057554       0.66715389       0.89690763 </v>
    <v>       0.40898858       0.16651465       0.10224085 </v>
    <v>       0.40724174       0.16498192       0.60247180 </v>
    <v>       0.40934492       0.50000000       0.10241052 </v>
    <v>       0.40893158       0.50000000       0.60253044 </v>
    <v>       0.40898858       0.83348535       0.10224085 </v>
    <v>       0.40724174       0.83501808       0.60247180 </v>
    <v>       0.99606575       0.16688240       0.12804041 </v>
    <v>       0.99140123       0.17038956       0.62938225 </v>
    <v>       0.99629070       0.50000000       0.12824377 </v>
    <v>       0.99578907       0.50000000       0.62856523 </v>
    <v>       0.99606575       0.83311760       0.12804041 </v>
    <v>       0.99140123       0.82961044       0.62938225 </v>
    <v>       0.50395100      -0.00000000       0.37144086 </v>
    <v>       0.50420529      -0.00000000       0.87196622 </v>
    <v>       0.50397357       0.33356962       0.37147257 </v>
    <v>       0.50423679       0.33365651       0.87194081 </v>
    <v>       0.50397357       0.66643038       0.37147257 </v>
    <v>       0.50423679       0.66634349       0.87194081 </v>
    <v>       0.67306187       0.16674732       0.28130188 </v>
    <v>       0.67333758       0.16678773       0.78177892 </v>
    <v>       0.67308654       0.50000000       0.28131806 </v>
    <v>       0.67324268       0.50000000       0.78169849 </v>
    <v>       0.67306187       0.83325268       0.28130188 </v>
    <v>       0.67333758       0.83321227       0.78177892 </v>
    <v>       0.82618322      -0.00000000       0.21782782 </v>
    <v>       0.82608341      -0.00000000       0.71897406 </v>
    <v>       0.82617592       0.33367672       0.21784743 </v>
    <v>       0.82601367       0.33376433       0.71902364 </v>
    <v>       0.82617592       0.66632328       0.21784743 </v>
    <v>       0.82601367       0.66623567       0.71902364 </v>
    <v>       0.83384589      -0.00000000       0.44492271 </v>
    <v>       0.83469978      -0.00000000       0.94560064 </v>
    <v>       0.83423106       0.33386030       0.44510729 </v>
    <v>       0.83473929       0.33344303       0.94562391 </v>
    <v>       0.83423106       0.66613970       0.44510729 </v>
    <v>       0.83473929       0.66655697       0.94562391 </v>
    <v>       0.66516134       0.16671004       0.05448480 </v>
[...]
       <r>    -9.7136     0.0000   142.0000 </r>
       <r>    -9.6040     0.0000   142.0000 </r>
       <r>    -9.4944     0.0000   142.0000 </r>
       <r>    -9.3848     0.0000   142.0000 </r>
       <r>    -9.2752     0.0000   142.0000 </r>
       <r>    -9.1656     0.0076   142.0008 </r>
       <r>    -9.0560    21.0843   144.3116 </r>
       <r>    -8.9464   242.2024   170.8561 </r>
       <r>    -8.8368   580.4691   234.4734 </r>
       <r>    -8.7272   733.5594   314.8688 </r>
       <r>    -8.6177   655.3922   386.6974 </r>
       <r>    -8.5081   702.4344   463.6817 </r>
       <r>    -8.3985   481.5982   516.4631 </r>
       <r>    -8.2889   287.7918   548.0040 </r>
       <r>    -8.1793   144.2928   563.8180 </r>
       <r>    -8.0697   123.6257   577.3669 </r>
       <r>    -7.9601   103.8588   588.7495 </r>
       <r>    -7.8505   113.9558   601.2386 </r>
       <r>    -7.7409   118.2828   614.2020 </r>
       <r>    -7.6313    59.4877   620.7216 </r>
       <r>    -7.5217    11.5595   621.9885 </r>
       <r>    -7.4121     0.1050   622.0000 </r>
       <r>    -7.3025     0.0000   622.0000 </r>
       <r>    -7.1929     0.0000   622.0000 </r>
       <r>    -7.0833     0.0000   622.0000 </r>
       <r>    -6.9737     0.0000   622.0000 </r>
       <r>    -6.8641     0.0000   622.0000 </r>
       <r>    -6.7545     0.0000   622.0000 </r>
       <r>    -6.6449     0.0000   622.0000 </r>
       <r>    -6.5353     0.0000   622.0000 </r>
       <r>    -6.4257     0.0000   622.0000 </r>
       <r>    -6.3161     0.0000   622.0000 </r>
       <r>    -6.2065     0.0000   622.0000 </r>
       <r>    -6.0969     0.0000   622.0000 </r>
       <r>    -5.9873     0.0000   622.0000 </r>
       <r>    -5.8777     0.0000   622.0000 </r>
       <r>    -5.7681     0.0000   622.0000 </r>
       <r>    -5.6586     0.0000   622.0000 </r>
       <r>    -5.5490     0.0000   622.0000 </r>
       <r>    -5.4394     0.0000   622.0000 </r>
       <r>    -5.3298     0.0000   622.0000 </r>
       <r>    -5.2202     0.0000   622.0000 </r>
       <r>    -5.1106     0.0000   622.0000 </r>
       <r>    -5.0010     0.0000   622.0000 </r>
       <r>    -4.8914     0.0000   622.0000 </r>
       <r>    -4.7818     0.0000   622.0000 </r>
       <r>    -4.6722     0.5898   622.0646 </r>
       <r>    -4.5626    15.5084   623.7643 </r>
       <r>    -4.4530     2.1504   624.0000 </r>
       <r>    -4.3434     0.0002   624.0000 </r>
       <r>    -4.2338     0.0000   624.0000 </r>
       <r>    -4.1242     0.0000   624.0000 </r>
       <r>    -4.0146     0.0000   624.0000 </r>
       <r>    -3.9050     0.0000   624.0000 </r>
       <r>    -3.7954     0.0000   624.0000 </r>
       <r>    -3.6858     0.0000   624.0000 </r>
       <r>    -3.5762     0.0000   624.0000 </r>
       <r>    -3.4666     0.0000   624.0000 </r>
       <r>    -3.3570     0.0000   624.0000 </r>
       <r>    -3.2474     0.0005   624.0001 </r>
       <r>    -3.1378     1.3576   624.1488 </r>
       <r>    -3.0282     8.6875   625.1010 </r>
       <r>    -2.9186    17.6264   627.0328 </r>
       <r>    -2.8090    25.0961   629.7832 </r>
       <r>    -2.6994    34.1933   633.5307 </r>
       <r>    -2.5899    30.8647   636.9133 </r>
       <r>    -2.4803    43.9744   641.7328 </r>
       <r>    -2.3707    41.2160   646.2499 </r>
       <r>    -2.2611    46.8551   651.3850 </r>
       <r>    -2.1515    64.5701   658.4617 </r>
       <r>    -2.0419    50.8728   664.0371 </r>
       <r>    -1.9323    42.1807   668.6600 </r>
       <r>    -1.8227    50.5486   674.1999 </r>
       <r>    -1.7131    57.5730   680.5097 </r>
       <r>    -1.6035    40.6408   684.9638 </r>
       <r>    -1.4939    24.6247   687.6626 </r>
       <r>    -1.3843    33.4664   691.3304 </r>
       <r>    -1.2747    29.4305   694.5559 </r>
       <r>    -1.1651    34.3326   698.3186 </r>
       <r>    -1.0555    34.3524   702.0835 </r>
       <r>    -0.9459    41.2525   706.6046 </r>
       <r>    -0.8363    36.2130   710.5734 </r>
       <r>    -0.7267    41.3242   715.1024 </r>
       <r>    -0.6171    28.5579   718.2323 </r>
       <r>    -0.5075    36.2493   722.2050 </r>
       <r>    -0.3979    38.7209   726.4487 </r>
       <r>    -0.2883    47.8358   731.6914 </r>
       <r>    -0.1787    44.7896   736.6001 </r>
       <r>    -0.0691    34.9438   740.4298 </r>
       <r>     0.0405    53.7620   746.3220 </r>
       <r>     0.1501    62.7395   753.1980 </r>
       <r>     0.2597    78.7019   761.8234 </r>
       <r>     0.3692    67.0304   769.1697 </r>
       <r>     0.4788    70.7156   776.9199 </r>
       <r>     0.5884    68.9709   784.4788 </r>
       <r>     0.6980    55.1713   790.5254 </r>
       <r>     0.8076    61.3890   797.2534 </r>
       <r>     0.9172    60.1005   803.8402 </r>
       <r>     1.0268    79.3383   812.5354 </r>
       <r>     1.1364    76.8936   820.9627 </r>
       <r>     1.2460    82.9884   830.0579 </r>
       <r>     1.3556    75.1423   838.2932 </r>
       <r>     1.4652    67.6823   845.7109 </r>
       <r>     1.5748    62.0907   852.5159 </r>
       <r>     1.6844    74.5041   860.6812 </r>
       <r>     1.7940    75.4144   868.9464 </r>
       <r>     1.9036    91.3748   878.9607 </r>
       <r>     2.0132    82.7759   888.0327 </r>
       <r>     2.1228    67.1875   895.3962 </r>
       <r>     2.2324    48.1936   900.6780 </r>
       <r>     2.3420    65.7391   907.8828 </r>
       <r>     2.4516    96.4367   918.4519 </r>
       <r>     2.5612    95.1409   928.8790 </r>
       <r>     2.6708    91.7328   938.9326 </r>
       <r>     2.7804   101.7016   950.0787 </r>
       <r>     2.8900    93.7077   960.3487 </r>
       <r>     2.9996   113.9892   972.8415 </r>
       <r>     3.1092   110.8929   984.9950 </r>
       <r>     3.2188   134.3234   999.7163 </r>
       <r>     3.3284   121.2336  1013.0031 </r>
       <r>     3.4379    93.1702  1023.2142 </r>
       <r>     3.5475    71.8040  1031.0837 </r>
       <r>     3.6571    52.3589  1036.8220 </r>
       <r>     3.7667    54.9636  1042.8458 </r>
       <r>     3.8763    56.6456  1049.0540 </r>
       <r>     3.9859     8.6253  1049.9993 </r>
       <r>     4.0955     0.0065  1050.0000 </r>
       <r>     4.2051     0.0000  1050.0000 </r>
       <r>     4.3147     0.0000  1050.0000 </r>
       <r>     4.4243     0.1376  1050.0151 </r>
       <r>     4.5339     6.0021  1050.6729 </r>
       <r>     4.6435    10.1201  1051.7820 </r>
       <r>     4.7531     1.9881  1051.9999 </r>
       <r>     4.8627     0.6801  1052.0744 </r>
       <r>     4.9723     7.8273  1052.9323 </r>
       <r>     5.0819     5.4051  1053.5247 </r>
       <r>     5.1915    18.5326  1055.5558 </r>
       <r>     5.3011     4.0509  1055.9997 </r>
       <r>     5.4107     0.0024  1056.0000 </r>
       <r>     5.5203     0.0000  1056.0000 </r>
       <r>     5.6299     0.0000  1056.0000 </r>
       <r>     5.7395     0.0000  1056.0000 </r>
       <r>     5.8491     0.0000  1056.0000 </r>
       <r>     5.9587     0.0000  1056.0000 </r>
       <r>     6.0683     0.0000  1056.0000 </r>
       <r>     6.1779     0.0100  1056.0011 </r>
       <r>     6.2875     1.5494  1056.1709 </r>
       <r>     6.3970     0.7213  1056.2500 </r>
       <r>     6.5066     0.0004  1056.2500 </r>
       <r>     6.6162     0.0000  1056.2500 </r>
       <r>     6.7258     0.0000  1056.2500 </r>
       <r>     6.8354     0.0000  1056.2500 </r>
       <r>     6.9450     0.0000  1056.2500 </r>
       <r>     7.0546     0.1443  1056.2658 </r>
       <r>     7.1642     3.1926  1056.6157 </r>
       <r>     7.2738     5.5233  1057.2210 </r>
       <r>     7.3834     0.2727  1057.2509 </r>
       <r>     7.4930     2.5245  1057.5276 </r>
       <r>     7.6026     5.8971  1058.1739 </r>
       <r>     7.7122     0.6941  1058.2500 </r>
       <r>     7.8218     0.1552  1058.2670 </r>
       <r>     7.9314     2.8118  1058.5752 </r>
       <r>     8.0410     7.4847  1059.3955 </r>
       <r>     8.1506     5.8679  1060.0386 </r>
       <r>     8.2602     7.8363  1060.8974 </r>
       <r>     8.3698     4.3099  1061.3697 </r>
       <r>     8.4794     5.2402  1061.9440 </r>
       <r>     8.5890     5.3933  1062.5351 </r>
       <r>     8.6986    11.6330  1063.8101 </r>
       <r>     8.8082     9.7693  1064.8807 </r>
       <r>     8.9178     1.9347  1065.0928 </r>
       <r>     9.0274     8.3232  1066.0050 </r>
       <r>     9.1370    16.6380  1067.8284 </r>
       <r>     9.2466    13.1993  1069.2750 </r>
       <r>     9.3562    22.2611  1071.7148 </r>
       <r>     9.4657    17.3371  1073.6148 </r>
       <r>     9.5753    23.9744  1076.2423 </r>
       <r>     9.6849    28.7220  1079.3902 </r>
       <r>     9.7945    30.8473  1082.7709 </r>
       <r>     9.9041    40.7691  1087.2391 </r>
       <r>    10.0137    44.1962  1092.0828 </r>
       <r>    10.1233    40.0785  1096.4753 </r>
       <r>    10.2329    34.9244  1100.3029 </r>
       <r>    10.3425    38.7690  1104.5518 </r>
       <r>    10.4521    28.1688  1107.6390 </r>
       <r>    10.5617    31.1215  1111.0498 </r>
       <r>    10.6713    38.1207  1115.2277 </r>
       <r>    10.7809    41.8866  1119.8183 </r>
       <r>    10.8905    40.8845  1124.2991 </r>
       <r>    11.0001    30.0703  1127.5947 </r>
       <r>    11.1097    37.6287  1131.7187 </r>
       <r>    11.2193    31.2537  1135.1440 </r>
       <r>    11.3289    34.8712  1138.9657 </r>
       <r>    11.4385    36.8046  1142.9994 </r>
       <r>    11.5481    39.8921  1147.3714 </r>
       <r>    11.6577    35.3389  1151.2444 </r>
       <r>    11.7673    45.2966  1156.2088 </r>
       <r>    11.8769    35.0749  1160.0528 </r>
       <r>    11.9865    19.9716  1162.2417 </r>
       <r>    12.0961    19.5710  1164.3866 </r>
       <r>    12.2057    21.8549  1166.7818 </r>
       <r>    12.3153    28.1085  1169.8624 </r>
       <r>    12.4248    31.6503  1173.3311 </r>
       <r>    12.5344    43.0392  1178.0481 </r>
       <r>    12.6440    50.8362  1183.6195 </r>
       <r>    12.7536    37.8247  1187.7650 </r>
       <r>    12.8632    41.3527  1192.2971 </r>
       <r>    12.9728    36.0101  1196.2437 </r>
       <r>    13.0824    33.1072  1199.8721 </r>
       <r>    13.1920    40.1938  1204.2772 </r>
       <r>    13.3016    39.0557  1208.5576 </r>
       <r>    13.4112    34.2105  1212.3069 </r>
       <r>    13.5208    49.2129  1217.7005 </r>
       <r>    13.6304    42.4117  1222.3486 </r>
       <r>    13.7400    41.7632  1226.9257 </r>
       <r>    13.8496    37.2138  1231.0042 </r>
       <r>    13.9592    32.0319  1234.5148 </r>
       <r>    14.0688    38.4902  1238.7332 </r>
       <r>    14.1784    41.3059  1243.2602 </r>
       <r>    14.2880    29.0545  1246.4444 </r>
       <r>    14.3976    34.7316  1250.2509 </r>
       <r>    14.5072    28.1066  1253.3313 </r>
       <r>    14.6168    34.5677  1257.1198 </r>
       <r>    14.7264    37.9825  1261.2825 </r>
       <r>    14.8360    31.5786  1264.7434 </r>
       <r>    14.9456    11.3672  1265.9892 </r>
       <r>    15.0552     0.0985  1266.0000 </r>
       <r>    15.1648     0.0000  1266.0000 </r>
       <r>    15.2744     0.0000  1266.0000 </r>
       <r>    15.3840     0.0000  1266.0000 </r>
       <r>    15.4935     0.0000  1266.0000 </r>
       <r>    15.6031     0.0000  1266.0000 </r>
       <r>    15.7127     0.0000  1266.0000 </r>
       <r>    15.8223     0.0000  1266.0000 </r>
       <r>    15.9319     0.0000  1266.0000 </r>
       <r>    16.0415     0.0000  1266.0000 </r>
       <r>    16.1511     0.0000  1266.0000 </r>
       <r>    16.2607     0.0000  1266.0000 </r>
       <r>    16.3703     0.0000  1266.0000 </r>
      </set>
     </set>
    </array>
   </total>
  </dos>
 </calculation>
 <structure name="finalpos" >
  <crystal>
   <varray name="basis" >
    <v>       0.00000000      12.28047342       0.00000000 </v>
    <v>       9.14270205       0.00000000       0.00000000 </v>
    <v>       0.00000000      -2.76826177     -11.30069772 </v>
   </varray>
   <i name="volume">   1268.80515525 </i>
   <varray name="rec_basis" >
    <v>       0.00000000       0.08143009      -0.01994742 </v>
    <v>       0.10937686      -0.00000000       0.00000000 </v>
    <v>       0.00000000       0.00000000      -0.08849011 </v>
   </varray>
  </crystal>
  <varray name="positions" >
   <v>       0.66049639      -0.00000000       0.15639329 </v>
   <v>       0.65643737      -0.00000000       0.65542243 </v>
   <v>       0.66067274       0.33341592       0.15689050 </v>
   <v>       0.65437469       0.33256098       0.65609938 </v>
   <v>       0.66067274       0.66658408       0.15689050 </v>
   <v>       0.65437469       0.66743902       0.65609938 </v>
   <v>       0.83925189       0.16750052       0.34319112 </v>
   <v>       0.83790536       0.16712163       0.84208700 </v>
   <v>       0.84254304       0.50000000       0.34262216 </v>
   <v>       0.83837300       0.50000000       0.84182081 </v>
   <v>       0.83925189       0.83249948       0.34319112 </v>
   <v>       0.83790536       0.83287837       0.84208700 </v>
   <v>       0.59015885       0.16723807       0.39739394 </v>
   <v>       0.59024951       0.16666492       0.89819656 </v>
   <v>       0.59478373       0.50000000       0.39766374 </v>
   <v>       0.59473272       0.50000000       0.90052082 </v>
   <v>       0.59015885       0.83276193       0.39739394 </v>
   <v>       0.59024951       0.83333508       0.89819656 </v>
   <v>       0.90768376      -0.00000000       0.10056464 </v>
   <v>       0.90754956      -0.00000000       0.60226327 </v>
   <v>       0.90809928       0.33280611       0.10159025 </v>
   <v>       0.90567710       0.33404634       0.60229757 </v>
   <v>       0.90809928       0.66719389       0.10159025 </v>
   <v>       0.90567710       0.66595366       0.60229757 </v>
   <v>       0.15967355       0.16652082       0.15393778 </v>
   <v>       0.15735287       0.17294761       0.66228444 </v>
   <v>       0.15722538       0.50000000       0.15807204 </v>
   <v>       0.15801256       0.50000000       0.65821769 </v>
   <v>       0.15967355       0.83347918       0.15393778 </v>
   <v>       0.15735287       0.82705239       0.66228444 </v>
   <v>       0.34156199      -0.00000000       0.34089427 </v>
   <v>       0.34012563      -0.00000000       0.84806986 </v>
   <v>       0.34315911       0.33592182       0.34119376 </v>
   <v>       0.34379225       0.33423310       0.84666661 </v>
   <v>       0.34315911       0.66407818       0.34119376 </v>
   <v>       0.34379225       0.66576690       0.84666661 </v>
   <v>       0.08399303      -0.00000000       0.38273439 </v>
   <v>       0.08714133      -0.00000000       0.89811704 </v>
   <v>       0.09177316       0.33260573       0.39897000 </v>
   <v>       0.08812392       0.33328929       0.89780328 </v>
   <v>       0.09177316       0.66739427       0.39897000 </v>
   <v>       0.08812392       0.66671071       0.89780328 </v>
   <v>       0.41191394       0.16681160       0.10391322 </v>
   <v>       0.40154393       0.16168913       0.60292702 </v>
   <v>       0.41079190       0.50000000       0.10298223 </v>
   <v>       0.40760331       0.50000000       0.60311756 </v>
   <v>       0.41191394       0.83318840       0.10391322 </v>
   <v>       0.40154393       0.83831087       0.60292702 </v>
   <v>       0.99561844       0.16635496       0.12435898 </v>
   <v>       0.99321939       0.16783842       0.62752206 </v>
   <v>       0.99482780       0.50000000       0.12654432 </v>
   <v>       0.99376828       0.50000000       0.62844333 </v>
   <v>       0.99561844       0.83364504       0.12435898 </v>
   <v>       0.99321939       0.83216158       0.62752206 </v>
   <v>       0.50479882      -0.00000000       0.36910298 </v>
   <v>       0.50402731      -0.00000000       0.87771646 </v>
   <v>       0.50622301       0.33577890       0.36914532 </v>
   <v>       0.50680123       0.33562191       0.87880384 </v>
   <v>       0.50622301       0.66422110       0.36914532 </v>
   <v>       0.50680123       0.66437809       0.87880384 </v>
   <v>       0.67290351       0.16674526       0.28048922 </v>
   <v>       0.67058458       0.16688150       0.78018832 </v>
   <v>       0.67487841       0.50000000       0.28012892 </v>
   <v>       0.67051837       0.50000000       0.77952483 </v>
   <v>       0.67290351       0.83325474       0.28048922 </v>
   <v>       0.67058458       0.83311850       0.78018832 </v>
   <v>       0.82762045      -0.00000000       0.21892872 </v>
   <v>       0.82496664      -0.00000000       0.71867153 </v>
   <v>       0.82770389       0.33345443       0.21923836 </v>
   <v>       0.82429043       0.33358416       0.71918886 </v>
   <v>       0.82770389       0.66654557       0.21923836 </v>
   <v>       0.82429043       0.66641584       0.71918886 </v>
   <v>       0.83191730      -0.00000000       0.44532089 </v>
   <v>       0.82981283      -0.00000000       0.94451602 </v>
   <v>       0.83052579       0.33441440       0.44540078 </v>
   <v>       0.83007467       0.33374470       0.94524834 </v>
   <v>       0.83052579       0.66558560       0.44540078 </v>
   <v>       0.83007467       0.66625530       0.94524834 </v>
   <v>       0.66950726       0.16676280       0.05450864 </v>
   <v>       0.66746550       0.16711544       0.55369720 </v>
   <v>       0.67242700       0.50000000       0.05613976 </v>
   <v>       0.66645011       0.50000000       0.55532637 </v>
   <v>       0.66950726       0.83323720       0.05450864 </v>
   <v>       0.66746550       0.83288456       0.55369720 </v>
   <v>       0.49891286      -0.00000000       0.12821402 </v>
   <v>       0.49664105      -0.00000000       0.62852197 </v>
   <v>       0.49866900       0.33424731       0.12778754 </v>
   <v>       0.49268162       0.33080269       0.62696137 </v>
   <v>       0.49866900       0.66575269       0.12778754 </v>
   <v>       0.49268162       0.66919731       0.62696137 </v>
   <v>      -0.00067206       0.16988675       0.36605688 </v>
   <v>       0.00012175       0.16731549       0.87175811 </v>
   <v>       0.00393735       0.50000000       0.37199065 </v>
   <v>       0.00091152       0.50000000       0.87248077 </v>
   <v>      -0.00067206       0.83011325       0.36605688 </v>
   <v>       0.00012175       0.83268451       0.87175811 </v>
   <v>       0.17192381      -0.00000000       0.27021892 </v>
   <v>       0.17319015      -0.00000000       0.78866843 </v>
   <v>       0.17254567       0.33299957       0.28038479 </v>
   <v>       0.17065028       0.33442681       0.78198060 </v>
   <v>       0.17254567       0.66700043       0.28038479 </v>
   <v>       0.17065028       0.66557319       0.78198060 </v>
   <v>       0.32771951       0.16807608       0.21693792 </v>
   <v>       0.33661785       0.17483031       0.73388034 </v>
   <v>       0.32704338       0.50000000       0.21782965 </v>
   <v>       0.32755113       0.50000000       0.72215808 </v>
   <v>       0.32771951       0.83192392       0.21693792 </v>
   <v>       0.33661785       0.82516969       0.73388034 </v>
   <v>       0.34343489       0.17157955       0.44005818 </v>
   <v>       0.33207333       0.16848661       0.95037424 </v>
   <v>       0.33374513       0.50000000       0.44490085 </v>
   <v>       0.33162968       0.50000000       0.94759625 </v>
   <v>       0.34343489       0.82842045       0.44005818 </v>
   <v>       0.33207333       0.83151339       0.95037424 </v>
   <v>       0.16684174      -0.00000000       0.05156765 </v>
   <v>       0.16540185       0.33484203       0.05372453 </v>
   <v>       0.16744500       0.33968379       0.55514004 </v>
   <v>       0.16540185       0.66515797       0.05372453 </v>
   <v>       0.16744500       0.66031621       0.55514004 </v>
   <v>       0.21194708      -0.00000000       0.54945865 </v>
  </varray>
 </structure>
</modeling>
