 running    4 mpi-ranks, on    1 nodes
 distrk:  each k-point on    1 cores,    4 groups
 distr:  one band on    1 cores,    1 groups
 OpenACC runtime initialized ...    4 GPUs detected
 vasp.6.4.2 20Jul23 (build Nov 12 2023 22:16:35) complex                         
 POSCAR found type information on POSCAR GaO N 
 POSCAR found :  3 types and     120 ions
 scaLAPACK will be used selectively (only on CPU)
 LDA part: xc-table for Pade appr. of Perdew
 POSCAR, INCAR and KPOINTS ok, starting setup
 FFT: planning ... GRIDC
 FFT: planning ... GRID_SOFT
 FFT: planning ... GRID
 WAVECAR not read
 initial charge from wavefunction
 entering main loop
       N       E                     dE             d eps       ncg     rms          ort
DAV:   1    -0.212372600298E+05   -0.21237E+05   -0.54340E+05  5064   0.748E+03
DAV:   2    -0.653858360605E+05   -0.44149E+05   -0.42846E+05  5064   0.120E+03
DAV:   3    -0.699474273506E+05   -0.45616E+04   -0.40685E+04  5064   0.351E+02
DAV:   4    -0.704888713249E+05   -0.54144E+03   -0.46248E+03  5064   0.104E+02
DAV:   5    -0.374970137232E+05    0.32992E+05   -0.77289E+02  5064   0.568E+01
 gam= 0.000 g(H,U,f)=  0.693E+05 0.456E+05 0.132E+05 ort(H,U,f) = 0.000E+00 0.000E+00 0.000E+00
SDA:   6     0.193844376417E+05    0.56881E+05   -0.77289E+02  5064   0.128E+06 0.000E+00
 gam= 0.000 trial= 0.400  step= 0.246 mean= 0.400
 gam= 0.222 g(H,U,f)=  0.178E+05 0.990E+04 0.727E+03 ort(H,U,f) = 0.191E+05 0.643E+03-0.684E+02
CGA:   7     0.535448008790E+04   -0.14030E+05   -0.15784E+05  5064   0.284E+05 0.197E+05
 gam= 0.222 trial= 0.392  step= 0.219 mean= 0.392
 gam= 0.321 g(H,U,f)=  0.494E+04 0.270E+04 0.148E+04 ort(H,U,f) = 0.203E+04-0.212E+04-0.173E+04
CGA:   8     0.127479145898E+04   -0.40797E+04   -0.35917E+04  5064   0.912E+04-0.182E+04
 gam= 0.321 trial= 0.384  step= 0.239 mean= 0.384
 gam= 0.637 g(H,U,f)=  0.249E+04 0.306E+04 0.261E+03 ort(H,U,f) = 0.552E+01-0.332E+03-0.532E+02
CGA:   9     0.355078497154E+03   -0.91971E+03   -0.10201E+04  5064   0.581E+04-0.379E+03
 gam= 0.637 trial= 0.376  step= 0.177 mean= 0.376
 gam= 0.869 g(H,U,f)=  0.218E+04 0.273E+04 0.148E+03 ort(H,U,f) =-0.171E+03-0.252E+03 0.239E+02
CGA:  10     0.394329177621E+02   -0.31565E+03   -0.49290E+03  5064   0.505E+04-0.398E+03
 gam= 0.869 trial= 0.366  step= 0.222 mean= 0.366
 gam= 0.403 g(H,U,f)=  0.151E+04 0.522E+03 0.852E+01 ort(H,U,f) =-0.354E+03 0.188E+03 0.909E+00
CGA:  11    -0.391334967219E+03   -0.43077E+03   -0.52224E+03  5064   0.204E+04-0.165E+03
 gam= 0.403 trial= 0.359  step= 0.349 mean= 0.359
 gam= 0.288 g(H,U,f)=  0.518E+03 0.666E+02 0.460E+00 ort(H,U,f) =-0.778E+02 0.158E+03 0.167E+01
CGA:  12    -0.734310242582E+03   -0.34298E+03   -0.34391E+03  5064   0.586E+03 0.821E+02
 gam= 0.288 trial= 0.359  step= 0.435 mean= 0.359
 gam= 0.379 g(H,U,f)=  0.205E+03 0.163E+02 0.490E+00 ort(H,U,f) =-0.134E+01 0.247E+02 0.155E+01
CGA:  13    -0.868538326937E+03   -0.13423E+03   -0.13249E+03  5064   0.222E+03 0.249E+02
 gam= 0.379 trial= 0.363  step= 0.530 mean= 0.363
 gam= 0.440 g(H,U,f)=  0.901E+02 0.757E+01 0.458E-04 ort(H,U,f) = 0.479E+00 0.852E+01 0.248E-03
CGA:  14    -0.930917099068E+03   -0.62379E+02   -0.61285E+02  5064   0.977E+02 0.900E+01
 gam= 0.440 trial= 0.371  step= 0.555 mean= 0.371
 gam= 0.498 g(H,U,f)=  0.419E+02 0.590E+01 0.932E+00 ort(H,U,f) =-0.173E+02 0.114E+02 0.412E+01
CGA:  15    -0.958961479397E+03   -0.28044E+02   -0.28206E+02  5064   0.487E+02-0.175E+01
 gam= 0.498 trial= 0.380  step= 0.534 mean= 0.380
 gam= 0.532 g(H,U,f)=  0.234E+02 0.251E+01 0.899E-04 ort(H,U,f) =-0.352E+01 0.276E+01-0.834E-03
CGA:  16    -0.971583667447E+03   -0.12622E+02   -0.12772E+02  5064   0.259E+02-0.755E+00
 gam= 0.532 trial= 0.388  step= 0.459 mean= 0.388
 gam= 0.387 g(H,U,f)=  0.933E+01 0.677E+00 0.120E-12 ort(H,U,f) =-0.175E+01 0.109E+01 0.121E-12
CGA:  17    -0.977401882064E+03   -0.58182E+01   -0.58535E+01  5064   0.100E+02-0.669E+00
 gam= 0.387 trial= 0.391  step= 0.519 mean= 0.391
 gam= 0.496 g(H,U,f)=  0.453E+01 0.437E+00 0.566E-17 ort(H,U,f) =-0.259E+00 0.131E+00-0.320E-17
CGA:  18    -0.979924833458E+03   -0.25230E+01   -0.25321E+01  5064   0.497E+01-0.127E+00
 gam= 0.496 trial= 0.398  step= 0.557 mean= 0.398
 gam= 0.509 g(H,U,f)=  0.230E+01 0.232E+00 0.610E-15 ort(H,U,f) =-0.149E+00 0.119E+00 0.112E-14
CGA:  19    -0.981289029638E+03   -0.13642E+01   -0.13668E+01  5064   0.253E+01-0.296E-01
 gam= 0.509 trial= 0.406  step= 0.503 mean= 0.406
 gam= 0.470 g(H,U,f)=  0.110E+01 0.867E-01 0.408E-14 ort(H,U,f) =-0.822E-01 0.855E-01 0.694E-13
CGA:  20    -0.981921464411E+03   -0.63243E+00   -0.63211E+00  5064   0.119E+01 0.331E-02
 gam= 0.470 trial= 0.411  step= 0.511 mean= 0.411
 gam= 0.477 g(H,U,f)=  0.514E+00 0.544E-01 0.782E-18 ort(H,U,f) =-0.439E-01 0.431E-01-0.886E-17
CGA:  21    -0.982226055465E+03   -0.30459E+00   -0.30464E+00  5064   0.568E+00-0.731E-03
 gam= 0.477 trial= 0.416  step= 0.513 mean= 0.416
 gam= 0.440 g(H,U,f)=  0.221E+00 0.289E-01 0.287E-20 ort(H,U,f) =-0.369E-01 0.362E-01-0.102E-19
CGA:  22    -0.982371651967E+03   -0.14560E+00   -0.14564E+00  5064   0.250E+00-0.636E-03
 gam= 0.440 trial= 0.421  step= 0.545 mean= 0.421
 gam= 0.486 g(H,U,f)=  0.109E+00 0.129E-01 0.971E-17 ort(H,U,f) =-0.171E-01 0.170E-01-0.254E-15
CGA:  23    -0.982439675098E+03   -0.68023E-01   -0.68032E-01  5064   0.122E+00-0.919E-04
 gam= 0.486 trial= 0.427  step= 0.559 mean= 0.427
 gam= 0.535 g(H,U,f)=  0.579E-01 0.708E-02 0.645E-14 ort(H,U,f) =-0.670E-02 0.676E-02 0.733E-14
CGA:  24    -0.982473670628E+03   -0.33996E-01   -0.33992E-01  5064   0.650E-01 0.612E-04
 gam= 0.535 trial= 0.433  step= 0.531 mean= 0.433
 gam= 0.513 g(H,U,f)=  0.306E-01 0.273E-02 0.545E-13 ort(H,U,f) =-0.242E-02 0.239E-02 0.131E-12
CGA:  25    -0.982490944236E+03   -0.17274E-01   -0.17274E-01  5064   0.333E-01-0.224E-04
 gam= 0.513 trial= 0.438  step= 0.487 mean= 0.438
 gam= 0.455 g(H,U,f)=  0.138E-01 0.133E-02 0.330E-19 ort(H,U,f) =-0.284E-03 0.189E-03 0.161E-19
CGA:  26    -0.982499060399E+03   -0.81162E-02   -0.81187E-02  5064   0.152E-01-0.949E-04
 gam= 0.455 trial= 0.441  step= 0.505 mean= 0.441
 gam= 0.488 g(H,U,f)=  0.662E-02 0.777E-03 0.399E-14 ort(H,U,f) =-0.322E-03 0.258E-03 0.656E-14
CGA:  27    -0.982502873854E+03   -0.38135E-02   -0.38157E-02  5064   0.740E-02-0.637E-04
 gam= 0.488 trial= 0.444  step= 0.536 mean= 0.444
 gam= 0.452 g(H,U,f)=  0.301E-02 0.336E-03 0.238E-14 ort(H,U,f) =-0.377E-03 0.347E-03 0.245E-13
CGA:  28    -0.982504845733E+03   -0.19719E-02   -0.19733E-02  5064   0.335E-02-0.297E-04
 gam= 0.452 trial= 0.448  step= 0.557 mean= 0.448
 gam= 0.497 g(H,U,f)=  0.150E-02 0.165E-03 0.104E-19 ort(H,U,f) =-0.244E-03 0.231E-03-0.274E-18
CGA:  29    -0.982505774513E+03   -0.92878E-03   -0.92946E-03  5064   0.166E-02-0.125E-04
 gam= 0.497 trial= 0.454  step= 0.597 mean= 0.454
 gam= 0.551 g(H,U,f)=  0.847E-03 0.701E-04 0.122E-15 ort(H,U,f) =-0.136E-03 0.130E-03-0.436E-15
CGA:  30    -0.982506268488E+03   -0.49397E-03   -0.49446E-03  5064   0.917E-03-0.679E-05
 gam= 0.551 trial= 0.461  step= 0.541 mean= 0.461
 gam= 0.497 g(H,U,f)=  0.431E-03 0.249E-04 0.162E-14 ort(H,U,f) =-0.417E-04 0.417E-04-0.216E-14
CGA:  31    -0.982506515661E+03   -0.24717E-03   -0.24718E-03  5064   0.456E-03 0.129E-07
 gam= 0.497 trial= 0.465  step= 0.514 mean= 0.465
 gam= 0.494 g(H,U,f)=  0.208E-03 0.170E-04 0.584E-14 ort(H,U,f) = 0.311E-05 0.302E-05 0.276E-14
CGA:  32    -0.982506632882E+03   -0.11722E-03   -0.11707E-03  5064   0.225E-03 0.613E-05
 gam= 0.494 trial= 0.467  step= 0.522 mean= 0.467
 gam= 0.466 g(H,U,f)=  0.931E-04 0.119E-04 0.902E-16 ort(H,U,f) = 0.571E-05 0.228E-05 0.190E-15
CGA:  33    -0.982506692730E+03   -0.59847E-04   -0.59629E-04  5064   0.105E-03 0.799E-05
 gam= 0.466 trial= 0.470  step= 0.529 mean= 0.470
 gam= 0.457 g(H,U,f)=  0.422E-04 0.584E-05 0.513E-14 ort(H,U,f) = 0.197E-05 0.397E-05 0.825E-14
CGA:  34    -0.982506721696E+03   -0.28967E-04   -0.28791E-04  5064   0.480E-04 0.594E-05
 gam= 0.457 trial= 0.473  step= 0.568 mean= 0.473
 gam= 0.515 g(H,U,f)=  0.221E-04 0.263E-05 0.478E-17 ort(H,U,f) = 0.331E-06 0.251E-05 0.288E-16
CGA:  35    -0.982506736240E+03   -0.14544E-04   -0.14410E-04  5064   0.248E-04 0.284E-05
 gam= 0.515 trial= 0.478  step= 0.579 mean= 0.478
 gam= 0.541 g(H,U,f)=  0.122E-04 0.119E-05 0.890E-18 ort(H,U,f) =-0.824E-06 0.139E-05 0.123E-17
CGA:  36    -0.982506743856E+03   -0.76155E-05   -0.75870E-05  5064   0.134E-04 0.565E-06
 gam= 0.541 trial= 0.483  step= 0.557 mean= 0.483
 final diagonalization
   1 F= -.98250674E+03 E0= -.98250674E+03  d E =-.258505E-22
 writing wavefunctions
Warning: ieee_invalid is signaling
Warning: ieee_divide_by_zero is signaling
Warning: ieee_underflow is signaling
Warning: ieee_inexact is signaling
FORTRAN STOP
Warning: ieee_invalid is signaling
Warning: ieee_divide_by_zero is signaling
Warning: ieee_underflow is signaling
Warning: ieee_inexact is signaling
FORTRAN STOP
Warning: ieee_invalid is signaling
Warning: ieee_divide_by_zero is signaling
Warning: ieee_underflow is signaling
Warning: ieee_inexact is signaling
FORTRAN STOP
Warning: ieee_invalid is signaling
Warning: ieee_divide_by_zero is signaling
Warning: ieee_underflow is signaling
Warning: ieee_inexact is signaling
FORTRAN STOP
