<?xml version="1.0" encoding="ISO-8859-1"?>
<modeling>
 <generator>
  <i name="program" type="string">vasp </i>
  <i name="version" type="string">6.4.2  </i>
  <i name="subversion" type="string">20Jul23 (build Nov 12 2023 22:16:35) complex                          parallel </i>
  <i name="platform" type="string">LinuxNV </i>
  <i name="date" type="string">2025 03 08 </i>
  <i name="time" type="string">11:27:37 </i>
 </generator>
 <incar>
  <i type="int" name="ISTART">     0</i>
  <i type="string" name="PREC">Normal</i>
  <i type="string" name="ALGO">All</i>
  <i type="int" name="ISPIN">     1</i>
  <i type="int" name="ICHARG">     0</i>
  <i type="int" name="NELM">   500</i>
  <i type="int" name="IBRION">    -1</i>
  <i name="EDIFF">      0.00001000</i>
  <i name="EDIFFG">     -0.00500000</i>
  <i type="int" name="NSW">     0</i>
  <i type="int" name="ISIF">     2</i>
  <i name="ENCUT">    450.00000000</i>
  <i name="NELECT">   1056.00000000</i>
  <i type="string" name="LREAL">Auto</i>
  <i type="logical" name="LPLANE"> T  </i>
  <i name="TIME">      0.40000000</i>
  <i type="int" name="ISMEAR">     0</i>
  <i name="SIGMA">      0.05000000</i>
  <i type="logical" name="LWAVE"> T  </i>
  <i type="logical" name="LCHARG"> T  </i>
  <i name="HFSCREEN">      0.18000000</i>
  <i type="logical" name="LHFCALC"> T  </i>
  <i type="int" name="LMAXFOCK">     4</i>
  <i name="AEXX">      0.35000000</i>
  <i type="string" name="PRECFOCK">Fast</i>
 </incar>
 <primitive_cell>
  <structure name="primitive_cell" >
   <crystal>
    <varray name="basis" >
     <v>       0.00000000      12.28047342       0.00000000 </v>
     <v>       9.14270205       0.00000000       0.00000000 </v>
     <v>       0.00000000      -2.76826177     -11.30069772 </v>
    </varray>
    <i name="volume">   1268.80515525 </i>
    <varray name="rec_basis" >
     <v>       0.00000000       0.08143009      -0.01994742 </v>
     <v>       0.10937686      -0.00000000       0.00000000 </v>
     <v>       0.00000000       0.00000000      -0.08849011 </v>
    </varray>
   </crystal>
   <varray name="positions" >
    <v>       0.65966986       0.99965793       0.15652540 </v>
    <v>       0.65947135       0.99994231       0.65695185 </v>
    <v>       0.65966986       0.33367541       0.15652540 </v>
    <v>       0.65947135       0.33339102       0.65695185 </v>
    <v>       0.65885139       0.66666667       0.15649641 </v>
    <v>       0.65888488       0.66666667       0.65725114 </v>
    <v>       0.84469705       0.16666667       0.34651624 </v>
    <v>       0.84172716       0.16666667       0.84421369 </v>
    <v>       0.84111341       0.49986379       0.34310889 </v>
    <v>       0.84150970       0.49970353       0.84377932 </v>
    <v>       0.84111341       0.83346955       0.34310889 </v>
    <v>       0.84150970       0.83362980       0.84377932 </v>
    <v>       0.59294382       0.16666667       0.39714238 </v>
    <v>       0.59084495       0.16666667       0.89756138 </v>
    <v>       0.59186707       0.49971957       0.39771793 </v>
    <v>       0.59014056       0.50000049       0.89704278 </v>
    <v>       0.59186707       0.83361376       0.39771793 </v>
    <v>       0.59014056       0.83333285       0.89704278 </v>
    <v>       0.90953937       0.00008695       0.10397696 </v>
    <v>       0.90810845       0.99999735       0.60041610 </v>
    <v>       0.90953937       0.33324639       0.10397696 </v>
    <v>       0.90810845       0.33333598       0.60041610 </v>
    <v>       0.90964917       0.66666667       0.10315864 </v>
    <v>       0.90856808       0.66666667       0.60151854 </v>
    <v>       0.15912355       0.16666667       0.15919826 </v>
    <v>       0.15817751       0.16666667       0.65218156 </v>
    <v>       0.16006257       0.49933097       0.15790456 </v>
    <v>       0.15899385       0.49941284       0.65578680 </v>
    <v>       0.16006257       0.83400237       0.15790456 </v>
    <v>       0.15899385       0.83392049       0.65578680 </v>
    <v>       0.34114102       0.99982311       0.34391490 </v>
    <v>       0.34002123       0.00024854       0.84273670 </v>
    <v>       0.34114102       0.33351023       0.34391490 </v>
    <v>       0.34002123       0.33308479       0.84273670 </v>
    <v>       0.34232030       0.66666667       0.34329393 </v>
    <v>       0.34038685       0.66666667       0.84322049 </v>
    <v>       0.08589534       0.00461576       0.39623162 </v>
    <v>       0.09167034       0.00038715       0.89812388 </v>
    <v>       0.08589534       0.32871757       0.39623162 </v>
    <v>       0.09167034       0.33294618       0.89812388 </v>
    <v>       0.09179779       0.66666667       0.39804030 </v>
    <v>       0.09157614       0.66666667       0.89834576 </v>
    <v>       0.40873966       0.16666667       0.10246954 </v>
    <v>       0.40919631       0.16666667       0.60274234 </v>
    <v>       0.40945451       0.49974186       0.10227216 </v>
    <v>       0.40906521       0.49991829       0.60292105 </v>
    <v>       0.40945451       0.83359147       0.10227216 </v>
    <v>       0.40906521       0.83341504       0.60292105 </v>
    <v>       0.99647756       0.16666667       0.12014493 </v>
    <v>       0.99563613       0.16666667       0.62991903 </v>
    <v>       0.99720220       0.50014101       0.12716020 </v>
    <v>       0.99612914       0.49996172       0.62718848 </v>
    <v>       0.99720220       0.83319232       0.12716020 </v>
    <v>       0.99612914       0.83337161       0.62718848 </v>
    <v>       0.50449613       0.00045897       0.37282473 </v>
    <v>       0.50305687       0.00030056       0.87239070 </v>
    <v>       0.50449613       0.33287436       0.37282473 </v>
    <v>       0.50305687       0.33303277       0.87239070 </v>
    <v>       0.50466493       0.66666667       0.37314377 </v>
    <v>       0.50287256       0.66666667       0.87195978 </v>
    <v>       0.67452915       0.16666667       0.28030889 </v>
    <v>       0.67293331       0.16666667       0.78099022 </v>
    <v>       0.67129814       0.50127366       0.27942104 </v>
    <v>       0.67271232       0.50014284       0.78097955 </v>
    <v>       0.67129814       0.83205967       0.27942104 </v>
    <v>       0.67271232       0.83319050       0.78097955 </v>
    <v>       0.82484952       0.99457355       0.21701350 </v>
    <v>       0.82756983       0.99963185       0.71956657 </v>
    <v>       0.82484952       0.33875979       0.21701350 </v>
    <v>       0.82756983       0.33370149       0.71956657 </v>
    <v>       0.82689440       0.66666667       0.21886107 </v>
    <v>       0.82757010       0.66666667       0.71958544 </v>
    <v>       0.82461258       0.99613296       0.44658061 </v>
    <v>       0.83262691       0.99965705       0.94628100 </v>
    <v>       0.82461258       0.33720037       0.44658061 </v>
    <v>       0.83262691       0.33367628       0.94628100 </v>
    <v>       0.83015472       0.66666667       0.44554510 </v>
    <v>       0.83309737       0.66666667       0.94611764 </v>
    <v>       0.66768525       0.16666667       0.05373473 </v>
    <v>       0.66698847       0.16666667       0.55482048 </v>
    <v>       0.66616681       0.50064743       0.05314186 </v>
    <v>       0.66648518       0.50049918       0.55499492 </v>
    <v>       0.66616681       0.83268590       0.05314186 </v>
    <v>       0.66648518       0.83283416       0.55499492 </v>
    <v>       0.49668067       0.00042861       0.12689283 </v>
    <v>       0.49667089       0.99999942       0.62843033 </v>
    <v>       0.49668067       0.33290472       0.12689283 </v>
    <v>       0.49667089       0.33333392       0.62843033 </v>
    <v>       0.49612460       0.66666667       0.12633598 </v>
    <v>       0.49636781       0.66666667       0.62866777 </v>
    <v>       0.00390749       0.16666667       0.87223904 </v>
    <v>       0.00339818       0.50215896       0.37368828 </v>
    <v>       0.00416937       0.49993292       0.87307044 </v>
    <v>       0.00339818       0.83117437       0.37368828 </v>
    <v>       0.00416937       0.83340041       0.87307044 </v>
    <v>       0.17441018       0.99762295       0.28085179 </v>
    <v>       0.17245188       0.00004744       0.78030698 </v>
    <v>       0.17441018       0.33571038       0.28085179 </v>
    <v>       0.17245188       0.33328590       0.78030698 </v>
    <v>       0.17394229       0.66666667       0.28117686 </v>
    <v>       0.17242158       0.66666667       0.78053069 </v>
    <v>       0.32832678       0.16666667       0.22005698 </v>
    <v>       0.32729745       0.16666667       0.71941223 </v>
    <v>       0.32907498       0.50064153       0.21982069 </v>
    <v>       0.32802588       0.50030584       0.72030684 </v>
    <v>       0.32907498       0.83269180       0.21982069 </v>
    <v>       0.32802588       0.83302749       0.72030684 </v>
    <v>       0.33386118       0.16666667       0.44617638 </v>
    <v>       0.33220465       0.16666667       0.94576399 </v>
    <v>       0.33447199       0.50057613       0.44614619 </v>
    <v>       0.33219228       0.49981417       0.94584838 </v>
    <v>       0.33447199       0.83275720       0.44614619 </v>
    <v>       0.33219228       0.83351916       0.94584838 </v>
    <v>       0.16904370       0.00028269       0.05452935 </v>
    <v>       0.17029736       0.99762766       0.55400962 </v>
    <v>       0.16904370       0.33305064       0.05452935 </v>
    <v>       0.17029736       0.33570567       0.55400962 </v>
    <v>       0.16849507       0.66666667       0.05493625 </v>
    <v>       0.16922284       0.66666667       0.55479615 </v>
    <v>       0.99920600       0.16666667       0.36971450 </v>
   </varray>
  </structure>
  <varray name="primitive_index" >
   <v type="int" >        1 </v>
   <v type="int" >        2 </v>
   <v type="int" >        3 </v>
   <v type="int" >        4 </v>
   <v type="int" >        5 </v>
   <v type="int" >        6 </v>
   <v type="int" >        7 </v>
   <v type="int" >        8 </v>
   <v type="int" >        9 </v>
   <v type="int" >       10 </v>
   <v type="int" >       11 </v>
   <v type="int" >       12 </v>
   <v type="int" >       13 </v>
   <v type="int" >       14 </v>
   <v type="int" >       15 </v>
   <v type="int" >       16 </v>
   <v type="int" >       17 </v>
   <v type="int" >       18 </v>
   <v type="int" >       19 </v>
   <v type="int" >       20 </v>
   <v type="int" >       21 </v>
   <v type="int" >       22 </v>
   <v type="int" >       23 </v>
   <v type="int" >       24 </v>
   <v type="int" >       25 </v>
   <v type="int" >       26 </v>
   <v type="int" >       27 </v>
   <v type="int" >       28 </v>
   <v type="int" >       29 </v>
   <v type="int" >       30 </v>
   <v type="int" >       31 </v>
   <v type="int" >       32 </v>
   <v type="int" >       33 </v>
   <v type="int" >       34 </v>
   <v type="int" >       35 </v>
   <v type="int" >       36 </v>
   <v type="int" >       37 </v>
   <v type="int" >       38 </v>
   <v type="int" >       39 </v>
   <v type="int" >       40 </v>
   <v type="int" >       41 </v>
   <v type="int" >       42 </v>
   <v type="int" >       43 </v>
   <v type="int" >       44 </v>
   <v type="int" >       45 </v>
   <v type="int" >       46 </v>
   <v type="int" >       47 </v>
   <v type="int" >       48 </v>
   <v type="int" >       49 </v>
   <v type="int" >       50 </v>
   <v type="int" >       51 </v>
   <v type="int" >       52 </v>
   <v type="int" >       53 </v>
   <v type="int" >       54 </v>
   <v type="int" >       55 </v>
   <v type="int" >       56 </v>
   <v type="int" >       57 </v>
   <v type="int" >       58 </v>
   <v type="int" >       59 </v>
   <v type="int" >       60 </v>
   <v type="int" >       61 </v>
   <v type="int" >       62 </v>
   <v type="int" >       63 </v>
   <v type="int" >       64 </v>
   <v type="int" >       65 </v>
   <v type="int" >       66 </v>
   <v type="int" >       67 </v>
   <v type="int" >       68 </v>
   <v type="int" >       69 </v>
   <v type="int" >       70 </v>
   <v type="int" >       71 </v>
   <v type="int" >       72 </v>
   <v type="int" >       73 </v>
   <v type="int" >       74 </v>
   <v type="int" >       75 </v>
   <v type="int" >       76 </v>
   <v type="int" >       77 </v>
   <v type="int" >       78 </v>
   <v type="int" >       79 </v>
   <v type="int" >       80 </v>
   <v type="int" >       81 </v>
   <v type="int" >       82 </v>
   <v type="int" >       83 </v>
   <v type="int" >       84 </v>
   <v type="int" >       85 </v>
   <v type="int" >       86 </v>
   <v type="int" >       87 </v>
   <v type="int" >       88 </v>
   <v type="int" >       89 </v>
   <v type="int" >       90 </v>
   <v type="int" >       91 </v>
   <v type="int" >       92 </v>
   <v type="int" >       93 </v>
   <v type="int" >       94 </v>
   <v type="int" >       95 </v>
   <v type="int" >       96 </v>
   <v type="int" >       97 </v>
   <v type="int" >       98 </v>
   <v type="int" >       99 </v>
   <v type="int" >      100 </v>
   <v type="int" >      101 </v>
   <v type="int" >      102 </v>
   <v type="int" >      103 </v>
   <v type="int" >      104 </v>
   <v type="int" >      105 </v>
   <v type="int" >      106 </v>
   <v type="int" >      107 </v>
   <v type="int" >      108 </v>
   <v type="int" >      109 </v>
   <v type="int" >      110 </v>
   <v type="int" >      111 </v>
   <v type="int" >      112 </v>
   <v type="int" >      113 </v>
   <v type="int" >      114 </v>
   <v type="int" >      115 </v>
   <v type="int" >      116 </v>
   <v type="int" >      117 </v>
   <v type="int" >      118 </v>
   <v type="int" >      119 </v>
   <v type="int" >      120 </v>
  </varray>
 </primitive_cell>
 <kpoints>
  <generation param="Gamma">
   <v type="int" name="divisions">       2        2        2 </v>
   <v name="usershift">      0.00000000       0.00000000       0.00000000 </v>
   <v name="genvec1">      0.50000000       0.00000000       0.00000000 </v>
   <v name="genvec2">      0.00000000       0.50000000       0.00000000 </v>
   <v name="genvec3">      0.00000000       0.00000000       0.50000000 </v>
   <v name="shift">      0.00000000       0.00000000       0.00000000 </v>
  </generation>
  <varray name="kpointlist" >
   <v>       0.00000000       0.00000000       0.00000000 </v>
   <v>       0.50000000       0.00000000       0.00000000 </v>
   <v>       0.00000000       0.50000000       0.00000000 </v>
   <v>       0.50000000       0.50000000       0.00000000 </v>
   <v>       0.00000000       0.00000000       0.50000000 </v>
   <v>       0.50000000       0.00000000       0.50000000 </v>
   <v>       0.00000000       0.50000000       0.50000000 </v>
   <v>       0.50000000       0.50000000       0.50000000 </v>
  </varray>
  <varray name="weights" >
   <v>       0.12500000 </v>
   <v>       0.12500000 </v>
   <v>       0.12500000 </v>
   <v>       0.12500000 </v>
   <v>       0.12500000 </v>
   <v>       0.12500000 </v>
   <v>       0.12500000 </v>
   <v>       0.12500000 </v>
  </varray>
 </kpoints>
 <parameters>
  <separator name="general" >
   <i type="string" name="SYSTEM">unknown system</i>
   <i type="logical" name="LCOMPAT"> F  </i>
  </separator>
  <separator name="electronic" >
   <i type="string" name="PREC">normal</i>
   <i name="ENMAX">    450.00000000</i>
   <i name="ENAUG">    627.11200000</i>
   <i name="EDIFF">      0.00001000</i>
   <i type="int" name="IALGO">    58</i>
   <i type="int" name="IWAVPR">    10</i>
   <i type="int" name="NBANDS">   633</i>
   <i type="int" name="NBANDSLOW">    -1</i>
   <i type="int" name="NBANDSHIGH">    -1</i>
   <i name="NELECT">   1056.00000000</i>
   <i type="int" name="TURBO">     0</i>
   <i type="int" name="IRESTART">     0</i>
   <i type="int" name="NREBOOT">     0</i>
   <i type="int" name="NMIN">     0</i>
   <i name="EREF">      0.00000000</i>
   <separator name="electronic smearing" >
    <i type="int" name="ISMEAR">     0</i>
    <i name="SIGMA">      0.05000000</i>
    <i name="KSPACING">      0.50000000</i>
    <i type="logical" name="KGAMMA"> T  </i>
    <i type="logical" name="KBLOWUP"> T  </i>
   </separator>
   <separator name="electronic projectors" >
    <i type="logical" name="LREAL"> T  </i>
    <v name="ROPT">     -0.00050000     -0.00050000     -0.00050000</v>
    <i type="int" name="LMAXPAW">  -100</i>
    <i type="int" name="LMAXMIX">     2</i>
    <i type="logical" name="NLSPLINE"> F  </i>
   </separator>
   <separator name="electronic startup" >
    <i type="int" name="ISTART">     0</i>
    <i type="int" name="ICHARG">     0</i>
    <i type="int" name="INIWAV">     1</i>
   </separator>
   <separator name="electronic spin" >
    <i type="int" name="ISPIN">     1</i>
    <i type="logical" name="LNONCOLLINEAR"> F  </i>
    <v name="MAGMOM">      1.00000000      1.00000000      1.00000000      1.00000000      1.00000000      1.00000000      1.00000000      1.00000000      1.00000000      1.00000000      1.00000000      1.00000000      1.00000000      1.00000000      1.00000000      1.00000000      1.00000000      1.00000000      1.00000000      1.00000000
      1.00000000      1.00000000      1.00000000      1.00000000      1.00000000      1.00000000      1.00000000      1.00000000      1.00000000      1.00000000      1.00000000      1.00000000      1.00000000      1.00000000      1.00000000      1.00000000      1.00000000      1.00000000      1.00000000      1.00000000
      1.00000000      1.00000000      1.00000000      1.00000000      1.00000000      1.00000000      1.00000000      1.00000000      1.00000000      1.00000000      1.00000000      1.00000000      1.00000000      1.00000000      1.00000000      1.00000000      1.00000000      1.00000000      1.00000000      1.00000000
      1.00000000      1.00000000      1.00000000      1.00000000      1.00000000      1.00000000      1.00000000      1.00000000      1.00000000      1.00000000      1.00000000      1.00000000      1.00000000      1.00000000      1.00000000      1.00000000      1.00000000      1.00000000      1.00000000      1.00000000
      1.00000000      1.00000000      1.00000000      1.00000000      1.00000000      1.00000000      1.00000000      1.00000000      1.00000000      1.00000000      1.00000000      1.00000000      1.00000000      1.00000000      1.00000000      1.00000000      1.00000000      1.00000000      1.00000000      1.00000000
      1.00000000      1.00000000      1.00000000      1.00000000      1.00000000      1.00000000      1.00000000      1.00000000      1.00000000      1.00000000      1.00000000      1.00000000      1.00000000      1.00000000      1.00000000      1.00000000      1.00000000      1.00000000      1.00000000      1.00000000
</v>
    <i name="NUPDOWN">     -1.00000000</i>
    <i type="logical" name="LSORBIT"> F  </i>
    <v name="SAXIS">      0.00000000      0.00000000      1.00000000</v>
    <i type="logical" name="LSPIRAL"> F  </i>
    <v name="QSPIRAL">      0.00000000      0.00000000      0.00000000</v>
    <i type="logical" name="LZEROZ"> F  </i>
   </separator>
   <separator name="electronic exchange-correlation" >
    <i type="logical" name="LASPH"> F  </i>
    <i type="logical" name="LMETAGGA"> F  </i>
   </separator>
   <separator name="electronic convergence" >
    <i type="int" name="NELM">   500</i>
    <i type="int" name="NELMDL">    -5</i>
    <i type="int" name="NELMIN">     2</i>
    <i name="ENINI">    450.00000000</i>
    <separator name="electronic convergence detail" >
     <i type="logical" name="LDIAG"> T  </i>
     <i type="logical" name="LSUBROT"> F  </i>
     <i name="WEIMIN">      0.00000000</i>
     <i name="EBREAK">      0.00000000</i>
     <i name="DEPER">      0.30000000</i>
     <i type="int" name="NRMM">     4</i>
     <i name="TIME">      0.40000000</i>
    </separator>
   </separator>
   <separator name="electronic mixer" >
    <i name="AMIX">      0.40000000</i>
    <i name="BMIX">      1.00000000</i>
    <i name="AMIN">      0.10000000</i>
    <i name="AMIX_MAG">      1.60000000</i>
    <i name="BMIX_MAG">      1.00000000</i>
    <separator name="electronic mixer details" >
     <i type="int" name="IMIX">     4</i>
     <i type="logical" name="MIXFIRST"> F  </i>
     <i type="int" name="MAXMIX">   -45</i>
     <i name="WC">    100.00000000</i>
     <i type="int" name="INIMIX">     1</i>
     <i type="int" name="MIXPRE">     1</i>
     <i type="int" name="MREMOVE">     5</i>
    </separator>
   </separator>
   <separator name="electronic dipolcorrection" >
    <i type="logical" name="LDIPOL"> F  </i>
    <i type="logical" name="LMONO"> F  </i>
    <i type="int" name="IDIPOL">     0</i>
    <i name="EPSILON">      1.00000000</i>
    <v name="DIPOL">   -100.00000000   -100.00000000   -100.00000000</v>
    <i name="EFIELD">      0.00000000</i>
   </separator>
  </separator>
  <separator name="grids" >
   <i type="int" name="NGX">    64</i>
   <i type="int" name="NGY">    48</i>
   <i type="int" name="NGZ">    60</i>
   <i type="int" name="NGXF">   128</i>
   <i type="int" name="NGYF">    96</i>
   <i type="int" name="NGZF">   120</i>
   <i type="logical" name="ADDGRID"> F  </i>
  </separator>
  <separator name="ionic" >
   <i type="int" name="NSW">     0</i>
   <i type="int" name="IBRION">    -1</i>
   <i type="int" name="MDALGO">     0</i>
   <i type="int" name="ISIF">     2</i>
   <i name="PSTRESS">      0.00000000</i>
   <i name="EDIFFG">     -0.00500000</i>
   <i type="int" name="NFREE">     0</i>
   <i name="POTIM">      0.50000000</i>
   <i name="SMASS">     -3.00000000</i>
   <i name="SCALEE">      1.00000000</i>
  </separator>
  <separator name="ionic md" >
   <i name="TEBEG">      0.00010000</i>
   <i name="TEEND">      0.00010000</i>
   <i type="int" name="NBLOCK">     1</i>
   <i type="int" name="KBLOCK">     1</i>
   <i type="int" name="NPACO">   256</i>
   <i name="APACO">     10.00000000</i>
  </separator>
  <separator name="symmetry" >
   <i type="int" name="ISYM">     3</i>
   <i name="SYMPREC">      0.00001000</i>
  </separator>
  <separator name="dos" >
   <i type="int" name="LORBIT">     0</i>
   <v name="RWIGS">     -1.00000000     -1.00000000     -1.00000000</v>
   <i type="int" name="NEDOS">   301</i>
   <i name="EMIN">     10.00000000</i>
   <i name="EMAX">    -10.00000000</i>
   <i name="EFERMI">      0.00000000</i>
  </separator>
  <separator name="writing" >
   <i type="int" name="NWRITE">     2</i>
   <i type="logical" name="LWAVE"> T  </i>
   <i type="logical" name="LDOWNSAMPLE"> F  </i>
   <i type="logical" name="LCHARG"> T  </i>
   <i type="logical" name="LPARD"> F  </i>
   <i type="logical" name="LVTOT"> F  </i>
   <i type="logical" name="LVHAR"> F  </i>
   <i type="logical" name="LELF"> F  </i>
   <i type="logical" name="LOPTICS"> F  </i>
   <v name="STM">      0.00000000      0.00000000      0.00000000      0.00000000      0.00000000      0.00000000      0.00000000</v>
  </separator>
  <separator name="performance" >
   <i type="int" name="NPAR">     1</i>
   <i type="int" name="NSIM">     4</i>
   <i type="int" name="NBLK">    -1</i>
   <i type="logical" name="LPLANE"> T  </i>
   <i type="logical" name="LSCALAPACK"> T  </i>
   <i type="logical" name="LSCAAWARE"> F  </i>
   <i type="logical" name="LSCALU"> F  </i>
   <i type="logical" name="LASYNC"> F  </i>
   <i type="logical" name="LORBITALREAL"> F  </i>
  </separator>
  <separator name="miscellaneous" >
   <i type="int" name="IDIOT">     3</i>
   <i type="int" name="PHON_NSTRUCT">    -1</i>
   <i type="logical" name="LMUSIC"> F  </i>
   <v name="POMASS">     69.72300000     16.00000000     14.00100000</v>
   <v name="DARWINR">      0.00000000      0.00000000      0.00000000</v>
   <v name="DARWINV">      1.00000000      1.00000000      1.00000000</v>
   <i type="logical" name="LCORR"> T  </i>
  </separator>
  <i type="logical" name="GGA_COMPAT"> T  </i>
  <i type="logical" name="LBERRY"> F  </i>
  <i type="int" name="ICORELEVEL">     0</i>
  <i type="logical" name="LDAU"> F  </i>
  <i type="int" name="I_CONSTRAINED_M">     0</i>
  <separator name="electronic exchange-correlation" >
   <i type="string" name="GGA">--</i>
   <i type="int" name="VOSKOWN">     0</i>
   <i type="logical" name="LHFCALC"> T  </i>
   <i type="string" name="PRECFOCK">fast</i>
   <i type="logical" name="LSYMGRAD"> F  </i>
   <i type="logical" name="LHFONE"> F  </i>
   <i type="logical" name="LRHFCALC"> F  </i>
   <i type="logical" name="LTHOMAS"> F  </i>
   <i type="logical" name="LMODELHF"> F  </i>
   <i type="logical" name="LFOCKACE"> T  </i>
   <i name="ENCUT4O">     -1.00000000</i>
   <i type="int" name="EXXOEP">     0</i>
   <i type="int" name="FOURORBIT">     0</i>
   <i name="AEXX">      0.35000000</i>
   <i name="HFALPHA">     -1.00000000</i>
   <i name="MCALPHA">      0.00000000</i>
   <i name="ALDAX">      0.65000000</i>
   <i name="AGGAX">      0.65000000</i>
   <i name="ALDAC">      1.00000000</i>
   <i name="AGGAC">      1.00000000</i>
   <i type="int" name="NKREDX">     1</i>
   <i type="int" name="NKREDY">     1</i>
   <i type="int" name="NKREDZ">     1</i>
   <i type="logical" name="SHIFTRED"> F  </i>
   <i type="logical" name="ODDONLY"> F  </i>
   <i type="logical" name="EVENONLY"> F  </i>
   <i type="int" name="LMAXFOCK">     4</i>
   <i type="int" name="NMAXFOCKAE">     1</i>
   <i type="logical" name="LFOCKAEDFT"> F  </i>
   <i name="HFSCREEN">      0.18000000</i>
   <i name="HFSCREENC">      0.18000000</i>
   <i type="int" name="NBANDSGWLOW">     1</i>
  </separator>
  <separator name="vdW DFT" >
   <i type="logical" name="LUSE_VDW"> F  </i>
   <i type="int" name="IVDW_NL">     1</i>
   <i type="logical" name="LSPIN_VDW"> F  </i>
   <i name="Zab_VDW">     -0.84910000</i>
   <i name="PARAM1">      0.12340000</i>
   <i name="PARAM2">      1.00000000</i>
   <i name="PARAM3">      0.00000000</i>
  </separator>
  <separator name="model GW" >
   <i type="int" name="MODEL_GW">     0</i>
   <i name="MODEL_EPS0">      6.34402578</i>
   <i name="MODEL_ALPHA">      1.00000000</i>
  </separator>
  <separator name="linear response parameters" >
   <i type="logical" name="LEPSILON"> F  </i>
   <i type="logical" name="LRPA"> F  </i>
   <i type="logical" name="LNABLA"> F  </i>
   <i type="logical" name="LVEL"> F  </i>
   <i name="CSHIFT">      0.10000000</i>
   <i name="OMEGAMAX">     -1.00000000</i>
   <i name="DEG_THRESHOLD">      0.00200000</i>
   <i name="RTIME">     -0.10000000</i>
   <i name="WPLASMAI">      0.00000000</i>
   <v name="DFIELD">      0.00000000      0.00000000      0.00000000</v>
   <v name="WPLASMA">      0.00000000      0.00000000      0.00000000      0.00000000      0.00000000      0.00000000      0.00000000      0.00000000      0.00000000</v>
  </separator>
  <separator name="orbital magnetization" >
   <i type="logical" name="NUCIND"> F  </i>
   <v name="MAGPOS">      0.00000000      0.00000000      0.00000000</v>
   <i type="logical" name="LNICSALL"> T  </i>
   <i type="logical" name="ORBITALMAG"> F  </i>
   <i type="logical" name="LMAGBLOCH"> F  </i>
   <i type="logical" name="LCHIMAG"> F  </i>
   <i type="logical" name="LGAUGE"> T  </i>
   <i type="int" name="MAGATOM">     0</i>
   <v name="MAGDIPOL">      0.00000000      0.00000000      0.00000000</v>
   <v name="AVECCONST">      0.00000000      0.00000000      0.00000000</v>
  </separator>
  <separator name="response functions" >
   <i type="logical" name="LALL_IN_ONE"> F  </i>
   <i type="int" name="IALL_IN_ONE">    -1</i>
   <i type="int" name="NBANDS_WAVE">    -1</i>
   <i type="logical" name="LFINITE_TEMPERATURE"> F  </i>
   <i type="logical" name="LADDER"> F  </i>
   <i type="logical" name="LRPAFORCE"> F  </i>
   <i type="logical" name="LFXC"> F  </i>
   <i type="logical" name="LHARTREE"> T  </i>
   <i type="int" name="IBSE">     0</i>
   <v type="int" name="KPOINT">    -1     0     0     0</v>
   <i type="logical" name="LTCTC"> F  </i>
   <i type="logical" name="LTCTE"> F  </i>
   <i type="logical" name="LTETE"> F  </i>
   <i type="logical" name="LTRIPLET"> F  </i>
   <i type="logical" name="LFXCEPS"> F  </i>
   <i type="logical" name="LFXHEG"> F  </i>
   <i type="int" name="NATURALO">     2</i>
   <i type="logical" name="LHOLEGF"> F  </i>
   <i type="logical" name="L2ORDER"> F  </i>
   <i type="logical" name="LDMP1"> F  </i>
   <i type="logical" name="LMP2LT"> F  </i>
   <i type="logical" name="LSMP2LT"> F  </i>
   <i type="logical" name="LGWLF"> F  </i>
   <i name="ENCUTGW">     -1.60000002</i>
   <i name="ENCUTGWSOFT">     -1.60000002</i>
   <i name="ENCUTLF">     -1.00000000</i>
   <i type="logical" name="LESF_SPLINES"> F  </i>
   <i type="int" name="LMAXMP2">    -1</i>
   <i name="SCISSOR">      0.00000000</i>
   <i type="int" name="NOMEGA">     0</i>
   <i type="int" name="NOMEGAR">     0</i>
   <i type="int" name="NBANDSGW">    -1</i>
   <i type="int" name="NBANDSO">    -1</i>
   <i type="int" name="NBANDSV">    -1</i>
   <i type="int" name="NELMGW">     1</i>
   <i type="int" name="NELMHF">     1</i>
   <i type="int" name="DIM">     3</i>
   <i type="int" name="IESPILON">     4</i>
   <i type="int" name="ANTIRES">     0</i>
   <i name="OMEGAMAX">    -30.00000000</i>
   <i name="OMEGAMIN">    -30.00000000</i>
   <i name="OMEGATL">   -200.00000000</i>
   <i type="int" name="OMEGAGRID">     0</i>
   <i name="CSHIFT">     -0.10000000</i>
   <i type="logical" name="LSELFENERGY"> F  </i>
   <i type="logical" name="LSPECTRAL"> F  </i>
   <i type="logical" name="LSPECTRALGW"> F  </i>
   <i type="logical" name="LSINGLES"> F  </i>
   <i type="logical" name="LFERMIGW"> F  </i>
   <i type="logical" name="ODDONLYGW"> F  </i>
   <i type="logical" name="EVENONLYGW"> F  </i>
   <i type="int" name="NKREDLFX">     1</i>
   <i type="int" name="NKREDLFY">     1</i>
   <i type="int" name="NKREDLFZ">     1</i>
   <i type="int" name="MAXMEM">  2800</i>
   <i type="int" name="TELESCOPE">     0</i>
   <i type="int" name="NTAUPAR">    -1</i>
   <i type="int" name="NOMEGAPAR">    -1</i>
   <i name="DAMP_NEWTON">      0.80000001</i>
   <i name="LAMBDA">      1.00000000</i>
  </separator>
  <separator name="External order field" >
   <i name="OFIELD_KAPPA">      0.00000000</i>
   <v name="OFIELD_K">      0.00000000      0.00000000      0.00000000</v>
   <i name="OFIELD_Q6_NEAR">      0.00000000</i>
   <i name="OFIELD_Q6_FAR">      0.00000000</i>
   <i name="OFIELD_A">      0.00000000</i>
  </separator>
  <separator name="optional k-points parameters" >
   <i type="int" name="KPOINTS_OPT_MODE">     1</i>
   <i type="logical" name="LKPOINTS_OPT"> F  </i>
  </separator>
 </parameters>
 <atominfo>
  <atoms>     120 </atoms>
  <types>       3 </types>
  <array name="atoms" >
   <dimension dim="1">ion</dimension>
   <field type="string">element</field>
   <field type="int">atomtype</field>
   <set>
    <rc><c>Ga</c><c>   1</c></rc>
    <rc><c>Ga</c><c>   1</c></rc>
    <rc><c>Ga</c><c>   1</c></rc>
    <rc><c>Ga</c><c>   1</c></rc>
    <rc><c>Ga</c><c>   1</c></rc>
    <rc><c>Ga</c><c>   1</c></rc>
    <rc><c>Ga</c><c>   1</c></rc>
    <rc><c>Ga</c><c>   1</c></rc>
    <rc><c>Ga</c><c>   1</c></rc>
    <rc><c>Ga</c><c>   1</c></rc>
    <rc><c>Ga</c><c>   1</c></rc>
    <rc><c>Ga</c><c>   1</c></rc>
    <rc><c>Ga</c><c>   1</c></rc>
    <rc><c>Ga</c><c>   1</c></rc>
    <rc><c>Ga</c><c>   1</c></rc>
    <rc><c>Ga</c><c>   1</c></rc>
    <rc><c>Ga</c><c>   1</c></rc>
    <rc><c>Ga</c><c>   1</c></rc>
    <rc><c>Ga</c><c>   1</c></rc>
    <rc><c>Ga</c><c>   1</c></rc>
    <rc><c>Ga</c><c>   1</c></rc>
    <rc><c>Ga</c><c>   1</c></rc>
    <rc><c>Ga</c><c>   1</c></rc>
    <rc><c>Ga</c><c>   1</c></rc>
    <rc><c>Ga</c><c>   1</c></rc>
    <rc><c>Ga</c><c>   1</c></rc>
    <rc><c>Ga</c><c>   1</c></rc>
    <rc><c>Ga</c><c>   1</c></rc>
    <rc><c>Ga</c><c>   1</c></rc>
    <rc><c>Ga</c><c>   1</c></rc>
    <rc><c>Ga</c><c>   1</c></rc>
    <rc><c>Ga</c><c>   1</c></rc>
    <rc><c>Ga</c><c>   1</c></rc>
    <rc><c>Ga</c><c>   1</c></rc>
    <rc><c>Ga</c><c>   1</c></rc>
    <rc><c>Ga</c><c>   1</c></rc>
    <rc><c>Ga</c><c>   1</c></rc>
    <rc><c>Ga</c><c>   1</c></rc>
    <rc><c>Ga</c><c>   1</c></rc>
    <rc><c>Ga</c><c>   1</c></rc>
    <rc><c>Ga</c><c>   1</c></rc>
    <rc><c>Ga</c><c>   1</c></rc>
    <rc><c>Ga</c><c>   1</c></rc>
    <rc><c>Ga</c><c>   1</c></rc>
    <rc><c>Ga</c><c>   1</c></rc>
    <rc><c>Ga</c><c>   1</c></rc>
    <rc><c>Ga</c><c>   1</c></rc>
    <rc><c>Ga</c><c>   1</c></rc>
    <rc><c>O </c><c>   2</c></rc>
    <rc><c>O </c><c>   2</c></rc>
    <rc><c>O </c><c>   2</c></rc>
    <rc><c>O </c><c>   2</c></rc>
    <rc><c>O </c><c>   2</c></rc>
    <rc><c>O </c><c>   2</c></rc>
    <rc><c>O </c><c>   2</c></rc>
    <rc><c>O </c><c>   2</c></rc>
    <rc><c>O </c><c>   2</c></rc>
    <rc><c>O </c><c>   2</c></rc>
    <rc><c>O </c><c>   2</c></rc>
    <rc><c>O </c><c>   2</c></rc>
    <rc><c>O </c><c>   2</c></rc>
    <rc><c>O </c><c>   2</c></rc>
    <rc><c>O </c><c>   2</c></rc>
    <rc><c>O </c><c>   2</c></rc>
    <rc><c>O </c><c>   2</c></rc>
    <rc><c>O </c><c>   2</c></rc>
    <rc><c>O </c><c>   2</c></rc>
    <rc><c>O </c><c>   2</c></rc>
    <rc><c>O </c><c>   2</c></rc>
    <rc><c>O </c><c>   2</c></rc>
    <rc><c>O </c><c>   2</c></rc>
    <rc><c>O </c><c>   2</c></rc>
    <rc><c>O </c><c>   2</c></rc>
    <rc><c>O </c><c>   2</c></rc>
    <rc><c>O </c><c>   2</c></rc>
    <rc><c>O </c><c>   2</c></rc>
    <rc><c>O </c><c>   2</c></rc>
    <rc><c>O </c><c>   2</c></rc>
    <rc><c>O </c><c>   2</c></rc>
    <rc><c>O </c><c>   2</c></rc>
    <rc><c>O </c><c>   2</c></rc>
    <rc><c>O </c><c>   2</c></rc>
    <rc><c>O </c><c>   2</c></rc>
    <rc><c>O </c><c>   2</c></rc>
    <rc><c>O </c><c>   2</c></rc>
    <rc><c>O </c><c>   2</c></rc>
    <rc><c>O </c><c>   2</c></rc>
    <rc><c>O </c><c>   2</c></rc>
    <rc><c>O </c><c>   2</c></rc>
    <rc><c>O </c><c>   2</c></rc>
    <rc><c>O </c><c>   2</c></rc>
    <rc><c>O </c><c>   2</c></rc>
    <rc><c>O </c><c>   2</c></rc>
    <rc><c>O </c><c>   2</c></rc>
    <rc><c>O </c><c>   2</c></rc>
    <rc><c>O </c><c>   2</c></rc>
    <rc><c>O </c><c>   2</c></rc>
    <rc><c>O </c><c>   2</c></rc>
    <rc><c>O </c><c>   2</c></rc>
    <rc><c>O </c><c>   2</c></rc>
    <rc><c>O </c><c>   2</c></rc>
    <rc><c>O </c><c>   2</c></rc>
    <rc><c>O </c><c>   2</c></rc>
    <rc><c>O </c><c>   2</c></rc>
    <rc><c>O </c><c>   2</c></rc>
    <rc><c>O </c><c>   2</c></rc>
    <rc><c>O </c><c>   2</c></rc>
    <rc><c>O </c><c>   2</c></rc>
    <rc><c>O </c><c>   2</c></rc>
    <rc><c>O </c><c>   2</c></rc>
    <rc><c>O </c><c>   2</c></rc>
    <rc><c>O </c><c>   2</c></rc>
    <rc><c>O </c><c>   2</c></rc>
    <rc><c>O </c><c>   2</c></rc>
    <rc><c>O </c><c>   2</c></rc>
    <rc><c>O </c><c>   2</c></rc>
    <rc><c>O </c><c>   2</c></rc>
    <rc><c>O </c><c>   2</c></rc>
    <rc><c>O </c><c>   2</c></rc>
    <rc><c>N </c><c>   3</c></rc>
   </set>
  </array>
  <array name="atomtypes" >
   <dimension dim="1">type</dimension>
   <field type="int">atomspertype</field>
   <field type="string">element</field>
   <field>mass</field>
   <field>valence</field>
   <field type="string">pseudopotential</field>
   <set>
    <rc><c>  48</c><c>Ga</c><c>     69.72300000</c><c>     13.00000000</c><c>  PAW_PBE Ga_d 06Jul2010                </c></rc>
    <rc><c>  71</c><c>O </c><c>     16.00000000</c><c>      6.00000000</c><c>  PAW_PBE O 08Apr2002                   </c></rc>
    <rc><c>   1</c><c>N </c><c>     14.00100000</c><c>      5.00000000</c><c>  PAW_PBE N 08Apr2002                   </c></rc>
   </set>
  </array>
 </atominfo>
 <structure name="initialpos" >
  <crystal>
   <varray name="basis" >
    <v>       0.00000000      12.28047342       0.00000000 </v>
    <v>       9.14270205       0.00000000       0.00000000 </v>
    <v>       0.00000000      -2.76826177     -11.30069772 </v>
   </varray>
   <i name="volume">   1268.80515525 </i>
   <varray name="rec_basis" >
    <v>       0.00000000       0.08143009      -0.01994742 </v>
    <v>       0.10937686      -0.00000000       0.00000000 </v>
    <v>       0.00000000       0.00000000      -0.08849011 </v>
   </varray>
  </crystal>
  <varray name="positions" >
   <v>       0.65966986       0.99965793       0.15652540 </v>
   <v>       0.65947135       0.99994231       0.65695185 </v>
   <v>       0.65966986       0.33367541       0.15652540 </v>
   <v>       0.65947135       0.33339102       0.65695185 </v>
   <v>       0.65885139       0.66666667       0.15649641 </v>
   <v>       0.65888488       0.66666667       0.65725114 </v>
   <v>       0.84469705       0.16666667       0.34651624 </v>
   <v>       0.84172716       0.16666667       0.84421369 </v>
   <v>       0.84111341       0.49986379       0.34310889 </v>
   <v>       0.84150970       0.49970353       0.84377932 </v>
   <v>       0.84111341       0.83346955       0.34310889 </v>
   <v>       0.84150970       0.83362980       0.84377932 </v>
   <v>       0.59294382       0.16666667       0.39714238 </v>
   <v>       0.59084495       0.16666667       0.89756138 </v>
   <v>       0.59186707       0.49971957       0.39771793 </v>
   <v>       0.59014056       0.50000049       0.89704278 </v>
   <v>       0.59186707       0.83361376       0.39771793 </v>
   <v>       0.59014056       0.83333285       0.89704278 </v>
   <v>       0.90953937       0.00008695       0.10397696 </v>
   <v>       0.90810845       0.99999735       0.60041610 </v>
   <v>       0.90953937       0.33324639       0.10397696 </v>
   <v>       0.90810845       0.33333598       0.60041610 </v>
   <v>       0.90964917       0.66666667       0.10315864 </v>
   <v>       0.90856808       0.66666667       0.60151854 </v>
   <v>       0.15912355       0.16666667       0.15919826 </v>
   <v>       0.15817751       0.16666667       0.65218156 </v>
   <v>       0.16006257       0.49933097       0.15790456 </v>
   <v>       0.15899385       0.49941284       0.65578680 </v>
   <v>       0.16006257       0.83400237       0.15790456 </v>
   <v>       0.15899385       0.83392049       0.65578680 </v>
   <v>       0.34114102       0.99982311       0.34391490 </v>
   <v>       0.34002123       0.00024854       0.84273670 </v>
   <v>       0.34114102       0.33351023       0.34391490 </v>
   <v>       0.34002123       0.33308479       0.84273670 </v>
   <v>       0.34232030       0.66666667       0.34329393 </v>
   <v>       0.34038685       0.66666667       0.84322049 </v>
   <v>       0.08589534       0.00461576       0.39623162 </v>
   <v>       0.09167034       0.00038715       0.89812388 </v>
   <v>       0.08589534       0.32871757       0.39623162 </v>
   <v>       0.09167034       0.33294618       0.89812388 </v>
   <v>       0.09179779       0.66666667       0.39804030 </v>
   <v>       0.09157614       0.66666667       0.89834576 </v>
   <v>       0.40873966       0.16666667       0.10246954 </v>
   <v>       0.40919631       0.16666667       0.60274234 </v>
   <v>       0.40945451       0.49974186       0.10227216 </v>
   <v>       0.40906521       0.49991829       0.60292105 </v>
   <v>       0.40945451       0.83359147       0.10227216 </v>
   <v>       0.40906521       0.83341504       0.60292105 </v>
   <v>       0.99647756       0.16666667       0.12014493 </v>
   <v>       0.99563613       0.16666667       0.62991903 </v>
   <v>       0.99720220       0.50014101       0.12716020 </v>
   <v>       0.99612914       0.49996172       0.62718848 </v>
   <v>       0.99720220       0.83319232       0.12716020 </v>
   <v>       0.99612914       0.83337161       0.62718848 </v>
   <v>       0.50449613       0.00045897       0.37282473 </v>
   <v>       0.50305687       0.00030056       0.87239070 </v>
   <v>       0.50449613       0.33287436       0.37282473 </v>
   <v>       0.50305687       0.33303277       0.87239070 </v>
   <v>       0.50466493       0.66666667       0.37314377 </v>
   <v>       0.50287256       0.66666667       0.87195978 </v>
   <v>       0.67452915       0.16666667       0.28030889 </v>
   <v>       0.67293331       0.16666667       0.78099022 </v>
   <v>       0.67129814       0.50127366       0.27942104 </v>
   <v>       0.67271232       0.50014284       0.78097955 </v>
   <v>       0.67129814       0.83205967       0.27942104 </v>
   <v>       0.67271232       0.83319050       0.78097955 </v>
   <v>       0.82484952       0.99457355       0.21701350 </v>
   <v>       0.82756983       0.99963185       0.71956657 </v>
   <v>       0.82484952       0.33875979       0.21701350 </v>
   <v>       0.82756983       0.33370149       0.71956657 </v>
   <v>       0.82689440       0.66666667       0.21886107 </v>
   <v>       0.82757010       0.66666667       0.71958544 </v>
   <v>       0.82461258       0.99613296       0.44658061 </v>
   <v>       0.83262691       0.99965705       0.94628100 </v>
   <v>       0.82461258       0.33720037       0.44658061 </v>
   <v>       0.83262691       0.33367628       0.94628100 </v>
   <v>       0.83015472       0.66666667       0.44554510 </v>
   <v>       0.83309737       0.66666667       0.94611764 </v>
   <v>       0.66768525       0.16666667       0.05373473 </v>
   <v>       0.66698847       0.16666667       0.55482048 </v>
   <v>       0.66616681       0.50064743       0.05314186 </v>
   <v>       0.66648518       0.50049918       0.55499492 </v>
   <v>       0.66616681       0.83268590       0.05314186 </v>
   <v>       0.66648518       0.83283416       0.55499492 </v>
   <v>       0.49668067       0.00042861       0.12689283 </v>
   <v>       0.49667089       0.99999942       0.62843033 </v>
   <v>       0.49668067       0.33290472       0.12689283 </v>
   <v>       0.49667089       0.33333392       0.62843033 </v>
   <v>       0.49612460       0.66666667       0.12633598 </v>
   <v>       0.49636781       0.66666667       0.62866777 </v>
   <v>       0.00390749       0.16666667       0.87223904 </v>
   <v>       0.00339818       0.50215896       0.37368828 </v>
   <v>       0.00416937       0.49993292       0.87307044 </v>
   <v>       0.00339818       0.83117437       0.37368828 </v>
   <v>       0.00416937       0.83340041       0.87307044 </v>
   <v>       0.17441018       0.99762295       0.28085179 </v>
   <v>       0.17245188       0.00004744       0.78030698 </v>
   <v>       0.17441018       0.33571038       0.28085179 </v>
   <v>       0.17245188       0.33328590       0.78030698 </v>
   <v>       0.17394229       0.66666667       0.28117686 </v>
   <v>       0.17242158       0.66666667       0.78053069 </v>
   <v>       0.32832678       0.16666667       0.22005698 </v>
   <v>       0.32729745       0.16666667       0.71941223 </v>
   <v>       0.32907498       0.50064153       0.21982069 </v>
   <v>       0.32802588       0.50030584       0.72030684 </v>
   <v>       0.32907498       0.83269180       0.21982069 </v>
   <v>       0.32802588       0.83302749       0.72030684 </v>
   <v>       0.33386118       0.16666667       0.44617638 </v>
   <v>       0.33220465       0.16666667       0.94576399 </v>
   <v>       0.33447199       0.50057613       0.44614619 </v>
   <v>       0.33219228       0.49981417       0.94584838 </v>
   <v>       0.33447199       0.83275720       0.44614619 </v>
   <v>       0.33219228       0.83351916       0.94584838 </v>
   <v>       0.16904370       0.00028269       0.05452935 </v>
   <v>       0.17029736       0.99762766       0.55400962 </v>
   <v>       0.16904370       0.33305064       0.05452935 </v>
   <v>       0.17029736       0.33570567       0.55400962 </v>
   <v>       0.16849507       0.66666667       0.05493625 </v>
   <v>       0.16922284       0.66666667       0.55479615 </v>
   <v>       0.99920600       0.16666667       0.36971450 </v>
  </varray>
 </structure>
 <calculation>
  <scstep>
   <time name="total">    4.00    4.01</time>
   <energy>
    <i name="alphaZ">   5530.94812622 </i>
    <i name="ewald"> -88787.70406013 </i>
    <i name="hartreedc">  -2114.85245411 </i>
    <i name="XCdc">   2806.62735595 </i>
    <i name="pawpsdc">  59982.11220946 </i>
    <i name="pawaedc"> -91789.06797910 </i>
    <i name="eentropy">     -0.00876621 </i>
    <i name="bandstr"> -40558.04450354 </i>
    <i name="atom"> 133692.73004162 </i>
    <i name="e_fr_energy"> -21237.26002983 </i>
    <i name="e_wo_entrp"> -21237.25126362 </i>
    <i name="e_0_energy"> -21237.25564672 </i>
   </energy>
  </scstep>
  <scstep>
   <time name="total">    3.15    3.15</time>
   <energy>
    <i name="e_fr_energy"> -65385.83606047 </i>
    <i name="e_wo_entrp"> -65385.81667705 </i>
    <i name="e_0_energy"> -65385.82636876 </i>
   </energy>
  </scstep>
  <scstep>
   <time name="total">    3.30    3.30</time>
   <energy>
    <i name="e_fr_energy"> -69947.42735061 </i>
    <i name="e_wo_entrp"> -69947.38080277 </i>
    <i name="e_0_energy"> -69947.40407669 </i>
   </energy>
  </scstep>
  <scstep>
   <time name="total">    3.66    3.66</time>
   <energy>
    <i name="e_fr_energy"> -70488.87132492 </i>
    <i name="e_wo_entrp"> -70488.82516834 </i>
    <i name="e_0_energy"> -70488.84824663 </i>
   </energy>
  </scstep>
  <scstep>
   <time name="total">  237.00  236.96</time>
   <energy>
    <i name="e_fr_energy"> -37497.01372318 </i>
    <i name="e_wo_entrp"> -37496.97542069 </i>
    <i name="e_0_energy"> -37496.99457194 </i>
   </energy>
  </scstep>
  <scstep>
   <time name="total">  472.27  472.19</time>
   <energy>
    <i name="e_fr_energy">  19384.43764173 </i>
    <i name="e_wo_entrp">  19384.44903974 </i>
    <i name="e_0_energy">  19384.44334073 </i>
   </energy>
  </scstep>
  <scstep>
   <time name="total">  471.66  471.59</time>
   <energy>
    <i name="e_fr_energy">   5354.48008790 </i>
    <i name="e_wo_entrp">   5354.50682352 </i>
    <i name="e_0_energy">   5354.49345571 </i>
   </energy>
  </scstep>
  <scstep>
   <time name="total">  474.28  474.21</time>
   <energy>
    <i name="e_fr_energy">   1274.79145898 </i>
    <i name="e_wo_entrp">   1274.83639052 </i>
    <i name="e_0_energy">   1274.81392475 </i>
   </energy>
  </scstep>
  <scstep>
   <time name="total">  472.90  472.82</time>
   <energy>
    <i name="e_fr_energy">    355.07849715 </i>
    <i name="e_wo_entrp">    355.12295088 </i>
    <i name="e_0_energy">    355.10072402 </i>
   </energy>
  </scstep>
  <scstep>
   <time name="total">  471.73  471.64</time>
   <energy>
    <i name="e_fr_energy">     39.43291776 </i>
    <i name="e_wo_entrp">     39.44465023 </i>
    <i name="e_0_energy">     39.43878400 </i>
   </energy>
  </scstep>
  <scstep>
   <time name="total">  470.57  470.49</time>
   <energy>
    <i name="e_fr_energy">   -391.33496722 </i>
    <i name="e_wo_entrp">   -391.32910997 </i>
    <i name="e_0_energy">   -391.33203860 </i>
   </energy>
  </scstep>
  <scstep>
   <time name="total">  470.34  470.26</time>
   <energy>
    <i name="e_fr_energy">   -734.31024258 </i>
    <i name="e_wo_entrp">   -734.30243333 </i>
    <i name="e_0_energy">   -734.30633795 </i>
   </energy>
  </scstep>
  <scstep>
   <time name="total">  470.18  470.10</time>
   <energy>
    <i name="e_fr_energy">   -868.53832694 </i>
    <i name="e_wo_entrp">   -868.53769407 </i>
    <i name="e_0_energy">   -868.53801050 </i>
   </energy>
  </scstep>
  <scstep>
   <time name="total">  470.29  470.20</time>
   <energy>
    <i name="e_fr_energy">   -930.91709907 </i>
    <i name="e_wo_entrp">   -930.90928234 </i>
    <i name="e_0_energy">   -930.91319070 </i>
   </energy>
  </scstep>
  <scstep>
   <time name="total">  470.02  469.93</time>
   <energy>
    <i name="e_fr_energy">   -958.96147940 </i>
    <i name="e_wo_entrp">   -958.96147540 </i>
    <i name="e_0_energy">   -958.96147740 </i>
   </energy>
  </scstep>
  <scstep>
   <time name="total">  470.42  470.34</time>
   <energy>
    <i name="e_fr_energy">   -971.58366745 </i>
    <i name="e_wo_entrp">   -971.58366745 </i>
    <i name="e_0_energy">   -971.58366745 </i>
   </energy>
  </scstep>
  <scstep>
   <time name="total">  470.21  470.13</time>
   <energy>
    <i name="e_fr_energy">   -977.40188206 </i>
    <i name="e_wo_entrp">   -977.40188206 </i>
    <i name="e_0_energy">   -977.40188206 </i>
   </energy>
  </scstep>
  <scstep>
   <time name="total">  469.97  469.89</time>
   <energy>
    <i name="e_fr_energy">   -979.92483346 </i>
    <i name="e_wo_entrp">   -979.92483346 </i>
    <i name="e_0_energy">   -979.92483346 </i>
   </energy>
  </scstep>
  <scstep>
   <time name="total">  470.61  470.52</time>
   <energy>
    <i name="e_fr_energy">   -981.28902964 </i>
    <i name="e_wo_entrp">   -981.28902964 </i>
    <i name="e_0_energy">   -981.28902964 </i>
   </energy>
  </scstep>
  <scstep>
   <time name="total">  469.77  469.69</time>
   <energy>
    <i name="e_fr_energy">   -981.92146441 </i>
    <i name="e_wo_entrp">   -981.92146441 </i>
    <i name="e_0_energy">   -981.92146441 </i>
   </energy>
  </scstep>
  <scstep>
   <time name="total">  470.72  470.63</time>
   <energy>
    <i name="e_fr_energy">   -982.22605546 </i>
    <i name="e_wo_entrp">   -982.22605546 </i>
    <