<?xml version="1.0" encoding="ISO-8859-1"?>
<modeling>
 <generator>
  <i name="program" type="string">vasp </i>
  <i name="version" type="string">6.4.2  </i>
  <i name="subversion" type="string">20Jul23 (build Nov 12 2023 22:16:35) complex                          parallel </i>
  <i name="platform" type="string">LinuxNV </i>
  <i name="date" type="string">2025 03 08 </i>
  <i name="time" type="string">11:27:37 </i>
 </generator>
 <incar>
  <i type="int" name="ISTART">     0</i>
  <i type="string" name="PREC">Normal</i>
  <i type="string" name="ALGO">All</i>
  <i type="int" name="ISPIN">     1</i>
  <i type="int" name="ICHARG">     0</i>
  <i type="int" name="NELM">   500</i>
  <i type="int" name="IBRION">    -1</i>
  <i name="EDIFF">      0.00001000</i>
  <i name="EDIFFG">     -0.00500000</i>
  <i type="int" name="NSW">     0</i>
  <i type="int" name="ISIF">     2</i>
  <i name="ENCUT">    450.00000000</i>
  <i name="NELECT">   1056.00000000</i>
  <i type="string" name="LREAL">Auto</i>
  <i type="logical" name="LPLANE"> T  </i>
  <i name="TIME">      0.40000000</i>
  <i type="int" name="ISMEAR">     0</i>
  <i name="SIGMA">      0.05000000</i>
  <i type="logical" name="LWAVE"> T  </i>
  <i type="logical" name="LCHARG"> T  </i>
  <i name="HFSCREEN">      0.18000000</i>
  <i type="logical" name="LHFCALC"> T  </i>
  <i type="int" name="LMAXFOCK">     4</i>
  <i name="AEXX">      0.35000000</i>
  <i type="string" name="PRECFOCK">Fast</i>
 </incar>
 <primitive_cell>
  <structure name="primitive_cell" >
   <crystal>
    <varray name="basis" >
     <v>       0.00000000      12.28047342       0.00000000 </v>
     <v>       9.14270205       0.00000000       0.00000000 </v>
     <v>       0.00000000      -2.76826177     -11.30069772 </v>
    </varray>
    <i name="volume">   1268.80515525 </i>
    <varray name="rec_basis" >
     <v>       0.00000000       0.08143009      -0.01994742 </v>
     <v>       0.10937686      -0.00000000       0.00000000 </v>
     <v>       0.00000000       0.00000000      -0.08849011 </v>
    </varray>
   </crystal>
   <varray name="positions" >
    <v>       0.65966986       0.99965793       0.15652540 </v>
    <v>       0.65947135       0.99994231       0.65695185 </v>
    <v>       0.65966986       0.33367541       0.15652540 </v>
    <v>       0.65947135       0.33339102       0.65695185 </v>
    <v>       0.65885139       0.66666667       0.15649641 </v>
    <v>       0.65888488       0.66666667       0.65725114 </v>
    <v>       0.84469705       0.16666667       0.34651624 </v>
    <v>       0.84172716       0.16666667       0.84421369 </v>
    <v>       0.84111341       0.49986379       0.34310889 </v>
    <v>       0.84150970       0.49970353       0.84377932 </v>
    <v>       0.84111341       0.83346955       0.34310889 </v>
    <v>       0.84150970       0.83362980       0.84377932 </v>
    <v>       0.59294382       0.16666667       0.39714238 </v>
    <v>       0.59084495       0.16666667       0.89756138 </v>
    <v>       0.59186707       0.49971957       0.39771793 </v>
    <v>       0.59014056       0.50000049       0.89704278 </v>
    <v>       0.59186707       0.83361376       0.39771793 </v>
    <v>       0.59014056       0.83333285       0.89704278 </v>
    <v>       0.90953937       0.00008695       0.10397696 </v>
    <v>       0.90810845       0.99999735       0.60041610 </v>
    <v>       0.90953937       0.33324639       0.10397696 </v>
    <v>       0.90810845       0.33333598       0.60041610 </v>
    <v>       0.90964917       0.66666667       0.10315864 </v>
    <v>       0.90856808       0.66666667       0.60151854 </v>
    <v>       0.15912355       0.16666667       0.15919826 </v>
    <v>       0.15817751       0.16666667       0.65218156 </v>
    <v>       0.16006257       0.49933097       0.15790456 </v>
    <v>       0.15899385       0.49941284       0.65578680 </v>
    <v>       0.16006257       0.83400237       0.15790456 </v>
    <v>       0.15899385       0.83392049       0.65578680 </v>
    <v>       0.34114102       0.99982311       0.34391490 </v>
    <v>       0.34002123       0.00024854       0.84273670 </v>
    <v>       0.34114102       0.33351023       0.34391490 </v>
    <v>       0.34002123       0.33308479       0.84273670 </v>
    <v>       0.34232030       0.66666667       0.34329393 </v>
    <v>       0.34038685       0.66666667       0.84322049 </v>
    <v>       0.08589534       0.00461576       0.39623162 </v>
    <v>       0.09167034       0.00038715       0.89812388 </v>
    <v>       0.08589534       0.32871757       0.39623162 </v>
    <v>       0.09167034       0.33294618       0.89812388 </v>
    <v>       0.09179779       0.66666667       0.39804030 </v>
    <v>       0.09157614       0.66666667       0.89834576 </v>
    <v>       0.40873966       0.16666667       0.10246954 </v>
    <v>       0.40919631       0.16666667       0.60274234 </v>
    <v>       0.40945451       0.49974186       0.10227216 </v>
    <v>       0.40906521       0.49991829       0.60292105 </v>
    <v>       0.40945451       0.83359147       0.10227216 </v>
    <v>       0.40906521       0.83341504       0.60292105 </v>
    <v>       0.99647756       0.16666667       0.12014493 </v>
    <v>       0.99563613       0.16666667       0.62991903 </v>
    <v>       0.99720220       0.50014101       0.12716020 </v>
    <v>       0.99612914       0.49996172       0.62718848 </v>
    <v>       0.99720220       0.83319232       0.12716020 </v>
    <v>       0.99612914       0.83337161       0.62718848 </v>
    <v>       0.50449613       0.00045897       0.37282473 </v>
    <v>       0.50305687       0.00030056       0.87239070 </v>
    <v>       0.50449613       0.33287436       0.37282473 </v>
    <v>       0.50305687       0.33303277       0.87239070 </v>
    <v>       0.50466493       0.66666667       0.37314377 </v>
    <v>       0.50287256       0.66666667       0.87195978 </v>
    <v>       0.67452915       0.16666667       0.28030889 </v>
    <v>       0.67293331       0.16666667       0.78099022 </v>
    <v>       0.67129814       0.50127366       0.27942104 </v>
    <v>       0.67271232       0.50014284       0.78097955 </v>
    <v>       0.67129814       0.83205967       0.27942104 </v>
    <v>       0.67271232       0.83319050       0.78097955 </v>
    <v>       0.82484952       0.99457355       0.21701350 </v>
    <v>       0.82756983       0.99963185       0.71956657 </v>
    <v>       0.82484952       0.33875979       0.21701350 </v>
    <v>       0.82756983       0.33370149       0.71956657 </v>
    <v>       0.82689440       0.66666667       0.21886107 </v>
    <v>       0.82757010       0.66666667       0.71958544 </v>
    <v>       0.82461258       0.99613296       0.44658061 </v>
    <v>       0.83262691       0.99965705       0.94628100 </v>
    <v>       0.82461258       0.33720037       0.44658061 </v>
    <v>       0.83262691       0.33367628       0.94628100 </v>
    <v>       0.83015472       0.66666667       0.44554510 </v>
    <v>       0.83309737       0.66666667       0.94611764 </v>
    <v>       0.66768525       0.16666667       0.05373473 </v>
    <v>       0.66698847       0.16666667       0.55482048 </v>
    <v>       0.66616681       0.50064743       0.05314186 </v>
    <v>       0.66648518       0.50049918       0.55499492 </v>
    <v>       0.66616681       0.83268590       0.05314186 </v>
    <v>       0.66648518       0.83283416       0.55499492 </v>
    <v>       0.49668067       0.00042861       0.12689283 </v>
    <v>       0.49667089       0.99999942       0.62843033 </v>
    <v>       0.49668067       0.33290472       0.12689283 </v>
    <v>       0.49667089       0.33333392       0.62843033 </v>
    <v>       0.49612460       0.66666667       0.12633598 </v>
    <v>       0.49636781       0.66666667       0.62866777 </v>
    <v>       0.00390749       0.16666667       0.87223904 </v>
    <v>       0.00339818       0.50215896       0.37368828 </v>
    <v>       0.00416937       0.49993292       0.87307044 </v>
    <v>       0.00339818       0.83117437       0.37368828 </v>
    <v>       0.00416937       0.83340041       0.87307044 </v>
    <v>       0.17441018       0.99762295       0.28085179 </v>
    <v>       0.17245188       0.00004744       0.78030698 </v>
    <v>       0.17441018       0.33571038       0.28085179 </v>
    <v>       0.17245188       0.33328590       0.78030698 </v>
    <v>       0.17394229       0.66666667       0.28117686 </v>
    <v>       0.17242158       0.66666667       0.78053069 </v>
    <v>       0.32832678       0.16666667       0.22005698 </v>
    <v>       0.32729745       0.16666667       0.71941223 </v>
    <v>       0.32907498       0.50064153       0.21982069 </v>
    <v>       0.32802588       0.50030584       0.72030684 </v>
    <v>       0.32907498       0.83269180       0.21982069 </v>
    <v>       0.32802588       0.83302749       0.72030684 </v>
    <v>       0.33386118       0.16666667       0.44617638 </v>
    <v>       0.33220465       0.16666667       0.94576399 </v>
    <v>       0.33447199       0.50057613       0.44614619 </v>
    <v>       0.33219228       0.49981417       0.94584838 </v>
    <v>       0.33447199       0.83275720       0.44614619 </v>
    <v>       0.33219228       0.83351916       0.94584838 </v>
    <v>       0.16904370       0.00028269       0.05452935 </v>
    <v>       0.17029736       0.99762766       0.55400962 </v>
    <v>       0.16904370       0.33305064       0.05452935 </v>
    <v>       0.17029736       0.33570567       0.55400962 </v>
    <v>       0.16849507       0.66666667       0.05493625 </v>
    <v>       0.16922284       0.66666667       0.55479615 </v>
    <v>       0.99920600       0.16666667       0.36971450 </v>
   </varray>
  </structure>
  <varray name="primitive_index" >
   <v type="int" >        1 </v>
   <v type="int" >        2 </v>
   <v type="int" >        3 </v>
   <v type="int" >        4 </v>
   <v type="int" >        5 </v>
   <v type="int" >        6 </v>
   <v type="int" >        7 </v>
   <v type="int" >        8 </v>
   <v type="int" >        9 </v>
   <v type="int" >       10 </v>
   <v type="int" >       11 </v>
   <v type="int" >       12 </v>
   <v type="int" >       13 </v>
   <v type="int" >       14 </v>
   <v type="int" >       15 </v>
   <v type="int" >       16 </v>
   <v type="int" >       17 </v>
   <v type="int" >       18 </v>
   <v type="int" >       19 </v>
   <v type="int" >       20 </v>
   <v type="int" >       21 </v>
   <v type="int" >       22 </v>
   <v type="int" >       23 </v>
   <v type="int" >       24 </v>
   <v type="int" >       25 </v>
   <v type="int" >       26 </v>
   <v type="int" >       27 </v>
   <v type="int" >       28 </v>
   <v type="int" >       29 </v>
   <v type="int" >       30 </v>
   <v type="int" >       31 </v>
   <v type="int" >       32 </v>
   <v type="int" >       33 </v>
   <v type="int" >       34 </v>
   <v type="int" >       35 </v>
   <v type="int" >       36 </v>
   <v type="int" >       37 </v>
   <v type="int" >       38 </v>
   <v type="int" >       39 </v>
   <v type="int" >       40 </v>
   <v type="int" >       41 </v>
   <v type="int" >       42 </v>
   <v type="int" >       43 </v>
   <v type="int" >       44 </v>
   <v type="int" >       45 </v>
   <v type="int" >       46 </v>
   <v type="int" >       47 </v>
   <v type="int" >       48 </v>
   <v type="int" >       49 </v>
   <v type="int" >       50 </v>
   <v type="int" >       51 </v>
   <v type="int" >       52 </v>
   <v type="int" >       53 </v>
   <v type="int" >       54 </v>
   <v type="int" >       55 </v>
   <v type="int" >       56 </v>
   <v type="int" >       57 </v>
   <v type="int" >       58 </v>
   <v type="int" >       59 </v>
   <v type="int" >       60 </v>
   <v type="int" >       61 </v>
   <v type="int" >       62 </v>
   <v type="int" >       63 </v>
   <v type="int" >       64 </v>
   <v type="int" >       65 </v>
   <v type="int" >       66 </v>
   <v type="int" >       67 </v>
   <v type="int" >       68 </v>
   <v type="int" >       69 </v>
   <v type="int" >       70 </v>
   <v type="int" >       71 </v>
   <v type="int" >       72 </v>
   <v type="int" >       73 </v>
   <v type="int" >       74 </v>
   <v type="int" >       75 </v>
   <v type="int" >       76 </v>
   <v type="int" >       77 </v>
   <v type="int" >       78 </v>
   <v type="int" >       79 </v>
   <v type="int" >       80 </v>
   <v type="int" >       81 </v>
   <v type="int" >       82 </v>
   <v type="int" >       83 </v>
   <v type="int" >       84 </v>
   <v type="int" >       85 </v>
   <v type="int" >       86 </v>
   <v type="int" >       87 </v>
   <v type="int" >       88 </v>
   <v type="int" >       89 </v>
   <v type="int" >       90 </v>
   <v type="int" >       91 </v>
   <v type="int" >       92 </v>
   <v type="int" >       93 </v>
   <v type="int" >       94 </v>
   <v type="int" >       95 </v>
   <v type="int" >       96 </v>
   <v type="int" >       97 </v>
   <v type="int" >       98 </v>
   <v type="int" >       99 </v>
   <v type="int" >      100 </v>
   <v type="int" >      101 </v>
   <v type="int" >      102 </v>
   <v type="int" >      103 </v>
   <v type="int" >      104 </v>
   <v type="int" >      105 </v>
   <v type="int" >      106 </v>
   <v type="int" >      107 </v>
   <v type="int" >      108 </v>
   <v type="int" >      109 </v>
   <v type="int" >      110 </v>
   <v type="int" >      111 </v>
   <v type="int" >      112 </v>
   <v type="int" >      113 </v>
   <v type="int" >      114 </v>
   <v type="int" >      115 </v>
   <v type="int" >      116 </v>
   <v type="int" >      117 </v>
   <v type="int" >      118 </v>
   <v type="int" >      119 </v>
   <v type="int" >      120 </v>
  </varray>
 </primitive_cell>
 <kpoints>
  <generation param="Gamma">
   <v type="int" name="divisions">       2        2        2 </v>
   <v name="usershift">      0.00000000       0.00000000       0.00000000 </v>
   <v name="genvec1">      0.50000000       0.00000000       0.00000000 </v>
   <v name="genvec2">      0.00000000       0.50000000       0.00000000 </v>
   <v name="genvec3">      0.00000000       0.00000000       0.50000000 </v>
   <v name="shift">      0.00000000       0.00000000       0.00000000 </v>
  </generation>
  <varray name="kpointlist" >
   <v>       0.00000000       0.00000000       0.00000000 </v>
   <v>       0.50000000       0.00000000       0.00000000 </v>
   <v>       0.00000000       0.50000000       0.00000000 </v>
   <v>       0.50000000       0.50000000       0.00000000 </v>
   <v>       0.00000000       0.00000000       0.50000000 </v>
   <v>       0.50000000       0.00000000       0.50000000 </v>
   <v>       0.00000000       0.50000000       0.50000000 </v>
   <v>       0.50000000       0.50000000       0.50000000 </v>
  </varray>
  <varray name="weights" >
   <v>       0.12500000 </v>
   <v>       0.12500000 </v>
   <v>       0.12500000 </v>
   <v>       0.12500000 </v>
   <v>       0.12500000 </v>
   <v>       0.12500000 </v>
   <v>       0.12500000 </v>
   <v>       0.12500000 </v>
  </varray>
 </kpoints>
 <parameters>
  <separator name="general" >
   <i type="string" name="SYSTEM">unknown system</i>
   <i type="logical" name="LCOMPAT"> F  </i>
  </separator>
  <separator name="electronic" >
   <i type="string" name="PREC">normal</i>
   <i name="ENMAX">    450.00000000</i>
   <i name="ENAUG">    627.11200000</i>
   <i name="EDIFF">      0.00001000</i>
   <i type="int" name="IALGO">    58</i>
   <i type="int" name="IWAVPR">    10</i>
   <i type="int" name="NBANDS">   633</i>
   <i type="int" name="NBANDSLOW">    -1</i>
   <i type="int" name="NBANDSHIGH">    -1</i>
   <i name="NELECT">   1056.00000000</i>
   <i type="int" name="TURBO">     0</i>
   <i type="int" name="IRESTART">     0</i>
   <i type="int" name="NREBOOT">     0</i>
   <i type="int" name="NMIN">     0</i>
   <i name="EREF">      0.00000000</i>
   <separator name="electronic smearing" >
    <i type="int" name="ISMEAR">     0</i>
    <i name="SIGMA">      0.05000000</i>
    <i name="KSPACING">      0.50000000</i>
    <i type="logical" name="KGAMMA"> T  </i>
    <i type="logical" name="KBLOWUP"> T  </i>
   </separator>
   <separator name="electronic projectors" >
    <i type="logical" name="LREAL"> T  </i>
    <v name="ROPT">     -0.00050000     -0.00050000     -0.00050000</v>
    <i type="int" name="LMAXPAW">  -100</i>
    <i type="int" name="LMAXMIX">     2</i>
    <i type="logical" name="NLSPLINE"> F  </i>
   </separator>
   <separator name="electronic startup" >
    <i type="int" name="ISTART">     0</i>
    <i type="int" name="ICHARG">     0</i>
    <i type="int" name="INIWAV">     1</i>
   </separator>
   <separator name="electronic spin" >
    <i type="int" name="ISPIN">     1</i>
    <i type="logical" name="LNONCOLLINEAR"> F  </i>
    <v name="MAGMOM">      1.00000000      1.00000000      1.00000000      1.00000000      1.00000000      1.00000000      1.00000000      1.00000000      1.00000000      1.00000000      1.00000000      1.00000000      1.00000000      1.00000000      1.00000000      1.00000000      1.00000000      1.00000000      1.00000000      1.00000000
      1.00000000      1.00000000      1.00000000      1.00000000      1.00000000      1.00000000      1.00000000      1.00000000      1.00000000      1.00000000      1.00000000      1.00000000      1.00000000      1.00000000      1.00000000      1.00000000      1.00000000      1.00000000      1.00000000      1.00000000
      1.00000000      1.00000000      1.00000000      1.00000000      1.00000000      1.00000000      1.00000000      1.00000000      1.00000000      1.00000000      1.00000000      1.00000000      1.00000000      1.00000000      1.00000000      1.00000000      1.00000000      1.00000000      1.00000000      1.00000000
      1.00000000      1.00000000      1.00000000      1.00000000      1.00000000      1.00000000      1.00000000      1.00000000      1.00000000      1.00000000      1.00000000      1.00000000      1.00000000      1.00000000      1.00000000      1.00000000      1.00000000      1.00000000      1.00000000      1.00000000
      1.00000000      1.00000000      1.00000000      1.00000000      1.00000000      1.00000000      1.00000000      1.00000000      1.00000000      1.00000000      1.00000000      1.00000000      1.00000000      1.00000000      1.00000000      1.00000000      1.00000000      1.00000000      1.00000000      1.00000000
      1.00000000      1.00000000      1.00000000      1.00000000      1.00000000      1.00000000      1.00000000      1.00000000      1.00000000      1.00000000      1.00000000      1.00000000      1.00000000      1.00000000      1.00000000      1.00000000      1.00000000      1.00000000      1.00000000      1.00000000
</v>
    <i name="NUPDOWN">     -1.00000000</i>
    <i type="logical" name="LSORBIT"> F  </i>
    <v name="SAXIS">      0.00000000      0.00000000      1.00000000</v>
    <i type="logical" name="LSPIRAL"> F  </i>
    <v name="QSPIRAL">      0.00000000      0.00000000      0.00000000</v>
    <i type="logical" name="LZEROZ"> F  </i>
   </separator>
   <separator name="electronic exchange-correlation" >
    <i type="logical" name="LASPH"> F  </i>
    <i type="logical" name="LMETAGGA"> F  </i>
   </separator>
   <separator name="electronic convergence" >
    <i type="int" name="NELM">   500</i>
    <i type="int" name="NELMDL">    -5</i>
    <i type="int" name="NELMIN">     2</i>
    <i name="ENINI">    450.00000000</i>
    <separator name="electronic convergence detail" >
     <i type="logical" name="LDIAG"> T  </i>
     <i type="logical" name="LSUBROT"> F  </i>
     <i name="WEIMIN">      0.00000000</i>
     <i name="EBREAK">      0.00000000</i>
     <i name="DEPER">      0.30000000</i>
     <i type="int" name="NRMM">     4</i>
     <i name="TIME">      0.40000000</i>
    </separator>
   </separator>
   <separator name="electronic mixer" >
    <i name="AMIX">      0.40000000</i>
    <i name="BMIX">      1.00000000</i>
    <i name="AMIN">      0.10000000</i>
    <i name="AMIX_MAG">      1.60000000</i>
    <i name="BMIX_MAG">      1.00000000</i>
    <separator name="electronic mixer details" >
     <i type="int" name="IMIX">     4</i>
     <i type="logical" name="MIXFIRST"> F  </i>
     <i type="int" name="MAXMIX">   -45</i>
     <i name="WC">    100.00000000</i>
     <i type="int" name="INIMIX">     1</i>
     <i type="int" name="MIXPRE">     1</i>
     <i type="int" name="MREMOVE">     5</i>
    </separator>
   </separator>
   <separator name="electronic dipolcorrection" >
    <i type="logical" name="LDIPOL"> F  </i>
    <i type="logical" name="LMONO"> F  </i>
    <i type="int" name="IDIPOL">     0</i>
    <i name="EPSILON">      1.00000000</i>
    <v name="DIPOL">   -100.00000000   -100.00000000   -100.00000000</v>
    <i name="EFIELD">      0.00000000</i>
   </separator>
  </separator>
  <separator name="grids" >
   <i type="int" name="NGX">    64</i>
   <i type="int" name="NGY">    48</i>
   <i type="int" name="NGZ">    60</i>
   <i type="int" name="NGXF">   128</i>
   <i type="int" name="NGYF">    96</i>
   <i type="int" name="NGZF">   120</i>
   <i type="logical" name="ADDGRID"> F  </i>
  </separator>
  <separator name="ionic" >
   <i type="int" name="NSW">     0</i>
   <i type="int" name="IBRION">    -1</i>
   <i type="int" name="MDALGO">     0</i>
   <i type="int" name="ISIF">     2</i>
   <i name="PSTRESS">      0.00000000</i>
   <i name="EDIFFG">     -0.00500000</i>
   <i type="int" name="NFREE">     0</i>
   <i name="POTIM">      0.50000000</i>
   <i name="SMASS">     -3.00000000</i>
   <i name="SCALEE">      1.00000000</i>
  </separator>
  <separator name="ionic md" >
   <i name="TEBEG">      0.00010000</i>
   <i name="TEEND">      0.00010000</i>
   <i type="int" name="NBLOCK">     1</i>
   <i type="int" name="KBLOCK">     1</i>
   <i type="int" name="NPACO">   256</i>
   <i name="APACO">     10.00000000</i>
  </separator>
  <separator name="symmetry" >
   <i type="int" name="ISYM">     3</i>
   <i name="SYMPREC">      0.00001000</i>
  </separator>
  <separator name="dos" >
   <i type="int" name="LORBIT">     0</i>
   <v name="RWIGS">     -1.00000000     -1.00000000     -1.00000000</v>
   <i type="int" name="NEDOS">   301</i>
   <i name="EMIN">     10.00000000</i>
   <i name="EMAX">    -10.00000000</i>
   <i name="EFERMI">      0.00000000</i>
  </separator>
  <separator name="writing" >
   <i type="int" name="NWRITE">     2</i>
   <i type="logical" name="LWAVE"> T  </i>
   <i type="logical" name="LDOWNSAMPLE"> F  </i>
   <i type="logical" name="LCHARG"> T  </i>
   <i type="logical" name="LPARD"> F  </i>
   <i type="logical" name="LVTOT"> F  </i>
   <i type="logical" name="LVHAR"> F  </i>
   <i type="logical" name="LELF"> F  </i>
   <i type="logical" name="LOPTICS"> F  </i>
   <v name="STM">      0.00000000      0.00000000      0.00000000      0.00000000      0.00000000      0.00000000      0.00000000</v>
  </separator>
  <separator name="performance" >
   <i type="int" name="NPAR">     1</i>
   <i type="int" name="NSIM">     4</i>
   <i type="int" name="NBLK">    -1</i>
   <i type="logical" name="LPLANE"> T  </i>
   <i type="logical" name="LSCALAPACK"> T  </i>
   <i type="logical" name="LSCAAWARE"> F  </i>
   <i type="logical" name="LSCALU"> F  </i>
   <i type="logical" name="LASYNC"> F  </i>
   <i type="logical" name="LORBITALREAL"> F  </i>
  </separator>
  <separator name="miscellaneous" >
   <i type="int" name="IDIOT">     3</i>
   <i type="int" name="PHON_NSTRUCT">    -1</i>
   <i type="logical" name="LMUSIC"> F  </i>
   <v name="POMASS">     69.72300000     16.00000000     14.00100000</v>
   <v name="DARWINR">      0.00000000      0.00000000      0.00000000</v>
   <v name="DARWINV">      1.00000000      1.00000000      1.00000000</v>
   <i type="logical" name="LCORR"> T  </i>
  </separator>
  <i type="logical" name="GGA_COMPAT"> T  </i>
  <i type="logical" name="LBERRY"> F  </i>
  <i type="int" name="ICORELEVEL">     0</i>
  <i type="logical" name="LDAU"> F  </i>
  <i type="int" name="I_CONSTRAINED_M">     0</i>
  <separator name="electronic exchange-correlation" >
   <i type="string" name="GGA">--</i>
   <i type="int" name="VOSKOWN">     0</i>
   <i type="logical" name="LHFCALC"> T  </i>
   <i type="string" name="PRECFOCK">fast</i>
   <i type="logical" name="LSYMGRAD"> F  </i>
   <i type="logical" name="LHFONE"> F  </i>
   <i type="logical" name="LRHFCALC"> F  </i>
   <i type="logical" name="LTHOMAS"> F  </i>
   <i type="logical" name="LMODELHF"> F  </i>
   <i type="logical" name="LFOCKACE"> T  </i>
   <i name="ENCUT4O">     -1.00000000</i>
   <i type="int" name="EXXOEP">     0</i>
   <i type="int" name="FOURORBIT">     0</i>
   <i name="AEXX">      0.35000000</i>
   <i name="HFALPHA">     -1.00000000</i>
   <i name="MCALPHA">      0.00000000</i>
   <i name="ALDAX">      0.65000000</i>
   <i name="AGGAX">      0.65000000</i>
   <i name="ALDAC">      1.00000000</i>
   <i name="AGGAC">      1.00000000</i>
   <i type="int" name="NKREDX">     1</i>
   <i type="int" name="NKREDY">     1</i>
   <i type="int" name="NKREDZ">     1</i>
   <i type="logical" name="SHIFTRED"> F  </i>
   <i type="logical" name="ODDONLY"> F  </i>
   <i type="logical" name="EVENONLY"> F  </i>
   <i type="int" name="LMAXFOCK">     4</i>
   <i type="int" name="NMAXFOCKAE">     1</i>
   <i type="logical" name="LFOCKAEDFT"> F  </i>
   <i name="HFSCREEN">      0.18000000</i>
   <i name="HFSCREENC">      0.18000000</i>
   <i type="int" name="NBANDSGWLOW">     1</i>
  </separator>
  <separator name="vdW DFT" >
   <i type="logical" name="LUSE_VDW"> F  </i>
   <i type="int" name="IVDW_NL">     1</i>
   <i type="logical" name="LSPIN_VDW"> F  </i>
   <i name="Zab_VDW">     -0.84910000</i>
   <i name="PARAM1">      0.12340000</i>
   <i name="PARAM2">      1.00000000</i>
   <i name="PARAM3">      0.00000000</i>
  </separator>
  <separator name="model GW" >
   <i type="int" name="MODEL_GW">     0</i>
   <i name="MODEL_EPS0">      6.34402578</i>
   <i name="MODEL_ALPHA">      1.00000000</i>
  </separator>
  <separator name="linear response parameters" >
   <i type="logical" name="LEPSILON"> F  </i>
   <i type="logical" name="LRPA"> F  </i>
   <i type="logical" name="LNABLA"> F  </i>
   <i type="logical" name="LVEL"> F  </i>
   <i name="CSHIFT">      0.10000000</i>
   <i name="OMEGAMAX">     -1.00000000</i>
   <i name="DEG_THRESHOLD">      0.00200000</i>
   <i name="RTIME">     -0.10000000</i>
   <i name="WPLASMAI">      0.00000000</i>
   <v name="DFIELD">      0.00000000      0.00000000      0.00000000</v>
   <v name="WPLASMA">      0.00000000      0.00000000      0.00000000      0.00000000      0.00000000      0.00000000      0.00000000      0.00000000      0.00000000</v>
  </separator>
  <separator name="orbital magnetization" >
   <i type="logical" name="NUCIND"> F  </i>
   <v name="MAGPOS">      0.00000000      0.00000000      0.00000000</v>
   <i type="logical" name="LNICSALL"> T  </i>
   <i type="logical" name="ORBITALMAG"> F  </i>
   <i type="logical" name="LMAGBLOCH"> F  </i>
   <i type="logical" name="LCHIMAG"> F  </i>
   <i type="logical" name="LGAUGE"> T  </i>
   <i type="int" name="MAGATOM">     0</i>
   <v name="MAGDIPOL">      0.00000000      0.00000000      0.00000000</v>
   <v name="AVECCONST">      0.00000000      0.00000000      0.00000000</v>
  </separator>
  <separator name="response functions" >
   <i type="logical" name="LALL_IN_ONE"> F  </i>
   <i type="int" name="IALL_IN_ONE">    -1</i>
   <i type="int" name="NBANDS_WAVE">    -1</i>
   <i type="logical" name="LFINITE_TEMPERATURE"> F  </i>
   <i type="logical" name="LADDER"> F  </i>
   <i type="logical" name="LRPAFORCE"> F  </i>
   <i type="logical" name="LFXC"> F  </i>
   <i type="logical" name="LHARTREE"> T  </i>
   <i type="int" name="IBSE">     0</i>
   <v type="int" name="KPOINT">    -1     0     0     0</v>
   <i type="logical" name="LTCTC"> F  </i>
   <i type="logical" name="LTCTE"> F  </i>
   <i type="logical" name="LTETE"> F  </i>
   <i type="logical" name="LTRIPLET"> F  </i>
   <i type="logical" name="LFXCEPS"> F  </i>
   <i type="logical" name="LFXHEG"> F  </i>
   <i type="int" name="NATURALO">     2</i>
   <i type="logical" name="LHOLEGF"> F  </i>
   <i type="logical" name="L2ORDER"> F  </i>
   <i type="logical" name="LDMP1"> F  </i>
   <i type="logical" name="LMP2LT"> F  </i>
   <i type="logical" name="LSMP2LT"> F  </i>
   <i type="logical" name="LGWLF"> F  </i>
   <i name="ENCUTGW">     -1.60000002</i>
   <i name="ENCUTGWSOFT">     -1.60000002</i>
   <i name="ENCUTLF">     -1.00000000</i>
   <i type="logical" name="LESF_SPLINES"> F  </i>
   <i type="int" name="LMAXMP2">    -1</i>
   <i name="SCISSOR">      0.00000000</i>
   <i type="int" name="NOMEGA">     0</i>
   <i type="int" name="NOMEGAR">     0</i>
   <i type="int" name="NBANDSGW">    -1</i>
   <i type="int" name="NBANDSO">    -1</i>
   <i type="int" name="NBANDSV">    -1</i>
   <i type="int" name="NELMGW">     1</i>
   <i type="int" name="NELMHF">     1</i>
   <i type="int" name="DIM">     3</i>
   <i type="int" name="IESPILON">     4</i>
   <i type="int" name="ANTIRES">     0</i>
   <i name="OMEGAMAX">    -30.00000000</i>
   <i name="OMEGAMIN">    -30.00000000</i>
   <i name="OMEGATL">   -200.00000000</i>
   <i type="int" name="OMEGAGRID">     0</i>
   <i name="CSHIFT">     -0.10000000</i>
   <i type="logical" name="LSELFENERGY"> F  </i>
   <i type="logical" name="LSPECTRAL"> F  </i>
   <i type="logical" name="LSPECTRALGW"> F  </i>
   <i type="logical" name="LSINGLES"> F  </i>
   <i type="logical" name="LFERMIGW"> F  </i>
   <i type="logical" name="ODDONLYGW"> F  </i>
   <i type="logical" name="EVENONLYGW"> F  </i>
   <i type="int" name="NKREDLFX">     1</i>
   <i type="int" name="NKREDLFY">     1</i>
   <i type="int" name="NKREDLFZ">     1</i>
   <i type="int" name="MAXMEM">  2800</i>
   <i type="int" name="TELESCOPE">     0</i>
   <i type="int" name="NTAUPAR">    -1</i>
   <i type="int" name="NOMEGAPAR">    -1</i>
   <i name="DAMP_NEWTON">      0.80000001</i>
   <i name="LAMBDA">      1.00000000</i>
  </separator>
  <separator name="External order field" >
   <i name="OFIELD_KAPPA">      0.00000000</i>
   <v name="OFIELD_K">      0.00000000      0.00000000      0.00000000</v>
   <i name="OFIELD_Q6_NEAR">      0.00000000</i>
   <i name="OFIELD_Q6_FAR">      0.00000000</i>
   <i name="OFIELD_A">      0.00000000</i>
  </separator>
  <separator name="optional k-points parameters" >
   <i type="int" name="KPOINTS_OPT_MODE">     1</i>
   <i type="logical" name="LKPOINTS_OPT"> F  </i>
  </separator>
 </parameters>
 <atominfo>
  <atoms>     120 </atoms>
  <types>       3 </types>
  <array name="atoms" >
   <dimension dim="1">ion</dimension>
   <field type="string">element</field>
   <field type="int">atomtype</field>
   <set>
    <rc><c>Ga</c><c>   1</c></rc>
    <rc><c>Ga</c><c>   1</c></rc>
    <rc><c>Ga</c><c>   1</c></rc>
    <rc><c>Ga</c><c>   1</c></rc>
    <rc><c>Ga</c><c>   1</c></rc>
    <rc><c>Ga</c><c>   1</c></rc>
    <rc><c>Ga</c><c>   1</c></rc>
    <rc><c>Ga</c><c>   1</c></rc>
    <rc><c>Ga</c><c>   1</c></rc>
    <rc><c>Ga</c><c>   1</c></rc>
    <rc><c>Ga</c><c>   1</c></rc>
    <rc><c>Ga</c><c>   1</c></rc>
    <rc><c>Ga</c><c>   1</c></rc>
    <rc><c>Ga</c><c>   1</c></rc>
    <rc><c>Ga</c><c>   1</c></rc>
    <rc><c>Ga</c><c>   1</c></rc>
    <rc><c>Ga</c><c>   1</c></rc>
    <rc><c>Ga</c><c>   1</c></rc>
    <rc><c>Ga</c><c>   1</c></rc>
    <rc><c>Ga</c><c>   1</c></rc>
    <rc><c>Ga</c><c>   1</c></rc>
    <rc><c>Ga</c><c>   1</c></rc>
    <rc><c>Ga</c><c>   1</c></rc>
    <rc><c>Ga</c><c>   1</c></rc>
    <rc><c>Ga</c><c>   1</c></rc>
    <rc><c>Ga</c><c>   1</c></rc>
    <rc><c>Ga</c><c>   1</c></rc>
    <rc><c>Ga</c><c>   1</c></rc>
    <rc><c>Ga</c><c>   1</c></rc>
    <rc><c>Ga</c><c>   1</c></rc>
    <rc><c>Ga</c><c>   1</c></rc>
    <rc><c>Ga</c><c>   1</c></rc>
    <rc><c>Ga</c><c>   1</c></rc>
    <rc><c>Ga</c><c>   1</c></rc>
    <rc><c>Ga</c><c>   1</c></rc>
    <rc><c>Ga</c><c>   1</c></rc>
    <rc><c>Ga</c><c>   1</c></rc>
    <rc><c>Ga</c><c>   1</c></rc>
    <rc><c>Ga</c><c>   1</c></rc>
    <rc><c>Ga</c><c>   1</c></rc>
    <rc><c>Ga</c><c>   1</c></rc>
    <rc><c>Ga</c><c>   1</c></rc>
    <rc><c>Ga</c><c>   1</c></rc>
    <rc><c>Ga</c><c>   1</c></rc>
    <rc><c>Ga</c><c>   1</c></rc>
    <rc><c>Ga</c><c>   1</c></rc>
    <rc><c>Ga</c><c>   1</c></rc>
    <rc><c>Ga</c><c>   1</c></rc>
    <rc><c>O </c><c>   2</c></rc>
    <rc><c>O </c><c>   2</c></rc>
    <rc><c>O </c><c>   2</c></rc>
    <rc><c>O </c><c>   2</c></rc>
    <rc><c>O </c><c>   2</c></rc>
    <rc><c>O </c><c>   2</c></rc>
    <rc><c>O </c><c>   2</c></rc>
    <rc><c>O </c><c>   2</c></rc>
    <rc><c>O </c><c>   2</c></rc>
    <rc><c>O </c><c>   2</c></rc>
    <rc><c>O </c><c>   2</c></rc>
    <rc><c>O </c><c>   2</c></rc>
    <rc><c>O </c><c>   2</c></rc>
    <rc><c>O </c><c>   2</c></rc>
    <rc><c>O </c><c>   2</c></rc>
    <rc><c>O </c><c>   2</c></rc>
    <rc><c>O </c><c>   2</c></rc>
    <rc><c>O </c><c>   2</c></rc>
    <rc><c>O </c><c>   2</c></rc>
    <rc><c>O </c><c>   2</c></rc>
    <rc><c>O </c><c>   2</c></rc>
    <rc><c>O </c><c>   2</c></rc>
    <rc><c>O </c><c>   2</c></rc>
    <rc><c>O </c><c>   2</c></rc>
    <rc><c>O </c><c>   2</c></rc>
    <rc><c>O </c><c>   2</c></rc>
    <rc><c>O </c><c>   2</c></rc>
    <rc><c>O </c><c>   2</c></rc>
    <rc><c>O </c><c>   2</c></rc>
    <rc><c>O </c><c>   2</c></rc>
    <rc><c>O </c><c>   2</c></rc>
    <rc><c>O </c><c>   2</c></rc>
    <rc><c>O </c><c>   2</c></rc>
    <rc><c>O </c><c>   2</c></rc>
    <rc><c>O </c><c>   2</c></rc>
    <rc><c>O </c><c>   2</c></rc>
    <rc><c>O </c><c>   2</c></rc>
    <rc><c>O </c><c>   2</c></rc>
    <rc><c>O </c><c>   2</c></rc>
    <rc><c>O </c><c>   2</c></rc>
    <rc><c>O </c><c>   2</c></rc>
    <rc><c>O </c><c>   2</c></rc>
    <rc><c>O </c><c>   2</c></rc>
    <rc><c>O </c><c>   2</c></rc>
    <rc><c>O </c><c>   2</c></rc>
    <rc><c>O </c><c>   2</c></rc>
    <rc><c>O </c><c>   2</c></rc>
    <rc><c>O </c><c>   2</c></rc>
    <rc><c>O </c><c>   2</c></rc>
    <rc><c>O </c><c>   2</c></rc>
    <rc><c>O </c><c>   2</c></rc>
    <rc><c>O </c><c>   2</c></rc>
    <rc><c>O </c><c>   2</c></rc>
    <rc><c>O </c><c>   2</c></rc>
    <rc><c>O </c><c>   2</c></rc>
    <rc><c>O </c><c>   2</c></rc>
    <rc><c>O </c><c>   2</c></rc>
    <rc><c>O </c><c>   2</c></rc>
    <rc><c>O </c><c>   2</c></rc>
    <rc><c>O </c><c>   2</c></rc>
    <rc><c>O </c><c>   2</c></rc>
    <rc><c>O </c><c>   2</c></rc>
    <rc><c>O </c><c>   2</c></rc>
    <rc><c>O </c><c>   2</c></rc>
    <rc><c>O </c><c>   2</c></rc>
    <rc><c>O </c><c>   2</c></rc>
    <rc><c>O </c><c>   2</c></rc>
    <rc><c>O </c><c>   2</c></rc>
    <rc><c>O </c><c>   2</c></rc>
    <rc><c>O </c><c>   2</c></rc>
    <rc><c>O </c><c>   2</c></rc>
    <rc><c>N </c><c>   3</c></rc>
   </set>
  </array>
  <array name="atomtypes" >
   <dimension dim="1">type</dimension>
   <field type="int">atomspertype</field>
   <field type="string">element</field>
   <field>mass</field>
   <field>valence</field>
   <field type="string">pseudopotential</field>
   <set>
    <rc><c>  48</c><c>Ga</c><c>     69.72300000</c><c>     13.00000000</c><c>  PAW_PBE Ga_d 06Jul2010                </c></rc>
    <rc><c>  71</c><c>O </c><c>     16.00000000</c><c>      6.00000000</c><c>  PAW_PBE O 08Apr2002                   </c></rc>
    <rc><c>   1</c><c>N </c><c>     14.00100000</c><c>      5.00000000</c><c>  PAW_PBE N 08Apr2002                   </c></rc>
   </set>
  </array>
 </atominfo>
 <structure name="initialpos" >
  <crystal>
   <varray name="basis" >
    <v>       0.00000000      12.28047342       0.00000000 </v>
    <v>       9.14270205       0.00000000       0.00000000 </v>
    <v>       0.00000000      -2.76826177     -11.30069772 </v>
   </varray>
   <i name="volume">   1268.80515525 </i>
   <varray name="rec_basis" >
    <v>       0.00000000       0.08143009      -0.01994742 </v>
    <v>       0.10937686      -0.00000000       0.00000000 </v>
    <v>       0.00000000       0.00000000      -0.08849011 </v>
   </varray>
  </crystal>
  <varray name="positions" >
   <v>       0.65966986       0.99965793       0.15652540 </v>
   <v>       0.65947135       0.99994231       0.65695185 </v>
   <v>       0.65966986       0.33367541       0.15652540 </v>
   <v>       0.65947135       0.33339102       0.65695185 </v>
   <v>       0.65885139       0.66666667       0.15649641 </v>
   <v>       0.65888488       0.66666667       0.65725114 </v>
   <v>       0.84469705       0.16666667       0.34651624 </v>
   <v>       0.84172716       0.16666667       0.84421369 </v>
   <v>       0.84111341       0.49986379       0.34310889 </v>
   <v>       0.84150970       0.49970353       0.84377932 </v>
   <v>       0.84111341       0.83346955       0.34310889 </v>
   <v>       0.84150970       0.83362980       0.84377932 </v>
   <v>       0.59294382       0.16666667       0.39714238 </v>
   <v>       0.59084495       0.16666667       0.89756138 </v>
   <v>       0.59186707       0.49971957       0.39771793 </v>
   <v>       0.59014056       0.50000049       0.89704278 </v>
   <v>       0.59186707       0.83361376       0.39771793 </v>
   <v>       0.59014056       0.83333285       0.89704278 </v>
   <v>       0.90953937       0.00008695       0.10397696 </v>
   <v>       0.90810845       0.99999735       0.60041610 </v>
   <v>       0.90953937       0.33324639       0.10397696 </v>
   <v>       0.90810845       0.33333598       0.60041610 </v>
   <v>       0.90964917       0.66666667       0.10315864 </v>
   <v>       0.90856808       0.66666667       0.60151854 </v>
   <v>       0.15912355       0.16666667       0.15919826 </v>
   <v>       0.15817751       0.16666667       0.65218156 </v>
   <v>       0.16006257       0.49933097       0.15790456 </v>
   <v>       0.15899385       0.49941284       0.65578680 </v>
   <v>       0.16006257       0.83400237       0.15790456 </v>
   <v>       0.15899385       0.83392049       0.65578680 </v>
   <v>       0.34114102       0.99982311       0.34391490 </v>
   <v>       0.34002123       0.00024854       0.84273670 </v>
   <v>       0.34114102       0.33351023       0.34391490 </v>
   <v>       0.34002123       0.33308479       0.84273670 </v>
   <v>       0.34232030       0.66666667       0.34329393 </v>
   <v>       0.34038685       0.66666667       0.84322049 </v>
   <v>       0.08589534       0.00461576       0.39623162 </v>
   <v>       0.09167034       0.00038715       0.89812388 </v>
   <v>       0.08589534       0.32871757       0.39623162 </v>
   <v>       0.09167034       0.33294618       0.89812388 </v>
   <v>       0.09179779       0.66666667       0.39804030 </v>
   <v>       0.09157614       0.66666667       0.89834576 </v>
   <v>       0.40873966       0.16666667       0.10246954 </v>
   <v>       0.40919631       0.16666667       0.60274234 </v>
   <v>       0.40945451       0.49974186       0.10227216 </v>
   <v>       0.40906521       0.49991829       0.60292105 </v>
   <v>       0.40945451       0.83359147       0.10227216 </v>
   <v>       0.40906521       0.83341504       0.60292105 </v>
   <v>       0.99647756       0.16666667       0.12014493 </v>
   <v>       0.99563613       0.16666667       0.62991903 </v>
   <v>       0.99720220       0.50014101       0.12716020 </v>
   <v>       0.99612914       0.49996172       0.62718848 </v>
   <v>       0.99720220       0.83319232       0.12716020 </v>
   <v>       0.99612914       0.83337161       0.62718848 </v>
   <v>       0.50449613       0.00045897       0.37282473 </v>
   <v>       0.50305687       0.00030056       0.87239070 </v>
   <v>       0.50449613       0.33287436       0.37282473 </v>
   <v>       0.50305687       0.33303277       0.87239070 </v>
   <v>       0.50466493       0.66666667       0.37314377 </v>
   <v>       0.50287256       0.66666667       0.87195978 </v>
   <v>       0.67452915       0.16666667       0.28030889 </v>
   <v>       0.67293331       0.16666667       0.78099022 </v>
   <v>       0.67129814       0.50127366       0.27942104 </v>
   <v>       0.67271232       0.50014284       0.78097955 </v>
   <v>       0.67129814       0.83205967       0.27942104 </v>
   <v>       0.67271232       0.83319050       0.78097955 </v>
   <v>       0.82484952       0.99457355       0.21701350 </v>
   <v>       0.82756983       0.99963185       0.71956657 </v>
   <v>       0.82484952       0.33875979       0.21701350 </v>
   <v>       0.82756983       0.33370149       0.71956657 </v>
   <v>       0.82689440       0.66666667       0.21886107 </v>
   <v>       0.82757010       0.66666667       0.71958544 </v>
   <v>       0.82461258       0.99613296       0.44658061 </v>
   <v>       0.83262691       0.99965705       0.94628100 </v>
   <v>       0.82461258       0.33720037       0.44658061 </v>
   <v>       0.83262691       0.33367628       0.94628100 </v>
   <v>       0.83015472       0.66666667       0.44554510 </v>
   <v>       0.83309737       0.66666667       0.94611764 </v>
   <v>       0.66768525       0.16666667       0.05373473 </v>
   <v>       0.66698847       0.16666667       0.55482048 </v>
   <v>       0.66616681       0.50064743       0.05314186 </v>
   <v>       0.66648518       0.50049918       0.55499492 </v>
   <v>       0.66616681       0.83268590       0.05314186 </v>
   <v>       0.66648518       0.83283416       0.55499492 </v>
   <v>       0.49668067       0.00042861       0.12689283 </v>
   <v>       0.49667089       0.99999942       0.62843033 </v>
   <v>       0.49668067       0.33290472       0.12689283 </v>
   <v>       0.49667089       0.33333392       0.62843033 </v>
   <v>       0.49612460       0.66666667       0.12633598 </v>
   <v>       0.49636781       0.66666667       0.62866777 </v>
   <v>       0.00390749       0.16666667       0.87223904 </v>
   <v>       0.00339818       0.50215896       0.37368828 </v>
   <v>       0.00416937       0.49993292       0.87307044 </v>
   <v>       0.00339818       0.83117437       0.37368828 </v>
   <v>       0.00416937       0.83340041       0.87307044 </v>
   <v>       0.17441018       0.99762295       0.28085179 </v>
   <v>       0.17245188       0.00004744       0.78030698 </v>
   <v>       0.17441018       0.33571038       0.28085179 </v>
   <v>       0.17245188       0.33328590       0.78030698 </v>
   <v>       0.17394229       0.66666667       0.28117686 </v>
   <v>       0.17242158       0.66666667       0.78053069 </v>
   <v>       0.32832678       0.16666667       0.22005698 </v>
   <v>       0.32729745       0.16666667       0.71941223 </v>
   <v>       0.32907498       0.50064153       0.21982069 </v>
   <v>       0.32802588       0.50030584       0.72030684 </v>
   <v>       0.32907498       0.83269180       0.21982069 </v>
   <v>       0.32802588       0.83302749       0.72030684 </v>
   <v>       0.33386118       0.16666667       0.44617638 </v>
   <v>       0.33220465       0.16666667       0.94576399 </v>
   <v>       0.33447199       0.50057613       0.44614619 </v>
   <v>       0.33219228       0.49981417       0.94584838 </v>
   <v>       0.33447199       0.83275720       0.44614619 </v>
   <v>       0.33219228       0.83351916       0.94584838 </v>
   <v>       0.16904370       0.00028269       0.05452935 </v>
   <v>       0.17029736       0.99762766       0.55400962 </v>
   <v>       0.16904370       0.33305064       0.05452935 </v>
   <v>       0.17029736       0.33570567       0.55400962 </v>
   <v>       0.16849507       0.66666667       0.05493625 </v>
   <v>       0.16922284       0.66666667       0.55479615 </v>
   <v>       0.99920600       0.16666667       0.36971450 </v>
  </varray>
 </structure>
 <calculation>
  <scstep>
   <time name="total">    4.00    4.01</time>
   <energy>
    <i name="alphaZ">   5530.94812622 </i>
    <i name="ewald"> -88787.70406013 </i>
    <i name="hartreedc">  -2114.85245411 </i>
    <i name="XCdc">   2806.62735595 </i>
    <i name="pawpsdc">  59982.11220946 </i>
    <i name="pawaedc"> -91789.06797910 </i>
    <i name="eentropy">     -0.00876621 </i>
    <i name="bandstr"> -40558.04450354 </i>
    <i name="atom"> 133692.73004162 </i>
    <i name="e_fr_energy"> -21237.26002983 </i>
    <i name="e_wo_entrp"> -21237.25126362 </i>
    <i name="e_0_energy"> -21237.25564672 </i>
   </energy>
  </scstep>
  <scstep>
   <time name="total">    3.15    3.15</time>
   <energy>
    <i name="e_fr_energy"> -65385.83606047 </i>
    <i name="e_wo_entrp"> -65385.81667705 </i>
    <i name="e_0_energy"> -65385.82636876 </i>
   </energy>
  </scstep>
  <scstep>
   <time name="total">    3.30    3.30</time>
   <energy>
    <i name="e_fr_energy"> -69947.42735061 </i>
    <i name="e_wo_entrp"> -69947.38080277 </i>
    <i name="e_0_energy"> -69947.40407669 </i>
   </energy>
  </scstep>
  <scstep>
   <time name="total">    3.66    3.66</time>
   <energy>
    <i name="e_fr_energy"> -70488.87132492 </i>
    <i name="e_wo_entrp"> -70488.82516834 </i>
    <i name="e_0_energy"> -70488.84824663 </i>
   </energy>
  </scstep>
  <scstep>
   <time name="total">  237.00  236.96</time>
   <energy>
    <i name="e_fr_energy"> -37497.01372318 </i>
    <i name="e_wo_entrp"> -37496.97542069 </i>
    <i name="e_0_energy"> -37496.99457194 </i>
   </energy>
  </scstep>
  <scstep>
   <time name="total">  472.27  472.19</time>
   <energy>
    <i name="e_fr_energy">  19384.43764173 </i>
    <i name="e_wo_entrp">  19384.44903974 </i>
    <i name="e_0_energy">  19384.44334073 </i>
   </energy>
  </scstep>
  <scstep>
   <time name="total">  471.66  471.59</time>
   <energy>
    <i name="e_fr_energy">   5354.48008790 </i>
    <i name="e_wo_entrp">   5354.50682352 </i>
    <i name="e_0_energy">   5354.49345571 </i>
   </energy>
  </scstep>
  <scstep>
   <time name="total">  474.28  474.21</time>
   <energy>
    <i name="e_fr_energy">   1274.79145898 </i>
    <i name="e_wo_entrp">   1274.83639052 </i>
    <i name="e_0_energy">   1274.81392475 </i>
   </energy>
  </scstep>
  <scstep>
   <time name="total">  472.90  472.82</time>
   <energy>
    <i name="e_fr_energy">    355.07849715 </i>
    <i name="e_wo_entrp">    355.12295088 </i>
    <i name="e_0_energy">    355.10072402 </i>
   </energy>
  </scstep>
  <scstep>
   <time name="total">  471.73  471.64</time>
   <energy>
    <i name="e_fr_energy">     39.43291776 </i>
    <i name="e_wo_entrp">     39.44465023 </i>
    <i name="e_0_energy">     39.43878400 </i>
   </energy>
  </scstep>
  <scstep>
   <time name="total">  470.57  470.49</time>
   <energy>
    <i name="e_fr_energy">   -391.33496722 </i>
    <i name="e_wo_entrp">   -391.32910997 </i>
    <i name="e_0_energy">   -391.33203860 </i>
   </energy>
  </scstep>
  <scstep>
   <time name="total">  470.34  470.26</time>
   <energy>
    <i name="e_fr_energy">   -734.31024258 </i>
    <i name="e_wo_entrp">   -734.30243333 </i>
    <i name="e_0_energy">   -734.30633795 </i>
   </energy>
  </scstep>
  <scstep>
   <time name="total">  470.18  470.10</time>
   <energy>
    <i name="e_fr_energy">   -868.53832694 </i>
    <i name="e_wo_entrp">   -868.53769407 </i>
    <i name="e_0_energy">   -868.53801050 </i>
   </energy>
  </scstep>
  <scstep>
   <time name="total">  470.29  470.20</time>
   <energy>
    <i name="e_fr_energy">   -930.91709907 </i>
    <i name="e_wo_entrp">   -930.90928234 </i>
    <i name="e_0_energy">   -930.91319070 </i>
   </energy>
  </scstep>
  <scstep>
   <time name="total">  470.02  469.93</time>
   <energy>
    <i name="e_fr_energy">   -958.96147940 </i>
    <i name="e_wo_entrp">   -958.96147540 </i>
    <i name="e_0_energy">   -958.96147740 </i>
   </energy>
  </scstep>
  <scstep>
   <time name="total">  470.42  470.34</time>
   <energy>
    <i name="e_fr_energy">   -971.58366745 </i>
    <i name="e_wo_entrp">   -971.58366745 </i>
    <i name="e_0_energy">   -971.58366745 </i>
   </energy>
  </scstep>
  <scstep>
   <time name="total">  470.21  470.13</time>
   <energy>
    <i name="e_fr_energy">   -977.40188206 </i>
    <i name="e_wo_entrp">   -977.40188206 </i>
    <i name="e_0_energy">   -977.40188206 </i>
   </energy>
  </scstep>
  <scstep>
   <time name="total">  469.97  469.89</time>
   <energy>
    <i name="e_fr_energy">   -979.92483346 </i>
    <i name="e_wo_entrp">   -979.92483346 </i>
    <i name="e_0_energy">   -979.92483346 </i>
   </energy>
  </scstep>
  <scstep>
   <time name="total">  470.61  470.52</time>
   <energy>
    <i name="e_fr_energy">   -981.28902964 </i>
    <i name="e_wo_entrp">   -981.28902964 </i>
    <i name="e_0_energy">   -981.28902964 </i>
   </energy>
  </scstep>
  <scstep>
   <time name="total">  469.77  469.69</time>
   <energy>
    <i name="e_fr_energy">   -981.92146441 </i>
    <i name="e_wo_entrp">   -981.92146441 </i>
    <i name="e_0_energy">   -981.92146441 </i>
   </energy>
  </scstep>
  <scstep>
   <time name="total">  470.72  470.63</time>
   <energy>
    <i name="e_fr_energy">   -982.22605546 </i>
    <i name="e_wo_entrp">   -982.22605546 </i>
    <i name="e_0_energy">   -982.22605546 </i>
   </energy>
  </scstep>
  <scstep>
   <time name="total">  469.52  469.43</time>
   <energy>
    <i name="e_fr_energy">   -982.37165197 </i>
    <i name="e_wo_entrp">   -982.37165197 </i>
    <i name="e_0_energy">   -982.37165197 </i>
   </energy>
  </scstep>
  <scstep>
   <time name="total">  470.09  470.02</time>
   <energy>
    <i name="e_fr_energy">   -982.43967510 </i>
    <i name="e_wo_entrp">   -982.43967510 </i>
    <i name="e_0_energy">   -982.43967510 </i>
   </energy>
  </scstep>
  <scstep>
   <time name="total">  470.00  469.91</time>
   <energy>
    <i name="e_fr_energy">   -982.47367063 </i>
    <i name="e_wo_entrp">   -982.47367063 </i>
    <i name="e_0_energy">   -982.47367063 </i>
   </energy>
  </scstep>
  <scstep>
   <time name="total">  469.78  469.70</time>
   <energy>
    <i name="e_fr_energy">   -982.49094424 </i>
    <i name="e_wo_entrp">   -982.49094424 </i>
    <i name="e_0_energy">   -982.49094424 </i>
   </energy>
  </scstep>
  <scstep>
   <time name="total">  470.47  470.37</time>
   <energy>
    <i name="e_fr_energy">   -982.49906040 </i>
    <i name="e_wo_entrp">   -982.49906040 </i>
    <i name="e_0_energy">   -982.49906040 </i>
   </energy>
  </scstep>
  <scstep>
   <time name="total">  470.05  469.96</time>
   <energy>
    <i name="e_fr_energy">   -982.50287385 </i>
    <i name="e_wo_entrp">   -982.50287385 </i>
    <i name="e_0_energy">   -982.50287385 </i>
   </energy>
  </scstep>
  <scstep>
   <time name="total">  469.86  469.78</time>
   <energy>
    <i name="e_fr_energy">   -982.50484573 </i>
    <i name="e_wo_entrp">   -982.50484573 </i>
    <i name="e_0_energy">   -982.50484573 </i>
   </energy>
  </scstep>
  <scstep>
   <time name="total">  470.82  470.73</time>
   <energy>
    <i name="e_fr_energy">   -982.50577451 </i>
    <i name="e_wo_entrp">   -982.50577451 </i>
    <i name="e_0_energy">   -982.50577451 </i>
   </energy>
  </scstep>
  <scstep>
   <time name="total">  469.82  469.72</time>
   <energy>
    <i name="e_fr_energy">   -982.50626849 </i>
    <i name="e_wo_entrp">   -982.50626849 </i>
    <i name="e_0_energy">   -982.50626849 </i>
   </energy>
  </scstep>
  <scstep>
   <time name="total">  470.51  470.43</time>
   <energy>
    <i name="e_fr_energy">   -982.50651566 </i>
    <i name="e_wo_entrp">   -982.50651566 </i>
    <i name="e_0_energy">   -982.50651566 </i>
   </energy>
  </scstep>
  <scstep>
   <time name="total">  470.01  469.93</time>
   <energy>
    <i name="e_fr_energy">   -982.50663288 </i>
    <i name="e_wo_entrp">   -982.50663288 </i>
    <i name="e_0_energy">   -982.50663288 </i>
   </energy>
  </scstep>
  <scstep>
   <time name="total">  469.68  469.59</time>
   <energy>
    <i name="e_fr_energy">   -982.50669273 </i>
    <i name="e_wo_entrp">   -982.50669273 </i>
    <i name="e_0_energy">   -982.50669273 </i>
   </energy>
  </scstep>
  <scstep>
   <time name="total">  470.22  470.13</time>
   <energy>
    <i name="e_fr_energy">   -982.50672170 </i>
    <i name="e_wo_entrp">   -982.50672170 </i>
    <i name="e_0_energy">   -982.50672170 </i>
   </energy>
  </scstep>
  <scstep>
   <time name="total">  470.05  469.98</time>
   <energy>
    <i name="e_fr_energy">   -982.50673624 </i>
    <i name="e_wo_entrp">   -982.50673624 </i>
    <i name="e_0_energy">   -982.50673624 </i>
   </energy>
  </scstep>
  <scstep>
   <time name="total">  701.00  700.89</time>
   <energy>
    <i name="alphaZ">   5530.94812622 </i>
    <i name="ewald"> -88787.70406013 </i>
    <i name="hartreedc"> -33824.09618801 </i>
    <i name="XCdc">   2796.94702307 </i>
    <i name="pawpsdc"> 121718.20424110 </i>
    <i name="pawaedc">-137217.82477429 </i>
    <i name="eentropy">     -0.00000000 </i>
    <i name="bandstr">  -9206.12939872 </i>
    <i name="atom"> 133692.73004162 </i>
    <i name="e_fr_energy">   -982.50674386 </i>
    <i name="e_wo_entrp">   -982.50674386 </i>
    <i name="e_0_energy">   -982.50674386 </i>
   </energy>
  </scstep>
  <structure>
   <crystal>
    <varray name="basis" >
     <v>       0.00000000      12.28047342       0.00000000 </v>
     <v>       9.14270205       0.00000000       0.00000000 </v>
     <v>       0.00000000      -2.76826177     -11.30069772 </v>
    </varray>
    <i name="volume">   1268.80515525 </i>
    <varray name="rec_basis" >
     <v>       0.00000000       0.08143009      -0.01994742 </v>
     <v>       0.10937686      -0.00000000       0.00000000 </v>
     <v>       0.00000000       0.00000000      -0.08849011 </v>
    </varray>
   </crystal>
   <varray name="positions" >
    <v>       0.65966986       0.99965793       0.15652540 </v>
    <v>       0.65947135       0.99994231       0.65695185 </v>
    <v>       0.65966986       0.33367541       0.15652540 </v>
    <v>       0.65947135       0.33339102       0.65695185 </v>
    <v>       0.65885139       0.66666667       0.15649641 </v>
    <v>       0.65888488       0.66666667       0.65725114 </v>
    <v>       0.84469705       0.16666667       0.34651624 </v>
    <v>       0.84172716       0.16666667       0.84421369 </v>
    <v>       0.84111341       0.49986379       0.34310889 </v>
    <v>       0.84150970       0.49970353       0.84377932 </v>
    <v>       0.84111341       0.83346955       0.34310889 </v>
    <v>       0.84150970       0.83362980       0.84377932 </v>
    <v>       0.59294382       0.16666667       0.39714238 </v>
    <v>       0.59084495       0.16666667       0.89756138 </v>
    <v>       0.59186707       0.49971957       0.39771793 </v>
    <v>       0.59014056       0.50000049       0.89704278 </v>
    <v>       0.59186707       0.83361376       0.39771793 </v>
    <v>       0.59014056       0.83333285       0.89704278 </v>
    <v>       0.90953937       0.00008695       0.10397696 </v>
    <v>       0.90810845       0.99999735       0.60041610 </v>
    <v>       0.90953937       0.33324639       0.10397696 </v>
    <v>       0.90810845       0.33333598       0.60041610 </v>
    <v>       0.90964917       0.66666667       0.10315864 </v>
    <v>       0.90856808       0.66666667       0.60151854 </v>
    <v>       0.15912355       0.16666667       0.15919826 </v>
    <v>       0.15817751       0.16666667       0.65218156 </v>
    <v>       0.16006257       0.49933097       0.15790456 </v>
    <v>       0.15899385       0.49941284       0.65578680 </v>
    <v>       0.16006257       0.83400237       0.15790456 </v>
    <v>       0.15899385       0.83392049       0.65578680 </v>
    <v>       0.34114102       0.99982311       0.34391490 </v>
    <v>       0.34002123       0.00024854       0.84273670 </v>
    <v>       0.34114102       0.33351023       0.34391490 </v>
    <v>       0.34002123       0.33308479       0.84273670 </v>
    <v>       0.34232030       0.66666667       0.34329393 </v>
    <v>       0.34038685       0.66666667       0.84322049 </v>
    <v>       0.08589534       0.00461576       0.39623162 </v>
    <v>       0.09167034       0.00038715       0.89812388 </v>
    <v>       0.08589534       0.32871757       0.39623162 </v>
    <v>       0.09167034       0.33294618       0.89812388 </v>
    <v>       0.09179779       0.66666667       0.39804030 </v>
    <v>       0.09157614       0.66666667       0.89834576 </v>
    <v>       0.40873966       0.16666667       0.10246954 </v>
    <v>       0.40919631       0.16666667       0.60274234 </v>
    <v>       0.40945451       0.49974186       0.10227216 </v>
    <v>       0.40906521       0.49991829       0.60292105 </v>
    <v>       0.40945451       0.83359147       0.10227216 </v>
    <v>       0.40906521       0.83341504       0.60292105 </v>
    <v>       0.99647756       0.16666667       0.12014493 </v>
    <v>       0.99563613       0.16666667       0.62991903 </v>
    <v>       0.99720220       0.50014101       0.12716020 </v>
    <v>       0.99612914       0.49996172       0.62718848 </v>
    <v>       0.99720220       0.83319232       0.12716020 </v>
    <v>       0.99612914       0.83337161       0.62718848 </v>
    <v>       0.50449613       0.00045897       0.37282473 </v>
    <v>       0.50305687       0.00030056       0.87239070 </v>
    <v>       0.50449613       0.33287436       0.37282473 </v>
    <v>       0.50305687       0.33303277       0.87239070 </v>
    <v>       0.50466493       0.66666667       0.37314377 </v>
    <v>       0.50287256       0.66666667       0.87195978 </v>
    <v>       0.67452915       0.16666667       0.28030889 </v>
    <v>       0.67293331       0.16666667       0.78099022 </v>
    <v>       0.67129814       0.50127366       0.27942104 </v>
    <v>       0.67271232       0.50014284       0.78097955 </v>
    <v>       0.67129814       0.83205967       0.27942104 </v>
    <v>       0.67271232       0.83319050       0.78097955 </v>
    <v>       0.82484952       0.99457355       0.21701350 </v>
    <v>       0.82756983       0.99963185       0.71956657 </v>
    <v>       0.82484952       0.33875979       0.21701350 </v>
    <v>       0.82756983       0.33370149       0.71956657 </v>
    <v>       0.82689440       0.66666667       0.21886107 </v>
    <v>       0.82757010       0.66666667       0.71958544 </v>
    <v>       0.82461258       0.99613296       0.44658061 </v>
    <v>       0.83262691       0.99965705       0.94628100 </v>
    <v>       0.82461258       0.33720037       0.44658061 </v>
    <v>       0.83262691       0.33367628       0.94628100 </v>
    <v>       0.83015472       0.66666667       0.44554510 </v>
    <v>       0.83309737       0.66666667       0.94611764 </v>
    <v>       0.66768525       0.16666667       0.05373473 </v>
    <v>       0.66698847       0.16666667       0.55482048 </v>
    <v>       0.66616681       0.50064743       0.05314186 </v>
    <v>       0.66648518       0.50049918       0.55499492 </v>
    <v>       0.66616681       0.83268590       0.05314186 </v>
    <v>       0.66648518       0.83283416       0.55499492 </v>
    <v>       0.49668067       0.00042861       0.12689283 </v>
    <v>       0.49667089       0.99999942       0.62843033 </v>
    <v>       0.49668067       0.33290472       0.12689283 </v>
    <v>       0.49667089       0.33333392       0.62843033 </v>
    <v>       0.49612460       0.66666667       0.12633598 </v>
    <v>       0.49636781       0.66666667       0.62866777 </v>
    <v>       0.00390749       0.16666667       0.87223904 </v>
    <v>       0.00339818       0.50215896       0.37368828 </v>
    <v>       0.00416937       0.49993292       0.87307044 </v>
    <v>       0.00339818       0.83117437       0.37368828 </v>
    <v>       0.00416937       0.83340041       0.87307044 </v>
    <v>       0.17441018       0.99762295       0.28085179 </v>
    <v>       0.17245188       0.00004744       0.78030698 </v>
    <v>       0.17441018       0.33571038       0.28085179 </v>
    <v>       0.17245188       0.33328590       0.78030698 </v>
    <v>       0.17394229       0.66666667       0.28117686 </v>
    <v>       0.17242158       0.66666667       0.78053069 </v>
    <v>       0.32832678       0.16666667       0.22005698 </v>
    <v>       0.32729745       0.16666667       0.71941223 </v>
    <v>       0.32907498       0.50064153       0.21982069 </v>
    <v>       0.32802588       0.50030584       0.72030684 </v>
    <v>       0.32907498       0.83269180       0.21982069 </v>
    <v>       0.32802588       0.83302749       0.72030684 </v>
    <v>       0.33386118       0.16666667       0.44617638 </v>
    <v>       0.33220465       0.16666667       0.94576399 </v>
    <v>       0.33447199       0.50057613       0.44614619 </v>
    <v>       0.33219228       0.49981417       0.94584838 </v>
    <v>       0.33447199       0.83275720       0.44614619 </v>
    <v>       0.33219228       0.83351916       0.94584838 </v>
    <v>       0.16904370       0.00028269       0.05452935 </v>
    <v>       0.17029736       0.99762766       0.55400962 </v>
    <v>       0.16904370       0.33305064       0.05452935 </v>
    <v>       0.17029736       0.33570567       0.55400962 </v>
    <v>       0.16849507       0.66666667       0.05493625 </v>
    <v>       0.16922284       0.66666667       0.55479615 </v>
    <v>       0.99920600       0.16666667       0.36971450 </v>
   </varray>
  </structure>
  <varray name="forces" >
   <v>      -0.00214263       0.12527034      -0.01848531 </v>
   <v>       0.00269775       0.08211427       0.01963095 </v>
   <v>       0.00214263       0.12527034      -0.01848531 </v>
   <v>      -0.00269775       0.08211427       0.01963095 </v>
   <v>       0.00000000       0.06946823      -0.01482087 </v>
   <v>       0.00000000       0.07321730       0.01973727 </v>
   <v>       0.00000000      -0.00889609      -0.03289375 </v>
   <v>       0.00000000      -0.05997359      -0.02668200 </v>
   <v>      -0.02765780      -0.07667496       0.00586198 </v>
   <v>      -0.01250556      -0.06951306      -0.01770608 </v>
   <v>       0.02765780      -0.07667496       0.00586198 </v>
   <v>       0.01250556      -0.06951306      -0.01770608 </v>
   <v>       0.00000000      -0.02194793       0.01138089 </v>
   <v>       0.00000000      -0.01885775       0.00387614 </v>
   <v>       0.00455228      -0.02019285       0.02490906 </v>
   <v>       0.00269514      -0.01566077      -0.00297223 </v>
   <v>      -0.00455228      -0.02019285       0.02490906 </v>
   <v>      -0.00269514      -0.01566077      -0.00297223 </v>
   <v>       0.00511734       0.02329115      -0.01029219 </v>
   <v>       0.00151220       0.00309739      -0.01913591 </v>
   <v>      -0.00511734       0.02329115      -0.01029219 </v>
   <v>      -0.00151220       0.00309739      -0.01913591 </v>
   <v>       0.00000000       0.02429514      -0.02253376 </v>
   <v>       0.00000000       0.02100929      -0.00754508 </v>
   <v>       0.00000000       0.05264700       0.01488891 </v>
   <v>       0.00000000       0.05979317       0.05282743 </v>
   <v>      -0.02530385       0.06545717      -0.02269637 </v>
   <v>      -0.02414194       0.08096827       0.04529702 </v>
   <v>       0.02530385       0.06545717      -0.02269637 </v>
   <v>       0.02414194       0.08096827       0.04529702 </v>
   <v>       0.00507540      -0.10773866      -0.01068119 </v>
   <v>       0.00104004      -0.08778034       0.00202430 </v>
   <v>      -0.00507540      -0.10773866      -0.01068119 </v>
   <v>      -0.00104004      -0.08778034       0.00202430 </v>
   <v>       0.00000000      -0.07439710      -0.01401555 </v>
   <v>       0.00000000      -0.07248829       0.00633364 </v>
   <v>      -0.00051963      -0.01306051       0.00613100 </v>
   <v>       0.00788735      -0.02709456       0.01818227 </v>
   <v>       0.00051963      -0.01306051       0.00613100 </v>
   <v>      -0.00788735      -0.02709456       0.01818227 </v>
   <v>       0.00000000      -0.04667740       0.01398007 </v>
   <v>       0.00000000      -0.02524902       0.01655880 </v>
   <v>       0.00000000       0.02530341      -0.02043951 </v>
   <v>       0.00000000       0.02314648      -0.00269275 </v>
   <v>       0.00748700       0.01865053      -0.02430919 </v>
   <v>       0.00503388       0.02556783      -0.00598770 </v>
   <v>      -0.00748700       0.01865053      -0.02430919 </v>
   <v>      -0.00503388       0.02556783      -0.00598770 </v>
   <v>       0.00000000      -0.19729094       0.03875764 </v>
   <v>       0.00000000      -0.18087682       0.18032972 </v>
   <v>       0.00415994      -0.19133376       0.11511223 </v>
   <v>       0.00517502      -0.18746648       0.14414279 </v>
   <v>      -0.00415994      -0.19133376       0.11511223 </v>
   <v>      -0.00517502      -0.18746648       0.14414279 </v>
   <v>      -0.00891053       0.20190995      -0.12863126 </v>
   <v>      -0.00290346       0.18970174      -0.12183745 </v>
   <v>       0.00891053       0.20190995      -0.12863126 </v>
   <v>       0.00290346       0.18970174      -0.12183745 </v>
   <v>       0.00000000       0.18394030      -0.12447913 </v>
   <v>       0.00000000       0.17982157      -0.12781455 </v>
   <v>       0.00000000      -0.08556865      -0.12228115 </v>
   <v>       0.00000000      -0.05092471      -0.12645786 </v>
   <v>       0.00563797      -0.06202117      -0.12026181 </v>
   <v>       0.00289179      -0.05444599      -0.12173103 </v>
   <v>      -0.00563797      -0.06202117      -0.12026181 </v>
   <v>      -0.00289179      -0.05444599      -0.12173103 </v>
   <v>      -0.05331784       0.02351234       0.18351458 </v>
   <v>      -0.00285565       0.01243254       0.11332853 </v>
   <v>       0.05331784       0.02351234       0.18351458 </v>
   <v>       0.00285565       0.01243254       0.11332853 </v>
   <v>       0.00000000       0.04969809       0.13546045 </v>
   <v>       0.00000000       0.03559290       0.11833250 </v>
   <v>      -0.01744682       0.49929453      -0.12774236 </v>
   <v>      -0.00458101       0.42674885      -0.05116977 </v>
   <v>       0.01744682       0.49929453      -0.12774236 </v>
   <v>       0.00458101       0.42674885      -0.05116977 </v>
   <v>       0.00000000       0.45271631      -0.09528553 </v>
   <v>       0.00000000       0.43099423      -0.07205065 </v>
   <v>       0.00000000      -0.43985737       0.10855794 </v>
   <v>       0.00000000      -0.41441257       0.06351452 </v>
   <v>       0.00256799      -0.42585310       0.09904847 </v>
   <v>      -0.00383207      -0.41577267       0.06606490 </v>
   <v>      -0.00256799      -0.42585310       0.09904847 </v>
   <v>       0.00383207      -0.41577267       0.06606490 </v>
   <v>      -0.00355161      -0.19873370       0.12497659 </v>
   <v>      -0.00032623      -0.18672268       0.12992120 </v>
   <v>       0.00355161      -0.19873370       0.12497659 </v>
   <v>       0.00032623      -0.18672268       0.12992120 </v>
   <v>       0.00000000      -0.19794396       0.12672633 </v>
   <v>       0.00000000      -0.17877794       0.12395485 </v>
   <v>       0.00000000       0.18633996      -0.13938500 </v>
   <v>       0.04465668       0.13552312      -0.10638409 </v>
   <v>       0.00350938       0.18603678      -0.12867853 </v>
   <v>      -0.04465668       0.13552312      -0.10638409 </v>
   <v>      -0.00350938       0.18603678      -0.12867853 </v>
   <v>      -0.00128580       0.04427229      -0.01677198 </v>
   <v>      -0.02558809      -0.02100672      -0.14887762 </v>
   <v>       0.00128580       0.04427229      -0.01677198 </v>
   <v>       0.02558809      -0.02100672      -0.14887762 </v>
   <v>       0.00000000      -0.02895716      -0.11063026 </v>
   <v>       0.00000000      -0.02982911      -0.14350155 </v>
   <v>       0.00000000       0.05012285       0.13220138 </v>
   <v>       0.00000000       0.05625669       0.12107145 </v>
   <v>       0.00239226       0.04741119       0.13159918 </v>
   <v>      -0.00490874       0.04516824       0.12057426 </v>
   <v>      -0.00239226       0.04741119       0.13159918 </v>
   <v>       0.00490874       0.04516824       0.12057426 </v>
   <v>       0.00000000       0.43211073      -0.09047243 </v>
   <v>       0.00000000       0.42614869      -0.07664673 </v>
   <v>      -0.00395675       0.42567440      -0.08843665 </v>
   <v>       0.00285585       0.42868287      -0.07805271 </v>
   <v>       0.00395675       0.42567440      -0.08843665 </v>
   <v>      -0.00285585       0.42868287      -0.07805271 </v>
   <v>      -0.02117139      -0.42339523       0.09791240 </v>
   <v>       0.01152813      -0.46309311      -0.04136198 </v>
   <v>       0.02117139      -0.42339523       0.09791240 </v>
   <v>      -0.01152813      -0.46309311      -0.04136198 </v>
   <v>       0.00000000      -0.42298151       0.09539591 </v>
   <v>       0.00000000      -0.44513114       0.05901901 </v>
   <v>       0.00000000       0.08196571      -0.14433337 </v>
  </varray>
  <varray name="stress" >
   <v>     -44.48240583       0.00000000       0.00000000 </v>
   <v>       0.00000000     -42.53724119       1.91530074 </v>
   <v>       0.00000000       1.91530109     -40.65363831 </v>
  </varray>
  <energy>
   <i name="e_fr_energy">   -982.50674386 </i>
   <i name="e_wo_entrp">   -982.50674386 </i>
   <i name="e_0_energy">   -982.50674386 </i>
  </energy>
  <time name="totalsc">15656.3315655.89</time>
  <eigenvalues>
   <array>
    <dimension dim="1">band</dimension>
    <dimension dim="2">kpoint</dimension>
    <dimension dim="3">spin</dimension>
    <field>eigene</field>
    <field>occ</field>
    <set>
     <set comment="spin 1">
      <set comment="kpoint 1">
       <r>  -19.0723    1.0000 </r>
       <r>  -18.7828    1.0000 </r>
       <r>  -18.7326    1.0000 </r>
       <r>  -18.6440    1.0000 </r>
       <r>  -18.5244    1.0000 </r>
       <r>  -18.3850    1.0000 </r>
       <r>  -18.3844    1.0000 </r>
       <r>  -18.3074    1.0000 </r>
       <r>  -18.2262    1.0000 </r>
       <r>  -18.1938    1.0000 </r>
       <r>  -18.1804    1.0000 </r>
       <r>  -18.1355    1.0000 </r>
       <r>  -18.1313    1.0000 </r>
       <r>  -18.0973    1.0000 </r>
       <r>  -18.0971    1.0000 </r>
       <r>  -18.0543    1.0000 </r>
       <r>  -18.0501    1.0000 </r>
       <r>  -18.0377    1.0000 </r>
       <r>  -17.9576    1.0000 </r>
       <r>  -17.9473    1.0000 </r>
       <r>  -17.9387    1.0000 </r>
       <r>  -17.9302    1.0000 </r>
       <r>  -17.8964    1.0000 </r>
       <r>  -17.8953    1.0000 </r>
       <r>  -17.8693    1.0000 </r>
       <r>  -17.7871    1.0000 </r>
       <r>  -17.7835    1.0000 </r>
       <r>  -17.7768    1.0000 </r>
       <r>  -17.7637    1.0000 </r>
       <r>  -17.7558    1.0000 </r>
       <r>  -17.7482    1.0000 </r>
       <r>  -17.7429    1.0000 </r>
       <r>  -17.7138    1.0000 </r>
       <r>  -17.7050    1.0000 </r>
       <r>  -17.6829    1.0000 </r>
       <r>  -17.6735    1.0000 </r>
       <r>  -17.6348    1.0000 </r>
       <r>  -17.6007    1.0000 </r>
       <r>  -17.5878    1.0000 </r>
       <r>  -17.5729    1.0000 </r>
       <r>  -17.5692    1.0000 </r>
       <r>  -17.5573    1.0000 </r>
       <r>  -17.5569    1.0000 </r>
       <r>  -17.5330    1.0000 </r>
       <r>  -17.5020    1.0000 </r>
       <r>  -17.4941    1.0000 </r>
       <r>  -17.4507    1.0000 </r>
       <r>  -17.4403    1.0000 </r>
       <r>  -17.4209    1.0000 </r>
       <r>  -17.4129    1.0000 </r>
       <r>  -17.4044    1.0000 </r>
       <r>  -17.4023    1.0000 </r>
       <r>  -17.4006    1.0000 </r>
       <r>  -17.3535    1.0000 </r>
       <r>  -17.3525    1.0000 </r>
       <r>  -17.3511    1.0000 </r>
       <r>  -17.3410    1.0000 </r>
       <r>  -17.3150    1.0000 </r>
       <r>  -17.3082    1.0000 </r>
       <r>  -17.2951    1.0000 </r>
       <r>  -17.2895    1.0000 </r>
       <r>  -17.2849    1.0000 </r>
       <r>  -17.2785    1.0000 </r>
       <r>  -17.2552    1.0000 </r>
       <r>  -17.2370    1.0000 </r>
       <r>  -17.2236    1.0000 </r>
       <r>  -17.1564    1.0000 </r>
       <r>  -17.1363    1.0000 </r>
       <r>  -17.1183    1.0000 </r>
       <r>  -17.0893    1.0000 </r>
       <r>  -17.0744    1.0000 </r>
       <r>  -13.6512    1.0000 </r>
       <r>  -13.5271    1.0000 </r>
       <r>  -13.5104    1.0000 </r>
       <r>  -13.5037    1.0000 </r>
       <r>  -13.4961    1.0000 </r>
       <r>  -13.4876    1.0000 </r>
       <r>  -13.4762    1.0000 </r>
       <r>  -13.4737    1.0000 </r>
       <r>  -13.4576    1.0000 </r>
       <r>  -13.4576    1.0000 </r>
       <r>  -13.4460    1.0000 </r>
       <r>  -13.4323    1.0000 </r>
       <r>  -13.4320    1.0000 </r>
       <r>  -13.4262    1.0000 </r>
       <r>  -13.4242    1.0000 </r>
       <r>  -13.4216    1.0000 </r>
       <r>  -13.4204    1.0000 </r>
       <r>  -13.4147    1.0000 </r>
       <r>  -13.4130    1.0000 </r>
       <r>  -13.4118    1.0000 </r>
       <r>  -13.4095    1.0000 </r>
       <r>  -13.4077    1.0000 </r>
       <r>  -13.4008    1.0000 </r>
       <r>  -13.4000    1.0000 </r>
       <r>  -13.3912    1.0000 </r>
       <r>  -13.3906    1.0000 </r>
       <r>  -13.3888    1.0000 </r>
       <r>  -13.3876    1.0000 </r>
       <r>  -13.3814    1.0000 </r>
       <r>  -13.3793    1.0000 </r>
       <r>  -13.3786    1.0000 </r>
       <r>  -13.3739    1.0000 </r>
       <r>  -13.3722    1.0000 </r>
       <r>  -13.3719    1.0000 </r>
       <r>  -13.3704    1.0000 </r>
       <r>  -13.3657    1.0000 </r>
       <r>  -13.3648    1.0000 </r>
       <r>  -13.3616    1.0000 </r>
       <r>  -13.3592    1.0000 </r>
       <r>  -13.3561    1.0000 </r>
       <r>  -13.3523    1.0000 </r>
       <r>  -13.3500    1.0000 </r>
       <r>  -13.3499    1.0000 </r>
       <r>  -13.3461    1.0000 </r>
       <r>  -13.3398    1.0000 </r>
       <r>  -13.3382    1.0000 </r>
       <r>  -13.3368    1.0000 </r>
       <r>  -13.3308    1.0000 </r>
       <r>  -13.3214    1.0000 </r>
       <r>  -13.3161    1.0000 </r>
       <r>  -13.3140    1.0000 </r>
       <r>  -13.3123    1.0000 </r>
       <r>  -13.3020    1.0000 </r>
       <r>  -13.3004    1.0000 </r>
       <r>  -13.2965    1.0000 </r>
       <r>  -13.2916    1.0000 </r>
       <r>  -13.2873    1.0000 </r>
       <r>  -13.2843    1.0000 </r>
       <r>  -13.2822    1.0000 </r>
       <r>  -13.2788    1.0000 </r>
       <r>  -13.2764    1.0000 </r>
       <r>  -13.2764    1.0000 </r>
       <r>  -13.2721    1.0000 </r>
       <r>  -13.2716    1.0000 </r>
       <r>  -13.2609    1.0000 </r>
       <r>  -13.2589    1.0000 </r>
       <r>  -13.2582    1.0000 </r>
       <r>  -13.2539    1.0000 </r>
       <r>  -13.2534    1.0000 </r>
       <r>  -13.2524    1.0000 </r>
       <r>  -13.2481    1.0000 </r>
       <r>  -13.2463    1.0000 </r>
       <r>  -13.2437    1.0000 </r>
       <r>  -13.2410    1.0000 </r>
       <r>  -13.2382    1.0000 </r>
       <r>  -13.2381    1.0000 </r>
       <r>  -13.2358    1.0000 </r>
       <r>  -13.2348    1.0000 </r>
       <r>  -13.2322    1.0000 </r>
       <r>  -13.2301    1.0000 </r>
       <r>  -13.2271    1.0000 </r>
       <r>  -13.2264    1.0000 </r>
       <r>  -13.2239    1.0000 </r>
       <r>  -13.2230    1.0000 </r>
       <r>  -13.2225    1.0000 </r>
       <r>  -13.2185    1.0000 </r>
       <r>  -13.2145    1.0000 </r>
       <r>  -13.2125    1.0000 </r>
       <r>  -13.2105    1.0000 </r>
       <r>  -13.2082    1.0000 </r>
       <r>  -13.2015    1.0000 </r>
       <r>  -13.1966    1.0000 </r>
       <r>  -13.1965    1.0000 </r>
       <r>  -13.1925    1.0000 </r>
       <r>  -13.1917    1.0000 </r>
       <r>  -13.1872    1.0000 </r>
       <r>  -13.1870    1.0000 </r>
       <r>  -13.1840    1.0000 </r>
       <r>  -13.1800    1.0000 </r>
       <r>  -13.1792    1.0000 </r>
       <r>  -13.1772    1.0000 </r>
       <r>  -13.1757    1.0000 </r>
       <r>  -13.1680    1.0000 </r>
       <r>  -13.1585    1.0000 </r>
       <r>  -13.1579    1.0000 </r>
       <r>  -13.1543    1.0000 </r>
       <r>  -13.1524    1.0000 </r>
       <r>  -13.1512    1.0000 </r>
       <r>  -13.1466    1.0000 </r>
       <r>  -13.1424    1.0000 </r>
       <r>  -13.1404    1.0000 </r>
       <r>  -13.1383    1.0000 </r>
       <r>  -13.1322    1.0000 </r>
       <r>  -13.1283    1.0000 </r>
       <r>  -13.1247    1.0000 </r>
       <r>  -13.1244    1.0000 </r>
       <r>  -13.1197    1.0000 </r>
       <r>  -13.1185    1.0000 </r>
       <r>  -13.1135    1.0000 </r>
       <r>  -13.1103    1.0000 </r>
       <r>  -13.1096    1.0000 </r>
       <r>  -13.1083    1.0000 </r>
       <r>  -13.1048    1.0000 </r>
       <r>  -13.1029    1.0000 </r>
       <r>  -13.1013    1.0000 </r>
       <r>  -13.1009    1.0000 </r>
       <r>  -13.0998    1.0000 </r>
       <r>  -13.0992    1.0000 </r>
       <r>  -13.0978    1.0000 </r>
       <r>  -13.0933    1.0000 </r>
       <r>  -13.0909    1.0000 </r>
       <r>  -13.0868    1.0000 </r>
       <r>  -13.0852    1.0000 </r>
       <r>  -13.0831    1.0000 </r>
       <r>  -13.0760    1.0000 </r>
       <r>  -13.0752    1.0000 </r>
       <r>  -13.0748    1.0000 </r>
       <r>  -13.0714    1.0000 </r>
       <r>  -13.0696    1.0000 </r>
       <r>  -13.0659    1.0000 </r>
       <r>  -13.0645    1.0000 </r>
       <r>  -13.0600    1.0000 </r>
       <r>  -13.0579    1.0000 </r>
       <r>  -13.0558    1.0000 </r>
       <r>  -13.0534    1.0000 </r>
       <r>  -13.0498    1.0000 </r>
       <r>  -13.0494    1.0000 </r>
       <r>  -13.0418    1.0000 </r>
       <r>  -13.0380    1.0000 </r>
       <r>  -13.0351    1.0000 </r>
       <r>  -13.0325    1.0000 </r>
       <r>  -13.0281    1.0000 </r>
       <r>  -13.0258    1.0000 </r>
       <r>  -13.0239    1.0000 </r>
       <r>  -13.0227    1.0000 </r>
       <r>  -13.0219    1.0000 </r>
       <r>  -13.0158    1.0000 </r>
       <r>  -13.0153    1.0000 </r>
       <r>  -13.0126    1.0000 </r>
       <r>  -13.0107    1.0000 </r>
       <r>  -13.0049    1.0000 </r>
       <r>  -13.0043    1.0000 </r>
       <r>  -13.0013    1.0000 </r>
       <r>  -12.9996    1.0000 </r>
       <r>  -12.9953    1.0000 </r>
       <r>  -12.9943    1.0000 </r>
       <r>  -12.9884    1.0000 </r>
       <r>  -12.9882    1.0000 </r>
       <r>  -12.9810    1.0000 </r>
       <r>  -12.9798    1.0000 </r>
       <r>  -12.9766    1.0000 </r>
       <r>  -12.9754    1.0000 </r>
       <r>  -12.9735    1.0000 </r>
       <r>  -12.9708    1.0000 </r>
       <r>  -12.9664    1.0000 </r>
       <r>  -12.9582    1.0000 </r>
       <r>  -12.9564    1.0000 </r>
       <r>  -12.9536    1.0000 </r>
       <r>  -12.9536    1.0000 </r>
       <r>  -12.9455    1.0000 </r>
       <r>  -12.9419    1.0000 </r>
       <r>  -12.9265    1.0000 </r>
       <r>  -12.9200    1.0000 </r>
       <r>  -12.9152    1.0000 </r>
       <r>  -12.8990    1.0000 </r>
       <r>  -12.8886    1.0000 </r>
       <r>  -12.8748    1.0000 </r>
       <r>  -12.8600    1.0000 </r>
       <r>  -12.8505    1.0000 </r>
       <r>  -12.8262    1.0000 </r>
       <r>  -12.8050    1.0000 </r>
       <r>  -12.8028    1.0000 </r>
       <r>  -12.7788    1.0000 </r>
       <r>  -12.7735    1.0000 </r>
       <r>  -12.7436    1.0000 </r>
       <r>  -12.7183    1.0000 </r>
       <r>  -12.6951    1.0000 </r>
       <r>  -12.6800    1.0000 </r>
       <r>  -12.6773    1.0000 </r>
       <r>  -12.6737    1.0000 </r>
       <r>  -12.6537    1.0000 </r>
       <r>  -12.6328    1.0000 </r>
       <r>  -12.6156    1.0000 </r>
       <r>  -12.6151    1.0000 </r>
       <r>  -12.5955    1.0000 </r>
       <r>  -12.5891    1.0000 </r>
       <r>  -12.5674    1.0000 </r>
       <r>  -12.5594    1.0000 </r>
       <r>  -12.5485    1.0000 </r>
       <r>  -12.5276    1.0000 </r>
       <r>  -12.5141    1.0000 </r>
       <r>  -12.4772    1.0000 </r>
       <r>  -12.4732    1.0000 </r>
[...]
       <r>   -12.3574   157.8791   586.1890 </r>
       <r>   -12.2186   124.8251   603.5201 </r>
       <r>   -12.0797    79.6362   614.5770 </r>
       <r>   -11.9409    46.0298   620.9679 </r>
       <r>   -11.8020     7.4333   621.9999 </r>
       <r>   -11.6632     0.0005   622.0000 </r>
       <r>   -11.5244     0.0000   622.0000 </r>
       <r>   -11.3855     0.0000   622.0000 </r>
       <r>   -11.2467     0.0000   622.0000 </r>
       <r>   -11.1078     0.0000   622.0000 </r>
       <r>   -10.9690     0.0000   622.0000 </r>
       <r>   -10.8301     0.0000   622.0000 </r>
       <r>   -10.6913     0.0000   622.0000 </r>
       <r>   -10.5525     0.0000   622.0000 </r>
       <r>   -10.4136     0.0000   622.0000 </r>
       <r>   -10.2748     0.0000   622.0000 </r>
       <r>   -10.1359     0.0000   622.0000 </r>
       <r>    -9.9971     0.0016   622.0002 </r>
       <r>    -9.8582     8.4560   623.1743 </r>
       <r>    -9.7194     5.9470   624.0000 </r>
       <r>    -9.5806     0.0003   624.0000 </r>
       <r>    -9.4417     0.0000   624.0000 </r>
       <r>    -9.3029     0.0000   624.0000 </r>
       <r>    -9.1640     0.0000   624.0000 </r>
       <r>    -9.0252     0.0000   624.0000 </r>
       <r>    -8.8863     0.0000   624.0000 </r>
       <r>    -8.7475     0.0000   624.0000 </r>
       <r>    -8.6087     0.0000   624.0000 </r>
       <r>    -8.4698     0.0000   624.0000 </r>
       <r>    -8.3310     0.0000   624.0000 </r>
       <r>    -8.1921     0.0000   624.0000 </r>
       <r>    -8.0533     0.0000   624.0000 </r>
       <r>    -7.9144     0.0000   624.0000 </r>
       <r>    -7.7756     0.0000   624.0000 </r>
       <r>    -7.6368     0.0000   624.0000 </r>
       <r>    -7.4979     0.0000   624.0000 </r>
       <r>    -7.3591     0.0000   624.0000 </r>
       <r>    -7.2202     0.0000   624.0000 </r>
       <r>    -7.0814     0.0000   624.0000 </r>
       <r>    -6.9425     0.0000   624.0000 </r>
       <r>    -6.8037     0.0000   624.0000 </r>
       <r>    -6.6649     0.0000   624.0000 </r>
       <r>    -6.5260     0.0000   624.0000 </r>
       <r>    -6.3872     0.0000   624.0000 </r>
       <r>    -6.2483     0.0000   624.0000 </r>
       <r>    -6.1095     0.0000   624.0000 </r>
       <r>    -5.9706     0.0000   624.0000 </r>
       <r>    -5.8318     0.0000   624.0000 </r>
       <r>    -5.6930     0.0000   624.0000 </r>
       <r>    -5.5541     0.0016   624.0002 </r>
       <r>    -5.4153     2.5793   624.3583 </r>
       <r>    -5.2764     6.7756   625.2991 </r>
       <r>    -5.1376    16.5329   627.5946 </r>
       <r>    -4.9987    27.4286   631.4028 </r>
       <r>    -4.8599    31.4014   635.7627 </r>
       <r>    -4.7211    30.7577   640.0331 </r>
       <r>    -4.5822    43.9415   646.1341 </r>
       <r>    -4.4434    48.3018   652.8405 </r>
       <r>    -4.3045    55.5037   660.5467 </r>
       <r>    -4.1657    49.0530   667.3574 </r>
       <r>    -4.0268    38.8609   672.7529 </r>
       <r>    -3.8880    50.1891   679.7213 </r>
       <r>    -3.7492    37.9971   684.9969 </r>
       <r>    -3.6103    34.1895   689.7439 </r>
       <r>    -3.4715    25.4318   693.2749 </r>
       <r>    -3.3326    37.2665   698.4491 </r>
       <r>    -3.1938    33.8276   703.1458 </r>
       <r>    -3.0549    42.3961   709.0322 </r>
       <r>    -2.9161    30.0098   713.1989 </r>
       <r>    -2.7773    33.8067   717.8927 </r>
       <r>    -2.6384    42.4768   723.7903 </r>
       <r>    -2.4996    32.8657   728.3534 </r>
       <r>    -2.3607    55.1002   736.0037 </r>
       <r>    -2.2219    32.0229   740.4499 </r>
       <r>    -2.0831    40.4368   746.0642 </r>
       <r>    -1.9442    71.6673   756.0147 </r>
       <r>    -1.8054    68.0636   765.4648 </r>
       <r>    -1.6665    52.1719   772.7085 </r>
       <r>    -1.5277    64.4326   781.6545 </r>
       <r>    -1.3888    65.3547   790.7285 </r>
       <r>    -1.2500    44.7877   796.9470 </r>
       <r>    -1.1112    54.2588   804.4804 </r>
       <r>    -0.9723    81.8693   815.8474 </r>
       <r>    -0.8335    58.1687   823.9237 </r>
       <r>    -0.6946    80.7775   835.1390 </r>
       <r>    -0.5558    56.0140   842.9162 </r>
       <r>    -0.4169    64.1234   851.8192 </r>
       <r>    -0.2781    73.0763   861.9653 </r>
       <r>    -0.1393    79.3835   872.9872 </r>
       <r>    -0.0004    77.5347   883.7523 </r>
       <r>     0.1384    67.9693   893.1893 </r>
       <r>     0.2773    64.7146   902.1745 </r>
       <r>     0.4161    87.0256   914.2573 </r>
       <r>     0.5550    92.2796   927.0697 </r>
       <r>     0.6938    93.0143   939.9841 </r>
       <r>     0.8326    87.2032   952.0916 </r>
       <r>     0.9715    98.2061   965.7268 </r>
       <r>     1.1103   125.0651   983.0911 </r>
       <r>     1.2492   122.8484  1000.1477 </r>
       <r>     1.3880   132.3290  1018.5207 </r>
       <r>     1.5269    95.7146  1031.8099 </r>
       <r>     1.6657    58.7926  1039.9728 </r>
       <r>     1.8045    53.1118  1047.3470 </r>
       <r>     1.9434    18.9624  1049.9798 </r>
       <r>     2.0822     0.6689  1050.0727 </r>
       <r>     2.2211     7.7268  1051.1455 </r>
       <r>     2.3599    18.6121  1053.7297 </r>
       <r>     2.4988     1.9471  1054.0000 </r>
       <r>     2.6376     0.0000  1054.0000 </r>
       <r>     2.7764     0.0000  1054.0000 </r>
       <r>     2.9153     0.0000  1054.0000 </r>
       <r>     3.0541     0.0000  1054.0000 </r>
       <r>     3.1930     0.0000  1054.0000 </r>
       <r>     3.3318     0.0000  1054.0000 </r>
       <r>     3.4707     0.0000  1054.0000 </r>
       <r>     3.6095     0.0000  1054.0000 </r>
       <r>     3.7483     0.0000  1054.0000 </r>
       <r>     3.8872     0.0647  1054.0090 </r>
       <r>     4.0260    11.9032  1055.6617 </r>
       <r>     4.1649     2.4368  1056.0000 </r>
       <r>     4.3037     0.0000  1056.0000 </r>
       <r>     4.4426     0.0000  1056.0000 </r>
       <r>     4.5814     0.0000  1056.0000 </r>
       <r>     4.7202     0.0000  1056.0000 </r>
       <r>     4.8591     0.0000  1056.0000 </r>
       <r>     4.9979     0.0000  1056.0000 </r>
       <r>     5.1368     0.0000  1056.0000 </r>
       <r>     5.2756     0.0000  1056.0000 </r>
       <r>     5.4145     0.0000  1056.0000 </r>
       <r>     5.5533     0.0000  1056.0000 </r>
       <r>     5.6921     0.0000  1056.0000 </r>
       <r>     5.8310     0.0000  1056.0000 </r>
       <r>     5.9698     0.0000  1056.0000 </r>
       <r>     6.1087     0.0000  1056.0000 </r>
       <r>     6.2475     0.0000  1056.0000 </r>
       <r>     6.3864     0.0000  1056.0000 </r>
       <r>     6.5252     0.0000  1056.0000 </r>
       <r>     6.6640     0.0000  1056.0000 </r>
       <r>     6.8029     0.0357  1056.0050 </r>
       <r>     6.9417     1.7095  1056.2423 </r>
       <r>     7.0806     0.0554  1056.2500 </r>
       <r>     7.2194     0.0000  1056.2500 </r>
       <r>     7.3583     0.0000  1056.2500 </r>
       <r>     7.4971     0.0000  1056.2500 </r>
       <r>     7.6359     0.2721  1056.2878 </r>
       <r>     7.7748     4.8108  1056.9557 </r>
       <r>     7.9136     2.1040  1057.2478 </r>
       <r>     8.0525     1.0350  1057.3915 </r>
       <r>     8.1913     5.2760  1058.1241 </r>
       <r>     8.3302     0.9070  1058.2500 </r>
       <r>     8.4690     0.0003  1058.2500 </r>
       <r>     8.6078     2.8041  1058.6394 </r>
       <r>     8.7467     8.4801  1059.8168 </r>
       <r>     8.8855     5.3168  1060.5550 </r>
       <r>     9.0244     4.9750  1061.2457 </r>
       <r>     9.1632     5.0766  1061.9506 </r>
       <r>     9.3020     2.7609  1062.3339 </r>
       <r>     9.4409    10.4831  1063.7894 </r>
       <r>     9.5797     7.0074  1064.7623 </r>
       <r>     9.7186     3.3928  1065.2334 </r>
       <r>     9.8574     4.9519  1065.9209 </r>
       <r>     9.9963    14.4308  1067.9245 </r>
       <r>    10.1351    13.6844  1069.8245 </r>
       <r>    10.2739     7.7709  1070.9035 </r>
       <r>    10.4128    11.2167  1072.4608 </r>
       <r>    10.5516    23.6732  1075.7477 </r>
       <r>    10.6905    29.7115  1079.8729 </r>
       <r>    10.8293    43.8428  1085.9601 </r>
       <r>    10.9682    39.4483  1091.4372 </r>
       <r>    11.1070    40.9281  1097.1198 </r>
       <r>    11.2458    18.5880  1099.7006 </r>
       <r>    11.3847    30.5625  1103.9440 </r>
       <r>    11.5235    32.5042  1108.4570 </r>
       <r>    11.6624    27.0720  1112.2157 </r>
       <r>    11.8012    39.0010  1117.6307 </r>
       <r>    11.9401    38.1788  1122.9316 </r>
       <r>    12.0789    40.1254  1128.5027 </r>
       <r>    12.2177    26.6931  1132.2088 </r>
       <r>    12.3566    22.1036  1135.2777 </r>
       <r>    12.4954    38.3004  1140.5955 </r>
       <r>    12.6343    40.5079  1146.2197 </r>
       <r>    12.7731    48.6011  1152.9676 </r>
       <r>    12.9120    27.4637  1156.7807 </r>
       <r>    13.0508    17.1493  1159.1618 </r>
       <r>    13.1896    13.0865  1160.9788 </r>
       <r>    13.3285    17.8338  1163.4549 </r>
       <r>    13.4673    23.4384  1166.7091 </r>
       <r>    13.6062    22.0900  1169.7761 </r>
       <r>    13.7450    26.9439  1173.5171 </r>
       <r>    13.8839    24.4750  1176.9153 </r>
       <r>    14.0227    24.0595  1180.2558 </r>
       <r>    14.1615    32.8158  1184.8120 </r>
       <r>    14.3004    32.9896  1189.3924 </r>
       <r>    14.4392    23.4143  1192.6433 </r>
       <r>    14.5781    10.9177  1194.1591 </r>
       <r>    14.7169    13.9147  1196.0911 </r>
       <r>    14.8558    17.3810  1198.5043 </r>
       <r>    14.9946    19.0599  1201.1506 </r>
       <r>    15.1334    19.8469  1203.9062 </r>
       <r>    15.2723    22.3773  1207.0132 </r>
       <r>    15.4111    24.5403  1210.4204 </r>
       <r>    15.5500    29.5881  1214.5285 </r>
       <r>    15.6888    29.6637  1218.6471 </r>
       <r>    15.8277    25.8385  1222.2346 </r>
       <r>    15.9665    27.8834  1226.1060 </r>
       <r>    16.1053    26.9885  1229.8531 </r>
       <r>    16.2442    25.1385  1233.3434 </r>
       <r>    16.3830    20.5915  1236.2024 </r>
       <r>    16.5219    21.3398  1239.1653 </r>
       <r>    16.6607    22.0496  1242.2267 </r>
       <r>    16.7996    21.6431  1245.2317 </r>
       <r>    16.9384    20.1338  1248.0271 </r>
       <r>    17.0772    21.8118  1251.0555 </r>
       <r>    17.2161    17.5600  1253.4936 </r>
       <r>    17.3549    18.1625  1256.0154 </r>
       <r>    17.4938    14.8076  1258.0713 </r>
       <r>    17.6326    16.1394  1260.3121 </r>
       <r>    17.7715     8.5077  1261.4933 </r>
       <r>    17.9103     9.7131  1262.8419 </r>
       <r>    18.0491     4.6341  1263.4853 </r>
       <r>    18.1880     1.9790  1263.7601 </r>
       <r>    18.3268     1.7226  1263.9993 </r>
       <r>    18.4657     0.8242  1264.1137 </r>
       <r>    18.6045     4.5733  1264.7487 </r>
       <r>    18.7434     4.8199  1265.4179 </r>
       <r>    18.8822     4.1788  1265.9981 </r>
       <r>    19.0210     0.0137  1266.0000 </r>
       <r>    19.1599     0.0000  1266.0000 </r>
       <r>    19.2987     0.0000  1266.0000 </r>
       <r>    19.4376     0.0000  1266.0000 </r>
       <r>    19.5764     0.0000  1266.0000 </r>
       <r>    19.7152     0.0000  1266.0000 </r>
       <r>    19.8541     0.0000  1266.0000 </r>
       <r>    19.9929     0.0000  1266.0000 </r>
       <r>    20.1318     0.0000  1266.0000 </r>
       <r>    20.2706     0.0000  1266.0000 </r>
       <r>    20.4095     0.0000  1266.0000 </r>
       <r>    20.5483     0.0000  1266.0000 </r>
       <r>    20.6871     0.0000  1266.0000 </r>
      </set>
     </set>
    </array>
   </total>
  </dos>
 </calculation>
 <structure name="finalpos" >
  <crystal>
   <varray name="basis" >
    <v>       0.00000000      12.28047342       0.00000000 </v>
    <v>       9.14270205       0.00000000       0.00000000 </v>
    <v>       0.00000000      -2.76826177     -11.30069772 </v>
   </varray>
   <i name="volume">   1268.80515525 </i>
   <varray name="rec_basis" >
    <v>       0.00000000       0.08143009      -0.01994742 </v>
    <v>       0.10937686      -0.00000000       0.00000000 </v>
    <v>       0.00000000       0.00000000      -0.08849011 </v>
   </varray>
  </crystal>
  <varray name="positions" >
   <v>       0.65966986       0.99965793       0.15652540 </v>
   <v>       0.65947135       0.99994231       0.65695185 </v>
   <v>       0.65966986       0.33367541       0.15652540 </v>
   <v>       0.65947135       0.33339102       0.65695185 </v>
   <v>       0.65885139       0.66666667       0.15649641 </v>
   <v>       0.65888488       0.66666667       0.65725114 </v>
   <v>       0.84469705       0.16666667       0.34651624 </v>
   <v>       0.84172716       0.16666667       0.84421369 </v>
   <v>       0.84111341       0.49986379       0.34310889 </v>
   <v>       0.84150970       0.49970353       0.84377932 </v>
   <v>       0.84111341       0.83346955       0.34310889 </v>
   <v>       0.84150970       0.83362980       0.84377932 </v>
   <v>       0.59294382       0.16666667       0.39714238 </v>
   <v>       0.59084495       0.16666667       0.89756138 </v>
   <v>       0.59186707       0.49971957       0.39771793 </v>
   <v>       0.59014056       0.50000049       0.89704278 </v>
   <v>       0.59186707       0.83361376       0.39771793 </v>
   <v>       0.59014056       0.83333285       0.89704278 </v>
   <v>       0.90953937       0.00008695       0.10397696 </v>
   <v>       0.90810845       0.99999735       0.60041610 </v>
   <v>       0.90953937       0.33324639       0.10397696 </v>
   <v>       0.90810845       0.33333598       0.60041610 </v>
   <v>       0.90964917       0.66666667       0.10315864 </v>
   <v>       0.90856808       0.66666667       0.60151854 </v>
   <v>       0.15912355       0.16666667       0.15919826 </v>
   <v>       0.15817751       0.16666667       0.65218156 </v>
   <v>       0.16006257       0.49933097       0.15790456 </v>
   <v>       0.15899385       0.49941284       0.65578680 </v>
   <v>       0.16006257       0.83400237       0.15790456 </v>
   <v>       0.15899385       0.83392049       0.65578680 </v>
   <v>       0.34114102       0.99982311       0.34391490 </v>
   <v>       0.34002123       0.00024854       0.84273670 </v>
   <v>       0.34114102       0.33351023       0.34391490 </v>
   <v>       0.34002123       0.33308479       0.84273670 </v>
   <v>       0.34232030       0.66666667       0.34329393 </v>
   <v>       0.34038685       0.66666667       0.84322049 </v>
   <v>       0.08589534       0.00461576       0.39623162 </v>
   <v>       0.09167034       0.00038715       0.89812388 </v>
   <v>       0.08589534       0.32871757       0.39623162 </v>
   <v>       0.09167034       0.33294618       0.89812388 </v>
   <v>       0.09179779       0.66666667       0.39804030 </v>
   <v>       0.09157614       0.66666667       0.89834576 </v>
   <v>       0.40873966       0.16666667       0.10246954 </v>
   <v>       0.40919631       0.16666667       0.60274234 </v>
   <v>       0.40945451       0.49974186       0.10227216 </v>
   <v>       0.40906521       0.49991829       0.60292105 </v>
   <v>       0.40945451       0.83359147       0.10227216 </v>
   <v>       0.40906521       0.83341504       0.60292105 </v>
   <v>       0.99647756       0.16666667       0.12014493 </v>
   <v>       0.99563613       0.16666667       0.62991903 </v>
   <v>       0.99720220       0.50014101       0.12716020 </v>
   <v>       0.99612914       0.49996172       0.62718848 </v>
   <v>       0.99720220       0.83319232       0.12716020 </v>
   <v>       0.99612914       0.83337161       0.62718848 </v>
   <v>       0.50449613       0.00045897       0.37282473 </v>
   <v>       0.50305687       0.00030056       0.87239070 </v>
   <v>       0.50449613       0.33287436       0.37282473 </v>
   <v>       0.50305687       0.33303277       0.87239070 </v>
   <v>       0.50466493       0.66666667       0.37314377 </v>
   <v>       0.50287256       0.66666667       0.87195978 </v>
   <v>       0.67452915       0.16666667       0.28030889 </v>
   <v>       0.67293331       0.16666667       0.78099022 </v>
   <v>       0.67129814       0.50127366       0.27942104 </v>
   <v>       0.67271232       0.50014284       0.78097955 </v>
   <v>       0.67129814       0.83205967       0.27942104 </v>
   <v>       0.67271232       0.83319050       0.78097955 </v>
   <v>       0.82484952       0.99457355       0.21701350 </v>
   <v>       0.82756983       0.99963185       0.71956657 </v>
   <v>       0.82484952       0.33875979       0.21701350 </v>
   <v>       0.82756983       0.33370149       0.71956657 </v>
   <v>       0.82689440       0.66666667       0.21886107 </v>
   <v>       0.82757010       0.66666667       0.71958544 </v>
   <v>       0.82461258       0.99613296       0.44658061 </v>
   <v>       0.83262691       0.99965705       0.94628100 </v>
   <v>       0.82461258       0.33720037       0.44658061 </v>
   <v>       0.83262691       0.33367628       0.94628100 </v>
   <v>       0.83015472       0.66666667       0.44554510 </v>
   <v>       0.83309737       0.66666667       0.94611764 </v>
   <v>       0.66768525       0.16666667       0.05373473 </v>
   <v>       0.66698847       0.16666667       0.55482048 </v>
   <v>       0.66616681       0.50064743       0.05314186 </v>
   <v>       0.66648518       0.50049918       0.55499492 </v>
   <v>       0.66616681       0.83268590       0.05314186 </v>
   <v>       0.66648518       0.83283416       0.55499492 </v>
   <v>       0.49668067       0.00042861       0.12689283 </v>
   <v>       0.49667089       0.99999942       0.62843033 </v>
   <v>       0.49668067       0.33290472       0.12689283 </v>
   <v>       0.49667089       0.33333392       0.62843033 </v>
   <v>       0.49612460       0.66666667       0.12633598 </v>
   <v>       0.49636781       0.66666667       0.62866777 </v>
   <v>       0.00390749       0.16666667       0.87223904 </v>
   <v>       0.00339818       0.50215896       0.37368828 </v>
   <v>       0.00416937       0.49993292       0.87307044 </v>
   <v>       0.00339818       0.83117437       0.37368828 </v>
   <v>       0.00416937       0.83340041       0.87307044 </v>
   <v>       0.17441018       0.99762295       0.28085179 </v>
   <v>       0.17245188       0.00004744       0.78030698 </v>
   <v>       0.17441018       0.33571038       0.28085179 </v>
   <v>       0.17245188       0.33328590       0.78030698 </v>
   <v>       0.17394229       0.66666667       0.28117686 </v>
   <v>       0.17242158       0.66666667       0.78053069 </v>
   <v>       0.32832678       0.16666667       0.22005698 </v>
   <v>       0.32729745       0.16666667       0.71941223 </v>
   <v>       0.32907498       0.50064153       0.21982069 </v>
   <v>       0.32802588       0.50030584       0.72030684 </v>
   <v>       0.32907498       0.83269180       0.21982069 </v>
   <v>       0.32802588       0.83302749       0.72030684 </v>
   <v>       0.33386118       0.16666667       0.44617638 </v>
   <v>       0.33220465       0.16666667       0.94576399 </v>
   <v>       0.33447199       0.50057613       0.44614619 </v>
   <v>       0.33219228       0.49981417       0.94584838 </v>
   <v>       0.33447199       0.83275720       0.44614619 </v>
   <v>       0.33219228       0.83351916       0.94584838 </v>
   <v>       0.16904370       0.00028269       0.05452935 </v>
   <v>       0.17029736       0.99762766       0.55400962 </v>
   <v>       0.16904370       0.33305064       0.05452935 </v>
   <v>       0.17029736       0.33570567       0.55400962 </v>
   <v>       0.16849507       0.66666667       0.05493625 </v>
   <v>       0.16922284       0.66666667       0.55479615 </v>
   <v>       0.99920600       0.16666667       0.36971450 </v>
  </varray>
 </structure>
</modeling>
