       N       E                     dE             d eps       ncg     rms          rms(c)
DAV:   1     0.338064869883E+04    0.33806E+04   -0.27454E+05  5656   0.136E+03
DAV:   2    -0.535535823136E+03   -0.39162E+04   -0.38140E+04  6672   0.315E+02
DAV:   3    -0.828523596987E+03   -0.29299E+03   -0.28951E+03  6608   0.912E+01
DAV:   4    -0.835318976567E+03   -0.67954E+01   -0.67389E+01  7248   0.138E+01
DAV:   5    -0.835435473050E+03   -0.11650E+00   -0.11585E+00  6600   0.172E+00    0.707E+01
RMM:   6    -0.720435191225E+03    0.11500E+03   -0.48542E+02  5775   0.322E+01    0.257E+01
RMM:   7    -0.722559543249E+03   -0.21244E+01   -0.55864E+01  6337   0.901E+00    0.149E+01
RMM:   8    -0.721219241094E+03    0.13403E+01   -0.63671E+00  6332   0.462E+00    0.225E+00
RMM:   9    -0.721328563181E+03   -0.10932E+00   -0.17939E+00  7300   0.153E+00    0.785E-01
RMM:  10    -0.721352069693E+03   -0.23507E-01   -0.21284E-01  6765   0.626E-01    0.509E-01
RMM:  11    -0.721357790803E+03   -0.57211E-02   -0.33035E-02  6877   0.264E-01    0.113E-01
RMM:  12    -0.721358499676E+03   -0.70887E-03   -0.75877E-03  7308   0.112E-01    0.416E-02
RMM:  13    -0.721358599461E+03   -0.99785E-04   -0.94401E-04  7170   0.415E-02    0.172E-02
RMM:  14    -0.721358635701E+03   -0.36240E-04   -0.24066E-04  6315   0.191E-02    0.831E-03
RMM:  15    -0.721358643693E+03   -0.79923E-05   -0.51612E-05  4985   0.912E-03
   1 F= -.72135864E+03 E0= -.72135864E+03  d E =-.771743E-17
