 vasp.6.4.2 20Jul23 (build Nov 20 2024 16:57:20) complex                        
  
 executed on             LinuxIFC date 2025.03.03  10:14:48
 running   64 mpi-ranks, on    1 nodes
 distrk:  each k-point on   64 cores,    1 groups
 distr:  one band on NCORE=   8 cores,    8 groups


--------------------------------------------------------------------------------------------------------


 INCAR:
   PREC = Normal
   ENCUT = 450
   IBRION = -1
   ISPIN = 1
   NSW = 0
   ISIF = 3
   EDIFF = 1E-5
   EDIFFG = -5E-3
   ALGO = Fast
   ISTART = 0
   ICHARG = 2
   ISMEAR = 0
   SIGMA = 0.05
   LWAVE = .T.
   LCHARG = .T.
   LREAL = .F.
   LPLANE = .TRUE.
   NPAR = 8

 POTCAR:    PAW_PBE Ga 08Apr2002                  
 POTCAR:    PAW_PBE O 08Apr2002                   
 POTCAR:    PAW_PBE Ga 08Apr2002                  
   SHA256 =  023a37ab0b797ff5f2482c75273bbcab161c7187972ce51a2c47c8a86975dbe0 Ga/POTCAR             
   COPYR  = (c) Copyright 08Apr2002 Georg Kresse                                                    
   COPYR  = This file is part of the software VASP. Any use, copying, and all other rights are regul
   COPYR  = If you do not have a valid VASP license, you may not use, copy or distribute this file. 
   VRHFIN =Ga: s2p1                                                                                 
   LEXCH  = PE                                                                                      
   EATOM  =    58.8688 eV,    4.3267 Ry                                                             
                                                                                                    
   TITEL  = PAW_PBE Ga 08Apr2002                                                                    
   LULTRA =        F    use ultrasoft PP ?                                                          
   IUNSCR =        1    unscreen: 0-lin 1-nonlin 2-no                                               
   RPACOR =    2.170    partial core radius                                                         
   POMASS =   69.723; ZVAL   =    3.000    mass and valenz                                          
   RCORE  =    2.600    outmost cutoff radius                                                       
   RWIGS  =    2.650; RWIGS  =    1.402    wigner-seitz radius (au A)                               
   ENMAX  =  134.678; ENMIN  =  101.009 eV                                                          
   ICORE  =        3    local potential                                                             
   LCOR   =        T    correct aug charges                                                         
   LPAW   =        T    paw PP                                                                      
   EAUG   =  320.264                                                                                
   DEXC   =    0.000                                                                                
   RMAX   =    2.658    core radius for proj-oper                                                   
   RAUG   =    1.300    factor for augmentation sphere                                              
   RDEP   =    2.684    radius for radial grids                                                     
   RDEPT  =    2.308    core radius for aug-charge                                                  
                                                                                                    
   Atomic configuration                                                                             
   10 entries                                                                                       
     n  l   j            E        occ.                                                              
     1  0  0.50    -10228.7830   2.0000                                                             
     2  0  0.50     -1262.1604   2.0000                                                             
     2  1  1.50     -1098.6333   6.0000                                                             
     3  0  0.50      -148.1110   2.0000                                                             
     3  1  1.50       -98.8436   6.0000                                                             
     3  2  2.50       -19.1549  10.0000                                                             
     4  0  0.50        -8.9483   2.0000                                                             
     4  1  0.50        -2.5791   1.0000                                                             
     4  2  1.50         5.4423   0.0000                                                             
     4  3  2.50        -2.7416   0.0000                                                             
   Description                                                                                      
     l       E           TYP  RCUT    TYP  RCUT                                                     
     0     -8.9483097     23  2.600                                                                 
     0     -5.8232215     23  2.600                                                                 
     1     -2.5790793     23  2.600                                                                 
     1      5.2230115     23  2.600                                                                 
     2      1.3605826     23  2.600                                                                 
     3     -1.3605826      7  2.600                                                                 
  local pseudopotential read in
  partial core-charges read in
  partial kinetic energy density read in
  atomic valenz-charges read in
  non local Contribution for L=           0  read in
    real space projection operators read in
  non local Contribution for L=           0  read in
    real space projection operators read in
  non local Contribution for L=           1  read in
    real space projection operators read in
  non local Contribution for L=           1  read in
    real space projection operators read in
  non local Contribution for L=           2  read in
    real space projection operators read in
    PAW grid and wavefunctions read in
 
   number of l-projection  operators is LMAX  =           5
   number of lm-projection operators is LMMAX =          13
 
 POTCAR:    PAW_PBE O 08Apr2002                   
   SHA256 =  818f92134a0a090dccd8ba1447fa70422a3b330e708bb4f08108d8ae51209ddf O/POTCAR              
   COPYR  = (c) Copyright 08Apr2002 Georg Kresse                                                    
   COPYR  = This file is part of the software VASP. Any use, copying, and all other rights are regul
   COPYR  = If you do not have a valid VASP license, you may not use, copy or distribute this file. 
   VRHFIN =O: s2p4                                                                                  
   LEXCH  = PE                                                                                      
   EATOM  =   432.3788 eV,   31.7789 Ry                                                             
                                                                                                    
   TITEL  = PAW_PBE O 08Apr2002                                                                     
   LULTRA =        F    use ultrasoft PP ?                                                          
   IUNSCR =        1    unscreen: 0-lin 1-nonlin 2-no                                               
   RPACOR =    1.200    partial core radius                                                         
   POMASS =   16.000; ZVAL   =    6.000    mass and valenz                                          
   RCORE  =    1.520    outmost cutoff radius                                                       
   RWIGS  =    1.550; RWIGS  =    0.820    wigner-seitz radius (au A)                               
   ENMAX  =  400.000; ENMIN  =  300.000 eV                                                          
   ICORE  =        2    local potential                                                             
   LCOR   =        T    correct aug charges                                                         
   LPAW   =        T    paw PP                                                                      
   EAUG   =  605.392                                                                                
   DEXC   =    0.000                                                                                
   RMAX   =    1.553    core radius for proj-oper                                                   
   RAUG   =    1.300    factor for augmentation sphere                                              
   RDEP   =    1.550    radius for radial grids                                                     
   RDEPT  =    1.329    core radius for aug-charge                                                  
                                                                                                    
   Atomic configuration                                                                             
    4 entries                                                                                       
     n  l   j            E        occ.                                                              
     1  0  0.50      -514.6923   2.0000                                                             
     2  0  0.50       -23.9615   2.0000                                                             
     2  1  0.50        -9.0305   4.0000                                                             
     3  2  1.50        -9.5241   0.0000                                                             
   Description                                                                                      
     l       E           TYP  RCUT    TYP  RCUT                                                     
     0    -23.9615318     23  1.200                                                                 
     0     -9.5240782     23  1.200                                                                 
     1     -9.0304911     23  1.520                                                                 
     1      8.1634956     23  1.520                                                                 
     2     -9.5240782      7  1.500                                                                 
  local pseudopotential read in
  partial core-charges read in
  partial kinetic energy density read in
  kinetic energy density of atom read in
  atomic valenz-charges read in
  non local Contribution for L=           0  read in
    real space projection operators read in
  non local Contribution for L=           0  read in
    real space projection operators read in
  non local Contribution for L=           1  read in
    real space projection operators read in
  non local Contribution for L=           1  read in
    real space projection operators read in
    PAW grid and wavefunctions read in
 
   number of l-projection  operators is LMAX  =           4
   number of lm-projection operators is LMMAX =           8
 
 -----------------------------------------------------------------------------
|                                                                             |
|               ----> ADVICE to this user running VASP <----                  |
|                                                                             |
|     You have a (more or less) 'large supercell' and for larger cells it     |
|     might be more efficient to use real-space projection operators.         |
|     Therefore, try LREAL= Auto in the INCAR file.                           |
|     Mind: For very accurate calculation, you might also keep the            |
|     reciprocal projection scheme (i.e. LREAL=.FALSE.).                      |
|                                                                             |
 -----------------------------------------------------------------------------

  PAW_PBE Ga 08Apr2002                  :
 energy of atom  1       EATOM=  -58.8688
 kinetic energy error for atom=    0.0001 (will be added to EATOM!!)
  PAW_PBE O 08Apr2002                   :
 energy of atom  2       EATOM= -432.3788
 kinetic energy error for atom=    0.0389 (will be added to EATOM!!)
 
 
 POSCAR: Ga48 O72
  positions in direct lattice
  velocities in cartesian coordinates
 exchange correlation table for  LEXCH =        8
   RHO(1)=    0.500       N(1)  =     2000
   RHO(2)=  100.500       N(2)  =     4000
 


--------------------------------------------------------------------------------------------------------


 ion  position               nearest neighbor table
   1  0.659  0.000  0.158-  85 1.97  83 1.98  79 1.98  67 2.04  61 2.09  65 2.09   3 3.09   5 3.09
                             7 3.14  11 3.14  19 3.33  18 3.36  14 3.36
   2  0.659  0.000  0.658-  86 1.97  84 1.98  80 1.98  68 2.04  62 2.09  66 2.09   4 3.09   6 3.09
                             8 3.14  12 3.14  20 3.33  17 3.36  13 3.36
   3  0.659  0.333  0.158-  87 1.97  81 1.98  79 1.98  69 2.04  63 2.09  61 2.09   5 3.09   1 3.09
                             9 3.14   7 3.14  21 3.33  16 3.36  14 3.36
   4  0.659  0.333  0.658-  88 1.97  82 1.98  80 1.98  70 2.04  64 2.09  62 2.09   6 3.09   2 3.09
                            10 3.14   8 3.14  22 3.33  15 3.36  13 3.36
   5  0.659  0.667  0.158-  89 1.97  81 1.98  83 1.98  71 2.04  63 2.09  65 2.09   3 3.09   1 3.09
                             9 3.14  11 3.14  23 3.33  16 3.36  18 3.36
   6  0.659  0.667  0.658-  90 1.97  82 1.98  84 1.98  72 2.04  64 2.09  66 2.09   4 3.09   2 3.09
                            10 3.14  12 3.14  24 3.33  15 3.36  17 3.36
   7  0.841  0.167  0.342-  91 1.97  73 1.98  75 1.98  61 2.04  67 2.09  69 2.09  11 3.09   9 3.09
                             1 3.14   3 3.14  13 3.33  20 3.36  22 3.36
   8  0.841  0.167  0.842-  92 1.97  74 1.98  76 1.98  62 2.04  68 2.09  70 2.09  12 3.09  10 3.09
                             2 3.14   4 3.14  14 3.33  19 3.36  21 3.36
   9  0.841  0.500  0.342-  93 1.97  77 1.98  75 1.98  63 2.04  71 2.09  69 2.09   7 3.09  11 3.09
                             3 3.14   5 3.14  15 3.33  22 3.36  24 3.36
  10  0.841  0.500  0.842-  94 1.97  78 1.98  76 1.98  64 2.04  72 2.09  70 2.09   8 3.09  12 3.09
                             4 3.14   6 3.14  16 3.33  21 3.36  23 3.36
  11  0.841  0.833  0.342-  95 1.97  73 1.98  77 1.98  65 2.04  67 2.09  71 2.09   7 3.09   9 3.09
                             1 3.14   5 3.14  17 3.33  20 3.36  24 3.36
  12  0.841  0.833  0.842-  96 1.97  74 1.98  78 1.98  66 2.04  68 2.09  72 2.09   8 3.09  10 3.09
                             2 3.14   6 3.14  18 3.33  19 3.36  23 3.36
  13  0.591  0.167  0.398-  80 1.87  55 1.88  57 1.88  61 1.91  17 3.09  15 3.09   7 3.33   2 3.36
                             4 3.36
  14  0.591  0.167  0.898-  79 1.87  56 1.88  58 1.88  62 1.91  18 3.09  16 3.09   8 3.33   1 3.36
                             3 3.36
  15  0.591  0.500  0.398-  82 1.87  59 1.88  57 1.88  63 1.91  13 3.09  17 3.09   9 3.33   6 3.36
                             4 3.36
  16  0.591  0.500  0.898-  81 1.87  60 1.88  58 1.88  64 1.91  14 3.09  18 3.09  10 3.33   5 3.36
                             3 3.36
  17  0.591  0.833  0.398-  84 1.87  55 1.88  59 1.88  65 1.91  13 3.09  15 3.09  11 3.33   2 3.36
                             6 3.36
  18  0.591  0.833  0.898-  83 1.87  56 1.88  60 1.88  66 1.91  14 3.09  16 3.09  12 3.33   1 3.36
                             5 3.36
  19  0.909  0.000  0.102-  74 1.87  53 1.88  49 1.88  67 1.91  21 3.09  23 3.09   1 3.33   8 3.36
                            12 3.36
  20  0.909  0.000  0.602-  73 1.87  54 1.88  50 1.88  68 1.91  22 3.09  24 3.09   2 3.33   7 3.36
                            11 3.36
  21  0.909  0.333  0.102-  76 1.87  51 1.88  49 1.88  69 1.91  23 3.09  19 3.09   3 3.33  10 3.36
                             8 3.36
  22  0.909  0.333  0.602-  75 1.87  52 1.88  50 1.88  70 1.91  24 3.09  20 3.09   4 3.33   9 3.36
                             7 3.36
  23  0.909  0.667  0.102-  78 1.87  51 1.88  53 1.88  71 1.91  21 3.09  19 3.09   5 3.33  10 3.36
                            12 3.36
  24  0.909  0.667  0.602-  77 1.87  52 1.88  54 1.88  72 1.91  22 3.09  20 3.09   6 3.33   9 3.36
                            11 3.36
  25  0.159  0.167  0.158-  49 1.97 115 1.98 117 1.98 103 2.04  97 2.09  99 2.09  29 3.09  27 3.09
                            31 3.14  33 3.14  43 3.33  38 3.36  40 3.36
  26  0.159  0.167  0.658-  50 1.97 116 1.98 118 1.98 104 2.04  98 2.09 100 2.09  30 3.09  28 3.09
                            32 3.14  34 3.14  44 3.33  37 3.36  39 3.36
  27  0.159  0.500  0.158-  51 1.97 117 1.98 119 1.98 105 2.04 101 2.09  99 2.09  25 3.09  29 3.09
                            33 3.14  35 3.14  45 3.33  42 3.36  40 3.36
  28  0.159  0.500  0.658-  52 1.97 118 1.98 120 1.98 106 2.04 102 2.09 100 2.09  26 3.09  30 3.09
                            34 3.14  36 3.14  46 3.33  41 3.36  39 3.36
  29  0.159  0.833  0.158-  53 1.97 115 1.98 119 1.98 107 2.04  97 2.09 101 2.09  25 3.09  27 3.09
                            31 3.14  35 3.14  47 3.33  38 3.36  42 3.36
  30  0.159  0.833  0.658-  54 1.97 116 1.98 120 1.98 108 2.04  98 2.09 102 2.09  26 3.09  28 3.09
                            32 3.14  36 3.14  48 3.33  37 3.36  41 3.36
  31  0.341  0.000  0.342-  55 1.97 109 1.98 113 1.98  97 2.04 103 2.09 107 2.09  33 3.09  35 3.09
                            25 3.14  29 3.14  37 3.33  44 3.36  48 3.36
  32  0.341  0.000  0.842-  56 1.97 110 1.98 114 1.98  98 2.04 104 2.09 108 2.09  34 3.09  36 3.09
                            26 3.14  30 3.14  38 3.33  43 3.36  47 3.36
  33  0.341  0.333  0.342-  57 1.97 111 1.98 109 1.98  99 2.04 105 2.09 103 2.09  35 3.09  31 3.09
                            27 3.14  25 3.14  39 3.33  46 3.36  44 3.36
  34  0.341  0.333  0.842-  58 1.97 112 1.98 110 1.98 100 2.04 106 2.09 104 2.09  36 3.09  32 3.09
                            28 3.14  26 3.14  40 3.33  45 3.36  43 3.36
  35  0.341  0.667  0.342-  59 1.97 111 1.98 113 1.98 101 2.04 105 2.09 107 2.09  33 3.09  31 3.09
                            27 3.14  29 3.14  41 3.33  46 3.36  48 3.36
  36  0.341  0.667  0.842-  60 1.97 112 1.98 114 1.98 102 2.04 106 2.09 108 2.09  34 3.09  32 3.09
                            28 3.14  30 3.14  42 3.33  45 3.36  47 3.36
  37  0.091  0.000  0.398- 116 1.87  95 1.88  91 1.88  97 1.91  39 3.09  41 3.09  31 3.33  30 3.36
                            26 3.36
  38  0.091  0.000  0.898- 115 1.87  96 1.88  92 1.88  98 1.91  40 3.09  42 3.09  32 3.33  29 3.36
                            25 3.36
  39  0.091  0.333  0.398- 118 1.87  93 1.88  91 1.88  99 1.91  41 3.09  37 3.09  33 3.33  28 3.36
                            26 3.36
  40  0.091  0.333  0.898- 117 1.87  94 1.88  92 1.88 100 1.91  42 3.09  38 3.09  34 3.33  27 3.36
                            25 3.36
  41  0.091  0.667  0.398- 120 1.87  93 1.88  95 1.88 101 1.91  39 3.09  37 3.09  35 3.33  28 3.36
                            30 3.36
  42  0.091  0.667  0.898- 119 1.87  94 1.88  96 1.88 102 1.91  40 3.09  38 3.09  36 3.33  27 3.36
                            29 3.36
  43  0.409  0.167  0.102- 110 1.87  85 1.88  87 1.88 103 1.91  47 3.09  45 3.09  25 3.33  32 3.36
                            34 3.36
  44  0.409  0.167  0.602- 109 1.87  86 1.88  88 1.88 104 1.91  48 3.09  46 3.09  26 3.33  31 3.36
                            33 3.36
  45  0.409  0.500  0.102- 112 1.87  89 1.88  87 1.88 105 1.91  43 3.09  47 3.09  27 3.33  34 3.36
                            36 3.36
  46  0.409  0.500  0.602- 111 1.87  90 1.88  88 1.88 106 1.91  44 3.09  48 3.09  28 3.33  33 3.36
                            35 3.36
  47  0.409  0.833  0.102- 114 1.87  85 1.88  89 1.88 107 1.91  43 3.09  45 3.09  29 3.33  32 3.36
                            36 3.36
  48  0.409  0.833  0.602- 113 1.87  86 1.88  90 1.88 108 1.91  44 3.09  46 3.09  30 3.33  31 3.36
                            35 3.36
  49  0.997  0.167  0.128-  19 1.88  21 1.88  25 1.97
  50  0.997  0.167  0.628-  20 1.88  22 1.88  26 1.97
  51  0.997  0.500  0.128-  21 1.88  23 1.88  27 1.97
  52  0.997  0.500  0.628-  22 1.88  24 1.88  28 1.97
  53  0.997  0.833  0.128-  19 1.88  23 1.88  29 1.97
  54  0.997  0.833  0.628-  20 1.88  24 1.88  30 1.97
  55  0.503  0.000  0.372-  13 1.88  17 1.88  31 1.97
  56  0.503  0.000  0.872-  14 1.88  18 1.88  32 1.97
  57  0.503  0.333  0.372-  15 1.88  13 1.88  33 1.97
  58  0.503  0.333  0.872-  16 1.88  14 1.88  34 1.97
  59  0.503  0.667  0.372-  15 1.88  17 1.88  35 1.97
  60  0.503  0.667  0.872-  16 1.88  18 1.88  36 1.97
  61  0.673  0.167  0.280-  13 1.91   7 2.04   1 2.09   3 2.09
  62  0.673  0.167  0.780-  14 1.91   8 2.04   2 2.09   4 2.09
  63  0.673  0.500  0.280-  15 1.91   9 2.04   3 2.09   5 2.09
  64  0.673  0.500  0.780-  16 1.91  10 2.04   4 2.09   6 2.09
  65  0.673  0.833  0.280-  17 1.91  11 2.04   1 2.09   5 2.09
  66  0.673  0.833  0.780-  18 1.91  12 2.04   2 2.09   6 2.09
  67  0.827  0.000  0.220-  19 1.91   1 2.04  11 2.09   7 2.09
  68  0.827  0.000  0.720-  20 1.91   2 2.04  12 2.09   8 2.09
  69  0.827  0.333  0.220-  21 1.91   3 2.04   9 2.09   7 2.09
  70  0.827  0.333  0.720-  22 1.91   4 2.04  10 2.09   8 2.09
  71  0.827  0.667  0.220-  23 1.91   5 2.04   9 2.09  11 2.09
  72  0.827  0.667  0.720-  24 1.91   6 2.04  10 2.09  12 2.09
  73  0.833  0.000  0.444-  20 1.87  11 1.98   7 1.98
  74  0.833  0.000  0.944-  19 1.87  12 1.98   8 1.98
  75  0.833  0.333  0.444-  22 1.87   9 1.98   7 1.98
  76  0.833  0.333  0.944-  21 1.87  10 1.98   8 1.98
  77  0.833  0.667  0.444-  24 1.87   9 1.98  11 1.98
  78  0.833  0.667  0.944-  23 1.87  10 1.98  12 1.98
  79  0.667  0.167  0.056-  14 1.87   1 1.98   3 1.98
  80  0.667  0.167  0.556-  13 1.87   2 1.98   4 1.98
  81  0.667  0.500  0.056-  16 1.87   5 1.98   3 1.98
  82  0.667  0.500  0.556-  15 1.87   6 1.98   4 1.98
  83  0.667  0.833  0.056-  18 1.87   1 1.98   5 1.98
  84  0.667  0.833  0.556-  17 1.87   2 1.98   6 1.98
  85  0.497  0.000  0.128-  43 1.88  47 1.88   1 1.97
  86  0.497  0.000  0.628-  44 1.88  48 1.88   2 1.97
  87  0.497  0.333  0.128-  45 1.88  43 1.88   3 1.97
  88  0.497  0.333  0.628-  46 1.88  44 1.88   4 1.97
  89  0.497  0.667  0.128-  45 1.88  47 1.88   5 1.97
  90  0.497  0.667  0.628-  46 1.88  48 1.88   6 1.97
  91  0.003  0.167  0.372-  37 1.88  39 1.88   7 1.97
  92  0.003  0.167  0.872-  38 1.88  40 1.88   8 1.97
  93  0.003  0.500  0.372-  39 1.88  41 1.88   9 1.97
  94  0.003  0.500  0.872-  40 1.88  42 1.88  10 1.97
  95  0.003  0.833  0.372-  37 1.88  41 1.88  11 1.97
  96  0.003  0.833  0.872-  38 1.88  42 1.88  12 1.97
  97  0.173  0.000  0.280-  37 1.91  31 2.04  25 2.09  29 2.09
  98  0.173  0.000  0.780-  38 1.91  32 2.04  26 2.09  30 2.09
  99  0.173  0.333  0.280-  39 1.91  33 2.04  27 2.09  25 2.09
 100  0.173  0.333  0.780-  40 1.91  34 2.04  28 2.09  26 2.09
 101  0.173  0.667  0.280-  41 1.91  35 2.04  27 2.09  29 2.09
 102  0.173  0.667  0.780-  42 1.91  36 2.04  28 2.09  30 2.09
 103  0.327  0.167  0.220-  43 1.91  25 2.04  31 2.09  33 2.09
 104  0.327  0.167  0.720-  44 1.91  26 2.04  32 2.09  34 2.09
 105  0.327  0.500  0.220-  45 1.91  27 2.04  35 2.09  33 2.09
 106  0.327  0.500  0.720-  46 1.91  28 2.04  36 2.09  34 2.09
 107  0.327  0.833  0.220-  47 1.91  29 2.04  31 2.09  35 2.09
 108  0.327  0.833  0.720-  48 1.91  30 2.04  32 2.09  36 2.09
 109  0.333  0.167  0.444-  44 1.87  31 1.98  33 1.98
 110  0.333  0.167  0.944-  43 1.87  32 1.98  34 1.98
 111  0.333  0.500  0.444-  46 1.87  35 1.98  33 1.98
 112  0.333  0.500  0.944-  45 1.87  36 1.98  34 1.98
 113  0.333  0.833  0.444-  48 1.87  31 1.98  35 1.98
 114  0.333  0.833  0.944-  47 1.87  32 1.98  36 1.98
 115  0.167  0.000  0.056-  38 1.87  29 1.98  25 1.98
 116  0.167  0.000  0.556-  37 1.87  30 1.98  26 1.98
 117  0.167  0.333  0.056-  40 1.87  27 1.98  25 1.98
 118  0.167  0.333  0.556-  39 1.87  28 1.98  26 1.98
 119  0.167  0.667  0.056-  42 1.87  27 1.98  29 1.98
 120  0.167  0.667  0.556-  41 1.87  28 1.98  30 1.98
 
  LATTYP: Found a simple monoclinic cell.
 ALAT       =    11.8001345316
 B/A-ratio  =     0.7862587422
 C/A-ratio  =     1.0545558026
 COS(beta)  =    -0.2375271897
  
  Lattice vectors:
  
 A1 = (   0.0000000000,  -2.8039878967, -11.4621475666)
 A2 = (  -9.2779589344,   0.0000000000,   0.0000000000)
 A3 = (   0.0000000000,  12.4439002805,  -0.0012323125)


Analysis of symmetry for initial positions (statically):
=====================================================================
 Subroutine PRICEL returns following result:
 
  LATTYP: Found a base centered monoclinic cell.
 ALAT       =    12.4439003415
 B/A-ratio  =     0.2485276234
 C/A-ratio  =     0.4741332785
 COS(beta)  =    -0.2375271897
  
  Lattice vectors:
  
 A1 = (  -1.5463264891,   6.2219501402,  -0.0006161562)
 A2 = (   1.5463264891,   6.2219501402,  -0.0006161562)
 A3 = (   0.0000000000,  -1.4019939484,  -5.7310737833)
 
  12 primitive cells build up your supercell.
 

 Routine SETGRP: Setting up the symmetry group for a 
 simple monoclinic supercell.


 Subroutine GETGRP returns: Found  4 space group operations
 (whereof  4 operations were pure point group operations)
 out of a pool of  4 trial point group operations.


The static configuration has the point symmetry C_2h.


Analysis of symmetry for dynamics (positions and initial velocities):
=====================================================================
 Subroutine PRICEL returns following result:
 
  LATTYP: Found a base centered monoclinic cell.
 ALAT       =    12.4439003415
 B/A-ratio  =     0.2485276234
 C/A-ratio  =     0.4741332785
 COS(beta)  =    -0.2375271897
  
  Lattice vectors:
  
 A1 = (  -1.5463264891,   6.2219501402,  -0.0006161562)
 A2 = (   1.5463264891,   6.2219501402,  -0.0006161562)
 A3 = (   0.0000000000,  -1.4019939484,  -5.7310737833)
 
  12 primitive cells build up your supercell.
 

 Routine SETGRP: Setting up the symmetry group for a 
 simple monoclinic supercell.


 Subroutine GETGRP returns: Found  4 space group operations
 (whereof  4 operations were pure point group operations)
 out of a pool of  4 trial point group operations.


The dynamic configuration has the point symmetry C_2h.


 Subroutine INISYM returns: Found  4 space group operations
 (whereof  4 operations are pure point group operations),
 and found    12 'primitive' translations


----------------------------------------------------------------------------------------

                                     Primitive cell                                     

  volume of cell :     110.2819

  direct lattice vectors                    reciprocal lattice vectors
    -1.546326489  6.221950140 -0.000616156    -0.323346980  0.080358710 -0.019658170
     1.546326489  6.221950140 -0.000616156     0.323346980  0.080358710 -0.019658170
     0.000000000 -1.401993948 -5.731073783     0.000000000 -0.000017279 -0.174483144

  length of vectors
     6.411223716  6.411223716  5.900067266     0.333762244  0.333762244  0.174483145

  position of ions in fractional coordinates (direct lattice)
     0.659177187  0.659177187  0.316094532
     0.340822813  0.340822813  0.683905468
     0.091175146  0.091175146  0.796301135
     0.908824854  0.908824854  0.203698865
     0.496600750  0.496600750  0.255920386
     0.503399250  0.503399250  0.744079614
     0.173271214  0.173271214  0.560824390
     0.826728786  0.826728786  0.439175610
     0.832925395  0.832925395  0.888604440
     0.167074605  0.167074605  0.111395560

  ion indices of the primitive-cell ions
   primitive index   ion index
                 1           1
                 2           7
                 3          13
                 4          19
                 5          85
                 6          55
                 7          61
                 8          67
                 9          74
                10          79

----------------------------------------------------------------------------------------

 
 
 KPOINTS: Automatic mesh                          

Automatic generation of k-mesh.
 Grid dimensions read from file:
 generate k-points for:    2    2    2

 Generating k-lattice:

  Cartesian coordinates                     Fractional coordinates (reciprocal lattice)
     0.000000000  0.040179355 -0.009829085     0.500000000  0.000000000  0.000000000
     0.053891163  0.000000000  0.000000000     0.000000000  0.500000000  0.000000000
     0.000000000 -0.000004320 -0.043620786    -0.000000000  0.000000000  0.500000000

  Length of vectors
     0.041364133  0.053891163  0.043620786

  Shift w.r.t. Gamma in fractional coordinates (k-lattice)
     0.000000000  0.000000000  0.000000000

 
 Subroutine IBZKPT returns following result:
 ===========================================
 
 Found      8 irreducible k-points:
 
 Following reciprocal coordinates:
            Coordinates               Weight
  0.000000  0.000000  0.000000      1.000000
  0.500000  0.000000  0.000000      1.000000
  0.000000  0.500000  0.000000      1.000000
  0.500000  0.500000  0.000000      1.000000
  0.000000  0.000000  0.500000      1.000000
  0.500000  0.000000  0.500000      1.000000
  0.000000  0.500000  0.500000      1.000000
  0.500000  0.500000  0.500000      1.000000
 
 Following cartesian coordinates:
            Coordinates               Weight
  0.000000  0.000000 -0.000000      1.000000
  0.000000  0.040179 -0.009829      1.000000
  0.053891  0.000000 -0.000000      1.000000
  0.053891  0.040179 -0.009829      1.000000
  0.000000 -0.000004 -0.043621      1.000000
  0.000000  0.040175 -0.053450      1.000000
  0.053891 -0.000004 -0.043621      1.000000
  0.053891  0.040175 -0.053450      1.000000
 


--------------------------------------------------------------------------------------------------------




 Dimension of arrays:
   k-points           NKPTS =      8   k-points in BZ     NKDIM =      8   number of bands    NBANDS=    352
   number of dos      NEDOS =    301   number of ions     NIONS =    120
   non local maximal  LDIM  =      5   non local SUM 2l+1 LMDIM =     13
   total plane-waves  NPLWV = 215040
   max r-space proj   IRMAX =      1   max aug-charges    IRDMAX=  11877
   dimension x,y,z NGX =    70 NGY =   48 NGZ =   64
   dimension x,y,z NGXF=   140 NGYF=   96 NGZF=  128
   support grid    NGXF=   140 NGYF=   96 NGZF=  128
   ions per type =              48  72
   NGX,Y,Z   is equivalent  to a cutoff of   9.35,  8.60,  9.02 a.u.
   NGXF,Y,Z  is equivalent  to a cutoff of  18.70, 17.20, 18.03 a.u.

 SYSTEM =  unknown system                          
 POSCAR =  Ga48 O72                                

 Startparameter for this run:
   NWRITE =      2    write-flag & timer
   PREC   = normal    normal or accurate (medium, high low for compatibility)
   ISTART =      0    job   : 0-new  1-cont  2-samecut
   ICHARG =      2    charge: 1-file 2-atom 10-const
   ISPIN  =      1    spin polarized calculation?
   LNONCOLLINEAR =      F non collinear calculations
   LSORBIT =      F    spin-orbit coupling
   INIWAV =      1    electr: 0-lowe 1-rand  2-diag
   LASPH  =      F    aspherical Exc in radial PAW
 Electronic Relaxation 1
   ENCUT  =  450.0 eV  33.07 Ry    5.75 a.u.  21.52 16.05 20.41*2*pi/ulx,y,z
   ENINI  =  450.0     initial cutoff
   ENAUG  =  605.4 eV  augmentation charge cutoff
   NELM   =     60;   NELMIN=  2; NELMDL= -5     # of ELM steps 
   EDIFF  = 0.1E-04   stopping-criterion for ELM
   LREAL  =      F    real-space projection
   NLSPLINE    = F    spline interpolate recip. space projectors
   LCOMPAT=      F    compatible to vasp.4.4
   GGA_COMPAT  = T    GGA compatible to vasp.4.4-vasp.4.6
   LMAXPAW     = -100 max onsite density
   LMAXMIX     =    2 max onsite mixed and CHGCAR
   VOSKOWN=      0    Vosko Wilk Nusair interpolation
   ROPT   =    0.00000   0.00000
 Ionic relaxation
   EDIFFG = -.5E-02   stopping-criterion for IOM
   NSW    =      0    number of steps for IOM
   NBLOCK =      1;   KBLOCK =      1    inner block; outer block 
   IBRION =     -1    ionic relax: 0-MD 1-quasi-New 2-CG
   NFREE  =      0    steps in history (QN), initial steepest desc. (CG)
   ISIF   =      3    stress and relaxation
   IWAVPR =     10    prediction:  0-non 1-charg 2-wave 3-comb
   ISYM   =      2    0-nonsym 1-usesym 2-fastsym
   LCORR  =      T    Harris-Foulkes like correction to forces

   POTIM  = 0.5000    time-step for ionic-motion
   TEIN   =    0.0    initial temperature
   TEBEG  =    0.0;   TEEND  =   0.0 temperature during run
   SMASS  =  -3.00    Nose mass-parameter (am)
   estimated Nose-frequenzy (Omega)   =  0.10E-29 period in steps = 0.13E+47 mass=  -0.354E-26a.u.
   SCALEE = 1.0000    scale energy and forces
   NPACO  =    256;   APACO  = 10.0  distance and # of slots for P.C.
   PSTRESS=    0.0 pullay stress

  Mass of Ions in am
   POMASS =  69.72 16.00
  Ionic Valenz
   ZVAL   =   3.00  6.00
  Atomic Wigner-Seitz radii
   RWIGS  =  -1.00 -1.00
  virtual crystal weights 
   VCA    =   1.00  1.00
   NELECT =     576.0000    total number of electrons
   NUPDOWN=      -1.0000    fix difference up-down

 DOS related values:
   EMIN   =  10.00;   EMAX   =-10.00  energy-range for DOS
   EFERMI =   0.00;   METHOD = LEGACY      
   ISMEAR =     0;   SIGMA  =   0.05  broadening in eV -4-tet -1-fermi 0-gaus

 Electronic relaxation 2 (details)
   IALGO  =     68    algorithm
   LDIAG  =      T    sub-space diagonalisation (order eigenvalues)
   LSUBROT=      F    optimize rotation matrix (better conditioning)
   TURBO    =      0    0=normal 1=particle mesh
   IRESTART =      0    0=no restart 2=restart with 2 vectors
   NREBOOT  =      0    no. of reboots
   NMIN     =      0    reboot dimension
   EREF     =   0.00    reference energy to select bands
   IMIX   =      4    mixing-type and parameters
     AMIX     =   0.40;   BMIX     =  1.00
     AMIX_MAG =   1.60;   BMIX_MAG =  1.00
     AMIN     =   0.10
     WC   =   100.;   INIMIX=   1;  MIXPRE=   1;  MAXMIX= -45

 Intra band minimization:
   WEIMIN = 0.0000     energy-eigenvalue tresh-hold
   EBREAK =  0.71E-08  absolut break condition
   DEPER  =   0.30     relativ break condition  

   TIME   =   0.40     timestep for ELM

  volume/ion in A,a.u.               =      11.03        74.42
  Fermi-wavevector in a.u.,A,eV,Ry     =   1.240663  2.344513 20.942695  1.539245
  Thomas-Fermi vector in A             =   2.375094
 
 Write flags
   LWAVE        =      T    write WAVECAR
   LDOWNSAMPLE  =      F    k-point downsampling of WAVECAR
   LCHARG       =      T    write CHGCAR
   LVTOT        =      F    write LOCPOT, total local potential
   LVHAR        =      F    write LOCPOT, Hartree potential only
   LELF         =      F    write electronic localiz. function (ELF)
   LORBIT       =      0    0 simple, 1 ext, 2 COOP (PROOUT), +10 PAW based schemes


 Dipole corrections
   LMONO  =      F    monopole corrections only (constant potential shift)
   LDIPOL =      F    correct potential (dipole corrections)
   IDIPOL =      0    1-x, 2-y, 3-z, 4-all directions 
   EPSILON=  1.0000000 bulk dielectric constant

 Exchange correlation treatment:
   GGA     =    --    GGA type
   LEXCH   =     8    internal setting for exchange type
   LIBXC   =     F    Libxc                    
   VOSKOWN =     0    Vosko Wilk Nusair interpolation
   LHFCALC =     F    Hartree Fock is set to
   LHFONE  =     F    Hartree Fock one center treatment
   AEXX    =    0.0000 exact exchange contribution

 Linear response parameters
   LEPSILON=     F    determine dielectric tensor
   LRPA    =     F    only Hartree local field effects (RPA)
   LNABLA  =     F    use nabla operator in PAW spheres
   LVEL    =     F    velocity operator in full k-point grid
   CSHIFT  =0.1000    complex shift for real part using Kramers Kronig
   OMEGAMAX=  -1.0    maximum frequency
   DEG_THRESHOLD= 0.2000000E-02 threshold for treating states as degnerate
   RTIME   =   -0.100 relaxation time in fs
  (WPLASMAI=    0.000 imaginary part of plasma frequency in eV, 0.658/RTIME)
   DFIELD  = 0.0000000 0.0000000 0.0000000 field for delta impulse in time
 
  Optional k-point grid parameters
   LKPOINTS_OPT  =     F    use optional k-point grid
   KPOINTS_OPT_MODE=     1    mode for optional k-point grid
 
 Orbital magnetization related:
   ORBITALMAG=     F  switch on orbital magnetization
   LCHIMAG   =     F  perturbation theory with respect to B field
   DQ        =  0.001000  dq finite difference perturbation B field
   LLRAUG    =     F  two centre corrections for induced B field
   LBONE     =     F  B-component reconstruction in AE one-centre
   LVGVCALC  =     T  calculate vGv susceptibility
   LVGVAPPL  =     F  apply vGv susceptibility instead of pGv for G=0

 Random number generation:
   RANDOM_GENERATOR = DEFAULT
   PCG_SEED         = not used


--------------------------------------------------------------------------------------------------------


 Static calculation
 charge density and potential will be updated during run
 non-spin polarized calculation
 RMM-DIIS sequential band-by-band and
  variant of blocked Davidson during initial phase
 perform sub-space diagonalisation
    before iterative eigenvector-optimisation
 modified Broyden-mixing scheme, WC =      100.0
 initial mixing is a Kerker type mixing with AMIX =  0.4000 and BMIX =      1.0000
 Hartree-type preconditioning will be used
 using additional bands           64
 reciprocal scheme for non local part
 use partial core corrections
 calculate Harris-corrections to forces 
   (improved forces if not selfconsistent)
 use gradient corrections 
 use of overlap-Matrix (Vanderbilt PP)
 Gauss-broadening in eV      SIGMA  =   0.05


--------------------------------------------------------------------------------------------------------


  energy-cutoff  :      450.00
  volume of cell :     1323.38
      direct lattice vectors                 reciprocal lattice vectors
     0.000000000 12.443900280 -0.001232312     0.000000000  0.080358710 -0.019658170
     9.277958934  0.000000000  0.000000000     0.107782327  0.000000000  0.000000000
     0.000000000 -2.803987897-11.462147567     0.000000000 -0.000008639 -0.087241572

  length of vectors
    12.443900341  9.277958934 11.800134532     0.082728266  0.107782327  0.087241573


 
 k-points in units of 2pi/SCALE and weight: Automatic mesh                          
   0.00000000  0.00000000 -0.00000000       0.125
   0.00000000  0.04017936 -0.00982909       0.125
   0.05389116  0.00000000 -0.00000000       0.125
   0.05389116  0.04017936 -0.00982909       0.125
   0.00000000 -0.00000432 -0.04362079       0.125
   0.00000000  0.04017504 -0.05344987       0.125
   0.05389116 -0.00000432 -0.04362079       0.125
   0.05389116  0.04017504 -0.05344987       0.125
 
 k-points in reciprocal lattice and weights: Automatic mesh                          
   0.00000000  0.00000000  0.00000000       0.125
   0.50000000  0.00000000  0.00000000       0.125
   0.00000000  0.50000000  0.00000000       0.125
   0.50000000  0.50000000  0.00000000       0.125
   0.00000000  0.00000000  0.50000000       0.125
   0.50000000  0.00000000  0.50000000       0.125
   0.00000000  0.50000000  0.50000000       0.125
   0.50000000  0.50000000  0.50000000       0.125
 
 position of ions in fractional coordinates (direct lattice) 
   0.65917719  0.00000000  0.15804727
   0.65917719  0.00000000  0.65804727
   0.65917719  0.33333333  0.15804727
   0.65917719  0.33333333  0.65804727
   0.65917719  0.66666667  0.15804727
   0.65917719  0.66666667  0.65804727
   0.84082281  0.16666667  0.34195273
   0.84082281  0.16666667  0.84195273
   0.84082281  0.50000000  0.34195273
   0.84082281  0.50000000  0.84195273
   0.84082281  0.83333333  0.34195273
   0.84082281  0.83333333  0.84195273
   0.59117515  0.16666667  0.39815057
   0.59117515  0.16666667  0.89815057
   0.59117515  0.50000000  0.39815057
   0.59117515  0.50000000  0.89815057
   0.59117515  0.83333333  0.39815057
   0.59117515  0.83333333  0.89815057
   0.90882485  0.00000000  0.10184943
   0.90882485  0.00000000  0.60184943
   0.90882485  0.33333333  0.10184943
   0.90882485  0.33333333  0.60184943
   0.90882485  0.66666667  0.10184943
   0.90882485  0.66666667  0.60184943
   0.15917719  0.16666667  0.15804727
   0.15917719  0.16666667  0.65804727
   0.15917719  0.50000000  0.15804727
   0.15917719  0.50000000  0.65804727
   0.15917719  0.83333333  0.15804727
   0.15917719  0.83333333  0.65804727
   0.34082281  0.00000000  0.34195273
   0.34082281  0.00000000  0.84195273
   0.34082281  0.33333333  0.34195273
   0.34082281  0.33333333  0.84195273
   0.34082281  0.66666667  0.34195273
   0.34082281  0.66666667  0.84195273
   0.09117515  0.00000000  0.39815057
   0.09117515  0.00000000  0.89815057
   0.09117515  0.33333333  0.39815057
   0.09117515  0.33333333  0.89815057
   0.09117515  0.66666667  0.39815057
   0.09117515  0.66666667  0.89815057
   0.40882485  0.16666667  0.10184943
   0.40882485  0.16666667  0.60184943
   0.40882485  0.50000000  0.10184943
   0.40882485  0.50000000  0.60184943
   0.40882485  0.83333333  0.10184943
   0.40882485  0.83333333  0.60184943
   0.99660075  0.16666667  0.12796019
   0.99660075  0.16666667  0.62796019
   0.99660075  0.50000000  0.12796019
   0.99660075  0.50000000  0.62796019
   0.99660075  0.83333333  0.12796019
   0.99660075  0.83333333  0.62796019
   0.50339925  0.00000000  0.37203981
   0.50339925  0.00000000  0.87203981
   0.50339925  0.33333333  0.37203981
   0.50339925  0.33333333  0.87203981
   0.50339925  0.66666667  0.37203981
   0.50339925  0.66666667  0.87203981
   0.67327121  0.16666667  0.28041220
   0.67327121  0.16666667  0.78041220
   0.67327121  0.50000000  0.28041220
   0.67327121  0.50000000  0.78041220
   0.67327121  0.83333333  0.28041220
   0.67327121  0.83333333  0.78041220
   0.82672879  0.00000000  0.21958780
   0.82672879  0.00000000  0.71958780
   0.82672879  0.33333333  0.21958780
   0.82672879  0.33333333  0.71958780
   0.82672879  0.66666667  0.21958780
   0.82672879  0.66666667  0.71958780
   0.83292540  0.00000000  0.44430222
   0.83292540  0.00000000  0.94430222
   0.83292540  0.33333333  0.44430222
   0.83292540  0.33333333  0.94430222
   0.83292540  0.66666667  0.44430222
   0.83292540  0.66666667  0.94430222
   0.66707460  0.16666667  0.05569778
   0.66707460  0.16666667  0.55569778
   0.66707460  0.50000000  0.05569778
   0.66707460  0.50000000  0.55569778
   0.66707460  0.83333333  0.05569778
   0.66707460  0.83333333  0.55569778
   0.49660075  0.00000000  0.12796019
   0.49660075  0.00000000  0.62796019
   0.49660075  0.33333333  0.12796019
   0.49660075  0.33333333  0.62796019
   0.49660075  0.66666667  0.12796019
   0.49660075  0.66666667  0.62796019
   0.00339925  0.16666667  0.37203981
   0.00339925  0.16666667  0.87203981
   0.00339925  0.50000000  0.37203981
   0.00339925  0.50000000  0.87203981
   0.00339925  0.83333333  0.37203981
   0.00339925  0.83333333  0.87203981
   0.17327121  0.00000000  0.28041220
   0.17327121  0.00000000  0.78041220
   0.17327121  0.33333333  0.28041220
   0.17327121  0.33333333  0.78041220
   0.17327121  0.66666667  0.28041220
   0.17327121  0.66666667  0.78041220
   0.32672879  0.16666667  0.21958780
   0.32672879  0.16666667  0.71958780
   0.32672879  0.50000000  0.21958780
   0.32672879  0.50000000  0.71958780
   0.32672879  0.83333333  0.21958780
   0.32672879  0.83333333  0.71958780
   0.33292540  0.16666667  0.44430222
   0.33292540  0.16666667  0.94430222
   0.33292540  0.50000000  0.44430222
   0.33292540  0.50000000  0.94430222
   0.33292540  0.83333333  0.44430222
   0.33292540  0.83333333  0.94430222
   0.16707460  0.00000000  0.05569778
   0.16707460  0.00000000  0.55569778
   0.16707460  0.33333333  0.05569778
   0.16707460  0.33333333  0.55569778
   0.16707460  0.66666667  0.05569778
   0.16707460  0.66666667  0.55569778
 
 position of ions in cartesian coordinates  (Angst):
   0.00000000  7.75957257 -1.81237340
   0.00000000  6.35757862 -7.54344718
   3.09265298  7.75957257 -1.81237340
   3.09265298  6.35757862 -7.54344718
   6.18530596  7.75957257 -1.81237340
   6.18530596  6.35757862 -7.54344718
   1.54632649  9.50428391 -3.92054885
   1.54632649  8.10228996 -9.65162264
   4.63897947  9.50428391 -3.92054885
   4.63897947  8.10228996 -9.65162264
   7.73163245  9.50428391 -3.92054885
   7.73163245  8.10228996 -9.65162264
   1.54632649  6.24011519 -4.56438907
   1.54632649  4.83812125-10.29546285
   4.63897947  6.24011519 -4.56438907
   4.63897947  4.83812125-10.29546285
   7.73163245  6.24011519 -4.56438907
   7.73163245  4.83812125-10.29546285
   0.00000000 11.02374128 -1.16853318
   0.00000000  9.62174733 -6.89960697
   3.09265298 11.02374128 -1.16853318
   3.09265298  9.62174733 -6.89960697
   6.18530596 11.02374128 -1.16853318
   6.18530596  9.62174733 -6.89960697
   1.54632649  1.53762243 -1.81175724
   1.54632649  0.13562848 -7.54283103
   4.63897947  1.53762243 -1.81175724
   4.63897947  0.13562848 -7.54283103
   7.73163245  1.53762243 -1.81175724
   7.73163245  0.13562848 -7.54283103
   0.00000000  3.28233377 -3.91993270
   0.00000000  1.88033982 -9.65100648
   3.09265298  3.28233377 -3.91993270
   3.09265298  1.88033982 -9.65100648
   6.18530596  3.28233377 -3.91993270
   6.18530596  1.88033982 -9.65100648
   0.00000000  0.01816505 -4.56377291
   0.00000000 -1.38382889-10.29484670
   3.09265298  0.01816505 -4.56377291
   3.09265298 -1.38382889-10.29484670
   6.18530596  0.01816505 -4.56377291
   6.18530596 -1.38382889-10.29484670
   1.54632649  4.80179114 -1.16791703
   1.54632649  3.39979719 -6.89899081
   4.63897947  4.80179114 -1.16791703
   4.63897947  3.39979719 -6.89899081
   7.73163245  4.80179114 -1.16791703
   7.73163245  3.39979719 -6.89899081
   1.54632649 12.04280152 -1.46792674
   1.54632649 10.64080757 -7.19900052
   4.63897947 12.04280152 -1.46792674
   4.63897947 10.64080757 -7.19900052
   7.73163245 12.04280152 -1.46792674
   7.73163245 10.64080757 -7.19900052
   0.00000000  5.22105495 -4.26499551
   0.00000000  3.81906100 -9.99606929
   3.09265298  5.22105495 -4.26499551
   3.09265298  3.81906100 -9.99606929
   6.18530596  5.22105495 -4.26499551
   6.18530596  3.81906100 -9.99606929
   1.54632649  7.59184745 -3.21495564
   1.54632649  6.18985350 -8.94602942
   4.63897947  7.59184745 -3.21495564
   4.63897947  6.18985350 -8.94602942
   7.73163245  7.59184745 -3.21495564
   7.73163245  6.18985350 -8.94602942
   0.00000000  9.67200902 -2.51796661
   0.00000000  8.27001508 -8.24904039
   3.09265298  9.67200902 -2.51796661
   3.09265298  8.27001508 -8.24904039
   6.18530596  9.67200902 -2.51796661
   6.18530596  8.27001508 -8.24904039
   0.00000000  9.11902251 -5.09368403
   0.00000000  7.71702856-10.82475782
   3.09265298  9.11902251 -5.09368403
   3.09265298  7.71702856-10.82475782
   6.18530596  9.11902251 -5.09368403
   6.18530596  7.71702856-10.82475782
   1.54632649  8.14483396 -0.63923822
   1.54632649  6.74284001 -6.37031200
   4.63897947  8.14483396 -0.63923822
   4.63897947  6.74284001 -6.37031200
   7.73163245  8.14483396 -0.63923822
   7.73163245  6.74284001 -6.37031200
   0.00000000  5.82085138 -1.46731058
   0.00000000  4.41885743 -7.19838437
   3.09265298  5.82085138 -1.46731058
   3.09265298  4.41885743 -7.19838437
   6.18530596  5.82085138 -1.46731058
   6.18530596  4.41885743 -7.19838437
   1.54632649 -1.00089519 -4.26437936
   1.54632649 -2.40288914 -9.99545314
   4.63897947 -1.00089519 -4.26437936
   4.63897947 -2.40288914 -9.99545314
   7.73163245 -1.00089519 -4.26437936
   7.73163245 -2.40288914 -9.99545314
   0.00000000  1.36989731 -3.21433948
   0.00000000 -0.03209664 -8.94541327
   3.09265298  1.36989731 -3.21433948
   3.09265298 -0.03209664 -8.94541327
   6.18530596  1.36989731 -3.21433948
   6.18530596 -0.03209664 -8.94541327
   1.54632649  3.45005888 -2.51735046
   1.54632649  2.04806494 -8.24842424
   4.63897947  3.45005888 -2.51735046
   4.63897947  2.04806494 -8.24842424
   7.73163245  3.45005888 -2.51735046
   7.73163245  2.04806494 -8.24842424
   1.54632649  2.89707237 -5.09306788
   1.54632649  1.49507842-10.82414166
   4.63897947  2.89707237 -5.09306788
   4.63897947  1.49507842-10.82414166
   7.73163245  2.89707237 -5.09306788
   7.73163245  1.49507842-10.82414166
   0.00000000  1.92288382 -0.63862206
   0.00000000  0.52088987 -6.36969585
   3.09265298  1.92288382 -0.63862206
   3.09265298  0.52088987 -6.36969585
   6.18530596  1.92288382 -0.63862206
   6.18530596  0.52088987 -6.36969585
 


--------------------------------------------------------------------------------------------------------


 k-point   1 :   0.0000 0.0000 0.0000  plane waves:   28627
 k-point   2 :   0.5000 0.0000 0.0000  plane waves:   28636
 k-point   3 :   0.0000 0.5000 0.0000  plane waves:   28708
 k-point   4 :   0.5000 0.5000 0.0000  plane waves:   28752
 k-point   5 :   0.0000 0.0000 0.5000  plane waves:   28686
 k-point   6 :   0.5000 0.0000 0.5000  plane waves:   28656
 k-point   7 :   0.0000 0.5000 0.5000  plane waves:   28732
 k-point   8 :   0.5000 0.5000 0.5000  plane waves:   28632

 maximum and minimum number of plane-waves per node :      3625     3528

 maximum number of plane-waves:     28752
 maximum index in each direction: 
   IXMAX=   21   IYMAX=   16   IZMAX=   20
   IXMIN=  -22   IYMIN=  -16   IZMIN=  -20


 parallel 3D FFT for wavefunctions:
    minimum data exchange during FFTs selected (reduces bandwidth)
 parallel 3D FFT for charge:
    minimum data exchange during FFTs selected (reduces bandwidth)


 total amount of memory used by VASP MPI-rank0    69544. kBytes
=======================================================================

   base      :      30000. kBytes
   nonl-proj :      12959. kBytes
   fftplans  :       2043. kBytes
   grid      :       3200. kBytes
   one-center:        121. kBytes
   wavefun   :      21221. kBytes
 
     INWAV:  cpu time      0.0000: real time      0.0000
 Broyden mixing: mesh for mixing (old mesh)
   NGX = 43   NGY = 33   NGZ = 41
  (NGX  =140   NGY  = 96   NGZ  =128)
  gives a total of  58179 points

 initial charge density was supplied:
 charge density of overlapping atoms calculated
 number of electron     576.0000000 magnetization 
 keeping initial charge density in first step


--------------------------------------------------------------------------------------------------------


 Maximum index for augmentation-charges          720 (set IRDMAX)


--------------------------------------------------------------------------------------------------------


 First call to EWALD:  gamma=   0.161
 Maximum number of real-space cells 3x 3x 3
 Maximum number of reciprocal cells 3x 2x 3

    FEWALD:  cpu time      0.0061: real time      0.0061


--------------------------------------- Ionic step        1  -------------------------------------------




--------------------------------------- Iteration      1(   1)  ---------------------------------------


    POTLOK:  cpu time      0.0383: real time      0.0409
    SETDIJ:  cpu time      0.0093: real time      0.0097
     EDDAV:  cpu time     20.5162: real time     20.5272
       DOS:  cpu time      0.0026: real time      0.0026
    --------------------------------------------
      LOOP:  cpu time     20.5665: real time     20.5804

 eigenvalue-minimisations  :  5656
 total energy-change (2. order) : 0.3380649E+04  (-0.2745417E+05)
 number of electron     576.0000000 magnetization 
 augmentation part      576.0000000 magnetization 

 Free energy of the ion-electron system (eV)
  ---------------------------------------------------
  alpha Z        PSCENC =      1967.99298829
  Ewald energy   TEWEN  =    -25963.92746655
  -Hartree energ DENC   =     -8756.75052025
  -exchange      EXHF   =         0.00000000
  -V(xc)+E(xc)   XCENC  =      1074.31399690
  PAW double counting   =     27930.71880214   -26922.85479401
  entropy T*S    EENTRO =        -0.02250307
  eigenvalues    EBANDS =        97.00889777
  atomic energy  EATOM  =     33954.16929759
  Solvation  Ediel_sol  =         0.00000000
  ---------------------------------------------------
  free energy    TOTEN  =      3380.64869883 eV

  energy without entropy =     3380.67120189  energy(sigma->0) =     3380.65995036


--------------------------------------------------------------------------------------------------------




--------------------------------------- Iteration      1(   2)  ---------------------------------------


     EDDAV:  cpu time     23.2864: real time     23.2935
       DOS:  cpu time      0.0011: real time      0.0011
    --------------------------------------------
      LOOP:  cpu time     23.2874: real time     23.2946

 eigenvalue-minimisations  :  6672
 total energy-change (2. order) :-0.3916185E+04  (-0.3813952E+04)
 number of electron     576.0000000 magnetization 
 augmentation part      576.0000000 magnetization 

 Free energy of the ion-electron system (eV)
  ---------------------------------------------------
  alpha Z        PSCENC =      1967.99298829
  Ewald energy   TEWEN  =    -25963.92746655
  -Hartree energ DENC   =     -8756.75052025
  -exchange      EXHF   =         0.00000000
  -V(xc)+E(xc)   XCENC  =      1074.31399690
  PAW double counting   =     27930.71880214   -26922.85479401
  entropy T*S    EENTRO =        -0.00000000
  eigenvalues    EBANDS =     -3819.19812726
  atomic energy  EATOM  =     33954.16929759
  Solvation  Ediel_sol  =         0.00000000
  ---------------------------------------------------
  free energy    TOTEN  =      -535.53582314 eV

  energy without entropy =     -535.53582314  energy(sigma->0) =     -535.53582314


--------------------------------------------------------------------------------------------------------




--------------------------------------- Iteration      1(   3)  ---------------------------------------


     EDDAV:  cpu time     22.4759: real time     22.4827
       DOS:  cpu time      0.0008: real time      0.0008
    --------------------------------------------
      LOOP:  cpu time     22.4767: real time     22.4835

 eigenvalue-minimisations  :  6608
 total energy-change (2. order) :-0.2929878E+03  (-0.2895134E+03)
 number of electron     576.0000000 magnetization 
 augmentation part      576.0000000 magnetization 

 Free energy of the ion-electron system (eV)
  ---------------------------------------------------
  alpha Z        PSCENC =      1967.99298829
  Ewald energy   TEWEN  =    -25963.92746655
  -Hartree energ DENC   =     -8756.75052025
  -exchange      EXHF   =         0.00000000
  -V(xc)+E(xc)   XCENC  =      1074.31399690
  PAW double counting   =     27930.71880214   -26922.85479401
  entropy T*S    EENTRO =        -0.00000000
  eigenvalues    EBANDS =     -4112.18590111
  atomic energy  EATOM  =     33954.16929759
  Solvation  Ediel_sol  =         0.00000000
  ---------------------------------------------------
  free energy    TOTEN  =      -828.52359699 eV

  energy without entropy =     -828.52359699  energy(sigma->0) =     -828.52359699


--------------------------------------------------------------------------------------------------------




--------------------------------------- Iteration      1(   4)  ---------------------------------------


     EDDAV:  cpu time     24.6241: real time     24.6312
       DOS:  cpu time      0.0008: real time      0.0008
    --------------------------------------------
      LOOP:  cpu time     24.6249: real time     24.6320

 eigenvalue-minimisations  :  7248
 total energy-change (2. order) :-0.6795380E+01  (-0.6738902E+01)
 number of electron     576.0000000 magnetization 
 augmentation part      576.0000000 magnetization 

 Free energy of the ion-electron system (eV)
  ---------------------------------------------------
  alpha Z        PSCENC =      1967.99298829
  Ewald energy   TEWEN  =    -25963.92746655
  -Hartree energ DENC   =     -8756.75052025
  -exchange      EXHF   =         0.00000000
  -V(xc)+E(xc)   XCENC  =      1074.31399690
  PAW double counting   =     27930.71880214   -26922.85479401
  entropy T*S    EENTRO =        -0.00000000
  eigenvalues    EBANDS =     -4118.98128069
  atomic energy  EATOM  =     33954.16929759
  Solvation  Ediel_sol  =         0.00000000
  ---------------------------------------------------
  free energy    TOTEN  =      -835.31897657 eV

  energy without entropy =     -835.31897657  energy(sigma->0) =     -835.31897657


--------------------------------------------------------------------------------------------------------




--------------------------------------- Iteration      1(   5)  ---------------------------------------


     EDDAV:  cpu time     22.9742: real time     22.9797
       DOS:  cpu time      0.0013: real time      0.0013
    CHARGE:  cpu time      0.2466: real time      0.2467
    MIXING:  cpu time      0.0016: real time      0.0016
    --------------------------------------------
      LOOP:  cpu time     23.2237: real time     23.2293

 eigenvalue-minimisations  :  6600
 total energy-change (2. order) :-0.1164965E+00  (-0.1158503E+00)
 number of electron     575.9999540 magnetization 
 augmentation part       44.0904432 magnetization 

 Broyden mixing:
  rms(total) = 0.70671E+01    rms(broyden)= 0.70647E+01
  rms(prec ) = 0.84529E+01
  weight for this iteration     100.00

 Free energy of the ion-electron system (eV)
  ---------------------------------------------------
  alpha Z        PSCENC =      1967.99298829
  Ewald energy   TEWEN  =    -25963.92746655
  -Hartree energ DENC   =     -8756.75052025
  -exchange      EXHF   =         0.00000000
  -V(xc)+E(xc)   XCENC  =      1074.31399690
  PAW double counting   =     27930.71880214   -26922.85479401
  entropy T*S    EENTRO =        -0.00000000
  eigenvalues    EBANDS =     -4119.09777717
  atomic energy  EATOM  =     33954.16929759
  Solvation  Ediel_sol  =         0.00000000
  ---------------------------------------------------
  free energy    TOTEN  =      -835.43547305 eV

  energy without entropy =     -835.43547305  energy(sigma->0) =     -835.43547305


--------------------------------------------------------------------------------------------------------




--------------------------------------- Iteration      1(   6)  ---------------------------------------


    POTLOK:  cpu time      0.0344: real time      0.0344
    SETDIJ:  cpu time      0.0091: real time      0.0094
    EDDIAG:  cpu time      1.4364: real time      1.4366
  RMM-DIIS:  cpu time     12.5708: real time     12.5734
    ORTHCH:  cpu time      0.4201: real time      0.4201
       DOS:  cpu time      0.0008: real time      0.0008
    CHARGE:  cpu time      0.2534: real time      0.2535
    MIXING:  cpu time      0.0016: real time      0.0016
    --------------------------------------------
      LOOP:  cpu time     14.7267: real time     14.7298

 eigenvalue-minimisations  :  5775
 total energy-change (2. order) : 0.1150003E+03  (-0.4854223E+02)
 number of electron     575.9999591 magnetization 
 augmentation part       30.8381544 magnetization 

 Broyden mixing:
  rms(total) = 0.25744E+01    rms(broyden)= 0.25722E+01
  rms(prec ) = 0.27447E+01
  weight for this iteration     100.00

 eigenvalues of (default mixing * dielectric matrix)
  average eigenvalue GAMMA=   1.0253
  1.0253

 Free energy of the ion-electron system (eV)
  ---------------------------------------------------
  alpha Z        PSCENC =      1967.99298829
  Ewald energy   TEWEN  =    -25963.92746655
  -Hartree energ DENC   =    -10024.39394038
  -exchange      EXHF   =         0.00000000
  -V(xc)+E(xc)   XCENC  =      1169.58346753
  PAW double counting   =     37630.17314914   -36653.35090201
  entropy T*S    EENTRO =        -0.00000000
  eigenvalues    EBANDS =     -2800.68178484
  atomic energy  EATOM  =     33954.16929759
  Solvation  Ediel_sol  =         0.00000000
  ---------------------------------------------------
  free energy    TOTEN  =      -720.43519122 eV

  energy without entropy =     -720.43519122  energy(sigma->0) =     -720.43519122


--------------------------------------------------------------------------------------------------------




--------------------------------------- Iteration      1(   7)  ---------------------------------------


    POTLOK:  cpu time      0.0291: real time      0.0291
    SETDIJ:  cpu time      0.0085: real time      0.0085
    EDDIAG:  cpu time      1.4230: real time      1.4236
  RMM-DIIS:  cpu time     13.5410: real time     13.5449
    ORTHCH:  cpu time      0.4084: real time      0.4088
       DOS:  cpu time      0.0010: real time      0.0010
    CHARGE:  cpu time      0.2582: real time      0.2583
    MIXING:  cpu time      0.0013: real time      0.0013
    --------------------------------------------
      LOOP:  cpu time     15.6706: real time     15.6756

 eigenvalue-minimisations  :  6337
 total energy-change (2. order) :-0.2124352E+01  (-0.5586404E+01)
 number of electron     575.9999597 magnetization 
 augmentation part       28.5704386 magnetization 

 Broyden mixing:
  rms(total) = 0.14889E+01    rms(broyden)= 0.14886E+01
  rms(prec ) = 0.15808E+01
  weight for this iteration     100.00

 eigenvalues of (default mixing * dielectric matrix)
  average eigenvalue GAMMA=   1.5648
  1.1782  1.9514

 Free energy of the ion-electron system (eV)
  ---------------------------------------------------
  alpha Z        PSCENC =      1967.99298829
  Ewald energy   TEWEN  =    -25963.92746655
  -Hartree energ DENC   =    -10124.02949644
  -exchange      EXHF   =         0.00000000
  -V(xc)+E(xc)   XCENC  =      1179.61471406
  PAW double counting   =     44639.51652245   -43666.63605660
  entropy T*S    EENTRO =        -0.00000000
  eigenvalues    EBANDS =     -2709.26004606
  atomic energy  EATOM  =     33954.16929759
  Solvation  Ediel_sol  =         0.00000000
  ---------------------------------------------------
  free energy    TOTEN  =      -722.55954325 eV

  energy without entropy =     -722.55954325  energy(sigma->0) =     -722.55954325


--------------------------------------------------------------------------------------------------------




--------------------------------------- Iteration      1(   8)  ---------------------------------------


    POTLOK:  cpu time      0.0301: real time      0.0301
    SETDIJ:  cpu time      0.0086: real time      0.0088
    EDDIAG:  cpu time      1.4002: real time      1.4006
  RMM-DIIS:  cpu time     13.5772: real time     13.5807
    ORTHCH:  cpu time      0.4526: real time      0.4533
       DOS:  cpu time      0.0011: real time      0.0011
    CHARGE:  cpu time      0.2439: real time      0.2440
    MIXING:  cpu time      0.0018: real time      0.0018
    --------------------------------------------
      LOOP:  cpu time     15.7154: real time     15.7204

 eigenvalue-minimisations  :  6332
 total energy-change (2. order) : 0.1340302E+01  (-0.6367136E+00)
 number of electron     575.9999594 magnetization 
 augmentation part       29.0690747 magnetization 

 Broyden mixing:
  rms(total) = 0.22494E+00    rms(broyden)= 0.22489E+00
  rms(prec ) = 0.26803E+00
  weight for this iteration     100.00

 eigenvalues of (default mixing * dielectric matrix)
  average eigenvalue GAMMA=   1.4106
  2.2578  1.0757  0.8983

 Free energy of the ion-electron system (eV)
  ---------------------------------------------------
  alpha Z        PSCENC =      1967.99298829
  Ewald energy   TEWEN  =    -25963.92746655
  -Hartree energ DENC   =    -10035.95416000
  -exchange      EXHF   =         0.00000000
  -V(xc)+E(xc)   XCENC  =      1176.94690961
  PAW double counting   =     53030.45459995   -52060.00068827
  entropy T*S    EENTRO =        -0.00000000
  eigenvalues    EBANDS =     -2790.90072172
  atomic energy  EATOM  =     33954.16929759
  Solvation  Ediel_sol  =         0.00000000
  ---------------------------------------------------
  free energy    TOTEN  =      -721.21924109 eV

  energy without entropy =     -721.21924109  energy(sigma->0) =     -721.21924109


--------------------------------------------------------------------------------------------------------




--------------------------------------- Iteration      1(   9)  ---------------------------------------


    POTLOK:  cpu time      0.0295: real time      0.0296
    SETDIJ:  cpu time      0.0084: real time      0.0085
    EDDIAG:  cpu time      1.3861: real time      1.3866
  RMM-DIIS:  cpu time     15.5872: real time     15.5915
    ORTHCH:  cpu time      0.4112: real time      0.4115
       DOS:  cpu time      0.0007: real time      0.0007
    CHARGE:  cpu time      0.2497: real time      0.2497
    MIXING:  cpu time      0.0021: real time      0.0022
    --------------------------------------------
      LOOP:  cpu time     17.6749: real time     17.6802

 eigenvalue-minimisations  :  7300
 total energy-change (2. order) :-0.1093221E+00  (-0.1793940E+00)
 number of electron     575.9999595 magnetization 
 augmentation part       28.6889851 magnetization 

 Broyden mixing:
  rms(total) = 0.78471E-01    rms(broyden)= 0.78461E-01
  rms(prec ) = 0.88434E-01
  weight for this iteration     100.00

 eigenvalues of (default mixing * dielectric matrix)
  average eigenvalue GAMMA=   1.4361
  2.2050  1.0546  1.0546  1.4300

 Free energy of the ion-electron system (eV)
  ---------------------------------------------------
  alpha Z        PSCENC =      1967.99298829
  Ewald energy   TEWEN  =    -25963.92746655
  -Hartree energ DENC   =    -10060.98830885
  -exchange      EXHF   =         0.00000000
  -V(xc)+E(xc)   XCENC  =      1179.47128953
  PAW double counting   =     54499.81654392   -53530.75122527
  entropy T*S    EENTRO =        -0.00000000
  eigenvalues    EBANDS =     -2767.11168185
  atomic energy  EATOM  =     33954.16929759
  Solvation  Ediel_sol  =         0.00000000
  ---------------------------------------------------
  free energy    TOTEN  =      -721.32856318 eV

  energy without entropy =     -721.32856318  energy(sigma->0) =     -721.32856318


--------------------------------------------------------------------------------------------------------




--------------------------------------- Iteration      1(  10)  ---------------------------------------


    POTLOK:  cpu time      0.0317: real time      0.0317
    SETDIJ:  cpu time      0.0078: real time      0.0078
    EDDIAG:  cpu time      1.4406: real time      1.4418
  RMM-DIIS:  cpu time     14.6355: real time     14.6389
    ORTHCH:  cpu time      0.4216: real time      0.4216
       DOS:  cpu time      0.0008: real time      0.0008
    CHARGE:  cpu time      0.2562: real time      0.2563
    MIXING:  cpu time      0.0019: real time      0.0019
    --------------------------------------------
      LOOP:  cpu time     16.7960: real time     16.8008

 eigenvalue-minimisations  :  6765
 total energy-change (2. order) :-0.2350651E-01  (-0.2128406E-01)
 number of electron     575.9999595 magnetization 
 augmentation part       28.5410846 magnetization 

 Broyden mixing:
  rms(total) = 0.50916E-01    rms(broyden)= 0.50892E-01
  rms(prec ) = 0.55332E-01
  weight for this iteration     100.00

 eigenvalues of (default mixing * dielectric matrix)
  average eigenvalue GAMMA=   1.5963
  2.5403  2.5403  1.0471  1.0471  0.8071

 Free energy of the ion-electron system (eV)
  ---------------------------------------------------
  alpha Z        PSCENC =      1967.99298829
  Ewald energy   TEWEN  =    -25963.92746655
  -Hartree energ DENC   =    -10069.82556459
  -exchange      EXHF   =         0.00000000
  -V(xc)+E(xc)   XCENC  =      1180.20681047
  PAW double counting   =     54484.96062292   -53516.40048923
  entropy T*S    EENTRO =        -0.00000000
  eigenvalues    EBANDS =     -2758.52826860
  atomic energy  EATOM  =     33954.16929759
  Solvation  Ediel_sol  =         0.00000000
  ---------------------------------------------------
  free energy    TOTEN  =      -721.35206969 eV

  energy without entropy =     -721.35206969  energy(sigma->0) =     -721.35206969


--------------------------------------------------------------------------------------------------------




--------------------------------------- Iteration      1(  11)  ---------------------------------------


    POTLOK:  cpu time      0.0291: real time      0.0291
    SETDIJ:  cpu time      0.0077: real time      0.0077
    EDDIAG:  cpu time      1.3908: real time      1.3917
  RMM-DIIS:  cpu time     14.9253: real time     14.9289
    ORTHCH:  cpu time      0.4264: real time      0.4264
       DOS:  cpu time      0.0014: real time      0.0014
    CHARGE:  cpu time      0.2432: real time      0.2433
    MIXING:  cpu time      0.0019: real time      0.0019
    --------------------------------------------
      LOOP:  cpu time     17.0258: real time     17.0303

 eigenvalue-minimisations  :  6877
 total energy-change (2. order) :-0.5721110E-02  (-0.3303517E-02)
 number of electron     575.9999595 magnetization 
 augmentation part       28.5450045 magnetization 

 Broyden mixing:
  rms(total) = 0.11348E-01    rms(broyden)= 0.11345E-01
  rms(prec ) = 0.12696E-01
  weight for this iteration     100.00

 eigenvalues of (default mixing * dielectric matrix)
  average eigenvalue GAMMA=   1.5124
  2.6672  2.3146  1.1413  1.0379  1.0379  0.8756

 Free energy of the ion-electron system (eV)
  ---------------------------------------------------
  alpha Z        PSCENC =      1967.99298829
  Ewald energy   TEWEN  =    -25963.92746655
  -Hartree energ DENC   =    -10066.46271980
  -exchange      EXHF   =         0.00000000
  -V(xc)+E(xc)   XCENC  =      1180.05043767
  PAW double counting   =     54438.22181068   -53469.83756483
  entropy T*S    EENTRO =        -0.00000000
  eigenvalues    EBANDS =     -2761.56457386
  atomic energy  EATOM  =     33954.16929759
  Solvation  Ediel_sol  =         0.00000000
  ---------------------------------------------------
  free energy    TOTEN  =      -721.35779080 eV

  energy without entropy =     -721.35779080  energy(sigma->0) =     -721.35779080


--------------------------------------------------------------------------------------------------------




--------------------------------------- Iteration      1(  12)  ---------------------------------------


    POTLOK:  cpu time      0.0333: real time      0.0333
    SETDIJ:  cpu time      0.0087: real time      0.0087
    EDDIAG:  cpu time      1.3735: real time      1.3748
  RMM-DIIS:  cpu time     15.8077: real time     15.8125
    ORTHCH:  cpu time      0.5069: real time      0.5069
       DOS:  cpu time      0.0013: real time      0.0013
    CHARGE:  cpu time      0.2426: real time      0.2426
    MIXING:  cpu time      0.0023: real time      0.0023
    --------------------------------------------
      LOOP:  cpu time     17.9765: real time     17.9826

 eigenvalue-minimisations  :  7308
 total energy-change (2. order) :-0.7088732E-03  (-0.7587702E-03)
 number of electron     575.9999595 magnetization 
 augmentation part       28.5411078 magnetization 

 Broyden mixing:
  rms(total) = 0.41618E-02    rms(broyden)= 0.41602E-02
  rms(prec ) = 0.45311E-02
  weight for this iteration     100.00

 eigenvalues of (default mixing * dielectric matrix)
  average eigenvalue GAMMA=   1.4449
  2.6525  2.4361  1.2095  1.0031  1.0031  1.0127  0.7975

 Free energy of the ion-electron system (eV)
  ---------------------------------------------------
  alpha Z        PSCENC =      1967.99298829
  Ewald energy   TEWEN  =    -25963.92746655
  -Hartree energ DENC   =    -10066.41919338
  -exchange      EXHF   =         0.00000000
  -V(xc)+E(xc)   XCENC  =      1180.06865480
  PAW double counting   =     54504.81243856   -53536.39853968
  entropy T*S    EENTRO =        -0.00000000
  eigenvalues    EBANDS =     -2761.65667932
  atomic energy  EATOM  =     33954.16929759
  Solvation  Ediel_sol  =         0.00000000
  ---------------------------------------------------
  free energy    TOTEN  =      -721.35849968 eV

  energy without entropy =     -721.35849968  energy(sigma->0) =     -721.35849968


--------------------------------------------------------------------------------------------------------




--------------------------------------- Iteration      1(  13)  ---------------------------------------


    POTLOK:  cpu time      0.0292: real time      0.0292
    SETDIJ:  cpu time      0.0082: real time      0.0082
    EDDIAG:  cpu time      1.4205: real time      1.4214
  RMM-DIIS:  cpu time     15.2329: real time     15.2388
    ORTHCH:  cpu time      0.4284: real time      0.4285
       DOS:  cpu time      0.0009: real time      0.0009
    CHARGE:  cpu time      0.2435: real time      0.2436
    MIXING:  cpu time      0.0020: real time      0.0020
    --------------------------------------------
      LOOP:  cpu time     17.3656: real time     17.3727

 eigenvalue-minimisations  :  7170
 total energy-change (2. order) :-0.9978532E-04  (-0.9440065E-04)
 number of electron     575.9999595 magnetization 
 augmentation part       28.5408757 magnetization 

 Broyden mixing:
  rms(total) = 0.17184E-02    rms(broyden)= 0.17180E-02
  rms(prec ) = 0.19283E-02
  weight for this iteration     100.00

 eigenvalues of (default mixing * dielectric matrix)
  average eigenvalue GAMMA=   1.5363
  2.6127  2.6127  2.2078  1.0290  1.0290  1.0480  0.8447  0.9062

 Free energy of the ion-electron system (eV)
  ---------------------------------------------------
  alpha Z        PSCENC =      1967.99298829
  Ewald energy   TEWEN  =    -25963.92746655
  -Hartree energ DENC   =    -10066.23906724
  -exchange      EXHF   =         0.00000000
  -V(xc)+E(xc)   XCENC  =      1180.04340074
  PAW double counting   =     54482.57258841   -53514.11317260
  entropy T*S    EENTRO =        -0.00000000
  eigenvalues    EBANDS =     -2761.85716810
  atomic energy  EATOM  =     33954.16929759
  Solvation  Ediel_sol  =         0.00000000
  ---------------------------------------------------
  free energy    TOTEN  =      -721.35859946 eV

  energy without entropy =     -721.35859946  energy(sigma->0) =     -721.35859946


--------------------------------------------------------------------------------------------------------




--------------------------------------- Iteration      1(  14)  ---------------------------------------


    POTLOK:  cpu time      0.0321: real time      0.0321
    SETDIJ:  cpu time      0.0087: real time      0.0087
    EDDIAG:  cpu time      1.4131: real time      1.4140
  RMM-DIIS:  cpu time     13.8963: real time     13.9023
    ORTHCH:  cpu time      0.4734: real time      0.4734
       DOS:  cpu time      0.0010: real time      0.0010
    CHARGE:  cpu time      0.2416: real time      0.2416
    MIXING:  cpu time      0.0023: real time      0.0023
    --------------------------------------------
      LOOP:  cpu time     16.0685: real time     16.0754

 eigenvalue-minimisations  :  6315
 total energy-change (2. order) :-0.3623983E-04  (-0.2406641E-04)
 number of electron     575.9999595 magnetization 
 augmentation part       28.5410309 magnetization 

 Broyden mixing:
  rms(total) = 0.83142E-03    rms(broyden)= 0.83118E-03
  rms(prec ) = 0.98232E-03
  weight for this iteration     100.00

 eigenvalues of (default mixing * dielectric matrix)
  average eigenvalue GAMMA=   1.5241
  2.7916  2.3544  2.3544  1.2280  1.2280  1.0343  1.0343  0.8820  0.8101

 Free energy of the ion-electron system (eV)
  ---------------------------------------------------
  alpha Z        PSCENC =      1967.99298829
  Ewald energy   TEWEN  =    -25963.92746655
  -Hartree energ DENC   =    -10066.25904886
  -exchange      EXHF   =         0.00000000
  -V(xc)+E(xc)   XCENC  =      1180.03907406
  PAW double counting   =     54483.67335337   -53515.17141548
  entropy T*S    EENTRO =        -0.00000000
  eigenvalues    EBANDS =     -2761.87541813
  atomic energy  EATOM  =     33954.16929759
  Solvation  Ediel_sol  =         0.00000000
  ---------------------------------------------------
  free energy    TOTEN  =      -721.35863570 eV

  energy without entropy =     -721.35863570  energy(sigma->0) =     -721.35863570


--------------------------------------------------------------------------------------------------------




--------------------------------------- Iteration      1(  15)  ---------------------------------------


    POTLOK:  cpu time      0.0339: real time      0.0339
    SETDIJ:  cpu time      0.0089: real time      0.0089
    EDDIAG:  cpu time      1.4244: real time      1.4258
  RMM-DIIS:  cpu time     10.9518: real time     10.9562
    ORTHCH:  cpu time      0.4176: real time      0.4178
       DOS:  cpu time      0.0012: real time      0.0012
    --------------------------------------------
      LOOP:  cpu time     12.8378: real time     12.8439

 eigenvalue-minimisations  :  4985
 total energy-change (2. order) :-0.7992305E-05  (-0.5161233E-05)
 number of electron     575.9999595 magnetization 
 augmentation part       28.5410309 magnetization 

 Free energy of the ion-electron system (eV)
  ---------------------------------------------------
  alpha Z        PSCENC =      1967.99298829
  Ewald energy   TEWEN  =    -25963.92746655
  -Hartree energ DENC   =    -10066.43462013
  -exchange      EXHF   =         0.00000000
  -V(xc)+E(xc)   XCENC  =      1180.05151409
  PAW double counting   =     54485.84394873   -53517.33754846
  entropy T*S    EENTRO =        -0.00000000
  eigenvalues    EBANDS =     -2761.71675726
  atomic energy  EATOM  =     33954.16929759
  Solvation  Ediel_sol  =         0.00000000
  ---------------------------------------------------
  free energy    TOTEN  =      -721.35864369 eV

  energy without entropy =     -721.35864369  energy(sigma->0) =     -721.35864369


--------------------------------------------------------------------------------------------------------




 average (electrostatic) potential at core
  the test charge radii are     1.2767  0.7215
  (the norm of the test charge is              1.0000)
       1 -14.1325       2 -14.1325       3 -14.1325       4 -14.1325       5 -14.1325
       6 -14.1325       7 -14.1325       8 -14.1325       9 -14.1325      10 -14.1325
      11 -14.1325      12 -14.1325      13 -14.1503      14 -14.1503      15 -14.1503
      16 -14.1503      17 -14.1503      18 -14.1503      19 -14.1503      20 -14.1503
      21 -14.1503      22 -14.1503      23 -14.1503      24 -14.1503      25 -14.1325
      26 -14.1325      27 -14.1325      28 -14.1325      29 -14.1325      30 -14.1325
      31 -14.1325      32 -14.1325      33 -14.1325      34 -14.1325      35 -14.1325
      36 -14.1325      37 -14.1503      38 -14.1503      39 -14.1503      40 -14.1503
      41 -14.1503      42 -14.1503      43 -14.1503      44 -14.1503      45 -14.1503
      46 -14.1503      47 -14.1503      48 -14.1503      49 -72.2808      50 -72.2808
      51 -72.2808      52 -72.2808      53 -72.2808      54 -72.2808      55 -72.2808
      56 -72.2808      57 -72.2808      58 -72.2808      59 -72.2808      60 -72.2808
      61 -72.4771      62 -72.4771      63 -72.4771      64 -72.4771      65 -72.4771
      66 -72.4771      67 -72.4771      68 -72.4771      69 -72.4771      70 -72.4771
      71 -72.4771      72 -72.4771      73 -72.0115      74 -72.0115      75 -72.0115
      76 -72.0115      77 -72.0115      78 -72.0115      79 -72.0115      80 -72.0115
      81 -72.0115      82 -72.0115      83 -72.0115      84 -72.0115      85 -72.2808
      86 -72.2808      87 -72.2808      88 -72.2808      89 -72.2808      90 -72.2808
      91 -72.2808      92 -72.2808      93 -72.2808      94 -72.2808      95 -72.2808
      96 -72.2808      97 -72.4771      98 -72.4771      99 -72.4771     100 -72.4771
[...]
   0.239E-11 0.422E+02 0.347E+02   -.235E-13 -.407E+02 -.304E+02   0.241E-21 -.155E+01 -.423E+01   0.179E-12 0.118E-02 0.111E-02
   0.245E-11 0.422E+02 0.347E+02   -.711E-14 -.407E+02 -.304E+02   0.719E-22 -.155E+01 -.423E+01   0.200E-12 0.118E-02 0.111E-02
   -.201E-10 0.422E+02 0.347E+02   -.261E-10 -.407E+02 -.304E+02   0.892E-23 -.155E+01 -.423E+01   0.238E-12 0.118E-02 0.111E-02
   -.272E-10 0.422E+02 0.347E+02   -.261E-10 -.407E+02 -.304E+02   -.100E-21 -.155E+01 -.423E+01   0.203E-12 0.118E-02 0.111E-02
   0.191E-14 -.422E+02 -.347E+02   0.164E-13 0.407E+02 0.304E+02   0.747E-22 0.155E+01 0.423E+01   -.308E-12 -.118E-02 -.111E-02
   -.579E-14 -.422E+02 -.347E+02   0.977E-14 0.407E+02 0.304E+02   0.648E-22 0.155E+01 0.423E+01   -.328E-12 -.118E-02 -.111E-02
   -.309E-10 -.422E+02 -.347E+02   -.260E-10 0.407E+02 0.304E+02   -.492E-23 0.155E+01 0.423E+01   -.236E-12 -.118E-02 -.111E-02
   -.368E-10 -.422E+02 -.347E+02   -.261E-10 0.407E+02 0.304E+02   0.124E-21 0.155E+01 0.423E+01   -.216E-12 -.118E-02 -.111E-02
   0.348E-10 -.422E+02 -.347E+02   0.260E-10 0.407E+02 0.304E+02   -.746E-22 0.155E+01 0.423E+01   0.362E-12 -.118E-02 -.111E-02
   0.351E-10 -.422E+02 -.347E+02   0.260E-10 0.407E+02 0.304E+02   0.327E-22 0.155E+01 0.423E+01   0.364E-12 -.118E-02 -.111E-02
   0.793E-15 0.248E+02 0.483E+02   0.249E-13 -.362E+02 -.449E+02   0.360E-22 0.114E+02 -.336E+01   -.246E-12 -.227E-03 0.125E-02
   0.169E-13 0.248E+02 0.483E+02   0.107E-13 -.362E+02 -.449E+02   -.140E-21 0.114E+02 -.336E+01   -.308E-12 -.227E-03 0.125E-02
   -.297E-10 0.248E+02 0.483E+02   -.266E-10 -.362E+02 -.449E+02   0.252E-22 0.114E+02 -.336E+01   -.214E-12 -.227E-03 0.125E-02
   -.311E-10 0.248E+02 0.483E+02   -.265E-10 -.362E+02 -.449E+02   -.216E-22 0.114E+02 -.336E+01   -.192E-12 -.227E-03 0.125E-02
   0.347E-10 0.248E+02 0.483E+02   0.265E-10 -.362E+02 -.449E+02   0.385E-22 0.114E+02 -.336E+01   0.384E-12 -.227E-03 0.125E-02
   0.349E-10 0.248E+02 0.483E+02   0.265E-10 -.362E+02 -.449E+02   0.535E-22 0.114E+02 -.336E+01   0.420E-12 -.227E-03 0.125E-02
   0.287E-10 -.248E+02 -.483E+02   0.265E-10 0.362E+02 0.449E+02   -.105E-21 -.114E+02 0.336E+01   -.507E-12 0.227E-03 -.125E-02
   0.235E-10 -.248E+02 -.483E+02   0.266E-10 0.362E+02 0.449E+02   -.120E-21 -.114E+02 0.336E+01   -.479E-12 0.227E-03 -.125E-02
   0.244E-11 -.248E+02 -.483E+02   -.160E-13 0.362E+02 0.449E+02   -.113E-21 -.114E+02 0.336E+01   0.136E-12 0.227E-03 -.125E-02
   0.249E-11 -.248E+02 -.483E+02   0.000E+00 0.362E+02 0.449E+02   -.869E-22 -.114E+02 0.336E+01   0.157E-12 0.227E-03 -.125E-02
   -.336E-10 -.248E+02 -.483E+02   -.266E-10 0.362E+02 0.449E+02   0.766E-22 -.114E+02 0.336E+01   0.206E-12 0.227E-03 -.125E-02
   -.339E-10 -.248E+02 -.483E+02   -.266E-10 0.362E+02 0.449E+02   0.169E-21 -.114E+02 0.336E+01   0.159E-12 0.227E-03 -.125E-02
   -.108E-14 0.148E+02 -.989E+01   0.888E-15 -.788E+01 0.621E+01   0.420E-22 -.695E+01 0.369E+01   -.136E-12 0.135E-02 -.174E-03
   0.187E-13 0.148E+02 -.989E+01   -.888E-15 -.788E+01 0.621E+01   -.114E-21 -.695E+01 0.369E+01   -.221E-12 0.135E-02 -.174E-03
   -.282E-10 0.148E+02 -.989E+01   -.290E-10 -.788E+01 0.621E+01   0.258E-21 -.695E+01 0.369E+01   -.289E-12 0.135E-02 -.174E-03
   -.283E-10 0.148E+02 -.989E+01   -.290E-10 -.788E+01 0.621E+01   0.799E-21 -.695E+01 0.369E+01   -.192E-12 0.135E-02 -.174E-03
   0.258E-10 0.148E+02 -.989E+01   0.290E-10 -.788E+01 0.621E+01   -.535E-22 -.695E+01 0.369E+01   0.321E-12 0.135E-02 -.174E-03
   0.258E-10 0.148E+02 -.989E+01   0.290E-10 -.788E+01 0.621E+01   0.134E-21 -.695E+01 0.369E+01   0.311E-12 0.135E-02 -.174E-03
   0.268E-10 -.148E+02 0.989E+01   0.290E-10 0.788E+01 -.621E+01   0.122E-22 0.695E+01 -.369E+01   -.570E-12 -.135E-02 0.174E-03
   0.268E-10 -.148E+02 0.989E+01   0.290E-10 0.788E+01 -.621E+01   -.135E-21 0.695E+01 -.369E+01   -.575E-12 -.135E-02 0.174E-03
   0.203E-12 -.148E+02 0.989E+01   0.178E-13 0.788E+01 -.621E+01   -.177E-21 0.695E+01 -.369E+01   0.105E-12 -.135E-02 0.174E-03
   0.180E-12 -.148E+02 0.989E+01   -.711E-14 0.788E+01 -.621E+01   -.442E-22 0.695E+01 -.369E+01   0.122E-12 -.135E-02 0.174E-03
   -.259E-10 -.148E+02 0.989E+01   -.290E-10 0.788E+01 -.621E+01   -.183E-21 0.695E+01 -.369E+01   0.345E-12 -.135E-02 0.174E-03
   -.262E-10 -.148E+02 0.989E+01   -.290E-10 0.788E+01 -.621E+01   -.299E-21 0.695E+01 -.369E+01   0.332E-12 -.135E-02 0.174E-03
   -.127E-14 0.422E+02 0.347E+02   0.799E-14 -.407E+02 -.304E+02   -.820E-23 -.155E+01 -.423E+01   -.119E-12 0.118E-02 0.111E-02
   0.967E-14 0.422E+02 0.347E+02   0.977E-14 -.407E+02 -.304E+02   0.832E-22 -.155E+01 -.423E+01   -.109E-12 0.118E-02 0.111E-02
   -.269E-10 0.422E+02 0.347E+02   -.262E-10 -.407E+02 -.304E+02   -.188E-21 -.155E+01 -.423E+01   -.329E-12 0.118E-02 0.111E-02
   -.261E-10 0.422E+02 0.347E+02   -.261E-10 -.407E+02 -.304E+02   0.612E-22 -.155E+01 -.423E+01   -.342E-12 0.118E-02 0.111E-02
   0.285E-10 0.422E+02 0.347E+02   0.261E-10 -.407E+02 -.304E+02   0.255E-22 -.155E+01 -.423E+01   0.403E-12 0.118E-02 0.111E-02
   0.277E-10 0.422E+02 0.347E+02   0.261E-10 -.407E+02 -.304E+02   -.257E-21 -.155E+01 -.423E+01   0.405E-12 0.118E-02 0.111E-02
   0.251E-10 -.422E+02 -.347E+02   0.261E-10 0.407E+02 0.304E+02   -.748E-22 0.155E+01 0.423E+01   -.483E-12 -.118E-02 -.111E-02
   0.260E-10 -.422E+02 -.347E+02   0.261E-10 0.407E+02 0.304E+02   -.550E-22 0.155E+01 0.423E+01   -.498E-12 -.118E-02 -.111E-02
   0.925E-12 -.422E+02 -.347E+02   -.444E-15 0.407E+02 0.304E+02   -.160E-21 0.155E+01 0.423E+01   -.299E-13 -.118E-02 -.111E-02
   0.220E-11 -.422E+02 -.347E+02   0.577E-14 0.407E+02 0.304E+02   -.133E-21 0.155E+01 0.423E+01   0.137E-13 -.118E-02 -.111E-02
   -.279E-10 -.422E+02 -.347E+02   -.261E-10 0.407E+02 0.304E+02   -.110E-21 0.155E+01 0.423E+01   0.340E-12 -.118E-02 -.111E-02
   -.277E-10 -.422E+02 -.347E+02   -.261E-10 0.407E+02 0.304E+02   0.734E-22 0.155E+01 0.423E+01   0.307E-12 -.118E-02 -.111E-02
   0.247E-10 0.248E+02 0.483E+02   0.266E-10 -.362E+02 -.449E+02   -.676E-22 0.114E+02 -.336E+01   -.444E-12 -.227E-03 0.125E-02
   0.249E-10 0.248E+02 0.483E+02   0.265E-10 -.362E+02 -.449E+02   0.352E-22 0.114E+02 -.336E+01   -.445E-12 -.227E-03 0.125E-02
   0.262E-11 0.248E+02 0.483E+02   0.213E-13 -.362E+02 -.449E+02   -.204E-21 0.114E+02 -.336E+01   0.624E-13 -.227E-03 0.125E-02
   0.903E-12 0.248E+02 0.483E+02   0.711E-14 -.362E+02 -.449E+02   -.651E-22 0.114E+02 -.336E+01   0.843E-14 -.227E-03 0.125E-02
   -.259E-10 0.248E+02 0.483E+02   -.265E-10 -.362E+02 -.449E+02   0.148E-21 0.114E+02 -.336E+01   0.330E-12 -.227E-03 0.125E-02
   -.268E-10 0.248E+02 0.483E+02   -.265E-10 -.362E+02 -.449E+02   0.629E-22 0.114E+02 -.336E+01   0.386E-12 -.227E-03 0.125E-02
   0.213E-14 -.248E+02 -.483E+02   -.711E-14 0.362E+02 0.449E+02   -.102E-21 -.114E+02 0.336E+01   -.151E-12 0.227E-03 -.125E-02
   -.215E-14 -.248E+02 -.483E+02   0.711E-14 0.362E+02 0.449E+02   -.174E-21 -.114E+02 0.336E+01   -.162E-12 0.227E-03 -.125E-02
   -.270E-10 -.248E+02 -.483E+02   -.265E-10 0.362E+02 0.449E+02   -.387E-22 -.114E+02 0.336E+01   -.387E-12 0.227E-03 -.125E-02
   -.263E-10 -.248E+02 -.483E+02   -.265E-10 0.362E+02 0.449E+02   -.781E-22 -.114E+02 0.336E+01   -.373E-12 0.227E-03 -.125E-02
   0.266E-10 -.248E+02 -.483E+02   0.265E-10 0.362E+02 0.449E+02   0.257E-22 -.114E+02 0.336E+01   0.361E-12 0.227E-03 -.125E-02
   0.264E-10 -.248E+02 -.483E+02   0.265E-10 0.362E+02 0.449E+02   0.202E-21 -.114E+02 0.336E+01   0.358E-12 0.227E-03 -.125E-02
 -----------------------------------------------------------------------------------------------
   0.188E-10 0.139E-08 0.510E-10   0.999E-14 0.398E-12 0.398E-12   -.223E-20 0.302E-13 -.888E-14   -.266E-11 -.724E-12 -.240E-11
 
 
 POSITION                                       TOTAL-FORCE (eV/Angst)
 -----------------------------------------------------------------------------------
      0.00000      7.75957     -1.81237         0.000000     -0.002520      0.002173
      0.00000      6.35758     -7.54345         0.000000     -0.002520      0.002173
      3.09265      7.75957     -1.81237        -0.000000     -0.002520      0.002173
      3.09265      6.35758     -7.54345         0.000000     -0.002520      0.002173
      6.18531      7.75957     -1.81237         0.000000     -0.002520      0.002173
      6.18531      6.35758     -7.54345         0.000000     -0.002520      0.002173
      1.54633      9.50428     -3.92055        -0.000000      0.002520     -0.002173
      1.54633      8.10229     -9.65162         0.000000      0.002520     -0.002173
      4.63898      9.50428     -3.92055         0.000000      0.002520     -0.002173
      4.63898      8.10229     -9.65162        -0.000000      0.002520     -0.002173
      7.73163      9.50428     -3.92055         0.000000      0.002520     -0.002173
      7.73163      8.10229     -9.65162         0.000000      0.002520     -0.002173
      1.54633      6.24012     -4.56439        -0.000000      0.003034     -0.002806
      1.54633      4.83812    -10.29546         0.000000      0.003034     -0.002806
      4.63898      6.24012     -4.56439         0.000000      0.003034     -0.002806
      4.63898      4.83812    -10.29546        -0.000000      0.003034     -0.002806
      7.73163      6.24012     -4.56439         0.000000      0.003034     -0.002806
      7.73163      4.83812    -10.29546        -0.000000      0.003034     -0.002806
      0.00000     11.02374     -1.16853        -0.000000     -0.003034      0.002806
      0.00000      9.62175     -6.89961         0.000000     -0.003034      0.002806
      3.09265     11.02374     -1.16853         0.000000     -0.003034      0.002806
      3.09265      9.62175     -6.89961         0.000000     -0.003034      0.002806
      6.18531     11.02374     -1.16853         0.000000     -0.003034      0.002806
      6.18531      9.62175     -6.89961         0.000000     -0.003034      0.002806
      1.54633      1.53762     -1.81176         0.000000     -0.002520      0.002173
      1.54633      0.13563     -7.54283        -0.000000     -0.002520      0.002173
      4.63898      1.53762     -1.81176        -0.000000     -0.002520      0.002173
      4.63898      0.13563     -7.54283         0.000000     -0.002520      0.002173
      7.73163      1.53762     -1.81176         0.000000     -0.002520      0.002173
      7.73163      0.13563     -7.54283         0.000000     -0.002520      0.002173
      0.00000      3.28233     -3.91993         0.000000      0.002520     -0.002173
      0.00000      1.88034     -9.65101        -0.000000      0.002520     -0.002173
      3.09265      3.28233     -3.91993         0.000000      0.002520     -0.002173
      3.09265      1.88034     -9.65101        -0.000000      0.002520     -0.002173
      6.18531      3.28233     -3.91993         0.000000      0.002520     -0.002173
      6.18531      1.88034     -9.65101         0.000000      0.002520     -0.002173
      0.00000      0.01817     -4.56377         0.000000      0.003034     -0.002806
      0.00000     -1.38383    -10.29485        -0.000000      0.003034     -0.002806
      3.09265      0.01817     -4.56377         0.000000      0.003034     -0.002806
      3.09265     -1.38383    -10.29485        -0.000000      0.003034     -0.002806
      6.18531      0.01817     -4.56377         0.000000      0.003034     -0.002806
      6.18531     -1.38383    -10.29485         0.000000      0.003034     -0.002806
      1.54633      4.80179     -1.16792        -0.000000     -0.003034      0.002806
      1.54633      3.39980     -6.89899        -0.000000     -0.003034      0.002806
      4.63898      4.80179     -1.16792        -0.000000     -0.003034      0.002806
      4.63898      3.39980     -6.89899         0.000000     -0.003034      0.002806
      7.73163      4.80179     -1.16792        -0.000000     -0.003034      0.002806
      7.73163      3.39980     -6.89899         0.000000     -0.003034      0.002806
      1.54633     12.04280     -1.46793         0.000000      0.002524      0.011653
      1.54633     10.64081     -7.19900        -0.000000      0.002524      0.011653
      4.63898     12.04280     -1.46793        -0.000000      0.002524      0.011653
      4.63898     10.64081     -7.19900        -0.000000      0.002524      0.011653
      7.73163     12.04280     -1.46793         0.000000      0.002524      0.011653
      7.73163     10.64081     -7.19900        -0.000000      0.002524      0.011653
      0.00000      5.22105     -4.26500         0.000000     -0.002524     -0.011653
      0.00000      3.81906     -9.99607        -0.000000     -0.002524     -0.011653
      3.09265      5.22105     -4.26500         0.000000     -0.002524     -0.011653
      3.09265      3.81906     -9.99607         0.000000     -0.002524     -0.011653
      6.18531      5.22105     -4.26500        -0.000000     -0.002524     -0.011653
      6.18531      3.81906     -9.99607        -0.000000     -0.002524     -0.011653
      1.54633      7.59185     -3.21496        -0.000000     -0.003832      0.006540
      1.54633      6.18985     -8.94603        -0.000000     -0.003832      0.006540
      4.63898      7.59185     -3.21496        -0.000000     -0.003832      0.006540
      4.63898      6.18985     -8.94603         0.000000     -0.003832      0.006540
      7.73163      7.59185     -3.21496         0.000000     -0.003832      0.006540
      7.73163      6.18985     -8.94603        -0.000000     -0.003832      0.006540
      0.00000      9.67201     -2.51797        -0.000000      0.003832     -0.006540
      0.00000      8.27002     -8.24904         0.000000      0.003832     -0.006540
      3.09265      9.67201     -2.51797         0.000000      0.003832     -0.006540
      3.09265      8.27002     -8.24904        -0.000000      0.003832     -0.006540
      6.18531      9.67201     -2.51797         0.000000      0.003832     -0.006540
      6.18531      8.27002     -8.24904         0.000000      0.003832     -0.006540
      0.00000      9.11902     -5.09368        -0.000000      0.003341      0.007337
      0.00000      7.71703    -10.82476        -0.000000      0.003341      0.007337
      3.09265      9.11902     -5.09368        -0.000000      0.003341      0.007337
      3.09265      7.71703    -10.82476        -0.000000      0.003341      0.007337
      6.18531      9.11902     -5.09368         0.000000      0.003341      0.007337
      6.18531      7.71703    -10.82476        -0.000000      0.003341      0.007337
      1.54633      8.14483     -0.63924         0.000000     -0.003341     -0.007337
      1.54633      6.74284     -6.37031        -0.000000     -0.003341     -0.007337
      4.63898      8.14483     -0.63924        -0.000000     -0.003341     -0.007337
      4.63898      6.74284     -6.37031        -0.000000     -0.003341     -0.007337
      7.73163      8.14483     -0.63924         0.000000     -0.003341     -0.007337
      7.73163      6.74284     -6.37031         0.000000     -0.003341     -0.007337
      0.00000      5.82085     -1.46731         0.000000      0.002524      0.011653
      0.00000      4.41886     -7.19838         0.000000      0.002524      0.011653
      3.09265      5.82085     -1.46731         0.000000      0.002524      0.011653
      3.09265      4.41886     -7.19838         0.000000      0.002524      0.011653
      6.18531      5.82085     -1.46731        -0.000000      0.002524      0.011653
      6.18531      4.41886     -7.19838        -0.000000      0.002524      0.011653
      1.54633     -1.00090     -4.26438        -0.000000     -0.002524     -0.011653
      1.54633     -2.40289     -9.99545         0.000000     -0.002524     -0.011653
      4.63898     -1.00090     -4.26438        -0.000000     -0.002524     -0.011653
      4.63898     -2.40289     -9.99545        -0.000000     -0.002524     -0.011653
      7.73163     -1.00090     -4.26438        -0.000000     -0.002524     -0.011653
      7.73163     -2.40289     -9.99545         0.000000     -0.002524     -0.011653
      0.00000      1.36990     -3.21434         0.000000     -0.003832      0.006540
      0.00000     -0.03210     -8.94541        -0.000000     -0.003832      0.006540
      3.09265      1.36990     -3.21434         0.000000     -0.003832      0.006540
      3.09265     -0.03210     -8.94541         0.000000     -0.003832      0.006540
      6.18531      1.36990     -3.21434         0.000000     -0.003832      0.006540
      6.18531     -0.03210     -8.94541        -0.000000     -0.003832      0.006540
      1.54633      3.45006     -2.51735        -0.000000      0.003832     -0.006540
      1.54633      2.04806     -8.24842         0.000000      0.003832     -0.006540
      4.63898      3.45006     -2.51735         0.000000      0.003832     -0.006540
      4.63898      2.04806     -8.24842        -0.000000      0.003832     -0.006540
      7.73163      3.45006     -2.51735        -0.000000      0.003832     -0.006540
      7.73163      2.04806     -8.24842         0.000000      0.003832     -0.006540
      1.54633      2.89707     -5.09307         0.000000      0.003341      0.007337
      1.54633      1.49508    -10.82414        -0.000000      0.003341      0.007337
      4.63898      2.89707     -5.09307         0.000000      0.003341      0.007337
      4.63898      1.49508    -10.82414        -0.000000      0.003341      0.007337
      7.73163      2.89707     -5.09307         0.000000      0.003341      0.007337
      7.73163      1.49508    -10.82414         0.000000      0.003341      0.007337
      0.00000      1.92288     -0.63862         0.000000     -0.003341     -0.007337
      0.00000      0.52089     -6.36970         0.000000     -0.003341     -0.007337
      3.09265      1.92288     -0.63862         0.000000     -0.003341     -0.007337
      3.09265      0.52089     -6.36970        -0.000000     -0.003341     -0.007337
      6.18531      1.92288     -0.63862        -0.000000     -0.003341     -0.007337
      6.18531      0.52089     -6.36970         0.000000     -0.003341     -0.007337
 -----------------------------------------------------------------------------------
    total drift:                                0.000000      0.000000      0.000000


--------------------------------------------------------------------------------------------------------



  FREE ENERGIE OF THE ION-ELECTRON SYSTEM (eV)
  ---------------------------------------------------
  free  energy   TOTEN  =      -721.35864369 eV

  energy  without entropy=     -721.35864369  energy(sigma->0) =     -721.35864369
 


--------------------------------------------------------------------------------------------------------


    POTLOK:  cpu time      0.0397: real time      0.0397


--------------------------------------------------------------------------------------------------------


 writing wavefunctions
     LOOP+:  cpu time    305.8251: real time    305.9449
    4ORBIT:  cpu time      0.0000: real time      0.0000

 total amount of memory used by VASP MPI-rank0    69544. kBytes
=======================================================================

   base      :      30000. kBytes
   nonl-proj :      12959. kBytes
   fftplans  :       2043. kBytes
   grid      :       3200. kBytes
   one-center:        121. kBytes
   wavefun   :      21221. kBytes
 
  
  
 General timing and accounting informations for this job:
 ========================================================
  
                  Total CPU time used (sec):      316.107
                            User time (sec):      312.840
                          System time (sec):        3.267
                         Elapsed time (sec):      316.878
  
                   Maximum memory used (kb):      280420.
                   Average memory used (kb):          N/A
  
                          Minor page faults:       108868
                          Major page faults:         1385
                 Voluntary context switches:         2047
