 running    4 mpi-ranks, on    1 nodes
 distrk:  each k-point on    1 cores,    4 groups
 distr:  one band on    1 cores,    1 groups
 OpenACC runtime initialized ...    4 GPUs detected
 vasp.6.4.2 20Jul23 (build Nov 12 2023 22:16:35) complex                         
 POSCAR found type information on POSCAR GaO N 
 POSCAR found :  3 types and     120 ions
 scaLAPACK will be used selectively (only on CPU)
 LDA part: xc-table for Pade appr. of Perdew
 POSCAR, INCAR and KPOINTS ok, starting setup
 FFT: planning ... GRIDC
 FFT: planning ... GRID_SOFT
 FFT: planning ... GRID
 WAVECAR not read
 entering main loop
       N       E                     dE             d eps       ncg     rms          rms(c)
DAV:   1     0.220159631304E+05    0.22016E+05   -0.32138E+05 10128   0.282E+03
DAV:   2     0.487529129969E+04   -0.17141E+05   -0.16157E+05 10128   0.816E+02
DAV:   3    -0.148022983028E+03   -0.50233E+04   -0.47231E+04 12888   0.320E+02
DAV:   4    -0.776166693018E+03   -0.62814E+03   -0.61519E+03 12480   0.121E+02
DAV:   5    -0.820792417824E+03   -0.44626E+02   -0.44296E+02 14648   0.349E+01BRMIX: very serious problems
 the old and the new charge density differ
 old charge density:  1055.00000 new 1055.99974
BRMIX: very serious problems
 the old and the new charge density differ
 old charge density:  1055.00000 new 1055.99974
BRMIX: very serious problems
 the old and the new charge density differ
 old charge density:  1055.00000 new 1055.99974
BRMIX: very serious problems
 the old and the new charge density differ
 old charge density:  1055.00000 new 1055.99974
    0.612E+01
RMM:   6    -0.705067272877E+03    0.11573E+03   -0.38750E+02 13090   0.237E+01    0.160E+01
RMM:   7    -0.709246601644E+03   -0.41793E+01   -0.69525E+01 13922   0.100E+01    0.131E+01
RMM:   8    -0.709241877005E+03    0.47246E-02   -0.11447E+01 12426   0.576E+00    0.512E+00
RMM:   9    -0.708560019521E+03    0.68186E+00   -0.28091E+00 15194   0.226E+00    0.189E+00
RMM:  10    -0.708591307044E+03   -0.31288E-01   -0.12097E+00 13240   0.122E+00    0.726E-01
RMM:  11    -0.708607519262E+03   -0.16212E-01   -0.20080E-01 13710   0.745E-01    0.516E-01
RMM:  12    -0.708606353247E+03    0.11660E-02   -0.58176E-02 15410   0.284E-01    0.147E-01
RMM:  13    -0.708607783844E+03   -0.14306E-02   -0.21134E-02 15373   0.147E-01    0.353E-02
RMM:  14    -0.708608295071E+03   -0.51123E-03   -0.54080E-03 13921   0.798E-02    0.357E-02
RMM:  15    -0.708608438543E+03   -0.14347E-03   -0.18129E-03 13213   0.426E-02    0.585E-03
RMM:  16    -0.708608501431E+03   -0.62888E-04   -0.66614E-04 10952   0.238E-02    0.483E-03
RMM:  17    -0.708608527217E+03   -0.25786E-04   -0.23127E-04 10171   0.159E-02    0.338E-03
RMM:  18    -0.708608537716E+03   -0.10499E-04   -0.10132E-04  9451   0.999E-03    0.124E-03
RMM:  19    -0.708608541373E+03   -0.36570E-05   -0.37133E-05  8670   0.673E-03
   1 F= -.70860854E+03 E0= -.70860854E+03  d E =-.708609E+03
 curvature:   0.00 expect dE= 0.000E+00 dE for cont linesearch  0.000E+00
 trial: gam= 0.00000 g(F)=  0.177E+01 g(S)=  0.000E+00 ort = 0.000E+00 (trialstep = 0.100E+01)
 search vector abs. value=  0.177E+01
 bond charge predicted
       N       E                     dE             d eps       ncg     rms          rms(c)
DAV:   1    -0.706863997544E+03    0.17445E+01   -0.38697E+02 12168   0.270E+01    0.306E+00
RMM:   2    -0.708555603346E+03   -0.16916E+01   -0.18381E+01 13893   0.843E+00    0.124E+00
RMM:   3    -0.708827497625E+03   -0.27189E+00   -0.38742E+00 15214   0.312E+00    0.132E+00
RMM:   4    -0.708790252733E+03    0.37245E-01   -0.47427E-01 15472   0.107E+00    0.591E-01
RMM:   5    -0.708753187162E+03    0.37066E-01   -0.23329E-01 14507   0.625E-01    0.620E-01
RMM:   6    -0.708750094809E+03    0.30924E-02   -0.29800E-02 15116   0.272E-01    0.225E-01
RMM:   7    -0.708750512440E+03   -0.41763E-03   -0.15487E-02 13087   0.163E-01    0.242E-01
RMM:   8    -0.708749560743E+03    0.95170E-03   -0.46073E-03 15001   0.887E-02    0.485E-02
RMM:   9    -0.708749657682E+03   -0.96939E-04   -0.13564E-03 13880   0.443E-02    0.335E-02
RMM:  10    -0.708749662588E+03   -0.49056E-05   -0.23499E-04 11671   0.205E-02    0.154E-02
RMM:  11    -0.708749666532E+03   -0.39437E-05   -0.11508E-04 10653   0.138E-02    0.111E-02
RMM:  12    -0.708749665988E+03    0.54338E-06   -0.33624E-05  9344   0.870E-03
   2 F= -.70874967E+03 E0= -.70874967E+03  d E =-.141125E+00
 trial-energy change:   -0.141125  1 .order   -0.096331   -1.767698    1.575036
 step:   0.5487(harm=  0.5288)  dis= 0.03975  next Energy=  -709.100935 (dE=-0.492E+00)
 bond charge predicted
       N       E                     dE             d eps       ncg     rms          rms(c)
DAV:   1    -0.708734775881E+03    0.14891E-01   -0.76472E+01 11384   0.131E+01    0.118E+00
RMM:   2    -0.709072169366E+03   -0.33739E+00   -0.37638E+00 14386   0.390E+00    0.553E-01
RMM:   3    -0.709119357419E+03   -0.47188E-01   -0.69638E-01 14970   0.134E+00    0.556E-01
RMM:   4    -0.709103809685E+03    0.15548E-01   -0.91219E-02 15182   0.462E-01    0.155E-01
RMM:   5    -0.709101183299E+03    0.26264E-02   -0.27296E-02 14862   0.218E-01    0.146E-01
RMM:   6    -0.709100941243E+03    0.24206E-03   -0.42206E-03 15518   0.947E-02    0.531E-02
RMM:   7    -0.709100950903E+03   -0.96602E-05   -0.16457E-03 13691   0.526E-02    0.484E-02
RMM:   8    -0.709100928988E+03    0.21916E-04   -0.52953E-04 13210   0.286E-02    0.104E-02
RMM:   9    -0.709100937630E+03   -0.86422E-05   -0.10733E-04 10509   0.138E-02    0.558E-03
RMM:  10    -0.709100939912E+03   -0.22818E-05   -0.33671E-05  8832   0.847E-03
   3 F= -.70910094E+03 E0= -.70910094E+03  d E =-.492399E+00
 curvature:  -0.26 expect dE=-0.702E-01 dE for cont linesearch -0.338E-06
 trial: gam= 0.14963 g(F)=  0.266E+00 g(S)=  0.000E+00 ort = 0.151E-02 (trialstep = 0.910E+00)
 search vector abs. value=  0.306E+00
 bond charge predicted
       N       E                     dE             d eps       ncg     rms          rms(c)
DAV:   1    -0.708948494146E+03    0.15244E+00   -0.54316E+01 11104   0.105E+01    0.112E+00
RMM:   2    -0.709166476747E+03   -0.21798E+00   -0.23020E+00 14030   0.306E+00    0.398E-01
RMM:   3    -0.709208572660E+03   -0.42096E-01   -0.47521E-01 15211   0.110E+00    0.405E-01
RMM:   4    -0.709209023412E+03   -0.45075E-03   -0.52672E-02 15652   0.365E-01    0.191E-01
RMM:   5    -0.709208213822E+03    0.80959E-03   -0.13594E-02 14811   0.166E-01    0.997E-02
RMM:   6    -0.709208302660E+03   -0.88838E-04   -0.26729E-03 15727   0.742E-02    0.499E-02
RMM:   7    -0.709208329419E+03   -0.26759E-04   -0.87372E-04 13925   0.375E-02    0.277E-02
RMM:   8    -0.709208335475E+03   -0.60561E-05   -0.22933E-04 11445   0.203E-02    0.866E-03
RMM:   9    -0.709208341095E+03   -0.56200E-05   -0.76838E-05  9675   0.117E-02
   4 F= -.70920834E+03 E0= -.70920834E+03  d E =-.107401E+00
 trial-energy change:   -0.107401  1 .order   -0.105750   -0.242198    0.030698
 step:   0.8106(harm=  0.8074)  dis= 0.02393  next Energy=  -709.210011 (dE=-0.109E+00)
 bond charge predicted
       N       E                     dE             d eps       ncg     rms          rms(c)
DAV:   1    -0.709207148209E+03    0.11873E-02   -0.64563E-01 11384   0.114E+00    0.112E-01
RMM:   2    -0.709209459509E+03   -0.23113E-02   -0.24505E-02 13704   0.315E-01    0.435E-02
RMM:   3    -0.709209912562E+03   -0.45305E-03   -0.52642E-03 15101   0.114E-01    0.422E-02
RMM:   4    -0.709209920544E+03   -0.79817E-05   -0.62673E-04 14701   0.400E-02    0.203E-02
RMM:   5    -0.709209909148E+03    0.11396E-04   -0.15970E-04 11724   0.193E-02    0.943E-03
RMM:   6    -0.709209910101E+03   -0.95352E-06   -0.30030E-05  8401   0.930E-03
   5 F= -.70920991E+03 E0= -.70920991E+03  d E =-.108970E+00
 curvature:  -0.46 expect dE=-0.453E-01 dE for cont linesearch -0.682E-05
 trial: gam= 0.33539 g(F)=  0.977E-01 g(S)=  0.000E+00 ort = 0.212E-02 (trialstep = 0.890E+00)
 search vector abs. value=  0.134E+00
 bond charge predicted
       N       E                     dE             d eps       ncg     rms          rms(c)
DAV:   1    -0.709159400102E+03    0.50509E-01   -0.25225E+01 10672   0.718E+00    0.793E-01
RMM:   2    -0.709244577117E+03   -0.85177E-01   -0.90866E-01 13424   0.192E+00    0.254E-01
RMM:   3    -0.709261343092E+03   -0.16766E-01   -0.18990E-01 15335   0.722E-01    0.274E-01
RMM:   4    -0.709261347363E+03   -0.42710E-05   -0.20362E-02 15425   0.241E-01    0.125E-01
RMM:   5    -0.709261048335E+03    0.29903E-03   -0.57743E-03 14948   0.113E-01    0.702E-02
RMM:   6    -0.709261071473E+03   -0.23137E-04   -0.11104E-03 15516   0.488E-02    0.385E-02
RMM:   7    -0.709261067241E+03    0.42313E-05   -0.37427E-04 12783   0.266E-02    0.145E-02
RMM:   8    -0.709261071872E+03   -0.46305E-05   -0.11049E-04 10345   0.151E-02    0.645E-03
RMM:   9    -0.709261074225E+03   -0.23529E-05   -0.35724E-05  8763   0.970E-03
   6 F= -.70926107E+03 E0= -.70926107E+03  d E =-.511641E-01
 trial-energy change:   -0.051164  1 .order   -0.051064   -0.087569   -0.014559
 step:   1.0674(harm=  1.0674)  dis= 0.02126  next Energy=  -709.262425 (dE=-0.525E-01)
 bond charge predicted
       N       E                     dE             d eps       ncg     rms          rms(c)
DAV:   1    -0.709258735400E+03    0.23365E-02   -0.10046E+00 11656   0.143E+00    0.157E-01
RMM:   2    -0.709262071121E+03   -0.33357E-02   -0.35585E-02 13388   0.379E-01    0.503E-02
RMM:   3    -0.709262727641E+03   -0.65652E-03   -0.74552E-03 15323   0.143E-01    0.543E-02
RMM:   4    -0.709262729528E+03   -0.18866E-05   -0.81095E-04 15037   0.479E-02    0.244E-02
RMM:   5    -0.709262718953E+03    0.10574E-04   -0.23232E-04 12622   0.230E-02    0.144E-02
RMM:   6    -0.709262719310E+03   -0.35625E-06   -0.41794E-05  9069   0.107E-02
   7 F= -.70926272E+03 E0= -.70926272E+03  d E =-.528092E-01
 curvature:  -0.72 expect dE=-0.349E-01 dE for cont linesearch -0.182E-05
 trial: gam= 0.48465 g(F)=  0.482E-01 g(S)=  0.000E+00 ort = 0.579E-03 (trialstep = 0.925E+00)
 search vector abs. value=  0.801E-01
 bond charge predicted
       N       E                     dE             d eps       ncg     rms          rms(c)
DAV:   1    -0.709222123737E+03    0.40595E-01   -0.16835E+01 10504   0.582E+00    0.686E-01
RMM:   2    -0.709276722756E+03   -0.54599E-01   -0.58360E-01 13111   0.152E+00    0.206E-01
RMM:   3    -0.709288527614E+03   -0.11805E-01   -0.13085E-01 15416   0.593E-01    0.219E-01
RMM:   4    -0.709288736428E+03   -0.20881E-03   -0.13314E-02 15345   0.190E-01    0.112E-01
RMM:   5    -0.709288525363E+03    0.21107E-03   -0.38049E-03 14786   0.898E-02    0.592E-02
RMM:   6    -0.709288539035E+03   -0.13672E-04   -0.74396E-04 15324   0.395E-02    0.304E-02
RMM:   7    -0.709288542305E+03   -0.32701E-05   -0.24549E-04 11925   0.196E-02    0.108E-02
RMM:   8    -0.709288545266E+03   -0.29603E-05   -0.64586E-05  9352   0.120E-02
   8 F= -.70928855E+03 E0= -.70928855E+03  d E =-.258260E-01
 trial-energy change:   -0.025826  1 .order   -0.025284   -0.044873   -0.005695
 step:   1.0484(harm=  1.0599)  dis= 0.01786  next Energy=  -709.288925 (dE=-0.262E-01)
 bond charge predicted
       N       E                     dE             d eps       ncg     rms          rms(c)
DAV:   1    -0.709287886535E+03    0.65577E-03   -0.29769E-01 11696   0.773E-01    0.887E-02
RMM:   2    -0.709288843619E+03   -0.95708E-03   -0.10215E-02 13057   0.201E-01    0.272E-02
RMM:   3    -0.709289051626E+03   -0.20801E-03   -0.23323E-03 15356   0.787E-02    0.292E-02
RMM:   4    -0.709289056209E+03   -0.45830E-05   -0.24093E-04 12784   0.254E-02    0.152E-02
RMM:   5    -0.709289053035E+03    0.31733E-05   -0.81154E-05 10529   0.156E-02
   9 F= -.70928905E+03 E0= -.70928905E+03  d E =-.263337E-01
 curvature:  -0.87 expect dE=-0.202E-01 dE for cont linesearch -0.115E-04
 trial: gam= 0.48090 g(F)=  0.232E-01 g(S)=  0.000E+00 ort = 0.103E-02 (trialstep = 0.950E+00)
 search vector abs. value=  0.427E-01
 bond charge predicted
       N       E                     dE             d eps       ncg     rms          rms(c)
DAV:   1    -0.709267301369E+03    0.21755E-01   -0.92593E+00 10648   0.438E+00    0.498E-01
RMM:   2    -0.709296492848E+03   -0.29191E-01   -0.30895E-01 13126   0.114E+00    0.150E-01
RMM:   3    -0.709303341799E+03   -0.68490E-02   -0.72667E-02 15282   0.447E-01    0.152E-01
RMM:   4    -0.709303655343E+03   -0.31354E-03   -0.74969E-03 15353   0.145E-01    0.848E-02
RMM:   5    -0.709303575092E+03    0.80251E-04   -0.19191E-03 14717   0.658E-02    0.377E-02
RMM:   6    -0.709303595226E+03   -0.20134E-04   -0.40492E-04 14129   0.296E-02    0.225E-02
RMM:   7    -0.709303597786E+03   -0.25606E-05   -0.12358E-04 10359   0.148E-02    0.658E-03
RMM:   8    -0.709303599908E+03   -0.21213E-05   -0.35582E-05  8736   0.961E-03
  10 F= -.70930360E+03 E0= -.70930360E+03  d E =-.145469E-01
 trial-energy change:   -0.014547  1 .order   -0.014215   -0.022500   -0.005930
 step:   1.2437(harm=  1.2900)  dis= 0.01448  next Energy=  -709.304526 (dE=-0.155E-01)
 bond charge predicted
       N       E                     dE             d eps       ncg     rms          rms(c)
DAV:   1    -0.709301419064E+03    0.21787E-02   -0.88623E-01 11288   0.136E+00    0.151E-01
RMM:   2    -0.709304172694E+03   -0.27536E-02   -0.29117E-02 13089   0.346E-01    0.463E-02
RMM:   3    -0.709304816836E+03   -0.64414E-03   -0.68840E-03 15275   0.137E-01    0.472E-02
RMM:   4    -0.709304846155E+03   -0.29319E-04   -0.70265E-04 14914   0.440E-02    0.266E-02
RMM:   5    -0.709304838385E+03    0.77704E-05   -0.19554E-04 11975   0.214E-02    0.132E-02
RMM:   6    -0.709304839342E+03   -0.95689E-06   -0.38301E-05  8966   0.102E-02
  11 F= -.70930484E+03 E0= -.70930484E+03  d E =-.157863E-01
 curvature:  -1.14 expect dE=-0.177E-01 dE for cont linesearch -0.357E-04
 trial: gam= 0.63954 g(F)=  0.155E-01 g(S)=  0.000E+00 ort = 0.115E-02 (trialstep = 0.101E+01)
 search vector abs. value=  0.345E-01
 bond charge predicted
       N       E                     dE             d eps       ncg     rms          rms(c)
DAV:   1    -0.709282188257E+03    0.22650E-01   -0.85388E+00 10664   0.418E+00    0.477E-01
RMM:   2    -0.709308134240E+03   -0.25946E-01   -0.27530E-01 12941   0.106E+00    0.146E-01
RMM:   3    -0.709314242654E+03   -0.61084E-02   -0.65773E-02 15276   0.424E-01    0.149E-01
RMM:   4    -0.709314448700E+03   -0.20605E-03   -0.65192E-03 15216   0.135E-01    0.765E-02
RMM:   5    -0.709314389214E+03    0.59486E-04   -0.17427E-03 14810   0.622E-02    0.410E-02
RMM:   6    -0.709314399239E+03   -0.10025E-04   -0.34992E-04 13752   0.273E-02    0.208E-02
RMM:   7    -0.709314402156E+03   -0.29170E-05   -0.11080E-04 10056   0.140E-02    0.671E-03
RMM:   8    -0.709314403935E+03   -0.17795E-05   -0.30839E-05  8538   0.926E-03
  12 F= -.70931440E+03 E0= -.70931440E+03  d E =-.956459E-02
 trial-energy change:   -0.009565  1 .order   -0.009194   -0.016394   -0.001994
 step:   1.1278(harm=  1.1484)  dis= 0.00943  next Energy=  -709.314522 (dE=-0.968E-02)
 bond charge predicted
       N       E                     dE             d eps       ncg     rms          rms(c)
DAV:   1    -0.709314156823E+03    0.24533E-03   -0.11930E-01 11776   0.493E-01    0.545E-02
RMM:   2    -0.709314512249E+03   -0.35543E-03   -0.37688E-03 12871   0.123E-01    0.171E-02
RMM:   3    -0.709314595776E+03   -0.83527E-04   -0.91217E-04 15113   0.494E-02    0.177E-02
RMM:   4    -0.709314598806E+03   -0.30298E-05   -0.91546E-05 11297   0.160E-02
  13 F= -.70931460E+03 E0= -.70931460E+03  d E =-.975946E-02
 curvature:  -1.19 expect dE=-0.824E-02 dE for cont linesearch -0.306E-05
 trial: gam= 0.49371 g(F)=  0.692E-02 g(S)=  0.000E+00 ort = 0.297E-03 (trialstep = 0.103E+01)
 search vector abs. value=  0.156E-01
 bond charge predicted
       N       E                     dE             d eps       ncg     rms          rms(c)
DAV:   1    -0.709303384081E+03    0.11212E-01   -0.39951E+00 10664   0.289E+00    0.327E-01
RMM:   2    -0.709315715661E+03   -0.12332E-01   -0.13070E-01 13106   0.739E-01    0.984E-02
RMM:   3    -0.709318589332E+03   -0.28737E-02   -0.30688E-02 15245   0.292E-01    0.976E-02
RMM:   4    -0.709318703219E+03   -0.11389E-03   -0.31778E-03 15176   0.945E-02    0.486E-02
RMM:   5    -0.709318686256E+03    0.16964E-04   -0.83597E-04 14729   0.433E-02    0.267E-02
RMM:   6    -0.709318692621E+03   -0.63649E-05   -0.17437E-04 12258   0.190E-02    0.135E-02
RMM:   7    -0.709318694594E+03   -0.19733E-05   -0.54824E-05  9265   0.105E-02
  14 F= -.70931869E+03 E0= -.70931869E+03  d E =-.409579E-02
 trial-energy change:   -0.004096  1 .order   -0.003708   -0.007295   -0.000121
 step:   1.0456(harm=  1.0499)  dis= 0.00509  next Energy=  -709.318695 (dE=-0.410E-02)
 bond charge predicted
       N       E                     dE             d eps       ncg     rms          rms(c)
DAV:   1    -0.709318698621E+03   -0.60000E-05   -0.70726E-04 11464   0.417E-02    0.363E-03
RMM:   2    -0.709318702158E+03   -0.35370E-05   -0.39896E-05  7435   0.149E-02
  15 F= -.70931870E+03 E0= -.70931870E+03  d E =-.410335E-02
 curvature:  -1.09 expect dE=-0.290E-02 dE for cont linesearch -0.108E-05
 trial: gam= 0.39531 g(F)=  0.267E-02 g(S)=  0.000E+00 ort = 0.124E-03 (trialstep = 0.104E+01)
 search vector abs. value=  0.520E-02
 bond charge predicted
       N       E                     dE             d eps       ncg     rms          rms(c)
DAV:   1    -0.709315108288E+03    0.35903E-02   -0.13673E+00 10432   0.166E+00    0.192E-01
RMM:   2    -0.709319350159E+03   -0.42419E-02   -0.45095E-02 12905   0.424E-01    0.593E-02
RMM:   3    -0.709320314538E+03   -0.96438E-03   -0.10582E-02 15338   0.168E-01    0.621E-02
RMM:   4    -0.709320338576E+03   -0.24037E-04   -0.10187E-03 14971   0.536E-02    0.307E-02
RMM:   5    -0.709320331712E+03    0.68638E-05   -0.29612E-04 12907   0.259E-02    0.183E-02
RMM:   6    -0.709320331681E+03    0.31170E-07   -0.51953E-05  9500   0.115E-02
  16 F= -.70932033E+03 E0= -.70932033E+03  d E =-.162952E-02
 trial-energy change:   -0.001630  1 .order   -0.001446   -0.002811   -0.000082
 step:   1.0572(harm=  1.0662)  dis= 0.00317  next Energy=  -709.320333 (dE=-0.163E-02)
 bond charge predicted
       N       E                     dE             d eps       ncg     rms          rms(c)
DAV:   1    -0.709320331122E+03    0.58942E-06   -0.70978E-04 11744   0.412E-02    0.386E-03
RMM:   2    -0.709320335156E+03   -0.40338E-05   -0.44834E-05  7460   0.150E-02
  17 F= -.70932034E+03 E0= -.70932034E+03  d E =-.163300E-02
 curvature:  -0.93 expect dE=-0.105E-02 dE for cont linesearch -0.359E-07
 trial: gam= 0.44178 g(F)=  0.113E-02 g(S)=  0.000E+00 ort = 0.141E-04 (trialstep = 0.104E+01)
 search vector abs. value=  0.215E-02
 bond charge predicted
       N       E                     dE             d eps       ncg     rms          rms(c)
DAV:   1    -0.709318673762E+03    0.16574E-02   -0.56563E-01 10516   0.109E+00    0.121E-01
RMM:   2    -0.709320513071E+03   -0.18393E-02   -0.19635E-02 13148   0.282E-01    0.381E-02
RMM:   3    -0.709320885215E+03   -0.37214E-03   -0.42399E-03 15348   0.109E-01    0.412E-02
RMM:   4    -0.709320887830E+03   -0.26144E-05   -0.42611E-04 14535   0.352E-02    0.199E-02
RMM:   5    -0.709320881212E+03    0.66175E-05   -0.12901E-04 11248   0.183E-02    0.120E-02
RMM:   6    -0.709320881119E+03    0.92863E-07   -0.24662E-05  8294   0.880E-03
  18 F= -.70932088E+03 E0= -.70932088E+03  d E =-.545963E-03
 trial-energy change:   -0.000546  1 .order   -0.000452   -0.001177    0.000272
 step:   0.8932(harm=  0.8445)  dis= 0.00168  next Energy=  -709.320900 (dE=-0.565E-03)
 bond charge predicted
       N       E                     dE             d eps       ncg     rms          rms(c)
DAV:   1    -0.709320849439E+03    0.31773E-04   -0.10900E-02 10704   0.151E-01    0.194E-02
RMM:   2    -0.709320885438E+03   -0.36000E-04   -0.38789E-04 12830   0.421E-02    0.584E-03
RMM:   3    -0.709320892436E+03   -0.69982E-05   -0.87990E-05 11642   0.169E-02
  19 F= -.70932089E+03 E0= -.70932089E+03  d E =-.557280E-03
 curvature:  -0.75 expect dE=-0.373E-03 dE for cont linesearch -0.136E-04
 ZBRENT: interpolating
 opt :   0.9562  next Energy=  -709.320899 (dE=-0.563E-03)
 bond charge predicted
       N       E                     dE             d eps       ncg     rms          rms(c)
DAV:   1    -0.709320882624E+03    0.28139E-05   -0.20223E-03 11646   0.655E-02    0.858E-03
RMM:   2    -0.709320890989E+03   -0.83651E-05   -0.88847E-05 10710   0.192E-02
  20 F= -.70932089E+03 E0= -.70932089E+03  d E =-.555833E-03
 curvature:  -0.34 expect dE=-0.202E-03 dE for cont linesearch -0.183E-04
 ZBRENT: interpolating
 opt :   0.9164  next Energy=  -709.320895 (dE=-0.560E-03)
 bond charge predicted
       N       E                     dE             d eps       ncg     rms          rms(c)
DAV:   1    -0.709320889593E+03   -0.69684E-05   -0.74730E-04 10424   0.423E-02    0.555E-03
RMM:   2    -0.709320892624E+03   -0.30317E-05   -0.35348E-05  7471   0.155E-02
  21 F= -.70932089E+03 E0= -.70932089E+03  d E =-.557468E-03
 curvature:  -0.04 expect dE=-0.218E-04 dE for cont linesearch -0.795E-06
 ZBRENT: bisectioning
 opt :   0.9363  next Energy=  -709.320897 (dE=-0.561E-03)
 bond charge predicted
       N       E                     dE             d eps       ncg     rms          rms(c)
DAV:   1    -0.709320891596E+03   -0.20033E-05   -0.17212E-04  9832   0.211E-02    0.240E-03
RMM:   2    -0.709320893113E+03   -0.15168E-05   -0.15993E-05  5938   0.870E-03
  22 F= -.70932089E+03 E0= -.70932089E+03  d E =-.557957E-03
 curvature:  -0.22 expect dE=-0.114E-03 dE for cont linesearch -0.251E-05
 ZBRENT: interpolating
 opt :   0.9275  next Energy=  -709.320894 (dE=-0.559E-03)
 bond charge predicted
       N       E                     dE             d eps       ncg     rms          rms(c)
DAV:   1    -0.709320892922E+03   -0.13259E-05   -0.33734E-05  8668   0.146E-02    0.112E-03
RMM:   2    -0.709320893394E+03   -0.47219E-06   -0.49343E-06  5242   0.438E-03
  23 F= -.70932089E+03 E0= -.70932089E+03  d E =-.558238E-03
 curvature:  -0.06 expect dE=-0.299E-04 dE for cont linesearch -0.649E-07
 trial: gam= 0.49936 g(F)=  0.500E-03 g(S)=  0.000E+00 ort = 0.483E-04 (trialstep = 0.102E+01)
 search vector abs. value=  0.109E-02
 bond charge predicted
       N       E                     dE             d eps       ncg     rms          rms(c)
DAV:   1    -0.709320136687E+03    0.75623E-03   -0.25796E-01 10832   0.756E-01    0.785E-02
RMM:   2    -0.709320964394E+03   -0.82771E-03   -0.86683E-03 13269   0.197E-01    0.245E-02
RMM:   3    -0.709321157020E+03   -0.19263E-03   -0.20280E-03 15198   0.771E-02    0.241E-02
RMM:   4    -0.709321167635E+03   -0.10615E-04   -0.21981E-04 13064   0.257E-02    0.136E-02
RMM:   5    -0.709321166402E+03    0.12325E-05   -0.63867E-05 10462   0.151E-02
  24 F= -.70932117E+03 E0= -.70932117E+03  d E =-.273008E-03
 trial-energy change:   -0.000273  1 .order   -0.000257   -0.000533    0.000019
 step:   0.9815(harm=  0.9815)  dis= 0.00157  next Energy=  -709.321150 (dE=-0.257E-03)
 bond charge predicted
       N       E                     dE             d eps       ncg     rms          rms(c)
DAV:   1    -0.709321164162E+03    0.34727E-05   -0.29723E-04 10678   0.264E-02    0.298E-03
RMM:   2    -0.709321165061E+03   -0.89943E-06   -0.11082E-05  5922   0.791E-03
  25 F= -.70932117E+03 E0= -.70932117E+03  d E =-.271667E-03
 curvature:  -1.02 expect dE=-0.273E-03 dE for cont linesearch -0.103E-04
 ZBRENT: interpolating
 opt :   1.0117  next Energy=  -709.321166 (dE=-0.273E-03)
 bond charge predicted
       N       E                     dE             d eps       ncg     rms          rms(c)
DAV:   1    -0.709321165608E+03   -0.14465E-05   -0.22087E-04 11536   0.227E-02    0.323E-03
RMM:   2    -0.709321166761E+03   -0.11527E-05   -0.12783E-05  5704   0.783E-03
  26 F= -.70932117E+03 E0= -.70932117E+03  d E =-.273367E-03
 curvature:  -0.01 expect dE=-0.140E-05 dE for cont linesearch -0.227E-08
 trial: gam= 0.41305 g(F)=  0.274E-03 g(S)=  0.000E+00 ort =-0.219E-04 (trialstep = 0.102E+01)
 search vector abs. value=  0.441E-03
 bond charge predicted
       N       E                     dE             d eps       ncg     rms          rms(c)
DAV:   1    -0.709320880331E+03    0.28528E-03   -0.10591E-01 10734   0.481E-01    0.504E-02
RMM:   2    -0.709321238234E+03   -0.35790E-03   -0.37907E-03 13353   0.129E-01    0.166E-02
RMM:   3    -0.709321314413E+03   -0.76179E-04   -0.84783E-04 15112   0.496E-02    0.173E-02
RMM:   4    -0.709321317177E+03   -0.27640E-05   -0.99475E-05 12014   0.176E-02
  27 F= -.70932132E+03 E0= -.70932132E+03  d E =-.150416E-03
 trial-energy change:   -0.000150  1 .order   -0.000114   -0.000269    0.000040
 step:   0.8844(harm=  0.8844)  dis= 0.00106  next Energy=  -709.321284 (dE=-0.117E-03)
 bond charge predicted
       N       E                     dE             d eps       ncg     rms          rms(c)
DAV:   1    -0.709321303198E+03    0.11215E-04   -0.18619E-03 13448   0.731E-02    0.565E-03
RMM:   2    -0.709321313354E+03   -0.10156E-04   -0.10784E-04 11053   0.211E-02    0.389E-03
RMM:   3    -0.709321313513E+03   -0.15914E-06   -0.17298E-05  6218   0.839E-03
  28 F= -.70932131E+03 E0= -.70932131E+03  d E =-.146752E-03
 curvature:  -0.74 expect dE=-0.983E-04 dE for cont linesearch -0.149E-04
 ZBRENT: interpolating
 opt :   0.9773  next Energy=  -709.321318 (dE=-0.151E-03)
 bond charge predicted
       N       E                     dE             d eps       ncg     rms          rms(c)
DAV:   1    -0.709321311860E+03    0.14937E-05   -0.86298E-04 11310   0.434E-02    0.649E-03
RMM:   2    -0.709321315463E+03   -0.36027E-05   -0.38922E-05  8431   0.122E-02
  29 F= -.70932132E+03 E0= -.70932132E+03  d E =-.148702E-03
 curvature:  -0.04 expect dE=-0.520E-05 dE for cont linesearch -0.206E-06
 ZBRENT: bisectioning
 opt :   0.9309  next Energy=  -709.321318 (dE=-0.151E-03)
 bond charge predicted
       N       E                     dE             d eps       ncg     rms          rms(c)
DAV:   1    -0.709321313293E+03   -0.14326E-05   -0.19767E-04 10934   0.219E-02    0.267E-03
RMM:   2    -0.709321314166E+03   -0.87278E-06   -0.10132E-05  5541   0.756E-03
  30 F= -.70932131E+03 E0= -.70932131E+03  d E =-.147405E-03
 curvature:  -0.47 expect dE=-0.652E-04 dE for cont linesearch -0.804E-05
 ZBRENT: interpolating
 opt :   0.9606  next Energy=  -709.321316 (dE=-0.149E-03)
 bond charge predicted
       N       E                     dE             d eps       ncg     rms          rms(c)
DAV:   1    -0.709321314352E+03   -0.10588E-05   -0.73577E-05  8720   0.155E-02    0.154E-03
RMM:   2    -0.709321315386E+03   -0.10341E-05   -0.11130E-05  5239   0.730E-03
  31 F= -.70932132E+03 E0= -.70932132E+03  d E =-.148625E-03
 curvature:  -0.02 expect dE=-0.319E-05 dE for cont linesearch -0.249E-07
 trial: gam= 0.57906 g(F)=  0.134E-03 g(S)=  0.000E+00 ort =-0.215E-04 (trialstep = 0.100E+01)
 search vector abs. value=  0.257E-03
 bond charge predicted
       N       E                     dE             d eps       ncg     rms          rms(c)
DAV:   1    -0.709321160495E+03    0.15386E-03   -0.60854E-02 10944   0.363E-01    0.379E-02
RMM:   2    -0.709321352396E+03   -0.19190E-03   -0.20309E-03 13069   0.954E-02    0.124E-02
RMM:   3    -0.709321396815E+03   -0.44420E-04   -0.49580E-04 14508   0.380E-02    0.126E-02
RMM:   4    -0.709321399030E+03   -0.22149E-05   -0.57885E-05  9955   0.145E-02
  32 F= -.70932140E+03 E0= -.70932140E+03  d E =-.836440E-04
 trial-energy change:   -0.000084  1 .order   -0.000054   -0.000122    0.000015
 step:   0.8973(harm=  0.8973)  dis= 0.00095  next Energy=  -709.321370 (dE=-0.547E-04)
 bond charge predicted
       N       E                     dE             d eps       ncg     rms          rms(c)
DAV:   1    -0.709321391847E+03    0.49685E-05   -0.74187E-04 14095   0.468E-02    0.347E-03
RMM:   2    -0.709321395476E+03   -0.36293E-05   -0.38818E-05  7809   0.118E-02
  33 F= -.70932140E+03 E0= -.70932140E+03  d E =-.800900E-04
 curvature:  -0.95 expect dE=-0.752E-04 dE for cont linesearch -0.222E-04
 ZBRENT: interpolating
 opt :   0.9879  next Energy=  -709.321399 (dE=-0.838E-04)
 bond charge predicted
       N       E                     dE             d eps       ncg     rms          rms(c)
DAV:   1    -0.709321396747E+03   -0.49008E-05   -0.48067E-04 10994   0.321E-02    0.531E-03
RMM:   2    -0.709321398283E+03   -0.15352E-05   -0.17523E-05  6609   0.893E-03
  34 F= -.70932140E+03 E0= -.70932140E+03  d E =-.828966E-04
 curvature:  -0.01 expect dE=-0.349E-06 dE for cont linesearch -0.374E-08
 ZBRENT: bisectioning
 opt :   0.9426  next Energy=  -709.321399 (dE=-0.834E-04)
 bond charge predicted
       N       E                     dE             d eps       ncg     rms          rms(c)
DAV:   1    -0.709321396399E+03    0.34817E-06   -0.10790E-04 11134   0.169E-02    0.187E-03
RMM:   2    -0.709321397053E+03   -0.65377E-06   -0.76740E-06  5282   0.652E-03
  35 F= -.70932140E+03 E0= -.70932140E+03  d E =-.816670E-04
 curvature:  -0.76 expect dE=-0.603E-04 dE for cont linesearch -0.126E-04
 ZBRENT: interpolating
 opt :   0.9801  next Energy=  -709.321398 (dE=-0.829E-04)
 bond charge predicted
       N       E                     dE             d eps       ncg     rms          rms(c)
DAV:   1    -0.709321397486E+03   -0.10865E-05   -0.71026E-05  8508   0.142E-02    0.158E-03
RMM:   2    -0.709321398323E+03   -0.83719E-06   -0.89791E-06  5230   0.689E-03
  36 F= -.70932140E+03 E0= -.70932140E+03  d E =-.829369E-04
 curvature:  -0.00 expect dE=-0.214E-06 dE for cont linesearch -0.106E-08
 trial: gam= 0.60438 g(F)=  0.678E-04 g(S)=  0.000E+00 ort =-0.928E-05 (trialstep = 0.100E+01)
 search vector abs. value=  0.151E-03
 bond charge predicted
       N       E                     dE             d eps       ncg     rms          rms(c)
DAV:   1    -0.709321318183E+03    0.79303E-04   -0.35780E-02 10820   0.275E-01    0.296E-02
RMM:   2    -0.709321428414E+03   -0.11023E-03   -0.11622E-03 12875   0.720E-02    0.961E-03
RMM:   3    -0.709321455802E+03   -0.27388E-04   -0.30307E-04 13404   0.295E-02    0.941E-03
RMM:   4    -0.709321457784E+03   -0.19818E-05   -0.38578E-05  7950   0.130E-02
  37 F= -.70932146E+03 E0= -.70932146E+03  d E =-.594607E-04
 trial-energy change:   -0.000059  1 .order   -0.000027   -0.000062    0.000007
 step:   0.8936(harm=  0.8936)  dis= 0.00065  next Energy=  -709.321426 (dE=-0.278E-04)
 bond charge predicted
       N       E                     dE             d eps       ncg     rms          rms(c)
DAV:   1    -0.709321452512E+03    0.32898E-05   -0.42541E-04 11160   0.337E-02    0.263E-03
RMM:   2    -0.709321454509E+03   -0.19973E-05   -0.21797E-05  6128   0.103E-02
  38 F= -.70932145E+03 E0= -.70932145E+03  d E =-.561863E-04
 curvature:  -1.08 expect dE=-0.561E-04 dE for cont linesearch -0.296E-04
 ZBRENT: interpolating
 opt :   0.9890  next Energy=  -709.321458 (dE=-0.595E-04)
 bond charge predicted
       N       E                     dE             d eps       ncg     rms          rms(c)
DAV:   1    -0.709321456451E+03   -0.39395E-05   -0.30712E-04 10846   0.254E-02    0.445E-03
RMM:   2    -0.709321457799E+03   -0.13475E-05   -0.14811E-05  5901   0.740E-03
  39 F= -.70932146E+03 E0= -.70932146E+03  d E =-.594761E-04
 curvature:  -0.00 expect dE=-0.378E-07 dE for cont linesearch -0.107E-10
 trial: gam= 0.38414 g(F)=  0.253E-04 g(S)=  0.000E+00 ort =-0.104E-05 (trialstep = 0.998E+00)
 search vector abs. value=  0.467E-04
 bond charge predicted
       N       E                     dE             d eps       ncg     rms          rms(c)
DAV:   1    -0.709321434001E+03    0.22450E-04   -0.10346E-02 10966   0.154E-01    0.148E-02
RMM:   2    -0.709321471045E+03   -0.37043E-04   -0.38611E-04 13374   0.433E-02    0.510E-03
RMM:   3    -0.709321479219E+03   -0.81742E-05   -0.94656E-05 11700   0.168E-02
  40 F= -.70932148E+03 E0= -.70932148E+03  d E =-.214198E-04
 trial-energy change:   -0.000021  1 .order   -0.000006   -0.000025    0.000013
 step:   0.6562(harm=  0.6562)  dis= 0.00025  next Energy=  -709.321466 (dE=-0.817E-05)
 reached required accuracy - stopping structural energy minimisation
Warning: ieee_invalid is signaling
Warning: ieee_divide_by_zero is signaling
Warning: ieee_underflow is signaling
Warning: ieee_inexact is signaling
FORTRAN STOP
Warning: ieee_invalid is signaling
Warning: ieee_divide_by_zero is signaling
Warning: ieee_underflow is signaling
Warning: ieee_inexact is signaling
FORTRAN STOP
Warning: ieee_invalid is signaling
Warning: ieee_divide_by_zero is signaling
Warning: ieee_underflow is signaling
Warning: ieee_inexact is signaling
FORTRAN STOP
Warning: ieee_invalid is signaling
Warning: ieee_divide_by_zero is signaling
Warning: ieee_underflow is signaling
Warning: ieee_inexact is signaling
FORTRAN STOP
