<?xml version="1.0" encoding="ISO-8859-1"?>
<modeling>
 <generator>
  <i name="program" type="string">vasp </i>
  <i name="version" type="string">6.4.2  </i>
  <i name="subversion" type="string">20Jul23 (build Nov 12 2023 22:16:35) complex                          parallel </i>
  <i name="platform" type="string">LinuxNV </i>
  <i name="date" type="string">2025 03 22 </i>
  <i name="time" type="string">10:58:16 </i>
 </generator>
 <incar>
  <i type="int" name="ISTART">     0</i>
  <i type="string" name="PREC">Normal</i>
  <i type="string" name="ALGO">Fast</i>
  <i type="int" name="ISPIN">     1</i>
  <i type="int" name="ICHARG">     2</i>
  <i type="int" name="IBRION">     2</i>
  <i name="EDIFF">      0.00001000</i>
  <i name="EDIFFG">     -0.00500000</i>
  <i type="int" name="NSW">   300</i>
  <i type="int" name="ISIF">     2</i>
  <i name="ENCUT">    450.00000000</i>
  <i name="NELECT">   1056.00000000</i>
  <i type="string" name="LREAL">Auto</i>
  <i type="logical" name="LPLANE"> T  </i>
  <i type="int" name="ISMEAR">     0</i>
  <i name="SIGMA">      0.05000000</i>
  <i type="logical" name="LWAVE"> F  </i>
  <i type="logical" name="LCHARG"> F  </i>
 </incar>
 <primitive_cell>
  <structure name="primitive_cell" >
   <crystal>
    <varray name="basis" >
     <v>       0.00000000      12.28047342       0.00000000 </v>
     <v>       9.14270205       0.00000000       0.00000000 </v>
     <v>       0.00000000      -2.76826177     -11.30069772 </v>
    </varray>
    <i name="volume">   1268.80515525 </i>
    <varray name="rec_basis" >
     <v>       0.00000000       0.08143009      -0.01994742 </v>
     <v>       0.10937686      -0.00000000       0.00000000 </v>
     <v>       0.00000000       0.00000000      -0.08849011 </v>
    </varray>
   </crystal>
   <varray name="positions" >
    <v>       0.65883830       0.00000000       0.15736517 </v>
    <v>       0.65883830       0.00000000       0.65736517 </v>
    <v>       0.65883830       0.33333333       0.15736517 </v>
    <v>       0.65883830       0.33333333       0.65736517 </v>
    <v>       0.65883830       0.66666667       0.15736517 </v>
    <v>       0.65883830       0.66666667       0.65736517 </v>
    <v>       0.84116170       0.16666667       0.34263483 </v>
    <v>       0.84116170       0.16666667       0.84263483 </v>
    <v>       0.84116170       0.50000000       0.34263483 </v>
    <v>       0.84116170       0.50000000       0.84263483 </v>
    <v>       0.84116170       0.83333333       0.34263483 </v>
    <v>       0.84116170       0.83333333       0.84263483 </v>
    <v>       0.59047440       0.16666667       0.39739300 </v>
    <v>       0.59047440       0.16666667       0.89739300 </v>
    <v>       0.59047440       0.50000000       0.39739300 </v>
    <v>       0.59047440       0.50000000       0.89739300 </v>
    <v>       0.59047440       0.83333333       0.39739300 </v>
    <v>       0.59047440       0.83333333       0.89739300 </v>
    <v>       0.90952560       0.00000000       0.10260700 </v>
    <v>       0.90952560       0.00000000       0.60260700 </v>
    <v>       0.90952560       0.33333333       0.10260700 </v>
    <v>       0.90952560       0.33333333       0.60260700 </v>
    <v>       0.90952560       0.66666667       0.10260700 </v>
    <v>       0.90952560       0.66666667       0.60260700 </v>
    <v>       0.15883830       0.16666667       0.15736517 </v>
    <v>       0.15883830       0.16666667       0.65736517 </v>
    <v>       0.15883830       0.50000000       0.15736517 </v>
    <v>       0.15883830       0.50000000       0.65736517 </v>
    <v>       0.15883830       0.83333333       0.15736517 </v>
    <v>       0.15883830       0.83333333       0.65736517 </v>
    <v>       0.34116170       0.00000000       0.34263483 </v>
    <v>       0.34116170       0.00000000       0.84263483 </v>
    <v>       0.34116170       0.33333333       0.34263483 </v>
    <v>       0.34116170       0.33333333       0.84263483 </v>
    <v>       0.34116170       0.66666667       0.34263483 </v>
    <v>       0.34116170       0.66666667       0.84263483 </v>
    <v>       0.09047440       0.00000000       0.39739300 </v>
    <v>       0.09047440       0.00000000       0.89739300 </v>
    <v>       0.09047440       0.33333333       0.39739300 </v>
    <v>       0.09047440       0.33333333       0.89739300 </v>
    <v>       0.09047440       0.66666667       0.39739300 </v>
    <v>       0.09047440       0.66666667       0.89739300 </v>
    <v>       0.40952560       0.16666667       0.10260700 </v>
    <v>       0.40952560       0.16666667       0.60260700 </v>
    <v>       0.40952560       0.50000000       0.10260700 </v>
    <v>       0.40952560       0.50000000       0.60260700 </v>
    <v>       0.40952560       0.83333333       0.10260700 </v>
    <v>       0.40952560       0.83333333       0.60260700 </v>
    <v>       0.99646913       0.16666667       0.12833205 </v>
    <v>       0.99646913       0.16666667       0.62833205 </v>
    <v>       0.99646913       0.50000000       0.12833205 </v>
    <v>       0.99646913       0.50000000       0.62833205 </v>
    <v>       0.99646913       0.83333333       0.12833205 </v>
    <v>       0.99646913       0.83333333       0.62833205 </v>
    <v>       0.50353087       0.00000000       0.37166795 </v>
    <v>       0.50353087       0.00000000       0.87166795 </v>
    <v>       0.50353087       0.33333333       0.37166795 </v>
    <v>       0.50353087       0.33333333       0.87166795 </v>
    <v>       0.50353087       0.66666667       0.37166795 </v>
    <v>       0.50353087       0.66666667       0.87166795 </v>
    <v>       0.67337106       0.16666667       0.28161508 </v>
    <v>       0.67337106       0.16666667       0.78161508 </v>
    <v>       0.67337106       0.50000000       0.28161508 </v>
    <v>       0.67337106       0.50000000       0.78161508 </v>
    <v>       0.67337106       0.83333333       0.28161508 </v>
    <v>       0.67337106       0.83333333       0.78161508 </v>
    <v>       0.82662894       0.00000000       0.21838492 </v>
    <v>       0.82662894       0.00000000       0.71838492 </v>
    <v>       0.82662894       0.33333333       0.21838492 </v>
    <v>       0.82662894       0.33333333       0.71838492 </v>
    <v>       0.82662894       0.66666667       0.21838492 </v>
    <v>       0.82662894       0.66666667       0.71838492 </v>
    <v>       0.83549502       0.00000000       0.44542296 </v>
    <v>       0.83549502       0.00000000       0.94542296 </v>
    <v>       0.83549502       0.33333333       0.44542296 </v>
    <v>       0.83549502       0.33333333       0.94542296 </v>
    <v>       0.83549502       0.66666667       0.44542296 </v>
    <v>       0.83549502       0.66666667       0.94542296 </v>
    <v>       0.66450498       0.16666667       0.05457704 </v>
    <v>       0.66450498       0.16666667       0.55457704 </v>
    <v>       0.66450498       0.50000000       0.05457704 </v>
    <v>       0.66450498       0.50000000       0.55457704 </v>
    <v>       0.66450498       0.83333333       0.05457704 </v>
    <v>       0.66450498       0.83333333       0.55457704 </v>
    <v>       0.49646913       0.00000000       0.12833205 </v>
    <v>       0.49646913       0.00000000       0.62833205 </v>
    <v>       0.49646913       0.33333333       0.12833205 </v>
    <v>       0.49646913       0.33333333       0.62833205 </v>
    <v>       0.49646913       0.66666667       0.12833205 </v>
    <v>       0.49646913       0.66666667       0.62833205 </v>
    <v>       0.00353087       0.16666667       0.37166795 </v>
    <v>       0.00353087       0.16666667       0.87166795 </v>
    <v>       0.00353087       0.50000000       0.37166795 </v>
    <v>       0.00353087       0.50000000       0.87166795 </v>
    <v>       0.00353087       0.83333333       0.37166795 </v>
    <v>       0.00353087       0.83333333       0.87166795 </v>
    <v>       0.17337106       0.00000000       0.78161508 </v>
    <v>       0.17337106       0.33333333       0.28161508 </v>
    <v>       0.17337106       0.33333333       0.78161508 </v>
    <v>       0.17337106       0.66666667       0.28161508 </v>
    <v>       0.17337106       0.66666667       0.78161508 </v>
    <v>       0.32662894       0.16666667       0.21838492 </v>
    <v>       0.32662894       0.16666667       0.71838492 </v>
    <v>       0.32662894       0.50000000       0.21838492 </v>
    <v>       0.32662894       0.50000000       0.71838492 </v>
    <v>       0.32662894       0.83333333       0.21838492 </v>
    <v>       0.32662894       0.83333333       0.71838492 </v>
    <v>       0.33549502       0.16666667       0.44542296 </v>
    <v>       0.33549502       0.16666667       0.94542296 </v>
    <v>       0.33549502       0.50000000       0.44542296 </v>
    <v>       0.33549502       0.50000000       0.94542296 </v>
    <v>       0.33549502       0.83333333       0.44542296 </v>
    <v>       0.33549502       0.83333333       0.94542296 </v>
    <v>       0.16450498       0.00000000       0.05457704 </v>
    <v>       0.16450498       0.00000000       0.55457704 </v>
    <v>       0.16450498       0.33333333       0.05457704 </v>
    <v>       0.16450498       0.33333333       0.55457704 </v>
    <v>       0.16450498       0.66666667       0.05457704 </v>
    <v>       0.16450498       0.66666667       0.55457704 </v>
    <v>       0.17337106       0.00000000       0.28161508 </v>
   </varray>
  </structure>
  <varray name="primitive_index" >
   <v type="int" >        1 </v>
   <v type="int" >        2 </v>
   <v type="int" >        3 </v>
   <v type="int" >        4 </v>
   <v type="int" >        5 </v>
   <v type="int" >        6 </v>
   <v type="int" >        7 </v>
   <v type="int" >        8 </v>
   <v type="int" >        9 </v>
   <v type="int" >       10 </v>
   <v type="int" >       11 </v>
   <v type="int" >       12 </v>
   <v type="int" >       13 </v>
   <v type="int" >       14 </v>
   <v type="int" >       15 </v>
   <v type="int" >       16 </v>
   <v type="int" >       17 </v>
   <v type="int" >       18 </v>
   <v type="int" >       19 </v>
   <v type="int" >       20 </v>
   <v type="int" >       21 </v>
   <v type="int" >       22 </v>
   <v type="int" >       23 </v>
   <v type="int" >       24 </v>
   <v type="int" >       25 </v>
   <v type="int" >       26 </v>
   <v type="int" >       27 </v>
   <v type="int" >       28 </v>
   <v type="int" >       29 </v>
   <v type="int" >       30 </v>
   <v type="int" >       31 </v>
   <v type="int" >       32 </v>
   <v type="int" >       33 </v>
   <v type="int" >       34 </v>
   <v type="int" >       35 </v>
   <v type="int" >       36 </v>
   <v type="int" >       37 </v>
   <v type="int" >       38 </v>
   <v type="int" >       39 </v>
   <v type="int" >       40 </v>
   <v type="int" >       41 </v>
   <v type="int" >       42 </v>
   <v type="int" >       43 </v>
   <v type="int" >       44 </v>
   <v type="int" >       45 </v>
   <v type="int" >       46 </v>
   <v type="int" >       47 </v>
   <v type="int" >       48 </v>
   <v type="int" >       49 </v>
   <v type="int" >       50 </v>
   <v type="int" >       51 </v>
   <v type="int" >       52 </v>
   <v type="int" >       53 </v>
   <v type="int" >       54 </v>
   <v type="int" >       55 </v>
   <v type="int" >       56 </v>
   <v type="int" >       57 </v>
   <v type="int" >       58 </v>
   <v type="int" >       59 </v>
   <v type="int" >       60 </v>
   <v type="int" >       61 </v>
   <v type="int" >       62 </v>
   <v type="int" >       63 </v>
   <v type="int" >       64 </v>
   <v type="int" >       65 </v>
   <v type="int" >       66 </v>
   <v type="int" >       67 </v>
   <v type="int" >       68 </v>
   <v type="int" >       69 </v>
   <v type="int" >       70 </v>
   <v type="int" >       71 </v>
   <v type="int" >       72 </v>
   <v type="int" >       73 </v>
   <v type="int" >       74 </v>
   <v type="int" >       75 </v>
   <v type="int" >       76 </v>
   <v type="int" >       77 </v>
   <v type="int" >       78 </v>
   <v type="int" >       79 </v>
   <v type="int" >       80 </v>
   <v type="int" >       81 </v>
   <v type="int" >       82 </v>
   <v type="int" >       83 </v>
   <v type="int" >       84 </v>
   <v type="int" >       85 </v>
   <v type="int" >       86 </v>
   <v type="int" >       87 </v>
   <v type="int" >       88 </v>
   <v type="int" >       89 </v>
   <v type="int" >       90 </v>
   <v type="int" >       91 </v>
   <v type="int" >       92 </v>
   <v type="int" >       93 </v>
   <v type="int" >       94 </v>
   <v type="int" >       95 </v>
   <v type="int" >       96 </v>
   <v type="int" >       97 </v>
   <v type="int" >       98 </v>
   <v type="int" >       99 </v>
   <v type="int" >      100 </v>
   <v type="int" >      101 </v>
   <v type="int" >      102 </v>
   <v type="int" >      103 </v>
   <v type="int" >      104 </v>
   <v type="int" >      105 </v>
   <v type="int" >      106 </v>
   <v type="int" >      107 </v>
   <v type="int" >      108 </v>
   <v type="int" >      109 </v>
   <v type="int" >      110 </v>
   <v type="int" >      111 </v>
   <v type="int" >      112 </v>
   <v type="int" >      113 </v>
   <v type="int" >      114 </v>
   <v type="int" >      115 </v>
   <v type="int" >      116 </v>
   <v type="int" >      117 </v>
   <v type="int" >      118 </v>
   <v type="int" >      119 </v>
   <v type="int" >      120 </v>
  </varray>
 </primitive_cell>
 <kpoints>
  <generation param="Gamma">
   <v type="int" name="divisions">       2        2        2 </v>
   <v name="usershift">      0.00000000       0.00000000       0.00000000 </v>
   <v name="genvec1">      0.50000000       0.00000000       0.00000000 </v>
   <v name="genvec2">      0.00000000       0.50000000       0.00000000 </v>
   <v name="genvec3">      0.00000000       0.00000000       0.50000000 </v>
   <v name="shift">      0.00000000       0.00000000       0.00000000 </v>
  </generation>
  <varray name="kpointlist" >
   <v>       0.00000000       0.00000000       0.00000000 </v>
   <v>       0.50000000       0.00000000       0.00000000 </v>
   <v>       0.00000000       0.50000000       0.00000000 </v>
   <v>       0.50000000       0.50000000       0.00000000 </v>
   <v>       0.00000000       0.00000000       0.50000000 </v>
   <v>       0.50000000       0.00000000       0.50000000 </v>
   <v>       0.00000000       0.50000000       0.50000000 </v>
   <v>       0.50000000       0.50000000       0.50000000 </v>
  </varray>
  <varray name="weights" >
   <v>       0.12500000 </v>
   <v>       0.12500000 </v>
   <v>       0.12500000 </v>
   <v>       0.12500000 </v>
   <v>       0.12500000 </v>
   <v>       0.12500000 </v>
   <v>       0.12500000 </v>
   <v>       0.12500000 </v>
  </varray>
 </kpoints>
 <parameters>
  <separator name="general" >
   <i type="string" name="SYSTEM">unknown system</i>
   <i type="logical" name="LCOMPAT"> F  </i>
  </separator>
  <separator name="electronic" >
   <i type="string" name="PREC">normal</i>
   <i name="ENMAX">    450.00000000</i>
   <i name="ENAUG">    627.11200000</i>
   <i name="EDIFF">      0.00001000</i>
   <i type="int" name="IALGO">    68</i>
   <i type="int" name="IWAVPR">    11</i>
   <i type="int" name="NBANDS">   633</i>
   <i type="int" name="NBANDSLOW">    -1</i>
   <i type="int" name="NBANDSHIGH">    -1</i>
   <i name="NELECT">   1056.00000000</i>
   <i type="int" name="TURBO">     0</i>
   <i type="int" name="IRESTART">     0</i>
   <i type="int" name="NREBOOT">     0</i>
   <i type="int" name="NMIN">     0</i>
   <i name="EREF">      0.00000000</i>
   <separator name="electronic smearing" >
    <i type="int" name="ISMEAR">     0</i>
    <i name="SIGMA">      0.05000000</i>
    <i name="KSPACING">      0.50000000</i>
    <i type="logical" name="KGAMMA"> T  </i>
    <i type="logical" name="KBLOWUP"> T  </i>
   </separator>
   <separator name="electronic projectors" >
    <i type="logical" name="LREAL"> T  </i>
    <v name="ROPT">     -0.00050000     -0.00050000     -0.00050000</v>
    <i type="int" name="LMAXPAW">  -100</i>
    <i type="int" name="LMAXMIX">     2</i>
    <i type="logical" name="NLSPLINE"> F  </i>
   </separator>
   <separator name="electronic startup" >
    <i type="int" name="ISTART">     0</i>
    <i type="int" name="ICHARG">     2</i>
    <i type="int" name="INIWAV">     1</i>
   </separator>
   <separator name="electronic spin" >
    <i type="int" name="ISPIN">     1</i>
    <i type="logical" name="LNONCOLLINEAR"> F  </i>
    <v name="MAGMOM">      1.00000000      1.00000000      1.00000000      1.00000000      1.00000000      1.00000000      1.00000000      1.00000000      1.00000000      1.00000000      1.00000000      1.00000000      1.00000000      1.00000000      1.00000000      1.00000000      1.00000000      1.00000000      1.00000000      1.00000000
      1.00000000      1.00000000      1.00000000      1.00000000      1.00000000      1.00000000      1.00000000      1.00000000      1.00000000      1.00000000      1.00000000      1.00000000      1.00000000      1.00000000      1.00000000      1.00000000      1.00000000      1.00000000      1.00000000      1.00000000
      1.00000000      1.00000000      1.00000000      1.00000000      1.00000000      1.00000000      1.00000000      1.00000000      1.00000000      1.00000000      1.00000000      1.00000000      1.00000000      1.00000000      1.00000000      1.00000000      1.00000000      1.00000000      1.00000000      1.00000000
      1.00000000      1.00000000      1.00000000      1.00000000      1.00000000      1.00000000      1.00000000      1.00000000      1.00000000      1.00000000      1.00000000      1.00000000      1.00000000      1.00000000      1.00000000      1.00000000      1.00000000      1.00000000      1.00000000      1.00000000
      1.00000000      1.00000000      1.00000000      1.00000000      1.00000000      1.00000000      1.00000000      1.00000000      1.00000000      1.00000000      1.00000000      1.00000000      1.00000000      1.00000000      1.00000000      1.00000000      1.00000000      1.00000000      1.00000000      1.00000000
      1.00000000      1.00000000      1.00000000      1.00000000      1.00000000      1.00000000      1.00000000      1.00000000      1.00000000      1.00000000      1.00000000      1.00000000      1.00000000      1.00000000      1.00000000      1.00000000      1.00000000      1.00000000      1.00000000      1.00000000
</v>
    <i name="NUPDOWN">     -1.00000000</i>
    <i type="logical" name="LSORBIT"> F  </i>
    <v name="SAXIS">      0.00000000      0.00000000      1.00000000</v>
    <i type="logical" name="LSPIRAL"> F  </i>
    <v name="QSPIRAL">      0.00000000      0.00000000      0.00000000</v>
    <i type="logical" name="LZEROZ"> F  </i>
   </separator>
   <separator name="electronic exchange-correlation" >
    <i type="logical" name="LASPH"> F  </i>
    <i type="logical" name="LMETAGGA"> F  </i>
   </separator>
   <separator name="electronic convergence" >
    <i type="int" name="NELM">    60</i>
    <i type="int" name="NELMDL">    -5</i>
    <i type="int" name="NELMIN">     2</i>
    <i name="ENINI">    450.00000000</i>
    <separator name="electronic convergence detail" >
     <i type="logical" name="LDIAG"> T  </i>
     <i type="logical" name="LSUBROT"> F  </i>
     <i name="WEIMIN">      0.00100000</i>
     <i name="EBREAK">      0.00000000</i>
     <i name="DEPER">      0.30000000</i>
     <i type="int" name="NRMM">     4</i>
     <i name="TIME">      0.40000000</i>
    </separator>
   </separator>
   <separator name="electronic mixer" >
    <i name="AMIX">      0.40000000</i>
    <i name="BMIX">      1.00000000</i>
    <i name="AMIN">      0.10000000</i>
    <i name="AMIX_MAG">      1.60000000</i>
    <i name="BMIX_MAG">      1.00000000</i>
    <separator name="electronic mixer details" >
     <i type="int" name="IMIX">     4</i>
     <i type="logical" name="MIXFIRST"> F  </i>
     <i type="int" name="MAXMIX">   -45</i>
     <i name="WC">    100.00000000</i>
     <i type="int" name="INIMIX">     1</i>
     <i type="int" name="MIXPRE">     1</i>
     <i type="int" name="MREMOVE">     5</i>
    </separator>
   </separator>
   <separator name="electronic dipolcorrection" >
    <i type="logical" name="LDIPOL"> F  </i>
    <i type="logical" name="LMONO"> F  </i>
    <i type="int" name="IDIPOL">     0</i>
    <i name="EPSILON">      1.00000000</i>
    <v name="DIPOL">   -100.00000000   -100.00000000   -100.00000000</v>
    <i name="EFIELD">      0.00000000</i>
   </separator>
  </separator>
  <separator name="grids" >
   <i type="int" name="NGX">    64</i>
   <i type="int" name="NGY">    48</i>
   <i type="int" name="NGZ">    60</i>
   <i type="int" name="NGXF">   128</i>
   <i type="int" name="NGYF">    96</i>
   <i type="int" name="NGZF">   120</i>
   <i type="logical" name="ADDGRID"> F  </i>
  </separator>
  <separator name="ionic" >
   <i type="int" name="NSW">   300</i>
   <i type="int" name="IBRION">     2</i>
   <i type="int" name="MDALGO">     0</i>
   <i type="int" name="ISIF">     2</i>
   <i name="PSTRESS">      0.00000000</i>
   <i name="EDIFFG">     -0.00500000</i>
   <i type="int" name="NFREE">     1</i>
   <i name="POTIM">      0.50000000</i>
   <i name="SMASS">     -3.00000000</i>
   <i name="SCALEE">      1.00000000</i>
  </separator>
  <separator name="ionic md" >
   <i name="TEBEG">      0.00010000</i>
   <i name="TEEND">      0.00010000</i>
   <i type="int" name="NBLOCK">     1</i>
   <i type="int" name="KBLOCK">   300</i>
   <i type="int" name="NPACO">   256</i>
   <i name="APACO">     10.00000000</i>
  </separator>
  <separator name="symmetry" >
   <i type="int" name="ISYM">     2</i>
   <i name="SYMPREC">      0.00001000</i>
  </separator>
  <separator name="dos" >
   <i type="int" name="LORBIT">     0</i>
   <v name="RWIGS">     -1.00000000     -1.00000000     -1.00000000</v>
   <i type="int" name="NEDOS">   301</i>
   <i name="EMIN">     10.00000000</i>
   <i name="EMAX">    -10.00000000</i>
   <i name="EFERMI">      0.00000000</i>
  </separator>
  <separator name="writing" >
   <i type="int" name="NWRITE">     2</i>
   <i type="logical" name="LWAVE"> F  </i>
   <i type="logical" name="LDOWNSAMPLE"> F  </i>
   <i type="logical" name="LCHARG"> F  </i>
   <i type="logical" name="LPARD"> F  </i>
   <i type="logical" name="LVTOT"> F  </i>
   <i type="logical" name="LVHAR"> F  </i>
   <i type="logical" name="LELF"> F  </i>
   <i type="logical" name="LOPTICS"> F  </i>
   <v name="STM">      0.00000000      0.00000000      0.00000000      0.00000000      0.00000000      0.00000000      0.00000000</v>
  </separator>
  <separator name="performance" >
   <i type="int" name="NPAR">     1</i>
   <i type="int" name="NSIM">     4</i>
   <i type="int" name="NBLK">    -1</i>
   <i type="logical" name="LPLANE"> T  </i>
   <i type="logical" name="LSCALAPACK"> T  </i>
   <i type="logical" name="LSCAAWARE"> F  </i>
   <i type="logical" name="LSCALU"> F  </i>
   <i type="logical" name="LASYNC"> F  </i>
   <i type="logical" name="LORBITALREAL"> F  </i>
  </separator>
  <separator name="miscellaneous" >
   <i type="int" name="IDIOT">     3</i>
   <i type="int" name="PHON_NSTRUCT">    -1</i>
   <i type="logical" name="LMUSIC"> F  </i>
   <v name="POMASS">     69.72300000     16.00000000     14.00100000</v>
   <v name="DARWINR">      0.00000000      0.00000000      0.00000000</v>
   <v name="DARWINV">      1.00000000      1.00000000      1.00000000</v>
   <i type="logical" name="LCORR"> T  </i>
  </separator>
  <i type="logical" name="GGA_COMPAT"> T  </i>
  <i type="logical" name="LBERRY"> F  </i>
  <i type="int" name="ICORELEVEL">     0</i>
  <i type="logical" name="LDAU"> F  </i>
  <i type="int" name="I_CONSTRAINED_M">     0</i>
  <separator name="electronic exchange-correlation" >
   <i type="string" name="GGA">--</i>
   <i type="int" name="VOSKOWN">     0</i>
   <i type="logical" name="LHFCALC"> F  </i>
   <i type="string" name="PRECFOCK"></i>
   <i type="logical" name="LSYMGRAD"> F  </i>
   <i type="logical" name="LHFONE"> F  </i>
   <i type="logical" name="LRHFCALC"> F  </i>
   <i type="logical" name="LTHOMAS"> F  </i>
   <i type="logical" name="LMODELHF"> F  </i>
   <i type="logical" name="LFOCKACE"> F  </i>
   <i name="ENCUT4O">     -1.00000000</i>
   <i type="int" name="EXXOEP">     0</i>
   <i type="int" name="FOURORBIT">     0</i>
   <i name="AEXX">      0.00000000</i>
   <i name="HFALPHA">      0.00000000</i>
   <i name="MCALPHA">      0.00000000</i>
   <i name="ALDAX">      1.00000000</i>
   <i name="AGGAX">      1.00000000</i>
   <i name="ALDAC">      1.00000000</i>
   <i name="AGGAC">      1.00000000</i>
   <i type="int" name="NKREDX">     1</i>
   <i type="int" name="NKREDY">     1</i>
   <i type="int" name="NKREDZ">     1</i>
   <i type="logical" name="SHIFTRED"> F  </i>
   <i type="logical" name="ODDONLY"> F  </i>
   <i type="logical" name="EVENONLY"> F  </i>
   <i type="int" name="LMAXFOCK">     0</i>
   <i type="int" name="NMAXFOCKAE">     0</i>
   <i type="logical" name="LFOCKAEDFT"> F  </i>
   <i name="HFSCREEN">      0.00000000</i>
   <i name="HFSCREENC">      0.00000000</i>
   <i type="int" name="NBANDSGWLOW">     0</i>
  </separator>
  <separator name="vdW DFT" >
   <i type="logical" name="LUSE_VDW"> F  </i>
   <i type="int" name="IVDW_NL">     1</i>
   <i type="logical" name="LSPIN_VDW"> F  </i>
   <i name="Zab_VDW">     -0.84910000</i>
   <i name="PARAM1">      0.12340000</i>
   <i name="PARAM2">      1.00000000</i>
   <i name="PARAM3">      0.00000000</i>
  </separator>
  <separator name="model GW" >
   <i type="int" name="MODEL_GW">     0</i>
   <i name="MODEL_EPS0">      6.34402578</i>
   <i name="MODEL_ALPHA">      1.00000000</i>
  </separator>
  <separator name="linear response parameters" >
   <i type="logical" name="LEPSILON"> F  </i>
   <i type="logical" name="LRPA"> F  </i>
   <i type="logical" name="LNABLA"> F  </i>
   <i type="logical" name="LVEL"> F  </i>
   <i name="CSHIFT">      0.10000000</i>
   <i name="OMEGAMAX">     -1.00000000</i>
   <i name="DEG_THRESHOLD">      0.00200000</i>
   <i name="RTIME">     -0.10000000</i>
   <i name="WPLASMAI">      0.00000000</i>
   <v name="DFIELD">      0.00000000      0.00000000      0.00000000</v>
   <v name="WPLASMA">      0.00000000      0.00000000      0.00000000      0.00000000      0.00000000      0.00000000      0.00000000      0.00000000      0.00000000</v>
  </separator>
  <separator name="orbital magnetization" >
   <i type="logical" name="NUCIND"> F  </i>
   <v name="MAGPOS">      0.00000000      0.00000000      0.00000000</v>
   <i type="logical" name="LNICSALL"> T  </i>
   <i type="logical" name="ORBITALMAG"> F  </i>
   <i type="logical" name="LMAGBLOCH"> F  </i>
   <i type="logical" name="LCHIMAG"> F  </i>
   <i type="logical" name="LGAUGE"> T  </i>
   <i type="int" name="MAGATOM">     0</i>
   <v name="MAGDIPOL">      0.00000000      0.00000000      0.00000000</v>
   <v name="AVECCONST">      0.00000000      0.00000000      0.00000000</v>
  </separator>
  <separator name="response functions" >
   <i type="logical" name="LALL_IN_ONE"> F  </i>
   <i type="int" name="IALL_IN_ONE">    -1</i>
   <i type="int" name="NBANDS_WAVE">    -1</i>
   <i type="logical" name="LFINITE_TEMPERATURE"> F  </i>
   <i type="logical" name="LADDER"> F  </i>
   <i type="logical" name="LRPAFORCE"> F  </i>
   <i type="logical" name="LFXC"> F  </i>
   <i type="logical" name="LHARTREE"> T  </i>
   <i type="int" name="IBSE">     0</i>
   <v type="int" name="KPOINT">    -1     0     0     0</v>
   <i type="logical" name="LTCTC"> F  </i>
   <i type="logical" name="LTCTE"> F  </i>
   <i type="logical" name="LTETE"> F  </i>
   <i type="logical" name="LTRIPLET"> F  </i>
   <i type="logical" name="LFXCEPS"> F  </i>
   <i type="logical" name="LFXHEG"> F  </i>
   <i type="int" name="NATURALO">     2</i>
   <i type="logical" name="LHOLEGF"> F  </i>
   <i type="logical" name="L2ORDER"> F  </i>
   <i type="logical" name="LDMP1"> F  </i>
   <i type="logical" name="LMP2LT"> F  </i>
   <i type="logical" name="LSMP2LT"> F  </i>
   <i type="logical" name="LGWLF"> F  </i>
   <i name="ENCUTGW">     -1.60000002</i>
   <i name="ENCUTGWSOFT">     -1.60000002</i>
   <i name="ENCUTLF">     -1.00000000</i>
   <i type="logical" name="LESF_SPLINES"> F  </i>
   <i type="int" name="LMAXMP2">    -1</i>
   <i name="SCISSOR">      0.00000000</i>
   <i type="int" name="NOMEGA">     0</i>
   <i type="int" name="NOMEGAR">     0</i>
   <i type="int" name="NBANDSGW">    -1</i>
   <i type="int" name="NBANDSO">    -1</i>
   <i type="int" name="NBANDSV">    -1</i>
   <i type="int" name="NELMGW">     1</i>
   <i type="int" name="NELMHF">     1</i>
   <i type="int" name="DIM">     3</i>
   <i type="int" name="IESPILON">     4</i>
   <i type="int" name="ANTIRES">     0</i>
   <i name="OMEGAMAX">    -30.00000000</i>
   <i name="OMEGAMIN">    -30.00000000</i>
   <i name="OMEGATL">   -200.00000000</i>
   <i type="int" name="OMEGAGRID">     0</i>
   <i name="CSHIFT">     -0.10000000</i>
   <i type="logical" name="LSELFENERGY"> F  </i>
   <i type="logical" name="LSPECTRAL"> F  </i>
   <i type="logical" name="LSPECTRALGW"> F  </i>
   <i type="logical" name="LSINGLES"> F  </i>
   <i type="logical" name="LFERMIGW"> F  </i>
   <i type="logical" name="ODDONLYGW"> F  </i>
   <i type="logical" name="EVENONLYGW"> F  </i>
   <i type="int" name="NKREDLFX">     1</i>
   <i type="int" name="NKREDLFY">     1</i>
   <i type="int" name="NKREDLFZ">     1</i>
   <i type="int" name="MAXMEM">  2800</i>
   <i type="int" name="TELESCOPE">     0</i>
   <i type="int" name="NTAUPAR">    -1</i>
   <i type="int" name="NOMEGAPAR">    -1</i>
   <i name="DAMP_NEWTON">      0.80000001</i>
   <i name="LAMBDA">      1.00000000</i>
  </separator>
  <separator name="External order field" >
   <i name="OFIELD_KAPPA">      0.00000000</i>
   <v name="OFIELD_K">      0.00000000      0.00000000      0.00000000</v>
   <i name="OFIELD_Q6_NEAR">      0.00000000</i>
   <i name="OFIELD_Q6_FAR">      0.00000000</i>
   <i name="OFIELD_A">      0.00000000</i>
  </separator>
  <separator name="optional k-points parameters" >
   <i type="int" name="KPOINTS_OPT_MODE">     1</i>
   <i type="logical" name="LKPOINTS_OPT"> F  </i>
  </separator>
 </parameters>
 <atominfo>
  <atoms>     120 </atoms>
  <types>       3 </types>
  <array name="atoms" >
   <dimension dim="1">ion</dimension>
   <field type="string">element</field>
   <field type="int">atomtype</field>
   <set>
    <rc><c>Ga</c><c>   1</c></rc>
    <rc><c>Ga</c><c>   1</c></rc>
    <rc><c>Ga</c><c>   1</c></rc>
    <rc><c>Ga</c><c>   1</c></rc>
    <rc><c>Ga</c><c>   1</c></rc>
    <rc><c>Ga</c><c>   1</c></rc>
    <rc><c>Ga</c><c>   1</c></rc>
    <rc><c>Ga</c><c>   1</c></rc>
    <rc><c>Ga</c><c>   1</c></rc>
    <rc><c>Ga</c><c>   1</c></rc>
    <rc><c>Ga</c><c>   1</c></rc>
    <rc><c>Ga</c><c>   1</c></rc>
    <rc><c>Ga</c><c>   1</c></rc>
    <rc><c>Ga</c><c>   1</c></rc>
    <rc><c>Ga</c><c>   1</c></rc>
    <rc><c>Ga</c><c>   1</c></rc>
    <rc><c>Ga</c><c>   1</c></rc>
    <rc><c>Ga</c><c>   1</c></rc>
    <rc><c>Ga</c><c>   1</c></rc>
    <rc><c>Ga</c><c>   1</c></rc>
    <rc><c>Ga</c><c>   1</c></rc>
    <rc><c>Ga</c><c>   1</c></rc>
    <rc><c>Ga</c><c>   1</c></rc>
    <rc><c>Ga</c><c>   1</c></rc>
    <rc><c>Ga</c><c>   1</c></rc>
    <rc><c>Ga</c><c>   1</c></rc>
    <rc><c>Ga</c><c>   1</c></rc>
    <rc><c>Ga</c><c>   1</c></rc>
    <rc><c>Ga</c><c>   1</c></rc>
    <rc><c>Ga</c><c>   1</c></rc>
    <rc><c>Ga</c><c>   1</c></rc>
    <rc><c>Ga</c><c>   1</c></rc>
    <rc><c>Ga</c><c>   1</c></rc>
    <rc><c>Ga</c><c>   1</c></rc>
    <rc><c>Ga</c><c>   1</c></rc>
    <rc><c>Ga</c><c>   1</c></rc>
    <rc><c>Ga</c><c>   1</c></rc>
    <rc><c>Ga</c><c>   1</c></rc>
    <rc><c>Ga</c><c>   1</c></rc>
    <rc><c>Ga</c><c>   1</c></rc>
    <rc><c>Ga</c><c>   1</c></rc>
    <rc><c>Ga</c><c>   1</c></rc>
    <rc><c>Ga</c><c>   1</c></rc>
    <rc><c>Ga</c><c>   1</c></rc>
    <rc><c>Ga</c><c>   1</c></rc>
    <rc><c>Ga</c><c>   1</c></rc>
    <rc><c>Ga</c><c>   1</c></rc>
    <rc><c>Ga</c><c>   1</c></rc>
    <rc><c>O </c><c>   2</c></rc>
    <rc><c>O </c><c>   2</c></rc>
    <rc><c>O </c><c>   2</c></rc>
    <rc><c>O </c><c>   2</c></rc>
    <rc><c>O </c><c>   2</c></rc>
    <rc><c>O </c><c>   2</c></rc>
    <rc><c>O </c><c>   2</c></rc>
    <rc><c>O </c><c>   2</c></rc>
    <rc><c>O </c><c>   2</c></rc>
    <rc><c>O </c><c>   2</c></rc>
    <rc><c>O </c><c>   2</c></rc>
    <rc><c>O </c><c>   2</c></rc>
    <rc><c>O </c><c>   2</c></rc>
    <rc><c>O </c><c>   2</c></rc>
    <rc><c>O </c><c>   2</c></rc>
    <rc><c>O </c><c>   2</c></rc>
    <rc><c>O </c><c>   2</c></rc>
    <rc><c>O </c><c>   2</c></rc>
    <rc><c>O </c><c>   2</c></rc>
    <rc><c>O </c><c>   2</c></rc>
    <rc><c>O </c><c>   2</c></rc>
    <rc><c>O </c><c>   2</c></rc>
    <rc><c>O </c><c>   2</c></rc>
    <rc><c>O </c><c>   2</c></rc>
    <rc><c>O </c><c>   2</c></rc>
    <rc><c>O </c><c>   2</c></rc>
    <rc><c>O </c><c>   2</c></rc>
    <rc><c>O </c><c>   2</c></rc>
    <rc><c>O </c><c>   2</c></rc>
    <rc><c>O </c><c>   2</c></rc>
    <rc><c>O </c><c>   2</c></rc>
    <rc><c>O </c><c>   2</c></rc>
    <rc><c>O </c><c>   2</c></rc>
    <rc><c>O </c><c>   2</c></rc>
    <rc><c>O </c><c>   2</c></rc>
    <rc><c>O </c><c>   2</c></rc>
    <rc><c>O </c><c>   2</c></rc>
    <rc><c>O </c><c>   2</c></rc>
    <rc><c>O </c><c>   2</c></rc>
    <rc><c>O </c><c>   2</c></rc>
    <rc><c>O </c><c>   2</c></rc>
    <rc><c>O </c><c>   2</c></rc>
    <rc><c>O </c><c>   2</c></rc>
    <rc><c>O </c><c>   2</c></rc>
    <rc><c>O </c><c>   2</c></rc>
    <rc><c>O </c><c>   2</c></rc>
    <rc><c>O </c><c>   2</c></rc>
    <rc><c>O </c><c>   2</c></rc>
    <rc><c>O </c><c>   2</c></rc>
    <rc><c>O </c><c>   2</c></rc>
    <rc><c>O </c><c>   2</c></rc>
    <rc><c>O </c><c>   2</c></rc>
    <rc><c>O </c><c>   2</c></rc>
    <rc><c>O </c><c>   2</c></rc>
    <rc><c>O </c><c>   2</c></rc>
    <rc><c>O </c><c>   2</c></rc>
    <rc><c>O </c><c>   2</c></rc>
    <rc><c>O </c><c>   2</c></rc>
    <rc><c>O </c><c>   2</c></rc>
    <rc><c>O </c><c>   2</c></rc>
    <rc><c>O </c><c>   2</c></rc>
    <rc><c>O </c><c>   2</c></rc>
    <rc><c>O </c><c>   2</c></rc>
    <rc><c>O </c><c>   2</c></rc>
    <rc><c>O </c><c>   2</c></rc>
    <rc><c>O </c><c>   2</c></rc>
    <rc><c>O </c><c>   2</c></rc>
    <rc><c>O </c><c>   2</c></rc>
    <rc><c>O </c><c>   2</c></rc>
    <rc><c>O </c><c>   2</c></rc>
    <rc><c>O </c><c>   2</c></rc>
    <rc><c>N </c><c>   3</c></rc>
   </set>
  </array>
  <array name="atomtypes" >
   <dimension dim="1">type</dimension>
   <field type="int">atomspertype</field>
   <field type="string">element</field>
   <field>mass</field>
   <field>valence</field>
   <field type="string">pseudopotential</field>
   <set>
    <rc><c>  48</c><c>Ga</c><c>     69.72300000</c><c>     13.00000000</c><c>  PAW_PBE Ga_d 06Jul2010                </c></rc>
    <rc><c>  71</c><c>O </c><c>     16.00000000</c><c>      6.00000000</c><c>  PAW_PBE O 08Apr2002                   </c></rc>
    <rc><c>   1</c><c>N </c><c>     14.00100000</c><c>      5.00000000</c><c>  PAW_PBE N 08Apr2002                   </c></rc>
   </set>
  </array>
 </atominfo>
 <structure name="initialpos" >
  <crystal>
   <varray name="basis" >
    <v>       0.00000000      12.28047342       0.00000000 </v>
    <v>       9.14270205       0.00000000       0.00000000 </v>
    <v>       0.00000000      -2.76826177     -11.30069772 </v>
   </varray>
   <i name="volume">   1268.80515525 </i>
   <varray name="rec_basis" >
    <v>       0.00000000       0.08143009      -0.01994742 </v>
    <v>       0.10937686      -0.00000000       0.00000000 </v>
    <v>       0.00000000       0.00000000      -0.08849011 </v>
   </varray>
  </crystal>
  <varray name="positions" >
   <v>       0.65883830       0.00000000       0.15736517 </v>
   <v>       0.65883830       0.00000000       0.65736517 </v>
   <v>       0.65883830       0.33333333       0.15736517 </v>
   <v>       0.65883830       0.33333333       0.65736517 </v>
   <v>       0.65883830       0.66666667       0.15736517 </v>
   <v>       0.65883830       0.66666667       0.65736517 </v>
   <v>       0.84116170       0.16666667       0.34263483 </v>
   <v>       0.84116170       0.16666667       0.84263483 </v>
   <v>       0.84116170       0.50000000       0.34263483 </v>
   <v>       0.84116170       0.50000000       0.84263483 </v>
   <v>       0.84116170       0.83333333       0.34263483 </v>
   <v>       0.84116170       0.83333333       0.84263483 </v>
   <v>       0.59047440       0.16666667       0.39739300 </v>
   <v>       0.59047440       0.16666667       0.89739300 </v>
   <v>       0.59047440       0.50000000       0.39739300 </v>
   <v>       0.59047440       0.50000000       0.89739300 </v>
   <v>       0.59047440       0.83333333       0.39739300 </v>
   <v>       0.59047440       0.83333333       0.89739300 </v>
   <v>       0.90952560       0.00000000       0.10260700 </v>
   <v>       0.90952560       0.00000000       0.60260700 </v>
   <v>       0.90952560       0.33333333       0.10260700 </v>
   <v>       0.90952560       0.33333333       0.60260700 </v>
   <v>       0.90952560       0.66666667       0.10260700 </v>
   <v>       0.90952560       0.66666667       0.60260700 </v>
   <v>       0.15883830       0.16666667       0.15736517 </v>
   <v>       0.15883830       0.16666667       0.65736517 </v>
   <v>       0.15883830       0.50000000       0.15736517 </v>
   <v>       0.15883830       0.50000000       0.65736517 </v>
   <v>       0.15883830       0.83333333       0.15736517 </v>
   <v>       0.15883830       0.83333333       0.65736517 </v>
   <v>       0.34116170       0.00000000       0.34263483 </v>
   <v>       0.34116170       0.00000000       0.84263483 </v>
   <v>       0.34116170       0.33333333       0.34263483 </v>
   <v>       0.34116170       0.33333333       0.84263483 </v>
   <v>       0.34116170       0.66666667       0.34263483 </v>
   <v>       0.34116170       0.66666667       0.84263483 </v>
   <v>       0.09047440       0.00000000       0.39739300 </v>
   <v>       0.09047440       0.00000000       0.89739300 </v>
   <v>       0.09047440       0.33333333       0.39739300 </v>
   <v>       0.09047440       0.33333333       0.89739300 </v>
   <v>       0.09047440       0.66666667       0.39739300 </v>
   <v>       0.09047440       0.66666667       0.89739300 </v>
   <v>       0.40952560       0.16666667       0.10260700 </v>
   <v>       0.40952560       0.16666667       0.60260700 </v>
   <v>       0.40952560       0.50000000       0.10260700 </v>
   <v>       0.40952560       0.50000000       0.60260700 </v>
   <v>       0.40952560       0.83333333       0.10260700 </v>
   <v>       0.40952560       0.83333333       0.60260700 </v>
   <v>       0.99646913       0.16666667       0.12833205 </v>
   <v>       0.99646913       0.16666667       0.62833205 </v>
   <v>       0.99646913       0.50000000       0.12833205 </v>
   <v>       0.99646913       0.50000000       0.62833205 </v>
   <v>       0.99646913       0.83333333       0.12833205 </v>
   <v>       0.99646913       0.83333333       0.62833205 </v>
   <v>       0.50353087       0.00000000       0.37166795 </v>
   <v>       0.50353087       0.00000000       0.87166795 </v>
   <v>       0.50353087       0.33333333       0.37166795 </v>
   <v>       0.50353087       0.33333333       0.87166795 </v>
   <v>       0.50353087       0.66666667       0.37166795 </v>
   <v>       0.50353087       0.66666667       0.87166795 </v>
   <v>       0.67337106       0.16666667       0.28161508 </v>
   <v>       0.67337106       0.16666667       0.78161508 </v>
   <v>       0.67337106       0.50000000       0.28161508 </v>
   <v>       0.67337106       0.50000000       0.78161508 </v>
   <v>       0.67337106       0.83333333       0.28161508 </v>
   <v>       0.67337106       0.83333333       0.78161508 </v>
   <v>       0.82662894       0.00000000       0.21838492 </v>
   <v>       0.82662894       0.00000000       0.71838492 </v>
   <v>       0.82662894       0.33333333       0.21838492 </v>
   <v>       0.82662894       0.33333333       0.71838492 </v>
   <v>       0.82662894       0.66666667       0.21838492 </v>
   <v>       0.82662894       0.66666667       0.71838492 </v>
   <v>       0.83549502       0.00000000       0.44542296 </v>
   <v>       0.83549502       0.00000000       0.94542296 </v>
   <v>       0.83549502       0.33333333       0.44542296 </v>
   <v>       0.83549502       0.33333333       0.94542296 </v>
   <v>       0.83549502       0.66666667       0.44542296 </v>
   <v>       0.83549502       0.66666667       0.94542296 </v>
   <v>       0.66450498       0.16666667       0.05457704 </v>
   <v>       0.66450498       0.16666667       0.55457704 </v>
   <v>       0.66450498       0.50000000       0.05457704 </v>
   <v>       0.66450498       0.50000000       0.55457704 </v>
   <v>       0.66450498       0.83333333       0.05457704 </v>
   <v>       0.66450498       0.83333333       0.55457704 </v>
   <v>       0.49646913       0.00000000       0.12833205 </v>
   <v>       0.49646913       0.00000000       0.62833205 </v>
   <v>       0.49646913       0.33333333       0.12833205 </v>
   <v>       0.49646913       0.33333333       0.62833205 </v>
   <v>       0.49646913       0.66666667       0.12833205 </v>
   <v>       0.49646913       0.66666667       0.62833205 </v>
   <v>       0.00353087       0.16666667       0.37166795 </v>
   <v>       0.00353087       0.16666667       0.87166795 </v>
   <v>       0.00353087       0.50000000       0.37166795 </v>
   <v>       0.00353087       0.50000000       0.87166795 </v>
   <v>       0.00353087       0.83333333       0.37166795 </v>
   <v>       0.00353087       0.83333333       0.87166795 </v>
   <v>       0.17337106       0.00000000       0.78161508 </v>
   <v>       0.17337106       0.33333333       0.28161508 </v>
   <v>       0.17337106       0.33333333       0.78161508 </v>
   <v>       0.17337106       0.66666667       0.28161508 </v>
   <v>       0.17337106       0.66666667       0.78161508 </v>
   <v>       0.32662894       0.16666667       0.21838492 </v>
   <v>       0.32662894       0.16666667       0.71838492 </v>
   <v>       0.32662894       0.50000000       0.21838492 </v>
   <v>       0.32662894       0.50000000       0.71838492 </v>
   <v>       0.32662894       0.83333333       0.21838492 </v>
   <v>       0.32662894       0.83333333       0.71838492 </v>
   <v>       0.33549502       0.16666667       0.44542296 </v>
   <v>       0.33549502       0.16666667       0.94542296 </v>
   <v>       0.33549502       0.50000000       0.44542296 </v>
   <v>       0.33549502       0.50000000       0.94542296 </v>
   <v>       0.33549502       0.83333333       0.44542296 </v>
   <v>       0.33549502       0.83333333       0.94542296 </v>
   <v>       0.16450498       0.00000000       0.05457704 </v>
   <v>       0.16450498       0.00000000       0.55457704 </v>
   <v>       0.16450498       0.33333333       0.05457704 </v>
   <v>       0.16450498       0.33333333       0.55457704 </v>
   <v>       0.16450498       0.66666667       0.05457704 </v>
   <v>       0.16450498       0.66666667       0.55457704 </v>
   <v>       0.17337106       0.00000000       0.28161508 </v>
  </varray>
 </structure>
 <calculation>
  <scstep>
   <time name="dav">    1.79    1.79</time>
   <time name="total">    1.92    1.92</time>
   <energy>
    <i name="alphaZ">   5530.94812622 </i>
    <i name="ewald"> -88613.97284171 </i>
    <i name="hartreedc"> -33363.67774128 </i>
    <i name="XCdc">   4139.96744941 </i>
    <i name="pawpsdc"> 101761.42039030 </i>
    <i name="pawaedc">-117900.86270521 </i>
    <i name="eentropy">     -0.00066240 </i>
    <i name="bandstr">  16357.84019056 </i>
    <i name="atom"> 134104.30092448 </i>
    <i name="e_fr_energy">  22015.96313038 </i>
    <i name="e_wo_entrp">  22015.96379277 </i>
    <i name="e_0_energy">  22015.96346157 </i>
   </energy>
  </scstep>
  <scstep>
   <time name="dav">    1.71    1.71</time>
   <time name="total">    1.71    1.71</time>
   <energy>
    <i name="e_fr_energy">   4875.29129969 </i>
    <i name="e_wo_entrp">   4875.31265736 </i>
    <i name="e_0_energy">   4875.30197853 </i>
   </energy>
  </scstep>
  <scstep>
   <time name="dav">    2.10    2.10</time>
   <time name="total">    2.10    2.10</time>
   <energy>
    <i name="e_fr_energy">   -148.02298303 </i>
    <i name="e_wo_entrp">   -148.02298303 </i>
    <i name="e_0_energy">   -148.02298303 </i>
   </energy>
  </scstep>
  <scstep>
   <time name="dav">    2.04    2.04</time>
   <time name="total">    2.04    2.04</time>
   <energy>
    <i name="e_fr_energy">   -776.16669302 </i>
    <i name="e_wo_entrp">   -776.16669302 </i>
    <i name="e_0_energy">   -776.16669302 </i>
   </energy>
  </scstep>
  <scstep>
   <time name="dav">    2.34    2.34</time>
   <time name="total">    2.62    2.62</time>
   <energy>
    <i name="e_fr_energy">   -820.79241782 </i>
    <i name="e_wo_entrp">   -820.79241782 </i>
    <i name="e_0_energy">   -820.79241782 </i>
   </energy>
  </scstep>
  <scstep>
   <time name="diag">    0.24    0.24</time>
   <time name="diis">    2.46    2.46</time>
   <time name="orth">    0.03    0.03</time>
   <time name="total">    3.13    3.13</time>
   <energy>
    <i name="e_fr_energy">   -705.06727288 </i>
    <i name="e_wo_entrp">   -705.06727288 </i>
    <i name="e_0_energy">   -705.06727288 </i>
   </energy>
  </scstep>
  <scstep>
   <time name="diag">    0.24    0.24</time>
   <time name="diis">    2.65    2.64</time>
   <time name="orth">    0.03    0.03</time>
   <time name="total">    3.31    3.31</time>
   <energy>
    <i name="e_fr_energy">   -709.24660164 </i>
    <i name="e_wo_entrp">   -709.24660164 </i>
    <i name="e_0_energy">   -709.24660164 </i>
   </energy>
  </scstep>
  <scstep>
   <time name="diag">    0.24    0.24</time>
   <time name="diis">    2.31    2.31</time>
   <time name="orth">    0.03    0.03</time>
   <time name="total">    2.98    2.98</time>
   <energy>
    <i name="e_fr_energy">   -709.24187700 </i>
    <i name="e_wo_entrp">   -709.24187700 </i>
    <i name="e_0_energy">   -709.24187700 </i>
   </energy>
  </scstep>
  <scstep>
   <time name="diag">    0.24    0.24</time>
   <time name="diis">    2.90    2.90</time>
   <time name="orth">    0.03    0.03</time>
   <time name="total">    3.57    3.57</time>
   <energy>
    <i name="e_fr_energy">   -708.56001952 </i>
    <i name="e_wo_entrp">   -708.56001952 </i>
    <i name="e_0_energy">   -708.56001952 </i>
   </energy>
  </scstep>
  <scstep>
   <time name="diag">    0.24    0.24</time>
   <time name="diis">    2.47    2.86</time>
   <time name="orth">    0.03    0.03</time>
   <time name="total">    3.14    3.53</time>
   <energy>
    <i name="e_fr_energy">   -708.59130704 </i>
    <i name="e_wo_entrp">   -708.59130704 </i>
    <i name="e_0_energy">   -708.59130704 </i>
   </energy>
  </scstep>
  <scstep>
   <time name="diag">    0.24    0.24</time>
   <time name="diis">    2.62    2.62</time>
   <time name="orth">    0.03    0.03</time>
   <time name="total">    3.28    3.28</time>
   <energy>
    <i name="e_fr_energy">   -708.60751926 </i>
    <i name="e_wo_entrp">   -708.60751926 </i>
    <i name="e_0_energy">   -708.60751926 </i>
   </energy>
  </scstep>
  <scstep>
   <time name="diag">    0.24    0.24</time>
   <time name="diis">    2.95    2.94</time>
   <time name="orth">    0.03    0.03</time>
   <time name="total">    3.62    3.62</time>
   <energy>
    <i name="e_fr_energy">   -708.60635325 </i>
    <i name="e_wo_entrp">   -708.60635325 </i>
    <i name="e_0_energy">   -708.60635325 </i>
   </energy>
  </scstep>
  <scstep>
   <time name="diag">    0.24    0.24</time>
   <time name="diis">    3.49    3.49</time>
   <time name="orth">    0.03    0.03</time>
   <time name="total">    4.16    4.16</time>
   <energy>
    <i name="e_fr_energy">   -708.60778384 </i>
    <i name="e_wo_entrp">   -708.60778384 </i>
    <i name="e_0_energy">   -708.60778384 </i>
   </energy>
  </scstep>
  <scstep>
   <time name="diag">    0.24    0.24</time>
   <time name="diis">    2.65    2.65</time>
   <time name="orth">    0.03    0.03</time>
   <time name="total">    3.32    3.32</time>
   <energy>
    <i name="e_fr_energy">   -708.60829507 </i>
    <i name="e_wo_entrp">   -708.60829507 </i>
    <i name="e_0_energy">   -708.60829507 </i>
   </energy>
  </scstep>
  <scstep>
   <time name="diag">    0.24    0.24</time>
   <time name="diis">    2.52    2.52</time>
   <time name="orth">    0.03    0.03</time>
   <time name="total">    3.19    3.19</time>
   <energy>
    <i name="e_fr_energy">   -708.60843854 </i>
    <i name="e_wo_entrp">   -708.60843854 </i>
    <i name="e_0_energy">   -708.60843854 </i>
   </energy>
  </scstep>
  <scstep>
   <time name="diag">    0.24    0.24</time>
   <time name="diis">    2.11    2.11</time>
   <time name="orth">    0.03    0.04</time>
   <time name="total">    2.96    2.97</time>
   <energy>
    <i name="e_fr_energy">   -708.60850143 </i>
    <i name="e_wo_entrp">   -708.60850143 </i>
    <i name="e_0_energy">   -708.60850143 </i>
   </energy>
  </scstep>
  <scstep>
   <time name="diag">    0.24    0.24</time>
   <time name="diis">    1.95    1.95</time>
   <time name="orth">    0.03    0.03</time>
   <time name="total">    2.63    2.63</time>
   <energy>
    <i name="e_fr_energy">   -708.60852722 </i>
    <i name="e_wo_entrp">   -708.60852722 </i>
    <i name="e_0_energy">   -708.60852722 </i>
   </energy>
  </scstep>
  <scstep>
   <time name="diag">    0.24    0.24</time>
   <time name="diis">    1.82    1.82</time>
   <time name="orth">    0.03    0.03</time>
   <time name="total">    2.51    2.51</time>
   <energy>
    <i name="e_fr_energy">   -708.60853772 </i>
    <i name="e_wo_entrp">   -708.60853772 </i>
    <i name="e_0_energy">   -708.60853772 </i>
   </energy>
  </scstep>
  <scstep>
   <time name="diag">    0.24    0.24</time>
   <time name="diis">    1.65    1.65</time>
   <time name="orth">    0.03    0.03</time>
   <time name="total">    2.04    2.04</time>
   <energy>
    <i name="alphaZ">   5530.94812622 </i>
    <i name="ewald"> -88613.97284171 </i>
    <i name="hartreedc"> -33838.73030037 </i>
    <i name="XCdc">   4204.40265002 </i>
    <i name="pawpsdc"> 119912.85133541 </i>
    <i name="pawaedc">-136312.76276189 </i>
    <i name="eentropy">     -0.00000000 </i>
    <i name="bandstr">  -5695.64567355 </i>
    <i name="atom"> 134104.30092448 </i>
    <i name="e_fr_energy">   -708.60854137 </i>
    <i name="e_wo_entrp">   -708.60854137 </i>
    <i name="e_0_energy">   -708.60854137 </i>
   </energy>
  </scstep>
  <structure>
   <crystal>
    <varray name="basis" >
     <v>       0.00000000      12.28047342       0.00000000 </v>
     <v>       9.14270205       0.00000000       0.00000000 </v>
     <v>       0.00000000      -2.76826177     -11.30069772 </v>
    </varray>
    <i name="volume">   1268.80515525 </i>
    <varray name="rec_basis" >
     <v>       0.00000000       0.08143009      -0.01994742 </v>
     <v>       0.10937686      -0.00000000       0.00000000 </v>
     <v>       0.00000000       0.00000000      -0.08849011 </v>
    </varray>
   </crystal>
   <varray name="positions" >
    <v>       0.65883830       0.00000000       0.15736517 </v>
    <v>       0.65883830       0.00000000       0.65736517 </v>
    <v>       0.65883830       0.33333333       0.15736517 </v>
    <v>       0.65883830       0.33333333       0.65736517 </v>
    <v>       0.65883830       0.66666667       0.15736517 </v>
    <v>       0.65883830       0.66666667       0.65736517 </v>
    <v>       0.84116170       0.16666667       0.34263483 </v>
    <v>       0.84116170       0.16666667       0.84263483 </v>
    <v>       0.84116170       0.50000000       0.34263483 </v>
    <v>       0.84116170       0.50000000       0.84263483 </v>
    <v>       0.84116170       0.83333333       0.34263483 </v>
    <v>       0.84116170       0.83333333       0.84263483 </v>
    <v>       0.59047440       0.16666667       0.39739300 </v>
    <v>       0.59047440       0.16666667       0.89739300 </v>
    <v>       0.59047440       0.50000000       0.39739300 </v>
    <v>       0.59047440       0.50000000       0.89739300 </v>
    <v>       0.59047440       0.83333333       0.39739300 </v>
    <v>       0.59047440       0.83333333       0.89739300 </v>
    <v>       0.90952560       0.00000000       0.10260700 </v>
    <v>       0.90952560       0.00000000       0.60260700 </v>
    <v>       0.90952560       0.33333333       0.10260700 </v>
    <v>       0.90952560       0.33333333       0.60260700 </v>
    <v>       0.90952560       0.66666667       0.10260700 </v>
    <v>       0.90952560       0.66666667       0.60260700 </v>
    <v>       0.15883830       0.16666667       0.15736517 </v>
    <v>       0.15883830       0.16666667       0.65736517 </v>
    <v>       0.15883830       0.50000000       0.15736517 </v>
    <v>       0.15883830       0.50000000       0.65736517 </v>
    <v>       0.15883830       0.83333333       0.15736517 </v>
    <v>       0.15883830       0.83333333       0.65736517 </v>
    <v>       0.34116170       0.00000000       0.34263483 </v>
    <v>       0.34116170       0.00000000       0.84263483 </v>
    <v>       0.34116170       0.33333333       0.34263483 </v>
    <v>       0.34116170       0.33333333       0.84263483 </v>
    <v>       0.34116170       0.66666667       0.34263483 </v>
    <v>       0.34116170       0.66666667       0.84263483 </v>
    <v>       0.09047440       0.00000000       0.39739300 </v>
    <v>       0.09047440       0.00000000       0.89739300 </v>
    <v>       0.09047440       0.33333333       0.39739300 </v>
    <v>       0.09047440       0.33333333       0.89739300 </v>
    <v>       0.09047440       0.66666667       0.39739300 </v>
    <v>       0.09047440       0.66666667       0.89739300 </v>
    <v>       0.40952560       0.16666667       0.10260700 </v>
    <v>       0.40952560       0.16666667       0.60260700 </v>
    <v>       0.40952560       0.50000000       0.10260700 </v>
    <v>       0.40952560       0.50000000       0.60260700 </v>
    <v>       0.40952560       0.83333333       0.10260700 </v>
    <v>       0.40952560       0.83333333       0.60260700 </v>
    <v>       0.99646913       0.16666667       0.12833205 </v>
    <v>       0.99646913       0.16666667       0.62833205 </v>
    <v>       0.99646913       0.50000000       0.12833205 </v>
    <v>       0.99646913       0.50000000       0.62833205 </v>
    <v>       0.99646913       0.83333333       0.12833205 </v>
    <v>       0.99646913       0.83333333       0.62833205 </v>
    <v>       0.50353087       0.00000000       0.37166795 </v>
    <v>       0.50353087       0.00000000       0.87166795 </v>
    <v>       0.50353087       0.33333333       0.37166795 </v>
    <v>       0.50353087       0.33333333       0.87166795 </v>
    <v>       0.50353087       0.66666667       0.37166795 </v>
    <v>       0.50353087       0.66666667       0.87166795 </v>
    <v>       0.67337106       0.16666667       0.28161508 </v>
    <v>       0.67337106       0.16666667       0.78161508 </v>
    <v>       0.67337106       0.50000000       0.28161508 </v>
    <v>       0.67337106       0.50000000       0.78161508 </v>
    <v>       0.67337106       0.83333333       0.28161508 </v>
    <v>       0.67337106       0.83333333       0.78161508 </v>
    <v>       0.82662894       0.00000000       0.21838492 </v>
    <v>       0.82662894       0.00000000       0.71838492 </v>
    <v>       0.82662894       0.33333333       0.21838492 </v>
    <v>       0.82662894       0.33333333       0.71838492 </v>
    <v>       0.82662894       0.66666667       0.21838492 </v>
    <v>       0.82662894       0.66666667       0.71838492 </v>
    <v>       0.83549502       0.00000000       0.44542296 </v>
    <v>       0.83549502       0.00000000       0.94542296 </v>
    <v>       0.83549502       0.33333333       0.44542296 </v>
    <v>       0.83549502       0.33333333       0.94542296 </v>
    <v>       0.83549502       0.66666667       0.44542296 </v>
    <v>       0.83549502       0.66666667       0.94542296 </v>
    <v>       0.66450498       0.16666667       0.05457704 </v>
    <v>       0.66450498       0.16666667       0.55457704 </v>
    <v>       0.66450498       0.50000000       0.05457704 </v>
    <v>       0.66450498       0.50000000       0.55457704 </v>
    <v>       0.66450498       0.83333333       0.05457704 </v>
    <v>       0.66450498       0.83333333       0.55457704 </v>
    <v>       0.49646913       0.00000000       0.12833205 </v>
    <v>       0.49646913       0.00000000       0.62833205 </v>
    <v>       0.49646913       0.33333333       0.12833205 </v>
    <v>       0.49646913       0.33333333       0.62833205 </v>
    <v>       0.49646913       0.66666667       0.12833205 </v>
    <v>       0.49646913       0.66666667       0.62833205 </v>
    <v>       0.00353087       0.16666667       0.37166795 </v>
    <v>       0.00353087       0.16666667       0.87166795 </v>
    <v>       0.00353087       0.50000000       0.37166795 </v>
    <v>       0.00353087       0.50000000       0.87166795 </v>
    <v>       0.00353087       0.83333333       0.37166795 </v>
    <v>       0.00353087       0.83333333       0.87166795 </v>
    <v>       0.17337106       0.00000000       0.78161508 </v>
    <v>       0.17337106       0.33333333       0.28161508 </v>
    <v>       0.17337106       0.33333333       0.78161508 </v>
    <v>       0.17337106       0.66666667       0.28161508 </v>
    <v>       0.17337106       0.66666667       0.78161508 </v>
    <v>       0.32662894       0.16666667       0.21838492 </v>
    <v>       0.32662894       0.16666667       0.71838492 </v>
    <v>       0.32662894       0.50000000       0.21838492 </v>
    <v>       0.32662894       0.50000000       0.71838492 </v>
    <v>       0.32662894       0.83333333       0.21838492 </v>
    <v>       0.32662894       0.83333333       0.71838492 </v>
    <v>       0.33549502       0.16666667       0.44542296 </v>
    <v>       0.33549502       0.16666667       0.94542296 </v>
    <v>       0.33549502       0.50000000       0.44542296 </v>
    <v>       0.33549502       0.50000000       0.94542296 </v>
    <v>       0.33549502       0.83333333       0.44542296 </v>
    <v>       0.33549502       0.83333333       0.94542296 </v>
    <v>       0.16450498       0.00000000       0.05457704 </v>
    <v>       0.16450498       0.00000000       0.55457704 </v>
    <v>       0.16450498       0.33333333       0.05457704 </v>
    <v>       0.16450498       0.33333333       0.55457704 </v>
    <v>       0.16450498       0.66666667       0.05457704 </v>
    <v>       0.16450498       0.66666667       0.55457704 </v>
    <v>       0.17337106       0.00000000       0.28161508 </v>
   </varray>
  </structure>
  <varray name="forces" >
   <v>       0.00000000      -0.04729375      -0.02046540 </v>
   <v>       0.00000000      -0.11837351       0.10472132 </v>
   <v>      -0.00792238      -0.05591470      -0.01071938 </v>
   <v>      -0.00371087      -0.10630775       0.09650946 </v>
   <v>       0.00792238      -0.05591470      -0.01071938 </v>
   <v>       0.00371087      -0.10630775       0.09650946 </v>
   <v>      -0.03289479       0.49149083      -0.06027923 </v>
   <v>      -0.02344845       0.15738666      -0.18978506 </v>
   <v>       0.00000000       0.20492160      -0.02706021 </v>
   <v>       0.00000000       0.08482849      -0.15301364 </v>
   <v>       0.03289479       0.49149083      -0.06027923 </v>
   <v>       0.02344845       0.15738666      -0.18978506 </v>
   <v>      -0.04990445      -0.19759073       0.06574480 </v>
   <v>      -0.01288235      -0.02661486      -0.06169884 </v>
   <v>       0.00000000      -0.12606223       0.04406146 </v>
   <v>       0.00000000      -0.01430606      -0.05593864 </v>
   <v>       0.04990445      -0.19759073       0.06574480 </v>
   <v>       0.01288235      -0.02661486      -0.06169884 </v>
   <v>       0.00000000       0.57114408      -0.31632635 </v>
   <v>       0.00000000       0.13963056       0.13471228 </v>
   <v>      -0.26214393       0.29046281      -0.12054091 </v>
   <v>      -0.05002306       0.09142670       0.11505022 </v>
   <v>       0.26214393       0.29046281      -0.12054091 </v>
   <v>       0.05002306       0.09142670       0.11505022 </v>
   <v>      -1.50145274      -0.23013094      -1.40734462 </v>
   <v>      -0.25115016       0.04133912       0.29514467 </v>
   <v>       0.00000000      -0.06074786      -0.29745259 </v>
   <v>       0.00000000       0.00395755       0.19111706 </v>
   <v>       1.50145274      -0.23013094      -1.40734462 </v>
   <v>       0.25115016       0.04133912       0.29514467 </v>
   <v>       0.00000000      -1.89991882       0.61231039 </v>
   <v>       0.00000000      -0.12493910      -0.04452654 </v>
   <v>      -0.42202638      -0.28787795       0.13035338 </v>
   <v>      -0.08452979      -0.02789541      -0.05029925 </v>
   <v>       0.42202638      -0.28787795       0.13035338 </v>
   <v>       0.08452979      -0.02789541      -0.05029925 </v>
   <v>       0.00000000       1.42156996       1.23404866 </v>
   <v>       0.00000000       0.20898429      -0.55155895 </v>
   <v>      -0.40505207       0.13366135       0.32092308 </v>
   <v>      -0.09268520       0.00054416      -0.23315437 </v>
   <v>       0.40505207       0.13366135       0.32092308 </v>
   <v>       0.09268520       0.00054416      -0.23315437 </v>
   <v>      -0.02633146      -0.42204068      -0.34313683 </v>
   <v>      -0.01836606      -0.16298614       0.45310244 </v>
   <v>       0.00000000      -0.11955273      -0.14768035 </v>
   <v>       0.00000000      -0.02831979       0.21291628 </v>
   <v>       0.02633146      -0.42204068      -0.34313683 </v>
   <v>       0.01836606      -0.16298614       0.45310244 </v>
   <v>       0.37949856      -0.76043896       0.41438326 </v>
   <v>       0.04839906      -0.13593426      -0.07481974 </v>
   <v>       0.00000000      -0.17522632       0.06318931 </v>
   <v>       0.00000000      -0.07411529      -0.05891990 </v>
   <v>      -0.37949856      -0.76043896       0.41438326 </v>
   <v>      -0.04839906      -0.13593426      -0.07481974 </v>
   <v>       0.00000000       0.27929637      -0.05923417 </v>
   <v>       0.00000000       0.07777455       0.02691368 </v>
   <v>       0.07799327       0.23427292      -0.03992515 </v>
   <v>       0.01722126       0.06255840       0.02877946 </v>
   <v>      -0.07799327       0.23427292      -0.03992515 </v>
   <v>      -0.01722126       0.06255840       0.02877946 </v>
   <v>       0.02283023      -0.01570485       0.01659516 </v>
   <v>       0.01016339      -0.02964497       0.01496500 </v>
   <v>       0.00000000      -0.01790430       0.01809339 </v>
   <v>       0.00000000      -0.02974655       0.01469475 </v>
   <v>      -0.02283023      -0.01570485       0.01659516 </v>
   <v>      -0.01016339      -0.02964497       0.01496500 </v>
   <v>       0.00000000      -0.22749607       0.00738009 </v>
   <v>       0.00000000      -0.03284545       0.00243564 </v>
   <v>       0.08176796      -0.16040038       0.00452696 </v>
   <v>       0.01670020      -0.02430839      -0.00122294 </v>
   <v>      -0.08176796      -0.16040038       0.00452696 </v>
   <v>      -0.01670020      -0.02430839      -0.00122294 </v>
   <v>       0.00000000      -0.30266689      -0.12422097 </v>
   <v>       0.00000000      -0.26748145       0.17878304 </v>
   <v>       0.07869131      -0.29212225      -0.11793201 </v>
   <v>       0.07369036      -0.25573121       0.15395123 </v>
   <v>      -0.07869131      -0.29212225      -0.11793201 </v>
   <v>      -0.07369036      -0.25573121       0.15395123 </v>
   <v>       0.01648315       0.16614783       0.09874118 </v>
   <v>       0.01544295       0.20435695      -0.04505723 </v>
   <v>       0.00000000       0.17939321       0.09849947 </v>
   <v>       0.00000000       0.19891942      -0.03893153 </v>
   <v>      -0.01648315       0.16614783       0.09874118 </v>
   <v>      -0.01544295       0.20435695      -0.04505723 </v>
   <v>       0.00000000       0.23521120       0.03001184 </v>
   <v>       0.00000000       0.15519982      -0.16941767 </v>
   <v>       0.09982489       0.21028999       0.01805138 </v>
   <v>       0.08356587       0.14637228      -0.15943172 </v>
   <v>      -0.09982489       0.21028999       0.01805138 </v>
   <v>      -0.08356587       0.14637228      -0.15943172 </v>
   <v>       0.52986374      -0.83712391      -0.14986698 </v>
   <v>       0.09692268      -0.13683228       0.17685592 </v>
   <v>       0.00000000      -0.16714875      -0.00366923 </v>
   <v>       0.00000000      -0.05447842       0.10617210 </v>
   <v>      -0.52986374      -0.83712391      -0.14986698 </v>
   <v>      -0.09692268      -0.13683228       0.17685592 </v>
   <v>       0.00000000       0.00649538       0.03426472 </v>
   <v>       0.66591705      -0.02073985      -0.08044525 </v>
   <v>       0.03738369      -0.01995584       0.01512219 </v>
   <v>      -0.66591705      -0.02073985      -0.08044525 </v>
   <v>      -0.03738369      -0.01995584       0.01512219 </v>
   <v>       0.69860609       1.08752012       0.42283063 </v>
   <v>       0.04718102       0.08187954      -0.14544959 </v>
   <v>       0.00000000       0.21322407       0.06328232 </v>
   <v>       0.00000000       0.05656696      -0.08376790 </v>
   <v>      -0.69860609       1.08752012       0.42283063 </v>
   <v>      -0.04718102       0.08187954      -0.14544959 </v>
   <v>       0.53355807       0.22280818      -0.71624826 </v>
   <v>       0.04563991      -0.06371177       0.10771275 </v>
   <v>       0.00000000      -0.08204312      -0.18216084 </v>
   <v>       0.00000000      -0.12602269       0.04394110 </v>
   <v>      -0.53355807       0.22280818      -0.71624826 </v>
   <v>      -0.04563991      -0.06371177       0.10771275 </v>
   <v>       0.00000000       0.36045589       1.43702311 </v>
   <v>       0.00000000      -0.03017946      -0.78032386 </v>
   <v>       0.13290514       0.16678170       0.23908179 </v>
   <v>       0.10443386       0.14266213      -0.17515139 </v>
   <v>      -0.13290514       0.16678170       0.23908179 </v>
   <v>      -0.10443386       0.14266213      -0.17515139 </v>
   <v>       0.00000000       0.40538796       0.44426433 </v>
  </varray>
  <varray name="stress" >
   <v>      81.74371781       0.00000000       0.00000000 </v>
   <v>       0.00000000      76.82072531      -1.67622398 </v>
   <v>       0.00000000      -1.67622337      74.45790146 </v>
  </varray>
  <energy>
   <i name="e_fr_energy">   -708.60854137 </i>
   <i name="e_wo_entrp">   -708.60854137 </i>
   <i name="e_0_energy">   -708.60854137 </i>
  </energy>
  <time name="totalsc">   64.08   64.48</time>
 </calculation>
 <calculation>
  <scstep>
   <time name="dav">    2.02    2.02</time>
   <time name="total">    2.40    2.40</time>
   <energy>
    <i name="alphaZ">   5530.94812622 </i>
    <i name="ewald"> -88629.43503138 </i>
    <i name="hartreedc"> -33825.61555999 </i>
    <i name="XCdc">   4204.50610385 </i>
    <i name="pawpsdc"> 119912.90721887 </i>
    <i name="pawaedc">-136312.82178265 </i>
    <i name="eentropy">     -0.00000000 </i>
    <i name="bandstr">  -5691.65399695 </i>
    <i name="atom"> 134104.30092448 </i>
    <i name="e_fr_energy">   -706.86399754 </i>
    <i name="e_wo_entrp">   -706.86399754 </i>
    <i name="e_0_energy">   -706.86399754 </i>
   </energy>
  </scstep>
  <scstep>
   <time name="diag">    0.24    0.24</time>
   <time name="diis">    2.65    2.65</time>
   <time name="orth">    0.03    0.03</time>
   <time name="total">    3.31    3.31</time>
   <energy>
    <i name="e_fr_energy">   -708.55560335 </i>
    <i name="e_wo_entrp">   -708.55560335 </i>
    <i name="e_0_energy">   -708.55560335 </i>
   </energy>
  </scstep>
  <scstep>
   <time name="diag">    0.24    0.24</time>
   <time name="diis">    2.92    2.92</time>
   <time name="orth">    0.03    0.03</time>
   <time name="total">    3.58    3.58</time>
   <energy>
    <i name="e_fr_energy">   -708.82749762 </i>
    <i name="e_wo_entrp">   -708.82749762 </i>
    <i name="e_0_energy">   -708.82749762 </i>
   </energy>
  </scstep>
  <scstep>
   <time name="diag">    0.24    0.24</time>
   <time name="diis">    2.97    2.97</time>
   <time name="orth">    0.03    0.03</time>
   <time name="total">    3.63    3.63</time>
   <energy>
    <i name="e_fr_energy">   -708.79025273 </i>
    <i name="e_wo_entrp">   -708.79025273 </i>
    <i name="e_0_energy">   -708.79025273 </i>
   </energy>
  </scstep>
  <scstep>
   <time name="diag">    0.24    0.24</time>
   <time name="diis">    2.75    2.75</time>
   <time name="orth">    0.03    0.03</time>
   <time name="total">    3.42    3.42</time>
   <energy>
    <i name="e_fr_energy">   -708.75318716 </i>
    <i name="e_wo_entrp">   -708.75318716 </i>
    <i name="e_0_energy">   -708.75318716 </i>
   </energy>
  </scstep>
  <scstep>
   <time name="diag">    0.24    0.24</time>
   <time name="diis">    2.91    2.91</time>
   <time name="orth">    0.03    0.03</time>
   <time name="total">    3.58    3.58</time>
   <energy>
    <i name="e_fr_energy">   -708.75009481 </i>
    <i name="e_wo_entrp">   -708.75009481 </i>
    <i name="e_0_energy">   -708.75009481 </i>
   </energy>
  </scstep>
  <scstep>
   <time name="diag">    0.24    0.24</time>
   <time name="diis">    2.46    2.46</time>
   <time name="orth">    0.03    0.03</time>
   <time name="total">    3.13    3.13</time>
   <energy>
    <i name="e_fr_energy">   -708.75051244 </i>
    <i name="e_wo_entrp">   -708.75051244 </i>
    <i name="e_0_energy">   -708.75051244 </i>
   </energy>
  </scstep>
  <scstep>
   <time name="diag">    0.24    0.24</time>
   <time name="diis">    2.87    2.87</time>
   <time name="orth">    0.03    0.03</time>
   <time name="total">    3.54    3.54</time>
   <energy>
    <i name="e_fr_energy">   -708.74956074 </i>
    <i name="e_wo_entrp">   -708.74956074 </i>
    <i name="e_0_energy">   -708.74956074 </i>
   </energy>
  </scstep>
  <scstep>
   <time name="diag">    0.24    0.24</time>
   <time name="diis">    2.64    2.64</time>
   <time name="orth">    0.03    0.03</time>
   <time name="total">    3.31    3.31</time>
   <energy>
    <i name="e_fr_energy">   -708.74965768 </i>
    <i name="e_wo_entrp">   -708.74965768 </i>
    <i name="e_0_energy">   -708.74965768 </i>
   </energy>
  </scstep>
  <scstep>
   <time name="diag">    0.24    0.24</time>
   <time name="diis">    2.24    2.24</time>
   <time name="orth">    0.03    0.03</time>
   <time name="total">    2.92    2.92</time>
   <energy>
    <i name="e_fr_energy">   -708.74966259 </i>
    <i name="e_wo_entrp">   -708.74966259 </i>
    <i name="e_0_energy">   -708.74966259 </i>
   </energy>
  </scstep>
  <scstep>
   <time name="diag">    0.24    0.24</time>
   <time name="diis">    2.06    2.06</time>
   <time name="orth">    0.03    0.03</time>
   <time name="total">    2.73    2.73</time>
   <energy>
    <i name="e_fr_energy">   -708.74966653 </i>
    <i name="e_wo_entrp">   -708.74966653 </i>
    <i name="e_0_energy">   -708.74966653 </i>
   </energy>
  </scstep>
  <scstep>
   <time name="diag">    0.24    0.24</time>
   <time name="diis">    1.81    1.81</time>
   <time name="orth">    0.03    0.03</time>
   <time name="total">    2.19    2.19</time>
   <energy>
    <i name="alphaZ">   5530.94812622 </i>
    <i name="ewald"> -88629.43503138 </i>
    <i name="hartreedc"> -33820.49558204 </i>
    <i name="XCdc">   4204.48717406 </i>
    <i name="pawpsdc"> 119993.60157981 </i>
    <i name="pawaedc">-136394.15223321 </i>
    <i name="eentropy">     -0.00000000 </i>
    <i name="bandstr">  -5698.00462394 </i>
    <i name="atom"> 134104.30092448 </i>
    <i name="e_fr_energy">   -708.74966599 </i>
    <i name="e_wo_entrp">   -708.74966599 </i>
    <i name="e_0_energy">   -708.74966599 </i>
   </energy>
  </scstep>
  <structure>
   <crystal>
    <varray name="basis" >
     <v>       0.00000000      12.28047342       0.00000000 </v>
     <v>       9.14270205       0.00000000       0.00000000 </v>
     <v>       0.00000000      -2.76826177     -11.30069772 </v>
    </varray>
    <i name="volume">   1268.80515525 </i>
    <varray name="rec_basis" >
     <v>       0.00000000       0.08143009      -0.01994742 </v>
     <v>       0.10937686      -0.00000000       0.00000000 </v>
     <v>       0.00000000       0.00000000      -0.08849011 </v>
    </varray>
   </crystal>
   <varray name="positions" >
    <v>       0.65867221       0.00000000       0.15745254 </v>
    <v>       0.65827251       0.00000000       0.65691811 </v>
    <v>       0.65862896       0.33329153       0.15741093 </v>
    <v>       0.65832781       0.33331375       0.65695317 </v>
    <v>       0.65862896       0.66670847       0.15741093 </v>
    <v>       0.65832781       0.66668625       0.65695317 </v>
    <v>       0.84315048       0.16649309       0.34289216 </v>
    <v>       0.84196261       0.16654294       0.84344502 </v>
    <v>       0.84199276       0.50000000       0.34275035 </v>
    <v>       0.84164219       0.50000000       0.84328804 </v>
    <v>       0.84315048       0.83350691       0.34289216 </v>
    <v>       0.84196261       0.83345706       0.84344502 </v>
    <v>       0.58963492       0.16640334       0.39711234 </v>
    <v>       0.59042922       0.16659869       0.89765639 </v>
    <v>       0.58993678       0.50000000       0.39720490 </v>
    <v>       0.59047203       0.50000000       0.89763180 </v>
    <v>       0.58963492       0.83359666       0.39711234 </v>
    <v>       0.59042922       0.83340131       0.89765639 </v>
    <v>       0.91207369       0.00000000       0.10395740 </v>
    <v>       0.90994449       0.00000000       0.60203191 </v>
    <v>       0.91078265       0.33195010       0.10312159 </v>
    <v>       0.90977405       0.33306938       0.60211585 </v>
    <v>       0.91078265       0.66804990       0.10312159 </v>
    <v>       0.90977405       0.66693062       0.60211585 </v>
    <v>       0.15928856       0.15874406       0.16337312 </v>
    <v>       0.15871667       0.16534144       0.65610520 </v>
    <v>       0.15888590       0.50000000       0.15863499 </v>
    <v>       0.15866993       0.50000000       0.65654929 </v>
    <v>       0.15928856       0.84125594       0.16337312 </v>
    <v>       0.15871667       0.83465856       0.65610520 </v>
    <v>       0.33310882       0.00000000       0.34002088 </v>
    <v>       0.34071374       0.00000000       0.84282491 </v>
    <v>       0.33990536       0.33110646       0.34207835 </v>
    <v>       0.34110052       0.33288730       0.84284956 </v>
    <v>       0.33990536       0.66889354       0.34207835 </v>
    <v>       0.34110052       0.66711270       0.84284956 </v>
    <v>       0.09487135       0.00000000       0.39212485 </v>
    <v>       0.09182615       0.00000000       0.89974760 </v>
    <v>       0.09069065       0.33119602       0.39602298 </v>
    <v>       0.09070091       0.33284427       0.89838834 </v>
    <v>       0.09069065       0.66880398       0.39602298 </v>
    <v>       0.09070091       0.66715573       0.89838834 </v>
    <v>       0.40819786       0.16652773       0.10407185 </v>
    <v>       0.40844930       0.16656976       0.60067271 </v>
    <v>       0.40919806       0.50000000       0.10323745 </v>
    <v>       0.40920946       0.50000000       0.60169806 </v>
    <v>       0.40819786       0.83347227       0.10407185 </v>
    <v>       0.40844930       0.83343024       0.60067271 </v>
    <v>       0.99308305       0.16866914       0.12656304 </v>
    <v>       0.99600713       0.16692205       0.62865145 </v>
    <v>       0.99571996       0.50000000       0.12806229 </v>
    <v>       0.99623467       0.50000000       0.62858357 </v>
    <v>       0.99308305       0.83133086       0.12656304 </v>
    <v>       0.99600713       0.83307795       0.62865145 </v>
    <v>       0.50468506       0.00000000       0.37192083 </v>
    <v>       0.50381050       0.00000000       0.87155306 </v>
    <v>       0.50448961       0.33374487       0.37183840 </v>
    <v>       0.50374893       0.33342420       0.87154510 </v>
    <v>       0.50448961       0.66625513       0.37183840 </v>
    <v>       0.50374893       0.66657580       0.87154510 </v>
    <v>       0.67329340       0.16678713       0.28154424 </v>
    <v>       0.67324021       0.16672030       0.78155119 </v>
    <v>       0.67328332       0.50000000       0.28153784 </v>
    <v>       0.67324007       0.50000000       0.78155235 </v>
    <v>       0.67329340       0.83321287       0.28154424 </v>
    <v>       0.67324021       0.83327970       0.78155119 </v>
    <v>       0.82572814       0.00000000       0.21835341 </v>
    <v>       0.82649756       0.00000000       0.71837452 </v>
    <v>       0.82599446       0.33376479       0.21836559 </v>
    <v>       0.82653462       0.33342145       0.71839014 </v>
    <v>       0.82599446       0.66623521       0.21836559 </v>
    <v>       0.82653462       0.66657855       0.71839014 </v>
    <v>       0.83442556       0.00000000       0.44595326 </v>
    <v>       0.83427220       0.00000000       0.94465974 </v>
    <v>       0.83446093       0.33374856       0.44592641 </v>
    <v>       0.83434225       0.33372217       0.94476574 </v>
    <v>       0.83446093       0.66625144       0.44592641 </v>
    <v>       0.83434225       0.66627783       0.94476574 </v>
    <v>       0.66506266       0.16675364       0.05415551 </v>
    <v>       0.66535114       0.16674815       0.55476939 </v>
    <v>       0.66511492       0.50000000       0.05415655 </v>
    <v>       0.66532388       0.50000000       0.55474324 </v>
    <v>       0.66506266       0.83324636       0.05415551 </v>
    <v>       0.66535114       0.83325185       0.55476939 </v>
    <v>       0.49736425       0.00000000       0.12820392 </v>
    <v>       0.49724185       0.00000000       0.62905529 </v>
    <v>       0.49727786       0.33386007       0.12825498 </v>
    <v>       0.49719756       0.33377428       0.62901266 </v>
    <v>       0.49727786       0.66613993       0.12825498 </v>
    <v>       0.49719756       0.66622572       0.62901266 </v>
    <v>       0.00038653       0.16946256       0.37230774 </v>
    <v>       0.00282315       0.16717809       0.87091296 </v>
    <v>       0.00287777       0.50000000       0.37168362 </v>
    <v>       0.00321469       0.50000000       0.87121471 </v>
    <v>       0.00038653       0.83053744       0.37230774 </v>
    <v>       0.00282315       0.83282191       0.87091296 </v>
    <v>       0.17336361       0.00000000       0.78146880 </v>
    <v>       0.17336700       0.33684713       0.28195850 </v>
    <v>       0.17327812       0.33353059       0.78155052 </v>
    <v>       0.17336700       0.66315287       0.28195850 </v>
    <v>       0.17327812       0.66646941       0.78155052 </v>
    <v>       0.33049426       0.17035295       0.21657986 </v>
    <v>       0.32709056       0.16691562       0.71900584 </v>
    <v>       0.32740567       0.50000000       0.21811477 </v>
    <v>       0.32693176       0.50000000       0.71874252 </v>
    <v>       0.33049426       0.82964705       0.21657986 </v>
    <v>       0.32709056       0.83308438       0.71900584 </v>
    <v>       0.33705956       0.16948206       0.44848062 </v>
[...]
       <r>    -9.7648     1.1439   144.0000 </r>
       <r>    -9.6547     0.0000   144.0000 </r>
       <r>    -9.5446     0.0000   144.0000 </r>
       <r>    -9.4345     0.0000   144.0000 </r>
       <r>    -9.3244     0.0000   144.0000 </r>
       <r>    -9.2143     1.5022   144.1654 </r>
       <r>    -9.1043    98.0731   154.9620 </r>
       <r>    -8.9942   417.7016   200.9458 </r>
       <r>    -8.8841   708.7125   278.9662 </r>
       <r>    -8.7740   732.8352   359.6422 </r>
       <r>    -8.6639   681.0608   434.6186 </r>
       <r>    -8.5538   534.8552   493.4995 </r>
       <r>    -8.4437   252.9350   521.3445 </r>
       <r>    -8.3336   176.3036   540.7533 </r>
       <r>    -8.2236   196.3552   562.3696 </r>
       <r>    -8.1135   165.8432   580.6269 </r>
       <r>    -8.0034   136.5828   595.6629 </r>
       <r>    -7.8933   121.3976   609.0273 </r>
       <r>    -7.7832    75.6444   617.3548 </r>
       <r>    -7.6731    36.5740   621.3811 </r>
       <r>    -7.5630     5.6183   621.9996 </r>
       <r>    -7.4529     0.0033   622.0000 </r>
       <r>    -7.3429     0.0000   622.0000 </r>
       <r>    -7.2328     0.0000   622.0000 </r>
       <r>    -7.1227     0.0000   622.0000 </r>
       <r>    -7.0126     0.0000   622.0000 </r>
       <r>    -6.9025     0.0000   622.0000 </r>
       <r>    -6.7924     0.1098   622.0121 </r>
       <r>    -6.6823    12.7550   623.4163 </r>
       <r>    -6.5722     5.2997   623.9997 </r>
       <r>    -6.4622     0.0029   624.0000 </r>
       <r>    -6.3521     0.0000   624.0000 </r>
       <r>    -6.2420     0.0000   624.0000 </r>
       <r>    -6.1319     0.0000   624.0000 </r>
       <r>    -6.0218     0.0000   624.0000 </r>
       <r>    -5.9117     0.0000   624.0000 </r>
       <r>    -5.8016     0.0000   624.0000 </r>
       <r>    -5.6915     0.0000   624.0000 </r>
       <r>    -5.5815     0.0000   624.0000 </r>
       <r>    -5.4714     0.0000   624.0000 </r>
       <r>    -5.3613     0.0000   624.0000 </r>
       <r>    -5.2512     0.0000   624.0000 </r>
       <r>    -5.1411     0.0000   624.0000 </r>
       <r>    -5.0310     0.0000   624.0000 </r>
       <r>    -4.9209     0.0000   624.0000 </r>
       <r>    -4.8108     0.0000   624.0000 </r>
       <r>    -4.7008     0.0000   624.0000 </r>
       <r>    -4.5907     0.0000   624.0000 </r>
       <r>    -4.4806     0.0000   624.0000 </r>
       <r>    -4.3705     0.0000   624.0000 </r>
       <r>    -4.2604     0.0000   624.0000 </r>
       <r>    -4.1503     0.0000   624.0000 </r>
       <r>    -4.0402     0.0000   624.0000 </r>
       <r>    -3.9301     0.0000   624.0000 </r>
       <r>    -3.8201     0.0000   624.0000 </r>
       <r>    -3.7100     0.0000   624.0000 </r>
       <r>    -3.5999     0.0000   624.0000 </r>
       <r>    -3.4898     0.0000   624.0000 </r>
       <r>    -3.3797     0.0000   624.0000 </r>
       <r>    -3.2696     0.3098   624.0341 </r>
       <r>    -3.1595     6.3540   624.7336 </r>
       <r>    -3.0494    11.8807   626.0415 </r>
       <r>    -2.9394    21.4747   628.4056 </r>
       <r>    -2.8293    28.9507   631.5927 </r>
       <r>    -2.7192    37.6423   635.7367 </r>
       <r>    -2.6091    28.2585   638.8476 </r>
       <r>    -2.4990    52.2154   644.5958 </r>
       <r>    -2.3889    36.1791   648.5787 </r>
       <r>    -2.2788    60.2137   655.2075 </r>
       <r>    -2.1687    59.8899   661.8006 </r>
       <r>    -2.0586    44.9744   666.7517 </r>
       <r>    -1.9486    44.6892   671.6715 </r>
       <r>    -1.8385    57.5098   678.0026 </r>
       <r>    -1.7284    40.7801   682.4920 </r>
       <r>    -1.6183    34.6528   686.3068 </r>
       <r>    -1.5082    36.1179   690.2829 </r>
       <r>    -1.3981    23.2594   692.8435 </r>
       <r>    -1.2880    34.8406   696.6790 </r>
       <r>    -1.1779    37.1606   700.7699 </r>
       <r>    -1.0679    38.8605   705.0480 </r>
       <r>    -0.9578    38.6447   709.3023 </r>
       <r>    -0.8477    34.9310   713.1478 </r>
       <r>    -0.7376    36.6205   717.1792 </r>
       <r>    -0.6275    32.9902   720.8110 </r>
       <r>    -0.5174    39.3535   725.1434 </r>
       <r>    -0.4073    43.8985   729.9760 </r>
       <r>    -0.2972    50.5323   735.5390 </r>
       <r>    -0.1872    33.5786   739.2356 </r>
       <r>    -0.0771    42.7390   743.9406 </r>
       <r>     0.0330    60.4179   750.5919 </r>
       <r>     0.1431    74.5552   758.7995 </r>
       <r>     0.2532    77.7409   767.3578 </r>
       <r>     0.3633    56.8895   773.6206 </r>
       <r>     0.4734    76.6620   782.0602 </r>
       <r>     0.5835    62.1058   788.8972 </r>
       <r>     0.6935    55.5409   795.0116 </r>
       <r>     0.8036    56.5609   801.2383 </r>
       <r>     0.9137    79.2666   809.9645 </r>
       <r>     1.0238    78.1359   818.5663 </r>
       <r>     1.1339    78.3736   827.1943 </r>
       <r>     1.2440    86.5640   836.7239 </r>
       <r>     1.3541    65.9229   843.9812 </r>
       <r>     1.4642    66.9395   851.3504 </r>
       <r>     1.5742    76.5229   859.7746 </r>
       <r>     1.6843    71.4419   867.6395 </r>
       <r>     1.7944    90.0550   877.5534 </r>
       <r>     1.9045    87.1748   887.1503 </r>
       <r>     2.0146    66.0933   894.4263 </r>
       <r>     2.1247    53.9380   900.3642 </r>
       <r>     2.2348    49.1128   905.7709 </r>
       <r>     2.3449    98.4115   916.6048 </r>
       <r>     2.4549    99.8772   927.6001 </r>
       <r>     2.5650    91.7342   937.6989 </r>
       <r>     2.6751    96.7303   948.3477 </r>
       <r>     2.7852   102.4776   959.6292 </r>
       <r>     2.8953   102.6314   970.9276 </r>
       <r>     3.0054   115.0949   983.5981 </r>
       <r>     3.1155   135.8407   998.5525 </r>
       <r>     3.2256   114.3395  1011.1399 </r>
       <r>     3.3356    97.1600  1021.8360 </r>
       <r>     3.4457    74.6992  1030.0594 </r>
       <r>     3.5558    63.8287  1037.0862 </r>
       <r>     3.6659    55.2578  1043.1694 </r>
       <r>     3.7760    55.6926  1049.3004 </r>
       <r>     3.8861    12.9486  1050.7259 </r>
       <r>     3.9962    12.5364  1052.1060 </r>
       <r>     4.1063     9.2209  1053.1211 </r>
       <r>     4.2163    21.8444  1055.5259 </r>
       <r>     4.3264     4.3047  1055.9998 </r>
       <r>     4.4365     0.0016  1056.0000 </r>
       <r>     4.5466     0.0000  1056.0000 </r>
       <r>     4.6567     0.0000  1056.0000 </r>
       <r>     4.7668     0.0000  1056.0000 </r>
       <r>     4.8769     0.0000  1056.0000 </r>
       <r>     4.9870     0.0000  1056.0000 </r>
       <r>     5.0970     0.0000  1056.0000 </r>
       <r>     5.2071     0.0000  1056.0000 </r>
       <r>     5.3172     0.0000  1056.0000 </r>
       <r>     5.4273     0.0000  1056.0000 </r>
       <r>     5.5374     0.0000  1056.0000 </r>
       <r>     5.6475     0.0000  1056.0000 </r>
       <r>     5.7576     0.0000  1056.0000 </r>
       <r>     5.8677     0.0000  1056.0000 </r>
       <r>     5.9777     0.0004  1056.0000 </r>
       <r>     6.0878     0.7311  1056.0805 </r>
       <r>     6.1979     1.5304  1056.2490 </r>
       <r>     6.3080     0.0091  1056.2500 </r>
       <r>     6.4181     0.0000  1056.2500 </r>
       <r>     6.5282     0.0000  1056.2500 </r>
       <r>     6.6383     0.0000  1056.2500 </r>
       <r>     6.7484     0.0000  1056.2500 </r>
       <r>     6.8584     0.0245  1056.2527 </r>
       <r>     6.9685     2.4464  1056.5220 </r>
       <r>     7.0786     5.0543  1057.0784 </r>
       <r>     7.1887     1.5532  1057.2494 </r>
       <r>     7.2988     1.3077  1057.3934 </r>
       <r>     7.4089     6.1992  1058.0758 </r>
       <r>     7.5190     1.5797  1058.2497 </r>
       <r>     7.6291     0.0029  1058.2501 </r>
       <r>     7.7391     1.2061  1058.3828 </r>
       <r>     7.8492     7.5893  1059.2183 </r>
       <r>     7.9593     6.8048  1059.9674 </r>
       <r>     8.0694     5.2143  1060.5415 </r>
       <r>     8.1795     6.3273  1061.2380 </r>
       <r>     8.2896     5.9320  1061.8911 </r>
       <r>     8.3997     2.9912  1062.2204 </r>
       <r>     8.5098     8.4815  1063.1541 </r>
       <r>     8.6198    11.9156  1064.4658 </r>
       <r>     8.7299     5.3123  1065.0506 </r>
       <r>     8.8400     3.1957  1065.4024 </r>
       <r>     8.9501    11.6834  1066.6886 </r>
       <r>     9.0602    14.5723  1068.2929 </r>
       <r>     9.1703    15.0346  1069.9480 </r>
       <r>     9.2804     7.7522  1070.8014 </r>
       <r>     9.3905    15.4550  1072.5028 </r>
       <r>     9.5005    22.9109  1075.0250 </r>
       <r>     9.6106    35.0900  1078.8880 </r>
       <r>     9.7207    30.7322  1082.2712 </r>
       <r>     9.8308    49.4915  1087.7196 </r>
       <r>     9.9409    49.0800  1093.1227 </r>
       <r>    10.0510    37.1762  1097.2154 </r>
       <r>    10.1611    29.6328  1100.4776 </r>
       <r>    10.2712    34.3598  1104.2601 </r>
       <r>    10.3812    28.8839  1107.4399 </r>
       <r>    10.4913    27.2941  1110.4446 </r>
       <r>    10.6014    47.0040  1115.6192 </r>
       <r>    10.7115    46.2433  1120.7100 </r>
       <r>    10.8216    30.5105  1124.0688 </r>
       <r>    10.9317    36.4133  1128.0775 </r>
       <r>    11.0418    29.8653  1131.3653 </r>
       <r>    11.1519    29.7426  1134.6396 </r>
       <r>    11.2619    39.0011  1138.9331 </r>
       <r>    11.3720    39.2552  1143.2546 </r>
       <r>    11.4821    41.9880  1147.8770 </r>
       <r>    11.5922    36.6760  1151.9145 </r>
       <r>    11.7023    49.2287  1157.3340 </r>
       <r>    11.8124    33.4107  1161.0121 </r>
       <r>    11.9225     8.6688  1161.9665 </r>
       <r>    12.0326     9.1018  1162.9684 </r>
       <r>    12.1426    28.2015  1166.0731 </r>
       <r>    12.2527    37.7389  1170.2277 </r>
       <r>    12.3628    30.5418  1173.5899 </r>
       <r>    12.4729    45.0716  1178.5518 </r>
       <r>    12.5830    44.3310  1183.4321 </r>
       <r>    12.6931    43.4177  1188.2118 </r>
       <r>    12.8032    38.7127  1192.4736 </r>
       <r>    12.9133    36.3657  1196.4770 </r>
       <r>    13.0233    30.2739  1199.8098 </r>
       <r>    13.1334    38.4224  1204.0396 </r>
       <r>    13.2435    40.5652  1208.5053 </r>
       <r>    13.3536    33.7739  1212.2234 </r>
       <r>    13.4637    52.6356  1218.0180 </r>
       <r>    13.5738    41.8416  1222.6242 </r>
       <r>    13.6839    42.5908  1227.3129 </r>
       <r>    13.7940    38.3239  1231.5319 </r>
       <r>    13.9040    33.4236  1235.2114 </r>
       <r>    14.0141    35.2359  1239.0905 </r>
       <r>    14.1242    38.6005  1243.3399 </r>
       <r>    14.2343    30.2582  1246.6710 </r>
       <r>    14.3444    20.4529  1248.9226 </r>
       <r>    14.4545    26.3785  1251.8265 </r>
       <r>    14.5646    40.5152  1256.2867 </r>
       <r>    14.6747    39.3048  1260.6137 </r>
       <r>    14.7847    36.0045  1264.5774 </r>
       <r>    14.8948    10.2061  1265.7009 </r>
       <r>    15.0049     2.6623  1265.9940 </r>
       <r>    15.1150     0.0544  1266.0000 </r>
       <r>    15.2251     0.0000  1266.0000 </r>
       <r>    15.3352     0.0000  1266.0000 </r>
       <r>    15.4453     0.0000  1266.0000 </r>
       <r>    15.5554     0.0000  1266.0000 </r>
       <r>    15.6654     0.0000  1266.0000 </r>
       <r>    15.7755     0.0000  1266.0000 </r>
       <r>    15.8856     0.0000  1266.0000 </r>
       <r>    15.9957     0.0000  1266.0000 </r>
       <r>    16.1058     0.0000  1266.0000 </r>
       <r>    16.2159     0.0000  1266.0000 </r>
       <r>    16.3260     0.0000  1266.0000 </r>
       <r>    16.4361     0.0000  1266.0000 </r>
      </set>
     </set>
    </array>
   </total>
  </dos>
 </calculation>
 <structure name="finalpos" >
  <crystal>
   <varray name="basis" >
    <v>       0.00000000      12.28047342       0.00000000 </v>
    <v>       9.14270205       0.00000000       0.00000000 </v>
    <v>       0.00000000      -2.76826177     -11.30069772 </v>
   </varray>
   <i name="volume">   1268.80515525 </i>
   <varray name="rec_basis" >
    <v>       0.00000000       0.08143009      -0.01994742 </v>
    <v>       0.10937686      -0.00000000       0.00000000 </v>
    <v>       0.00000000       0.00000000      -0.08849011 </v>
   </varray>
  </crystal>
  <varray name="positions" >
   <v>       0.65895623       0.00000000       0.15686666 </v>
   <v>       0.65917449       0.00000000       0.65627266 </v>
   <v>       0.65951850       0.33342606       0.15657418 </v>
   <v>       0.65930863       0.33330620       0.65656740 </v>
   <v>       0.65951850       0.66657394       0.15657418 </v>
   <v>       0.65930863       0.66669380       0.65656740 </v>
   <v>       0.84071597       0.16650375       0.34392748 </v>
   <v>       0.84104518       0.16653734       0.84349484 </v>
   <v>       0.84096171       0.50000000       0.34338172 </v>
   <v>       0.84150628       0.50000000       0.84302539 </v>
   <v>       0.84071597       0.83349625       0.34392748 </v>
   <v>       0.84104518       0.83346266       0.84349484 </v>
   <v>       0.58895675       0.16570604       0.39681895 </v>
   <v>       0.59114485       0.16672799       0.89760837 </v>
   <v>       0.59269387       0.50000000       0.39808467 </v>
   <v>       0.59187615       0.50000000       0.89765736 </v>
   <v>       0.58895675       0.83429396       0.39681895 </v>
   <v>       0.59114485       0.83327201       0.89760837 </v>
   <v>       0.90846374       0.00000000       0.10245289 </v>
   <v>       0.90911767       0.00000000       0.60179397 </v>
   <v>       0.90797441       0.33342713       0.10172808 </v>
   <v>       0.90867855       0.33322969       0.60202499 </v>
   <v>       0.90797441       0.66657287       0.10172808 </v>
   <v>       0.90867855       0.66677031       0.60202499 </v>
   <v>       0.15956009       0.16069385       0.16119994 </v>
   <v>       0.15874625       0.16587965       0.65521876 </v>
   <v>       0.15853368       0.50000000       0.15815841 </v>
   <v>       0.15845018       0.50000000       0.65749202 </v>
   <v>       0.15956009       0.83930615       0.16119994 </v>
   <v>       0.15874625       0.83412035       0.65521876 </v>
   <v>       0.33499536       0.00000000       0.34336587 </v>
   <v>       0.34066889       0.00000000       0.84324825 </v>
   <v>       0.34146035       0.33345399       0.34240498 </v>
   <v>       0.34086250       0.33343555       0.84305682 </v>
   <v>       0.34146035       0.66654601       0.34240498 </v>
   <v>       0.34086250       0.66656445       0.84305682 </v>
   <v>       0.09329385       0.00000000       0.39221194 </v>
   <v>       0.09089125       0.00000000       0.89664776 </v>
   <v>       0.09034034       0.33268410       0.39742409 </v>
   <v>       0.09173627       0.33258504       0.89991528 </v>
   <v>       0.09034034       0.66731590       0.39742409 </v>
   <v>       0.09173627       0.66741496       0.89991528 </v>
   <v>       0.40952976       0.16746981       0.10227161 </v>
   <v>       0.41013982       0.16726693       0.60312036 </v>
   <v>       0.40934049       0.50000000       0.10268307 </v>
   <v>       0.40922524       0.50000000       0.60217746 </v>
   <v>       0.40952976       0.83253019       0.10227161 </v>
   <v>       0.41013982       0.83273307       0.60312036 </v>
   <v>       0.99388185       0.16732004       0.12417819 </v>
   <v>       0.99590861       0.16686506       0.62778349 </v>
   <v>       0.99491405       0.50000000       0.12714228 </v>
   <v>       0.99575626       0.50000000       0.62770374 </v>
   <v>       0.99388185       0.83267996       0.12417819 </v>
   <v>       0.99590861       0.83313494       0.62778349 </v>
   <v>       0.50074248       0.00000000       0.37239358 </v>
   <v>       0.50385210       0.00000000       0.87244905 </v>
   <v>       0.50499379       0.33455305       0.37323873 </v>
   <v>       0.50400559       0.33369720       0.87268851 </v>
   <v>       0.50499379       0.66544695       0.37323873 </v>
   <v>       0.50400559       0.66630280       0.87268851 </v>
   <v>       0.67187313       0.16640860       0.28042989 </v>
   <v>       0.67263505       0.16668159       0.78038624 </v>
   <v>       0.67297102       0.50000000       0.28006212 </v>
   <v>       0.67300909       0.50000000       0.78038854 </v>
   <v>       0.67187313       0.83359140       0.28042989 </v>
   <v>       0.67263505       0.83331841       0.78038624 </v>
   <v>       0.82682354       0.00000000       0.21987953 </v>
   <v>       0.82709522       0.00000000       0.71887370 </v>
   <v>       0.82700848       0.33326128       0.21965868 </v>
   <v>       0.82729123       0.33321354       0.71922064 </v>
   <v>       0.82700848       0.66673872       0.21965868 </v>
   <v>       0.82729123       0.66678646       0.71922064 </v>
   <v>       0.83003457       0.00000000       0.44614871 </v>
   <v>       0.83111608       0.00000000       0.94524222 </v>
   <v>       0.83049687       0.33374101       0.44597204 </v>
   <v>       0.83110890       0.33379646       0.94488012 </v>
   <v>       0.83049687       0.66625899       0.44597204 </v>
   <v>       0.83110890       0.66620354       0.94488012 </v>
   <v>       0.66844035       0.16656536       0.05403028 </v>
   <v>       0.66667994       0.16654178       0.55366107 </v>
   <v>       0.66956293       0.50000000       0.05392010 </v>
   <v>       0.66891624       0.50000000       0.55477425 </v>
   <v>       0.66844035       0.83343464       0.05403028 </v>
   <v>       0.66667994       0.83345822       0.55366107 </v>
   <v>       0.49670645       0.00000000       0.12580211 </v>
   <v>       0.49697745       0.00000000       0.62894325 </v>
   <v>       0.49781822       0.33420292       0.12548319 </v>
   <v>       0.49746807       0.33412528       0.62938298 </v>
   <v>       0.49781822       0.66579708       0.12548319 </v>
   <v>       0.49746807       0.66587472       0.62938298 </v>
   <v>       0.00192977       0.16700666       0.37532598 </v>
   <v>       0.00296755       0.16679392       0.87108907 </v>
   <v>       0.00272518       0.50000000       0.37394412 </v>
   <v>       0.00416704       0.50000000       0.87315484 </v>
   <v>       0.00192977       0.83299334       0.37532598 </v>
   <v>       0.00296755       0.83320608       0.87108907 </v>
   <v>       0.17265888       0.00000000       0.77939925 </v>
   <v>       0.17266129       0.33703836       0.28216491 </v>
   <v>       0.17242927       0.33312556       0.78127514 </v>
   <v>       0.17266129       0.66296164       0.28216491 </v>
   <v>       0.17242927       0.66687444       0.78127514 </v>
   <v>       0.33149396       0.17367378       0.21942158 </v>
   <v>       0.32754011       0.16696331       0.71929892 </v>
   <v>       0.32825379       0.50000000       0.21926070 </v>
   <v>       0.32742557       0.50000000       0.71944497 </v>
   <v>       0.33149396       0.82632622       0.21942158 </v>
   <v>       0.32754011       0.83303669       0.71929892 </v>
   <v>       0.33488733       0.16999977       0.44767284 </v>
   <v>       0.33390530       0.16716803       0.94520824 </v>
   <v>       0.33422155       0.50000000       0.44593307 </v>
   <v>       0.33212183       0.50000000       0.94589794 </v>
   <v>       0.33488733       0.83000023       0.44767284 </v>
   <v>       0.33390530       0.83283197       0.94520824 </v>
   <v>       0.17178560       0.00000000       0.04934101 </v>
   <v>       0.16526839       0.00000000       0.55312691 </v>
   <v>       0.16634989       0.33151561       0.05664985 </v>
   <v>       0.16679644       0.33392922       0.55468658 </v>
   <v>       0.16634989       0.66848439       0.05664985 </v>
   <v>       0.16679644       0.66607078       0.55468658 </v>
   <v>       0.17416720       0.00000000       0.27696729 </v>
  </varray>
 </structure>
</modeling>
