       N       E                     dE             d eps       ncg     rms          rms(c)
DAV:   1     0.217376708828E+05    0.21738E+05   -0.31781E+05 10000   0.280E+03
DAV:   2     0.482849423623E+04   -0.16909E+05   -0.15942E+05 10000   0.814E+02
DAV:   3    -0.138636073596E+03   -0.49671E+04   -0.46815E+04 12856   0.320E+02
DAV:   4    -0.759982902241E+03   -0.62135E+03   -0.60872E+03 12384   0.121E+02
DAV:   5    -0.802513279081E+03   -0.42530E+02   -0.42202E+02 14320   0.343E+01    0.610E+01
RMM:   6    -0.691092830040E+03    0.11142E+03   -0.38575E+02 13140   0.238E+01    0.210E+01
RMM:   7    -0.697435913575E+03   -0.63431E+01   -0.67650E+01 13790   0.100E+01    0.169E+01
RMM:   8    -0.693488056592E+03    0.39479E+01   -0.11456E+01 15407   0.450E+00    0.117E+01
RMM:   9    -0.698829851943E+03   -0.53418E+01   -0.12069E+01 12750   0.416E+00    0.213E+01
RMM:  10    -0.695624039816E+03    0.32058E+01   -0.20798E+00 14938   0.170E+00    0.181E+01
RMM:  11    -0.692666657687E+03    0.29574E+01   -0.27757E+00 12865   0.133E+00    0.412E+00
RMM:  12    -0.692736589123E+03   -0.69931E-01   -0.10162E+00 13207   0.108E+00    0.403E+00
RMM:  13    -0.692502279428E+03    0.23431E+00   -0.15087E-01 15570   0.485E-01    0.337E+00
RMM:  14    -0.692284039633E+03    0.21824E+00   -0.80491E-02 13221   0.246E-01    0.221E+00
RMM:  15    -0.692274142192E+03    0.98974E-02   -0.14583E-02 14866   0.117E-01    0.213E+00
RMM:  16    -0.692224659356E+03    0.49483E-01   -0.12879E-02 13115   0.101E-01    0.181E+00
RMM:  17    -0.692162212041E+03    0.62447E-01   -0.83196E-02 14136   0.227E-01    0.196E+00
RMM:  18    -0.692162631520E+03   -0.41948E-03   -0.11707E-02 15032   0.110E-01    0.203E+00
RMM:  19    -0.692158998081E+03    0.36334E-02   -0.30093E-03 12622   0.466E-02    0.181E+00
RMM:  20    -0.692155667795E+03    0.33303E-02   -0.78063E-04 11121   0.244E-02    0.152E+00
RMM:  21    -0.692152921230E+03    0.27466E-02   -0.19476E-03 13993   0.468E-02    0.142E+00
RMM:  22    -0.692146686258E+03    0.62350E-02   -0.36953E-03 14871   0.642E-02    0.305E-01
RMM:  23    -0.692147689043E+03   -0.10028E-02   -0.55205E-04 12853   0.344E-02    0.162E-01
RMM:  24    -0.692147764388E+03   -0.75345E-04   -0.23210E-04 11088   0.196E-02    0.130E-01
RMM:  25    -0.692147816251E+03   -0.51863E-04   -0.14320E-04 10520   0.149E-02    0.152E-01
RMM:  26    -0.692147854453E+03   -0.38202E-04   -0.22604E-04 10711   0.164E-02    0.167E-01
RMM:  27    -0.692147693928E+03    0.16053E-03   -0.64022E-05  9487   0.952E-03    0.969E-02
RMM:  28    -0.692147661109E+03    0.32819E-04   -0.33416E-05  6945   0.651E-03    0.597E-02
RMM:  29    -0.692147653363E+03    0.77457E-05   -0.10178E-05  6216   0.500E-03
   1 F= -.69214765E+03 E0= -.69213626E+03  d E =-.692148E+03
       N       E                     dE             d eps       ncg     rms          rms(c)
DAV:   1    -0.649535944478E+03    0.42612E+02   -0.62860E+03 11256   0.121E+02    0.133E+01
RMM:   2    -0.676384988956E+03   -0.26849E+02   -0.30987E+02 13932   0.351E+01    0.888E+00
RMM:   3    -0.665857360144E+03    0.10528E+02    0.23604E+00 15309   0.229E+01    0.819E+00
RMM:   4    -0.662875635859E+03    0.29817E+01   -0.96712E+00 17472   0.102E+01    0.831E+00
RMM:   5    -0.664610146081E+03   -0.17345E+01   -0.21262E+01 17732   0.523E+00    0.622E+00
RMM:   6    -0.666414922116E+03   -0.18048E+01   -0.21409E+01 17087   0.363E+00    0.677E+00
RMM:   7    -0.668115246204E+03   -0.17003E+01   -0.12482E+01 16997   0.237E+00    0.890E+00
RMM:   8    -0.667395232646E+03    0.72001E+00   -0.17932E+00 15549   0.169E+00    0.747E+00
RMM:   9    -0.666343102165E+03    0.10521E+01   -0.27906E+00 16740   0.178E+00    0.492E+00
RMM:  10    -0.665597923965E+03    0.74518E+00   -0.22545E+00 17199   0.186E+00    0.332E+00
RMM:  11    -0.664339717545E+03    0.12582E+01    0.10059E+01 16961   0.114E+00    0.453E+00
RMM:  12    -0.663553409841E+03    0.78631E+00    0.33580E+00 17409   0.708E-01    0.495E+00
RMM:  13    -0.663502425164E+03    0.50985E-01    0.26724E-02 17364   0.381E-01    0.486E+00
RMM:  14    -0.663584238568E+03   -0.81813E-01   -0.62800E-01 17384   0.249E-01    0.489E+00
RMM:  15    -0.663687183487E+03   -0.10294E+00   -0.72322E-01 14798   0.225E-01    0.489E+00
RMM:  16    -0.663936799771E+03   -0.24962E+00   -0.17968E-01 16179   0.411E-01    0.513E+00
RMM:  17    -0.664819768944E+03   -0.88297E+00    0.32225E-01 18026   0.108E+00    0.588E+00
RMM:  18    -0.664425596122E+03    0.39417E+00   -0.14645E-01 16851   0.572E-01    0.546E+00
RMM:  19    -0.663987979681E+03    0.43762E+00    0.35115E-01 17510   0.580E-01    0.533E+00
RMM:  20    -0.663958726529E+03    0.29253E-01    0.25764E-01 17283   0.175E-01    0.523E+00
RMM:  21    -0.663632145844E+03    0.32658E+00    0.99535E-02 17346   0.500E-01    0.496E+00
RMM:  22    -0.662718350559E+03    0.91380E+00   -0.78371E-01 18342   0.203E+00    0.345E+00
RMM:  23    -0.662663711386E+03    0.54639E-01   -0.10746E-01 18282   0.808E-01    0.330E+00
RMM:  24    -0.662656499179E+03    0.72122E-02    0.61813E-02 17413   0.354E-01    0.331E+00
RMM:  25    -0.662629552600E+03    0.26947E-01    0.36063E-01 16262   0.260E-01    0.327E+00
RMM:  26    -0.662616687628E+03    0.12865E-01    0.13529E-01 17052   0.201E-01    0.324E+00
RMM:  27    -0.662869088588E+03   -0.25240E+00    0.91024E-01 18342   0.891E-01    0.370E+00
RMM:  28    -0.662934434109E+03   -0.65346E-01   -0.68000E-02 18113   0.399E-01    0.394E+00
RMM:  29    -0.663026721143E+03   -0.92287E-01   -0.13850E-02 17863   0.315E-01    0.426E+00
RMM:  30    -0.662946424784E+03    0.80296E-01    0.11779E-01 15084   0.212E-01    0.408E+00
RMM:  31    -0.662949829863E+03   -0.34051E-02   -0.10340E-02 17321   0.149E-01    0.411E+00
RMM:  32    -0.662952227575E+03   -0.23977E-02    0.61209E-02 15456   0.111E-01    0.414E+00
RMM:  33    -0.663102335231E+03   -0.15011E+00   -0.93245E-02 18246   0.360E-01    0.451E+00
RMM:  34    -0.663492160662E+03   -0.38983E+00   -0.31961E-01 18330   0.637E-01    0.531E+00
RMM:  35    -0.663769505718E+03   -0.27735E+00   -0.15283E-01 18294   0.435E-01    0.595E+00
RMM:  36    -0.663740955541E+03    0.28550E-01   -0.95579E-03 17779   0.220E-01    0.599E+00
RMM:  37    -0.664058643132E+03   -0.31769E+00   -0.58868E-02 18267   0.396E-01    0.643E+00
RMM:  38    -0.663987461761E+03    0.71181E-01   -0.67596E-03 16835   0.190E-01    0.639E+00
RMM:  39    -0.663965448244E+03    0.22014E-01    0.40534E-02 17221   0.194E-01    0.658E+00
RMM:  40    -0.664130407028E+03   -0.16496E+00   -0.32789E-03 17228   0.177E-01    0.699E+00
RMM:  41    -0.664132051213E+03   -0.16442E-02   -0.52354E-03 16978   0.133E-01    0.701E+00
RMM:  42    -0.664133036323E+03   -0.98511E-03   -0.10094E-02 17259   0.149E-01    0.700E+00
RMM:  43    -0.664054070795E+03    0.78966E-01    0.89466E-04 16368   0.113E-01    0.686E+00
RMM:  44    -0.663733350332E+03    0.32072E+00   -0.36806E-02 18242   0.295E-01    0.637E+00
RMM:  45    -0.662996631340E+03    0.73672E+00    0.22397E+00 18354   0.912E-01    0.460E+00
RMM:  46    -0.662919546378E+03    0.77085E-01    0.43719E-01 18346   0.540E-01    0.414E+00
RMM:  47    -0.662805128300E+03    0.11442E+00   -0.43104E-02 18317   0.433E-01    0.387E+00
RMM:  48    -0.662776208355E+03    0.28920E-01    0.16578E-02 18258   0.284E-01    0.374E+00
RMM:  49    -0.662646886186E+03    0.12932E+00   -0.71103E-02 18289   0.256E-01    0.334E+00
RMM:  50    -0.662281404324E+03    0.36548E+00   -0.35684E-01 18348   0.768E-01    0.214E+00
RMM:  51    -0.662316723991E+03   -0.35320E-01    0.68785E-03 18333   0.497E-01    0.213E+00
RMM:  52    -0.662362510409E+03   -0.45786E-01   -0.54176E-02 18238   0.295E-01    0.234E+00
RMM:  53    -0.662344757459E+03    0.17753E-01    0.62428E-02 18108   0.217E-01    0.217E+00
RMM:  54    -0.662376525979E+03   -0.31769E-01    0.49196E-02 18117   0.210E-01    0.223E+00
RMM:  55    -0.662357236717E+03    0.19289E-01   -0.23523E-03 17603   0.152E-01    0.212E+00
RMM:  56    -0.662321882288E+03    0.35354E-01    0.47840E-03 18284   0.246E-01    0.189E+00
RMM:  57    -0.662280610437E+03    0.41272E-01   -0.69383E-02 18335   0.408E-01    0.219E+00
RMM:  58    -0.662257118260E+03    0.23492E-01    0.64451E-02 18280   0.225E-01    0.215E+00
RMM:  59    -0.662238102769E+03    0.19015E-01   -0.16195E-02 18116   0.203E-01    0.209E+00
RMM:  60    -0.662312107484E+03   -0.74005E-01   -0.47703E-02 18311   0.321E-01
   2 F= -.66231211E+03 E0= -.66230554E+03  d E =0.298355E+02
       N       E                     dE             d eps       ncg     rms          rms(c)
DAV:   1    -0.690180064301E+03   -0.27942E+02   -0.41692E+02 12490   0.170E+01    0.132E+01
RMM:   2    -0.685120536406E+03    0.50595E+01   -0.81168E+01 15005   0.106E+01    0.446E+00
RMM:   3    -0.685112674142E+03    0.78623E-02   -0.29451E+01 14692   0.465E+00    0.223E+00
RMM:   4    -0.685520231920E+03   -0.40756E+00   -0.55236E+00 15723   0.187E+00    0.155E+00
RMM:   5    -0.685558506627E+03   -0.38275E-01   -0.82267E-01 15793   0.877E-01    0.102E+00
RMM:   6    -0.685563708543E+03   -0.52019E-02   -0.21071E-01 15733   0.478E-01    0.382E-01
RMM:   7    -0.685568825879E+03   -0.51173E-02   -0.79225E-02 15412   0.311E-01    0.114E-01
RMM:   8    -0.685572139719E+03   -0.33138E-02   -0.38179E-02 15402   0.220E-01    0.539E-02
RMM:   9    -0.685574642608E+03   -0.25029E-02   -0.29055E-02 13459   0.176E-01    0.223E-02
RMM:  10    -0.685576620210E+03   -0.19776E-02   -0.23684E-02 12368   0.158E-01    0.129E-02
RMM:  11    -0.685578624624E+03   -0.20044E-02   -0.23986E-02 11586   0.147E-01    0.107E-02
RMM:  12    -0.685580346468E+03   -0.17218E-02   -0.21268E-02 11105   0.141E-01    0.101E-02
RMM:  13    -0.685582155745E+03   -0.18093E-02   -0.22181E-02  9957   0.137E-01    0.131E-02
RMM:  14    -0.685583828709E+03   -0.16730E-02   -0.20666E-02 10002   0.135E-01    0.250E-02
RMM:  15    -0.685585620608E+03   -0.17919E-02   -0.21576E-02 10099   0.134E-01    0.402E-02
RMM:  16    -0.685586849422E+03   -0.12288E-02   -0.18532E-02 12493   0.138E-01    0.136E-02
RMM:  17    -0.685588392299E+03   -0.15429E-02   -0.19969E-02 11037   0.133E-01    0.617E-03
RMM:  18    -0.685589778981E+03   -0.13867E-02   -0.18272E-02  9577   0.130E-01    0.103E-02
RMM:  19    -0.685591228039E+03   -0.14491E-02   -0.18959E-02  8893   0.127E-01    0.150E-02
RMM:  20    -0.685592530483E+03   -0.13024E-02   -0.17772E-02  9575   0.128E-01    0.117E-02
RMM:  21    -0.685593891319E+03   -0.13608E-02   -0.18249E-02  8766   0.127E-01    0.137E-02
RMM:  22    -0.685595156855E+03   -0.12655E-02   -0.17345E-02  8699   0.126E-01    0.158E-02
RMM:  23    -0.685596476928E+03   -0.13201E-02   -0.17836E-02  8600   0.126E-01    0.213E-02
RMM:  24    -0.685597712474E+03   -0.12355E-02   -0.17116E-02  6803   0.125E-01    0.246E-02
RMM:  25    -0.685598981989E+03   -0.12695E-02   -0.17495E-02  6457   0.125E-01    0.286E-02
RMM:  26    -0.685600187885E+03   -0.12059E-02   -0.16891E-02  5900   0.125E-01    0.322E-02
RMM:  27    -0.685601422136E+03   -0.12343E-02   -0.17253E-02  6108   0.125E-01    0.360E-02
RMM:  28    -0.685602606626E+03   -0.11845E-02   -0.16740E-02  5801   0.125E-01    0.399E-02
RMM:  29    -0.685603823807E+03   -0.12172E-02   -0.17104E-02  6298   0.126E-01    0.443E-02
RMM:  30    -0.685604988473E+03   -0.11647E-02   -0.16619E-02  6176   0.126E-01    0.484E-02
RMM:  31    -0.685606176525E+03   -0.11881E-02   -0.16999E-02  5646   0.126E-01    0.519E-02
RMM:  32    -0.685607317952E+03   -0.11414E-02   -0.16512E-02  5796   0.126E-01    0.555E-02
RMM:  33    -0.685608490851E+03   -0.11729E-02   -0.16929E-02  5558   0.127E-01    0.590E-02
RMM:  34    -0.685609614165E+03   -0.11233E-02   -0.16460E-02  5556   0.127E-01    0.623E-02
RMM:  35    -0.685610773059E+03   -0.11589E-02   -0.16878E-02  5602   0.127E-01    0.657E-02
RMM:  36    -0.685611883832E+03   -0.11108E-02   -0.16432E-02  5601   0.128E-01    0.690E-02
RMM:  37    -0.685613032222E+03   -0.11484E-02   -0.16877E-02  5552   0.128E-01    0.722E-02
RMM:  38    -0.685614135293E+03   -0.11031E-02   -0.16449E-02  5577   0.128E-01    0.754E-02
RMM:  39    -0.685615273854E+03   -0.11386E-02   -0.16873E-02  5524   0.129E-01    0.786E-02
RMM:  40    -0.685616369366E+03   -0.10955E-02   -0.16475E-02  5489   0.129E-01    0.817E-02
RMM:  41    -0.685617502031E+03   -0.11327E-02   -0.16914E-02  5497   0.129E-01    0.848E-02
RMM:  42    -0.685618592058E+03   -0.10900E-02   -0.16519E-02  5492   0.130E-01    0.878E-02
RMM:  43    -0.685619721127E+03   -0.11291E-02   -0.16972E-02  5492   0.130E-01    0.909E-02
RMM:  44    -0.685620809802E+03   -0.10887E-02   -0.16603E-02  5494   0.131E-01    0.939E-02
RMM:  45    -0.685621936804E+03   -0.11270E-02   -0.17056E-02  5438   0.131E-01    0.969E-02
RMM:  46    -0.685623023014E+03   -0.10862E-02   -0.16681E-02  5413   0.131E-01    0.997E-02
RMM:  47    -0.685624156065E+03   -0.11331E-02   -0.17152E-02  5650   0.132E-01    0.103E-01
RMM:  48    -0.685625244916E+03   -0.10889E-02   -0.16800E-02  5464   0.132E-01    0.106E-01
RMM:  49    -0.685626372395E+03   -0.11275E-02   -0.17269E-02  5382   0.133E-01    0.109E-01
RMM:  50    -0.685627461814E+03   -0.10894E-02   -0.16918E-02  5368   0.133E-01    0.112E-01
RMM:  51    -0.685628591581E+03   -0.11298E-02   -0.17396E-02  5332   0.134E-01    0.114E-01
RMM:  52    -0.685629695734E+03   -0.11042E-02   -0.17061E-02  5825   0.134E-01    0.117E-01
RMM:  53    -0.685630834987E+03   -0.11393E-02   -0.17541E-02  5728   0.135E-01    0.120E-01
RMM:  54    -0.685631933317E+03   -0.10983E-02   -0.17224E-02  5325   0.135E-01    0.123E-01
RMM:  55    -0.685633071446E+03   -0.11381E-02   -0.17695E-02  5259   0.136E-01    0.126E-01
RMM:  56    -0.685634175338E+03   -0.11039E-02   -0.17383E-02  5303   0.136E-01    0.129E-01
RMM:  57    -0.685635389168E+03   -0.12138E-02   -0.17893E-02  8129   0.138E-01    0.134E-01
RMM:  58    -0.685636465035E+03   -0.10759E-02   -0.17580E-02  6153   0.138E-01    0.135E-01
RMM:  59    -0.685637570198E+03   -0.11052E-02   -0.18036E-02  6975   0.138E-01    0.137E-01
RMM:  60    -0.685638632255E+03   -0.10621E-02   -0.17727E-02  7602   0.139E-01
   3 F= -.68563863E+03 E0= -.68563336E+03  d E =0.650902E+01
       N       E                     dE             d eps       ncg     rms          rms(c)
DAV:   1    -0.688397290372E+03   -0.27597E+01   -0.38360E+01 12282   0.544E+00    0.278E+00
RMM:   2    -0.691721385895E+03   -0.33241E+01   -0.39027E+01 13842   0.381E+00    0.124E+00
RMM:   3    -0.692708159300E+03   -0.98677E+00   -0.83744E+00 14231   0.176E+00    0.130E+00
RMM:   4    -0.693702783820E+03   -0.99462E+00   -0.98285E+00 15459   0.840E-01    0.638E-01
RMM:   5    -0.693853666833E+03   -0.15088E+00   -0.19316E+00 14892   0.402E-01    0.451E-01
RMM:   6    -0.693875894644E+03   -0.22228E-01   -0.29173E-01 13840   0.248E-01    0.176E-01
RMM:   7    -0.693886659456E+03   -0.10765E-01   -0.11587E-01 15201   0.133E-01    0.838E-02
RMM:   8    -0.693889678086E+03   -0.30186E-02   -0.32227E-02 13739   0.706E-02    0.378E-02
RMM:   9    -0.693890416593E+03   -0.73851E-03   -0.80992E-03 11512   0.437E-02    0.217E-02
RMM:  10    -0.693890986342E+03   -0.56975E-03   -0.62223E-03 10264   0.326E-02    0.733E-03
RMM:  11    -0.693890981959E+03    0.43829E-05   -0.44572E-04  9475   0.254E-02    0.344E-03
RMM:  12    -0.693891181700E+03   -0.19974E-03   -0.25186E-03  8204   0.218E-02    0.181E-03
RMM:  13    -0.693891128009E+03    0.53691E-04    0.27853E-05  7359   0.194E-02    0.111E-03
RMM:  14    -0.693891238809E+03   -0.11080E-03   -0.16436E-03  6943   0.180E-02    0.781E-04
RMM:  15    -0.693891197552E+03    0.41257E-04   -0.12672E-04  6599   0.171E-02    0.522E-04
RMM:  16    -0.693891273774E+03   -0.76222E-04   -0.13185E-03  5875   0.166E-02    0.396E-04
RMM:  17    -0.693891246314E+03    0.27459E-04   -0.28812E-04  4832   0.162E-02    0.221E-04
RMM:  18    -0.693891305859E+03   -0.59545E-04   -0.11687E-03  4041   0.160E-02    0.217E-04
RMM:  19    -0.693891287775E+03    0.18084E-04   -0.39925E-04  3388   0.158E-02    0.329E-04
RMM:  20    -0.693891338662E+03   -0.50887E-04   -0.10960E-03  3048   0.158E-02    0.653E-04
RMM:  21    -0.693891328005E+03    0.10657E-04   -0.48742E-04  2966   0.157E-02    0.716E-04
RMM:  22    -0.693891372755E+03   -0.44750E-04   -0.10463E-03  2891   0.157E-02    0.912E-04
RMM:  23    -0.693891368545E+03    0.42099E-05   -0.56261E-04  2815   0.157E-02    0.122E-03
RMM:  24    -0.693891409392E+03   -0.40846E-04   -0.10170E-03  2743   0.157E-02    0.144E-03
RMM:  25    -0.693891409947E+03   -0.55523E-06   -0.61980E-04  2688   0.157E-02    0.164E-03
RMM:  26    -0.693891447765E+03   -0.37818E-04   -0.99561E-04  2660   0.157E-02    0.178E-03
RMM:  27    -0.693891454729E+03   -0.69646E-05   -0.69250E-04  2620   0.157E-02    0.189E-03
RMM:  28    -0.693891490063E+03   -0.35334E-04   -0.97769E-04  2588   0.158E-02    0.206E-03
RMM:  29    -0.693891501729E+03   -0.11666E-04   -0.74661E-04  2570   0.158E-02    0.221E-03
RMM:  30    -0.693891530456E+03   -0.28727E-04   -0.91847E-04  2546   0.158E-02    0.236E-03
RMM:  31    -0.693891542715E+03   -0.12258E-04   -0.75777E-04  2536   0.158E-02    0.253E-03
RMM:  32    -0.693891568972E+03   -0.26258E-04   -0.90107E-04  2521   0.158E-02    0.268E-03
RMM:  33    -0.693891586890E+03   -0.17918E-04   -0.82107E-04  2520   0.159E-02    0.284E-03
RMM:  34    -0.693891615429E+03   -0.28539E-04   -0.93017E-04  2680   0.159E-02    0.292E-03
RMM:  35    -0.693891633638E+03   -0.18209E-04   -0.83071E-04  2579   0.159E-02    0.307E-03
RMM:  36    -0.693891660371E+03   -0.26733E-04   -0.91843E-04  2524   0.159E-02    0.322E-03
RMM:  37    -0.693891680983E+03   -0.20612E-04   -0.86095E-04  2612   0.160E-02    0.333E-03
RMM:  38    -0.693891705118E+03   -0.24134E-04   -0.89837E-04  2547   0.160E-02    0.349E-03
RMM:  39    -0.693891728248E+03   -0.23131E-04   -0.89140E-04  2514   0.160E-02    0.364E-03
RMM:  40    -0.693891749891E+03   -0.21643E-04   -0.87955E-04  2581   0.160E-02    0.376E-03
RMM:  41    -0.693891774805E+03   -0.24914E-04   -0.91456E-04  2543   0.161E-02    0.390E-03
RMM:  42    -0.693891794024E+03   -0.19218E-04   -0.86053E-04  2514   0.161E-02    0.405E-03
RMM:  43    -0.693891820484E+03   -0.26460E-04   -0.93525E-04  2540   0.161E-02    0.418E-03
RMM:  44    -0.693891837286E+03   -0.16802E-04   -0.84147E-04  2515   0.161E-02    0.433E-03
RMM:  45    -0.693891864880E+03   -0.27594E-04   -0.95112E-04  2498   0.161E-02    0.449E-03
RMM:  46    -0.693891879370E+03   -0.14491E-04   -0.82323E-04  2498   0.162E-02    0.464E-03
RMM:  47    -0.693891907943E+03   -0.28573E-04   -0.96557E-04  2528   0.162E-02    0.477E-03
RMM:  48    -0.693891920013E+03   -0.12070E-04   -0.80361E-04  2511   0.162E-02    0.491E-03
RMM:  49    -0.693891949868E+03   -0.29854E-04   -0.98247E-04  2507   0.162E-02    0.506E-03
RMM:  50    -0.693891960400E+03   -0.10533E-04   -0.79253E-04  2505   0.162E-02    0.520E-03
RMM:  51    -0.693891989480E+03   -0.29080E-04   -0.97816E-04  2495   0.162E-02    0.535E-03
RMM:  52    -0.693891996462E+03   -0.69819E-05   -0.76009E-04  2492   0.162E-02    0.551E-03
RMM:  53    -0.693892026161E+03   -0.29699E-04   -0.98774E-04  2493   0.163E-02    0.566E-03
RMM:  54    -0.693892032124E+03   -0.59631E-05   -0.75382E-04  2491   0.163E-02    0.581E-03
RMM:  55    -0.693892064185E+03   -0.32061E-04   -0.10148E-03  2493   0.163E-02    0.596E-03
RMM:  56    -0.693892074461E+03   -0.10275E-04   -0.80062E-04  2493   0.163E-02    0.612E-03
RMM:  57    -0.693892093735E+03   -0.19274E-04   -0.88791E-04  2498   0.163E-02    0.625E-03
RMM:  58    -0.693892098536E+03   -0.48018E-05   -0.74460E-04  2498   0.163E-02    0.639E-03
RMM:  59    -0.693892123400E+03   -0.24863E-04   -0.94751E-04  2493   0.163E-02    0.654E-03
RMM:  60    -0.693892129455E+03   -0.60550E-05   -0.76135E-04  2492   0.163E-02
   4 F= -.69389213E+03 E0= -.69388648E+03  d E =-.174448E+01
       N       E                     dE             d eps       ncg     rms          rms(c)
DAV:   1    -0.694594215974E+03   -0.70209E+00   -0.30604E+02 10763   0.256E+01    0.433E+00
RMM:   2    -0.696567753922E+03   -0.19735E+01   -0.22148E+01 13682   0.842E+00    0.130E+00
RMM:   3    -0.696969435984E+03   -0.40168E+00   -0.48907E+00 15414   0.323E+00    0.178E+00
RMM:   4    -0.696996845566E+03   -0.27410E-01   -0.62321E-01 15236   0.115E+00    0.118E+00
RMM:   5    -0.696975888647E+03    0.20957E-01   -0.18332E-01 15098   0.562E-01    0.391E-01
RMM:   6    -0.696976406841E+03   -0.51819E-03   -0.56994E-02 13818   0.278E-01    0.551E-01
RMM:   7    -0.696974828115E+03    0.15787E-02   -0.16400E-02 14611   0.147E-01    0.168E-01
RMM:   8    -0.696974987044E+03   -0.15893E-03   -0.59098E-03 14486   0.828E-02    0.798E-02
RMM:   9    -0.696974953805E+03    0.33239E-04   -0.14338E-03 13575   0.438E-02    0.284E-02
RMM:  10    -0.696974997820E+03   -0.44015E-04   -0.54314E-04 11534   0.232E-02    0.146E-02
RMM:  11    -0.696975012904E+03   -0.15084E-04   -0.18333E-04  9992   0.137E-02    0.809E-03
RMM:  12    -0.696975019836E+03   -0.69315E-05   -0.85422E-05  8752   0.868E-03
   5 F= -.69697502E+03 E0= -.69697284E+03  d E =-.308289E+01
       N       E                     dE             d eps       ncg     rms          rms(c)
DAV:   1    -0.696975390757E+03   -0.37785E-03   -0.89911E-03 11568   0.140E-01    0.165E-02
RMM:   2    -0.696975426654E+03   -0.35898E-04   -0.39195E-04 13383   0.412E-02    0.639E-03
RMM:   3    -0.696975433683E+03   -0.70288E-05   -0.90510E-05 11336   0.159E-02
   6 F= -.69697543E+03 E0= -.69697325E+03  d E =-.308330E+01
       N       E                     dE             d eps       ncg     rms          rms(c)
DAV:   1    -0.696494768380E+03    0.48066E+00   -0.21498E+02 10824   0.216E+01    0.390E+00
RMM:   2    -0.697462696798E+03   -0.96793E+00   -0.10782E+01 13817   0.672E+00    0.131E+00
RMM:   3    -0.697680430381E+03   -0.21773E+00   -0.24495E+00 15295   0.253E+00    0.131E+00
RMM:   4    -0.697701822869E+03   -0.21392E-01   -0.32815E-01 15554   0.900E-01    0.109E+00
RMM:   5    -0.697691596888E+03    0.10226E-01   -0.60067E-02 15166   0.374E-01    0.410E-01
RMM:   6    -0.697690679293E+03    0.91760E-03   -0.29945E-02 13046   0.252E-01    0.309E-01
RMM:   7    -0.697689887033E+03    0.79226E-03   -0.77499E-03 15037   0.116E-01    0.747E-02
RMM:   8    -0.697690041312E+03   -0.15428E-03   -0.22850E-03 14155   0.487E-02    0.481E-02
RMM:   9    -0.697690033113E+03    0.81992E-05   -0.41560E-04 11278   0.257E-02    0.172E-02
RMM:  10    -0.697690045772E+03   -0.12660E-04   -0.16911E-04  9819   0.139E-02    0.944E-03
RMM:  11    -0.697690048760E+03   -0.29881E-05   -0.44840E-05  8527   0.945E-03
   7 F= -.69769005E+03 E0= -.69768813E+03  d E =-.714615E+00
       N       E                     dE             d eps       ncg     rms          rms(c)
DAV:   1    -0.697562534723E+03    0.12751E+00   -0.39996E+01 11120   0.917E+00    0.130E+00
RMM:   2    -0.697723287214E+03   -0.16075E+00   -0.18000E+00 13710   0.268E+00    0.516E-01
RMM:   3    -0.697760850672E+03   -0.37563E-01   -0.41844E-01 15270   0.101E+00    0.404E-01
RMM:   4    -0.697764031209E+03   -0.31805E-02   -0.54151E-02 15539   0.361E-01    0.309E-01
RMM:   5    -0.697762433846E+03    0.15974E-02   -0.11731E-02 14851   0.162E-01    0.889E-02
RMM:   6    -0.697762531759E+03   -0.97913E-04   -0.37615E-03 13650   0.866E-02    0.673E-02
RMM:   7    -0.697762537431E+03   -0.56718E-05   -0.12648E-03 14566   0.448E-02    0.220E-02
RMM:   8    -0.697762559681E+03   -0.22250E-04   -0.29018E-04 11242   0.198E-02    0.161E-02
RMM:   9    -0.697762559619E+03    0.61897E-07   -0.79786E-05  9639   0.119E-02
   8 F= -.69776256E+03 E0= -.69776072E+03  d E =-.787126E+00
       N       E                     dE             d eps       ncg     rms          rms(c)
DAV:   1    -0.697075627457E+03    0.68693E+00   -0.24157E+02 10487   0.221E+01    0.490E+00
RMM:   2    -0.698074426102E+03   -0.99880E+00   -0.11896E+01 13634   0.652E+00    0.155E+00
RMM:   3    -0.698291729001E+03   -0.21730E+00   -0.25496E+00 15452   0.250E+00    0.156E+00
RMM:   4    -0.698314139975E+03   -0.22411E-01   -0.34028E-01 15563   0.889E-01    0.128E+00
RMM:   5    -0.698303581760E+03    0.10558E-01   -0.71811E-02 14946   0.399E-01    0.469E-01
RMM:   6    -0.698303718157E+03   -0.13640E-03   -0.33208E-02 13518   0.234E-01    0.413E-01
RMM:   7    -0.698302186360E+03    0.15318E-02   -0.76003E-03 15068   0.115E-01    0.166E-01
RMM:   8    -0.698302169583E+03    0.16778E-04   -0.31551E-03 13995   0.591E-02    0.463E-02
RMM:   9    -0.698302208493E+03   -0.38910E-04   -0.55307E-04 12853   0.332E-02    0.196E-02
RMM:  10    -0.698302229372E+03   -0.20879E-04   -0.24494E-04 10620   0.177E-02    0.171E-02
RMM:  11    -0.698302230208E+03   -0.83647E-06   -0.58147E-05  9406   0.111E-02
   9 F= -.69830223E+03 E0= -.69829757E+03  d E =-.539671E+00
       N       E                     dE             d eps       ncg     rms          rms(c)
DAV:   1    -0.698118959893E+03    0.18327E+00   -0.55874E+01 10928   0.107E+01    0.180E+00
RMM:   2    -0.698319502778E+03   -0.20054E+00   -0.24904E+00 13570   0.302E+00    0.674E-01
RMM:   3    -0.698364407904E+03   -0.44905E-01   -0.54620E-01 15442   0.116E+00    0.494E-01
RMM:   4    -0.698366785285E+03   -0.23774E-02   -0.69831E-02 15558   0.419E-01    0.314E-01
RMM:   5    -0.698365673148E+03    0.11121E-02   -0.18415E-02 14888   0.199E-01    0.878E-02
RMM:   6    -0.698365944596E+03   -0.27145E-03   -0.45522E-03 14695   0.988E-02    0.539E-02
RMM:   7    -0.698366033289E+03   -0.88692E-04   -0.13833E-03 14888   0.467E-02    0.304E-02
RMM:   8    -0.698366053849E+03   -0.20560E-04   -0.34950E-04 11042   0.221E-02    0.141E-02
RMM:   9    -0.698366060363E+03   -0.65141E-05   -0.11661E-04 10122   0.128E-02    0.403E-03
RMM:  10    -0.698366063722E+03   -0.33584E-05   -0.40299E-05  8942   0.773E-03
  10 F= -.69836606E+03 E0= -.69836047E+03  d E =-.603504E+00
       N       E                     dE             d eps       ncg     rms          rms(c)
DAV:   1    -0.697958203790E+03    0.40786E+00   -0.16124E+02 10416   0.178E+01    0.488E+00
RMM:   2    -0.698639980715E+03   -0.68178E+00   -0.76641E+00 13629   0.505E+00    0.118E+00
RMM:   3    -0.698768616414E+03   -0.12864E+00   -0.15123E+00 15437   0.192E+00    0.935E-01
RMM:   4    -0.698774756888E+03   -0.61405E-02   -0.19141E-01 15374   0.674E-01    0.529E-01
RMM:   5    -0.698774594245E+03    0.16264E-03   -0.44514E-02 15449   0.298E-01    0.129E-01
RMM:   6    -0.698775466029E+03   -0.87178E-03   -0.11015E-02 15278   0.141E-01    0.669E-02
RMM:   7    -0.698775720779E+03   -0.25475E-03   -0.33241E-03 15339   0.697E-02    0.265E-02
RMM:   8    -0.698775797149E+03   -0.76369E-04   -0.96053E-04 12846   0.352E-02    0.102E-02
RMM:   9    -0.698775822186E+03   -0.25037E-04   -0.30657E-04 10640   0.196E-02    0.486E-03
RMM:  10    -0.698775831263E+03   -0.90774E-05   -0.10555E-04  9924   0.115E-02    0.285E-03
RMM:  11    -0.698775834060E+03   -0.27970E-05   -0.36436E-05  8759   0.752E-03
  11 F= -.69877583E+03 E0= -.69877084E+03  d E =-.409770E+00
       N       E                     dE             d eps       ncg     rms          rms(c)
DAV:   1    -0.698714500962E+03    0.61330E-01   -0.23093E+01 10848   0.676E+00    0.163E+00
RMM:   2    -0.698803059402E+03   -0.88558E-01   -0.99447E-01 13236   0.182E+00    0.576E-01
RMM:   3    -0.698819263584E+03   -0.16204E-01   -0.20639E-01 15407   0.706E-01    0.284E-01
RMM:   4    -0.698820190418E+03   -0.92683E-03   -0.25477E-02 15336   0.247E-01    0.133E-01
RMM:   5    -0.698820308978E+03   -0.11856E-03   -0.58297E-03 15541   0.109E-01    0.323E-02
RMM:   6    -0.698820430150E+03   -0.12117E-03   -0.14142E-03 15158   0.506E-02    0.225E-02
RMM:   7    -0.698820460750E+03   -0.30601E-04   -0.40510E-04 11784   0.249E-02    0.810E-03
RMM:   8    -0.698820471279E+03   -0.10528E-04   -0.12937E-04 10214   0.144E-02    0.277E-03
RMM:   9    -0.698820474751E+03   -0.34717E-05   -0.44666E-05  9220   0.890E-03
  12 F= -.69882047E+03 E0= -.69881490E+03  d E =-.454411E+00
       N       E                     dE             d eps       ncg     rms          rms(c)
DAV:   1    -0.698743081317E+03    0.77390E-01   -0.75720E+01 10488   0.129E+01    0.250E+00
RMM:   2    -0.699054653625E+03   -0.31157E+00   -0.33047E+00 13645   0.362E+00    0.771E-01
RMM:   3    -0.699109747953E+03   -0.55094E-01   -0.65537E-01 15456   0.134E+00    0.502E-01
RMM:   4    -0.699111519427E+03   -0.17715E-02   -0.77193E-02 15528   0.462E-01    0.266E-01
RMM:   5    -0.699111095334E+03    0.42409E-03   -0.17834E-02 15075   0.204E-01    0.651E-02
RMM:   6    -0.699111370858E+03   -0.27552E-03   -0.37406E-03 15643   0.904E-02    0.402E-02
RMM:   7    -0.699111444313E+03   -0.73455E-04   -0.10451E-03 14852   0.422E-02    0.183E-02
RMM:   8    -0.699111468344E+03   -0.24031E-04   -0.31194E-04 11728   0.228E-02    0.526E-03
RMM:   9    -0.699111477550E+03   -0.92059E-05   -0.10730E-04 10027   0.130E-02    0.330E-03
RMM:  10    -0.699111480274E+03   -0.27245E-05   -0.35658E-05  8865   0.821E-03
  13 F= -.69911148E+03 E0= -.69910536E+03  d E =-.291006E+00
       N       E                     dE             d eps       ncg     rms          rms(c)
DAV:   1    -0.699085565115E+03    0.25912E-01   -0.11429E+01 11096   0.498E+00    0.967E-01
RMM:   2    -0.699131021880E+03   -0.45457E-01   -0.48284E-01 13472   0.137E+00    0.341E-01
RMM:   3    -0.699138753343E+03   -0.77315E-02   -0.95117E-02 15444   0.510E-01    0.214E-01
RMM:   4    -0.699138941213E+03   -0.18787E-03   -0.11208E-02 15483   0.177E-01    0.107E-01
RMM:   5    -0.699138926755E+03    0.14458E-04   -0.26661E-03 15065   0.785E-02    0.263E-02
RMM:   6    -0.699138961802E+03   -0.35047E-04   -0.55054E-04 14384   0.344E-02    0.171E-02
RMM:   7    -0.699138972666E+03   -0.10864E-04   -0.16279E-04 10698   0.172E-02    0.635E-03
RMM:   8    -0.699138975718E+03   -0.30521E-05   -0.48721E-05  9440   0.107E-02
  14 F= -.69913898E+03 E0= -.69913274E+03  d E =-.318501E+00
       N       E                     dE             d eps       ncg     rms          rms(c)
DAV:   1    -0.699123480649E+03    0.15492E-01   -0.47523E+01 10520   0.102E+01    0.117E+00
RMM:   2    -0.699284074324E+03   -0.16059E+00   -0.17291E+00 13372   0.277E+00    0.435E-01
RMM:   3    -0.699319413274E+03   -0.35339E-01   -0.39296E-01 15285   0.106E+00    0.419E-01
RMM:   4    -0.699322147513E+03   -0.27342E-02   -0.45630E-02 15509   0.350E-01    0.327E-01
RMM:   5    -0.699320778138E+03    0.13694E-02   -0.12172E-02 13818   0.170E-01    0.887E-02
RMM:   6    -0.699320989325E+03   -0.21119E-03   -0.29830E-03 15413   0.811E-02    0.664E-02
RMM:   7    -0.699320967816E+03    0.21509E-04   -0.75348E-04 13747   0.348E-02    0.213E-02
RMM:   8    -0.699320990378E+03   -0.22562E-04   -0.21740E-04 11608   0.207E-02    0.158E-02
RMM:   9    -0.699320990616E+03   -0.23872E-06   -0.63076E-05  9727   0.110E-02
  15 F= -.69932099E+03 E0= -.69931534E+03  d E =-.182015E+00
       N       E                     dE             d eps       ncg     rms          rms(c)
DAV:   1    -0.699179831348E+03    0.14116E+00   -0.50109E+01 10696   0.105E+01    0.118E+00
RMM:   2    -0.699350777569E+03   -0.17095E+00   -0.18351E+00 13373   0.286E+00    0.437E-01
RMM:   3    -0.699387882590E+03   -0.37105E-01   -0.41197E-01 15272   0.109E+00    0.428E-01
RMM:   4    -0.699390636393E+03   -0.27538E-02   -0.47831E-02 15506   0.361E-01    0.324E-01
RMM:   5    -0.699389343295E+03    0.12931E-02   -0.12644E-02 13949   0.174E-01    0.890E-02
RMM:   6    -0.699389562841E+03   -0.21955E-03   -0.30907E-03 15442   0.824E-02    0.647E-02
RMM:   7    -0.699389550765E+03    0.12076E-04   -0.77115E-04 14044   0.351E-02    0.216E-02
RMM:   8    -0.699389573311E+03   -0.22546E-04   -0.21526E-04 11312   0.197E-02    0.157E-02
RMM:   9    -0.699389573956E+03   -0.64496E-06   -0.64524E-05  9757   0.110E-02
  16 F= -.69938957E+03 E0= -.69938418E+03  d E =-.250598E+00
       N       E                     dE             d eps       ncg     rms          rms(c)
DAV:   1    -0.699249150039E+03    0.14042E+00   -0.66363E+01 10375   0.118E+01    0.150E+00
RMM:   2    -0.699480770209E+03   -0.23162E+00   -0.24878E+00 13293   0.314E+00    0.475E-01
RMM:   3    -0.699525746199E+03   -0.44976E-01   -0.49788E-01 15334   0.118E+00    0.453E-01
RMM:   4    -0.699528382481E+03   -0.26363E-02   -0.56851E-02 15428   0.390E-01    0.317E-01
RMM:   5    -0.699527198729E+03    0.11838E-02   -0.15102E-02 14227   0.187E-01    0.918E-02
RMM:   6    -0.699527388556E+03   -0.18983E-03   -0.33620E-03 15345   0.865E-02    0.531E-02
RMM:   7    -0.699527439794E+03   -0.51239E-04   -0.93565E-04 14422   0.372E-02    0.173E-02
RMM:   8    -0.699527463841E+03   -0.24046E-04   -0.24502E-04 10958   0.197E-02    0.114E-02
RMM:   9    -0.699527469272E+03   -0.54310E-05   -0.85041E-05  9541   0.107E-02
  17 F= -.69952747E+03 E0= -.69952256E+03  d E =-.137895E+00
       N       E                     dE             d eps       ncg     rms          rms(c)
DAV:   1    -0.699355015462E+03    0.17245E+00   -0.50914E+01 10440   0.103E+01    0.130E+00
RMM:   2    -0.699533452090E+03   -0.17844E+00   -0.18816E+00 13244   0.274E+00    0.409E-01
RMM:   3    -0.699567695140E+03   -0.34243E-01   -0.37665E-01 15325   0.103E+00    0.392E-01
RMM:   4    -0.699569142256E+03   -0.14471E-02   -0.42217E-02 15335   0.340E-01    0.224E-01
RMM:   5    -0.699568843604E+03    0.29865E-03   -0.10212E-02 14713   0.155E-01    0.642E-02
RMM:   6    -0.699569017900E+03   -0.17430E-03   -0.22890E-03 15526   0.706E-02    0.396E-02
RMM:   7    -0.699569065263E+03   -0.47363E-04   -0.63811E-04 14193   0.316E-02    0.144E-02
RMM:   8    -0.699569080245E+03   -0.14982E-04   -0.17336E-04 10203   0.168E-02    0.893E-03
RMM:   9    -0.699569084141E+03   -0.38960E-05   -0.61360E-05  9299   0.105E-02
  18 F= -.69956908E+03 E0= -.69956415E+03  d E =-.179510E+00
       N       E                     dE             d eps       ncg     rms          rms(c)
DAV:   1    -0.699520448208E+03    0.48632E-01   -0.38753E+01 10343   0.871E+00    0.137E+00
RMM:   2    -0.699645732384E+03   -0.12528E+00   -0.13438E+00 12729   0.222E+00    0.405E-01
RMM:   3    -0.699673303035E+03   -0.27571E-01   -0.30679E-01 15194   0.884E-01    0.353E-01
RMM:   4    -0.699674591151E+03   -0.12881E-02   -0.32990E-02 15190   0.285E-01    0.189E-01
RMM:   5    -0.699674522774E+03    0.68377E-04   -0.75989E-03 14983   0.128E-01    0.517E-02
RMM:   6    -0.699674670068E+03   -0.14729E-03   -0.18177E-03 15201   0.581E-02    0.310E-02
RMM:   7    -0.699674710976E+03   -0.40908E-04   -0.50894E-04 13083   0.277E-02    0.125E-02
RMM:   8    -0.699674723619E+03   -0.12644E-04   -0.15414E-04 10029   0.154E-02    0.610E-03
RMM:   9    -0.699674727319E+03   -0.36999E-05   -0.51120E-05  9039   0.949E-03
  19 F= -.69967473E+03 E0= -.69967010E+03  d E =-.105643E+00
       N       E                     dE             d eps       ncg     rms          rms(c)
DAV:   1    -0.698130875492E+03    0.15438E+01   -0.34766E+02 10152   0.262E+01    0.663E+00
RMM:   2    -0.699438588969E+03   -0.13077E+01   -0.13932E+01 12886   0.701E+00    0.151E+00
RMM:   3    -0.699684152649E+03   -0.24556E+00   -0.29106E+00 15180   0.277E+00    0.122E+00
RMM:   4    -0.699689403085E+03   -0.52504E-02   -0.32936E-01 15099   0.911E-01    0.457E-01
RMM:   5    -0.699690961585E+03   -0.15585E-02   -0.64678E-02 15560   0.389E-01    0.151E-01
RMM:   6    -0.699692211273E+03   -0.12497E-02   -0.16307E-02 15466   0.173E-01    0.754E-02
RMM:   7    -0.699692530028E+03   -0.31875E-03   -0.42429E-03 14947   0.836E-02    0.286E-02
RMM:   8    -0.699692654366E+03   -0.12434E-03   -0.14385E-03 14420   0.431E-02    0.983E-03
RMM:   9    -0.699692694356E+03   -0.39990E-04   -0.42979E-04 10787   0.212E-02    0.550E-03
RMM:  10    -0.699692708087E+03   -0.13731E-04   -0.15370E-04  9765   0.133E-02    0.179E-03
RMM:  11    -0.699692712929E+03   -0.48419E-05   -0.54451E-05  8705   0.823E-03
  20 F= -.69969271E+03 E0= -.69968926E+03  d E =-.123629E+00
       N       E                     dE             d eps       ncg     rms          rms(c)
DAV:   1    -0.699298278722E+03    0.39443E+00   -0.11063E+02 10074   0.147E+01    0.276E+00
RMM:   2    -0.699685564110E+03   -0.38729E+00   -0.42657E+00 12841   0.386E+00    0.970E-01
RMM:   3    -0.699758859754E+03   -0.73296E-01   -0.89411E-01 15264   0.153E+00    0.689E-01
RMM:   4    -0.699758957155E+03   -0.97402E-04   -0.91574E-02 15063   0.496E-01    0.207E-01
RMM:   5    -0.699759841532E+03   -0.88438E-03   -0.19011E-02 15484   0.216E-01    0.664E-02
RMM:   6    -0.699760232918E+03   -0.39139E-03   -0.44920E-03 15490   0.935E-02    0.420E-02
RMM:   7    -0.699760326729E+03   -0.93811E-04   -0.12069E-03 13427   0.447E-02    0.140E-02
RMM:   8    -0.699760361727E+03   -0.34998E-04   -0.40829E-04 12677   0.247E-02    0.580E-03
RMM:   9    -0.699760373058E+03   -0.11330E-04   -0.12888E-04  9666   0.130E-02    0.316E-03
RMM:  10    -0.699760376517E+03   -0.34597E-05   -0.43413E-05  8654   0.865E-03
  21 F= -.69976038E+03 E0= -.69975702E+03  d E =-.191292E+00
       N       E                     dE             d eps       ncg     rms          rms(c)
DAV:   1    -0.699733916969E+03    0.26456E-01   -0.84603E+00 10280   0.406E+00    0.802E-01
RMM:   2    -0.699760176719E+03   -0.26260E-01   -0.28743E-01 12548   0.102E+00    0.238E-01
RMM:   3    -0.699765591780E+03   -0.54151E-02   -0.65164E-02 15169   0.412E-01    0.161E-01
RMM:   4    -0.699765717536E+03   -0.12576E-03   -0.67176E-03 15052   0.132E-01    0.628E-02
RMM:   5    -0.699765752155E+03   -0.34620E-04   -0.14520E-03 15189   0.570E-02    0.166E-02
RMM:   6    -0.699765779607E+03   -0.27451E-04   -0.33809E-04 12927   0.251E-02    0.107E-02
RMM:   7    -0.699765786782E+03   -0.71756E-05   -0.97303E-05  9717   0.131E-02
  22 F= -.69976579E+03 E0= -.69976247E+03  d E =-.196703E+00
       N       E                     dE             d eps       ncg     rms          rms(c)
DAV:   1    -0.699727117054E+03    0.38663E-01   -0.25777E+01 10640   0.740E+00    0.150E+00
RMM:   2    -0.699829892619E+03   -0.10278E+00   -0.10887E+00 13481   0.205E+00    0.492E-01
RMM:   3    -0.699847791791E+03   -0.17899E-01   -0.21712E-01 15386   0.763E-01    0.292E-01
RMM:   4    -0.699848067937E+03   -0.27615E-03   -0.25945E-02 15283   0.274E-01    0.752E-02
RMM:   5    -0.699848506170E+03   -0.43823E-03   -0.62455E-03 15679   0.121E-01    0.316E-02
RMM:   6    -0.699848631192E+03   -0.12502E-03   -0.13889E-03 15153   0.541E-02    0.228E-02
RMM:   7    -0.699848662553E+03   -0.31361E-04   -0.41611E-04 12575   0.298E-02    0.652E-03
RMM:   8    -0.699848672474E+03   -0.99214E-05   -0.12541E-04 10501   0.155E-02    0.345E-03
RMM:   9    -0.699848676553E+03   -0.40792E-05   -0.46207E-05  8746   0.965E-03
  23 F= -.69984868E+03 E0= -.69984565E+03  d E =-.828898E-01
       N       E                     dE             d eps       ncg     rms          rms(c)
DAV:   1    -0.699846848409E+03    0.18241E-02   -0.10191E+00 11366   0.147E+00    0.301E-01
RMM:   2    -0.699850852378E+03   -0.40040E-02   -0.42710E-02 13445   0.400E-01    0.104E-01
RMM:   3    -0.699851518356E+03   -0.66598E-03   -0.82430E-03 15359   0.148E-01    0.604E-02
RMM:   4    -0.699851525881E+03   -0.75250E-05   -0.99411E-04 14942   0.540E-02    0.160E-02
RMM:   5    -0.699851542895E+03   -0.17014E-04   -0.24887E-04 12920   0.243E-02    0.640E-03
RMM:   6    -0.699851546744E+03   -0.38489E-05   -0.52424E-05  9692   0.123E-02
  24 F= -.69985155E+03 E0= -.69984858E+03  d E =-.857600E-01
       N       E                     dE             d eps       ncg     rms          rms(c)
DAV:   1    -0.699859683978E+03   -0.81411E-02   -0.81811E+00 10888   0.437E+00    0.459E-01
RMM:   2    -0.699888145576E+03   -0.28462E-01   -0.30235E-01 13492   0.121E+00    0.171E-01
RMM:   3    -0.699894210487E+03   -0.60649E-02   -0.68029E-02 15269   0.452E-01    0.157E-01
RMM:   4    -0.699894340363E+03   -0.12988E-03   -0.75497E-03 15369   0.152E-01    0.701E-02
RMM:   5    -0.699894291381E+03    0.48982E-04   -0.17781E-03 14907   0.687E-02    0.284E-02
RMM:   6    -0.699894317565E+03   -0.26185E-04   -0.39029E-04 14708   0.305E-02    0.182E-02
RMM:   7    -0.699894321054E+03   -0.34881E-05   -0.11132E-04 10852   0.156E-02    0.852E-03
RMM:   8    -0.699894321593E+03   -0.53953E-06   -0.29330E-05  8448   0.949E-03
  25 F= -.69989432E+03 E0= -.69989156E+03  d E =-.427748E-01
       N       E                     dE             d eps       ncg     rms          rms(c)
DAV:   1    -0.699879997179E+03    0.14324E-01   -0.73175E+00 11104   0.413E+00    0.434E-01
RMM:   2    -0.699905400455E+03   -0.25403E-01   -0.26987E-01 13501   0.114E+00    0.161E-01
RMM:   3    -0.699910784405E+03   -0.53839E-02   -0.60382E-02 15278   0.426E-01    0.149E-01
RMM:   4    -0.699910906379E+03   -0.12197E-03   -0.67231E-03 15380   0.143E-01    0.670E-02
RMM:   5    -0.699910859759E+03    0.46620E-04   -0.15945E-03 14869   0.646E-02    0.273E-02
RMM:   6    -0.699910882661E+03   -0.22901E-04   -0.34863E-04 14545   0.288E-02    0.174E-02
RMM:   7    -0.699910885923E+03   -0.32623E-05   -0.10127E-04 10270   0.148E-02    0.829E-03
RMM:   8    -0.699910886334E+03   -0.41130E-06   -0.26488E-05  8295   0.921E-03
  26 F= -.69991089E+03 E0= -.69990833E+03  d E =-.593396E-01
       N       E                     dE             d eps       ncg     rms          rms(c)
DAV:   1    -0.699900764283E+03    0.10122E-01   -0.84167E+00 10640   0.438E+00    0.512E-01
RMM:   2    -0.699930011364E+03   -0.29247E-01   -0.30952E-01 13429   0.119E+00    0.170E-01
RMM:   3    -0.699936212596E+03   -0.62012E-02   -0.67681E-02 15287   0.448E-01    0.154E-01
RMM:   4    -0.699936439306E+03   -0.22671E-03   -0.74854E-03 15396   0.151E-01    0.746E-02
RMM:   5    -0.699936425827E+03    0.13479E-04   -0.17678E-03 15102   0.667E-02    0.249E-02
RMM:   6    -0.699936453588E+03   -0.27761E-04   -0.36969E-04 14612   0.297E-02    0.156E-02
RMM:   7    -0.699936460599E+03   -0.70111E-05   -0.11144E-04 10468   0.154E-02    0.706E-03
RMM:   8    -0.699936461952E+03   -0.13527E-05   -0.29882E-05  8453   0.962E-03
  27 F= -.69993646E+03 E0= -.69993385E+03  d E =-.255756E-01
       N       E                     dE             d eps       ncg     rms          rms(c)
DAV:   1    -0.699929951320E+03    0.65093E-02   -0.27775E+00 11264   0.252E+00    0.294E-01
RMM:   2    -0.699939476324E+03   -0.95250E-02   -0.10080E-01 13412   0.677E-01    0.971E-02
RMM:   3    -0.699941466486E+03   -0.19902E-02   -0.21744E-02 15287   0.254E-01    0.880E-02
RMM:   4    -0.699941539474E+03   -0.72988E-04   -0.24184E-03 15241   0.856E-02    0.427E-02
RMM:   5    -0.699941535260E+03    0.42137E-05   -0.57832E-04 14646   0.382E-02    0.144E-02
RMM:   6    -0.699941543824E+03   -0.85643E-05   -0.12139E-04 12102   0.176E-02    0.895E-03
RMM:   7    -0.699941546078E+03   -0.22533E-05   -0.36543E-05  8823   0.955E-03
  28 F= -.69994155E+03 E0= -.69993890E+03  d E =-.306597E-01
       N       E                     dE             d eps       ncg     rms          rms(c)
DAV:   1    -0.699931664192E+03    0.98796E-02   -0.48852E+00 10672   0.336E+00    0.333E-01
RMM:   2    -0.699948293345E+03   -0.16629E-01   -0.17404E-01 13334   0.916E-01    0.108E-01
RMM:   3    -0.699952209237E+03   -0.39159E-02   -0.41613E-02 15200   0.353E-01    0.112E-01
RMM:   4    -0.699952439490E+03   -0.23025E-03   -0.44996E-03 15389   0.116E-01    0.697E-02
RMM:   5    -0.699952371781E+03    0.67709E-04   -0.10748E-03 14402   0.523E-02    0.267E-02
RMM:   6    -0.699952386075E+03   -0.14294E-04   -0.23588E-04 13596   0.244E-02    0.195E-02
RMM:   7    -0.699952386326E+03   -0.25055E-06   -0.77633E-05  9980   0.131E-02
  29 F= -.69995239E+03 E0= -.69995003E+03  d E =-.108402E-01
       N       E                     dE             d eps       ncg     rms          rms(c)
DAV:   1    -0.699951017866E+03    0.13682E-02   -0.68396E-01 11392   0.126E+00    0.120E-01
RMM:   2    -0.699953325192E+03   -0.23073E-02   -0.24135E-02 13328   0.340E-01    0.401E-02
RMM:   3    -0.699953864990E+03   -0.53980E-03   -0.57696E-03 15193   0.131E-01    0.429E-02
RMM:   4    -0.699953895193E+03   -0.30203E-04   -0.62051E-04 14916   0.432E-02    0.267E-02
RMM:   5    -0.699953886226E+03    0.89664E-05   -0.17173E-04 12464   0.214E-02    0.115E-02
RMM:   6    -0.699953886951E+03   -0.72486E-06   -0.30055E-05  8662   0.977E-03
  30 F= -.69995389E+03 E0= -.69995164E+03  d E =-.123409E-01
       N       E                     dE             d eps       ncg     rms          rms(c)
DAV:   1    -0.699941090668E+03    0.12796E-01   -0.27355E+00 10664   0.251E+00    0.247E-01
RMM:   2    -0.699950428534E+03   -0.93379E-02   -0.97715E-02 13341   0.684E-01    0.805E-02
RMM:   3    -0.699952593520E+03   -0.21650E-02   -0.23052E-02 15220   0.263E-01    0.852E-02
RMM:   4    -0.699952714510E+03   -0.12099E-03   -0.24914E-03 15267   0.868E-02    0.527E-02
RMM:   5    -0.699952676476E+03    0.38034E-04   -0.62338E-04 14302   0.400E-02    0.205E-02
RMM:   6    -0.699952683641E+03   -0.71651E-05   -0.12978E-04 12206   0.185E-02    0.148E-02
RMM:   7    -0.699952683823E+03   -0.18220E-06   -0.45496E-05  9172   0.108E-02
  31 F= -.69995268E+03 E0= -.69995064E+03  d E =-.111377E-01
       N       E                     dE             d eps       ncg     rms          rms(c)
DAV:   1    -0.699947323453E+03    0.53602E-02   -0.16239E+00 10584   0.194E+00    0.195E-01
RMM:   2    -0.699952801250E+03   -0.54778E-02   -0.57346E-02 13331   0.522E-01    0.623E-02
RMM:   3    -0.699954058939E+03   -0.12577E-02   -0.13348E-02 15199   0.201E-01    0.639E-02
RMM:   4    -0.699954129833E+03   -0.70895E-04   -0.14384E-03 15187   0.664E-02    0.390E-02
RMM:   5    -0.699954109576E+03    0.20257E-04   -0.35310E-04 13691   0.303E-02    0.154E-02
RMM:   6    -0.699954112753E+03   -0.31776E-05   -0.66922E-05 10333   0.140E-02
  32 F= -.69995411E+03 E0= -.69995191E+03  d E =-.125667E-01
       N       E                     dE             d eps       ncg     rms          rms(c)
DAV:   1    -0.699940789465E+03    0.13320E-01   -0.51162E+00 10736   0.339E+00    0.358E-01
RMM:   2    -0.699956789865E+03   -0.16000E-01   -0.16863E-01 13021   0.885E-01    0.112E-01
RMM:   3    -0.699960733584E+03   -0.39437E-02   -0.41738E-02 15124   0.350E-01    0.111E-01
RMM:   4    -0.699961009897E+03   -0.27631E-03   -0.46608E-03 15391   0.115E-01    0.740E-02
RMM:   5    -0.699960948043E+03    0.61854E-04   -0.10972E-03 14312   0.511E-02    0.286E-02
RMM:   6    -0.699960960813E+03   -0.12770E-04   -0.23831E-04 13379   0.240E-02    0.193E-02
RMM:   7    -0.699960961922E+03   -0.11088E-05   -0.79319E-05  9830   0.128E-02
  33 F= -.69996096E+03 E0= -.69995874E+03  d E =-.684917E-02
       N       E                     dE             d eps       ncg     rms          rms(c)
DAV:   1    -0.699959712898E+03    0.12479E-02   -0.48470E-01 11400   0.104E+00    0.105E-01
RMM:   2    -0.699961247269E+03   -0.15344E-02   -0.16136E-02 13038   0.272E-01    0.339E-02
RMM:   3    -0.699961607860E+03   -0.36059E-03   -0.38489E-03 15058   0.107E-01    0.352E-02
RMM:   4    -0.699961632022E+03   -0.24162E-04   -0.44942E-04 14543   0.355E-02    0.227E-02
RMM:   5    -0.699961627763E+03    0.42588E-05   -0.12195E-04 11273   0.177E-02    0.958E-03
RMM:   6    -0.699961628317E+03   -0.55375E-06   -0.25190E-05  8066   0.879E-03
  34 F= -.69996163E+03 E0= -.69995940E+03  d E =-.751556E-02
       N       E                     dE             d eps       ncg     rms          rms(c)
DAV:   1    -0.699954429107E+03    0.71987E-02   -0.30008E+00 10807   0.258E+00    0.277E-01
RMM:   2    -0.699964104615E+03   -0.96755E-02   -0.10224E-01 13047   0.668E-01    0.848E-02
RMM:   3    -0.699966233302E+03   -0.21287E-02   -0.22596E-02 15115   0.259E-01    0.886E-02
RMM:   4    -0.699966374904E+03   -0.14160E-03   -0.26380E-03 15257   0.864E-02    0.616E-02
RMM:   5    -0.699966329101E+03    0.45803E-04   -0.65008E-04 13771   0.400E-02    0.180E-02
RMM:   6    -0.699966339866E+03   -0.10765E-04   -0.15108E-04 12338   0.196E-02    0.142E-02
RMM:   7    -0.699966340634E+03   -0.76879E-06   -0.46251E-05  9013   0.111E-02
  35 F= -.69996634E+03 E0= -.69996421E+03  d E =-.471232E-02
       N       E                     dE             d eps       ncg     rms          rms(c)
DAV:   1    -0.699965962290E+03    0.37758E-03   -0.21828E-01 11640   0.695E-01    0.727E-02
RMM:   2    -0.699966664743E+03   -0.70245E-03   -0.74157E-03 13058   0.176E-01    0.227E-02
RMM:   3    -0.699966807834E+03   -0.14309E-03   -0.15372E-03 14994   0.675E-02    0.242E-02
RMM:   4    -0.699966817306E+03   -0.94721E-05   -0.19146E-04 12650   0.233E-02    0.166E-02
RMM:   5    -0.699966814544E+03    0.27621E-05   -0.58820E-05  9877   0.137E-02
  36 F= -.69996681E+03 E0= -.69996472E+03  d E =-.518623E-02
       N       E                     dE             d eps       ncg     rms          rms(c)
DAV:   1    -0.699963250002E+03    0.35673E-02   -0.86961E-01 10832   0.139E+00    0.152E-01
RMM:   2    -0.699966054038E+03   -0.28040E-02   -0.29648E-02 13032   0.361E-01    0.458E-02
RMM:   3    -0.699966686043E+03   -0.63201E-03   -0.66931E-03 15105   0.141E-01    0.470E-02
RMM:   4    -0.699966730885E+03   -0.44842E-04   -0.78381E-04 15047   0.472E-02    0.333E-02
RMM:   5    -0.699966718763E+03    0.12122E-04   -0.20325E-04 12587   0.228E-02    0.998E-03
RMM:   6    -0.699966721293E+03   -0.25302E-05   -0.42270E-05  8978   0.111E-02
  37 F= -.69996672E+03 E0= -.69996468E+03  d E =-.509298E-02
       N       E                     dE             d eps       ncg     rms          rms(c)
DAV:   1    -0.699965566537E+03    0.11522E-02   -0.35065E-01 10776   0.881E-01    0.959E-02
RMM:   2    -0.699966677901E+03   -0.11114E-02   -0.11766E-02 13016   0.227E-01    0.293E-02
RMM:   3    -0.699966924238E+03   -0.24634E-03   -0.26403E-03 15062   0.886E-02    0.296E-02
RMM:   4    -0.699966940540E+03   -0.16302E-04   -0.29932E-04 13574   0.297E-02    0.206E-02
RMM:   5    -0.699966935634E+03    0.49060E-05   -0.85286E-05 10645   0.166E-02
  38 F= -.69996694E+03 E0= -.69996486E+03  d E =-.530732E-02
       N       E                     dE             d eps       ncg     rms          rms(c)
DAV:   1    -0.699959926207E+03    0.70143E-02   -0.27464E+00 10863   0.246E+00    0.264E-01
RMM:   2    -0.699968299494E+03   -0.83733E-02   -0.88515E-02 12911   0.627E-01    0.818E-02
RMM:   3    -0.699970255370E+03   -0.19559E-02   -0.20395E-02 15032   0.247E-01    0.811E-02
RMM:   4    -0.699970406428E+03   -0.15106E-03   -0.24119E-03 15219   0.816E-02    0.577E-02
RMM:   5    -0.699970373406E+03    0.33022E-04   -0.56886E-04 13691   0.368E-02    0.175E-02
RMM:   6    -0.699970382163E+03   -0.87574E-05   -0.13037E-04 11621   0.180E-02    0.128E-02
RMM:   7    -0.699970383244E+03   -0.10807E-05   -0.39691E-05  8879   0.102E-02
  39 F= -.69997038E+03 E0= -.69996834E+03  d E =-.344761E-02
       N       E                     dE             d eps       ncg     rms          rms(c)
DAV:   1    -0.699969423877E+03    0.95829E-03   -0.40629E-01 11448   0.947E-01    0.100E-01
RMM:   2    -0.699970665365E+03   -0.12415E-02   -0.13114E-02 12897   0.238E-01    0.311E-02
RMM:   3    -0.699970948195E+03   -0.28283E-03   -0.29549E-03 14946   0.936E-02    0.314E-02
RMM:   4    -0.699970970712E+03   -0.22517E-04   -0.36305E-04 13785   0.319E-02    0.226E-02
RMM:   5    -0.699970966851E+03    0.38613E-05   -0.10123E-04 10614   0.167E-02    0.793E-03
RMM:   6    -0.699970967827E+03   -0.97627E-06   -0.23527E-05  7499   0.819E-03
  40 F= -.69997097E+03 E0= -.69996894E+03  d E =-.403219E-02
       N       E                     dE             d eps       ncg     rms          rms(c)
DAV:   1    -0.699964665898E+03    0.63010E-02   -0.16223E+00 10903   0.189E+00    0.205E-01
RMM:   2    -0.699969635939E+03   -0.49700E-02   -0.52525E-02 12915   0.481E-01    0.628E-02
RMM:   3    -0.699970803476E+03   -0.11675E-02   -0.12166E-02 15045   0.190E-01    0.624E-02
RMM:   4    -0.699970896066E+03   -0.92589E-04   -0.14429E-03 15123   0.630E-02    0.449E-02
RMM:   5    -0.699970878070E+03    0.17995E-04   -0.35551E-04 12774   0.290E-02    0.140E-02
RMM:   6    -0.699970882559E+03   -0.44885E-05   -0.74815E-05  9889   0.141E-02
  41 F= -.69997088E+03 E0= -.69996889E+03  d E =-.394692E-02
       N       E                     dE             d eps       ncg     rms          rms(c)
DAV:   1    -0.699968387732E+03    0.24903E-02   -0.72700E-01 10832   0.127E+00    0.139E-01
RMM:   2    -0.699970575425E+03   -0.21877E-02   -0.23168E-02 12888   0.320E-01    0.424E-02
RMM:   3    -0.699971092535E+03   -0.51711E-03   -0.53916E-03 14997   0.126E-01    0.408E-02
RMM:   4    -0.699971133358E+03   -0.40823E-04   -0.63053E-04 14965   0.421E-02    0.293E-02
RMM:   5    -0.699971124917E+03    0.84416E-05   -0.15432E-04 11497   0.195E-02    0.949E-03
RMM:   6    -0.699971126285E+03   -0.13688E-05   -0.32252E-05  8538   0.100E-02
  42 F= -.69997113E+03 E0= -.69996911E+03  d E =-.419065E-02
       N       E                     dE             d eps       ncg     rms          rms(c)
DAV:   1    -0.699970408598E+03    0.71632E-03   -0.18141E-01 10918   0.632E-01    0.693E-02
RMM:   2    -0.699970953439E+03   -0.54484E-03   -0.57674E-03 12855   0.162E-01    0.214E-02
RMM:   3    -0.699971087751E+03   -0.13431E-03   -0.14037E-03 14933   0.645E-02    0.203E-02
RMM:   4    -0.699971098655E+03   -0.10904E-04   -0.16153E-04 12595   0.220E-02    0.150E-02
RMM:   5    -0.699971096877E+03    0.17779E-05   -0.48092E-05  9404   0.134E-02
  43 F= -.69997110E+03 E0= -.69996909E+03  d E =-.416124E-02
       N       E                     dE             d eps       ncg     rms          rms(c)
DAV:   1    -0.699962455538E+03    0.86431E-02   -0.27783E+00 10847   0.247E+00    0.273E-01
RMM:   2    -0.699970826116E+03   -0.83706E-02   -0.88879E-02 12770   0.630E-01    0.844E-02
RMM:   3    -0.699972960690E+03   -0.21346E-02   -0.22264E-02 15082   0.255E-01    0.831E-02
RMM:   4    -0.699973139628E+03   -0.17894E-03   -0.26107E-03 15307   0.842E-02    0.616E-02
RMM:   5    -0.699973102494E+03    0.37134E-04   -0.60482E-04 13295   0.383E-02    0.201E-02
RMM:   6    -0.699973113092E+03   -0.10598E-04   -0.15284E-04 12117   0.192E-02    0.154E-02
RMM:   7    -0.699973113042E+03    0.50379E-07   -0.44711E-05  9037   0.109E-02
  44 F= -.69997311E+03 E0= -.69997111E+03  d E =-.201616E-02
       N       E                     dE             d eps       ncg     rms          rms(c)
DAV:   1    -0.699973115491E+03   -0.23982E-05   -0.41330E-03 11808   0.957E-02    0.895E-03
RMM:   2    -0.699973130370E+03   -0.14879E-04   -0.15672E-04 11921   0.262E-02    0.332E-03
RMM:   3    -0.699973132824E+03   -0.24540E-05   -0.41994E-05  7359   0.118E-02
  45 F= -.69997313E+03 E0= -.69997113E+03  d E =-.203595E-02
       N       E                     dE             d eps       ncg     rms          rms(c)
DAV:   1    -0.699972642860E+03    0.48751E-03   -0.39015E-01 10956   0.955E-01    0.876E-02
RMM:   2    -0.699973969542E+03   -0.13267E-02   -0.13924E-02 13326   0.262E-01    0.318E-02
RMM:   3    -0.699974282036E+03   -0.31249E-03   -0.33938E-03 15176   0.101E-01    0.336E-02
RMM:   4    -0.699974298178E+03   -0.16142E-04   -0.37420E-04 14718   0.341E-02    0.198E-02
RMM:   5    -0.699974293604E+03    0.45738E-05   -0.10010E-04 11224   0.173E-02    0.848E-03
RMM:   6    -0.699974294368E+03   -0.76328E-06   -0.19978E-05  6986   0.846E-03
  46 F= -.69997429E+03 E0= -.69997229E+03  d E =-.116154E-02
       N       E                     dE             d eps       ncg     rms          rms(c)
DAV:   1    -0.699974281689E+03    0.11916E-04   -0.30116E-02 11712   0.266E-01    0.227E-02
RMM:   2    -0.699974387754E+03   -0.10607E-03   -0.11127E-03 13316   0.723E-02    0.918E-03
RMM:   3    -0.699974409490E+03   -0.21736E-04   -0.24962E-04 13649   0.280E-02    0.102E-02
RMM:   4    -0.699974410545E+03   -0.10551E-05   -0.34386E-05  7676   0.126E-02
  47 F= -.69997441E+03 E0= -.69997240E+03  d E =-.127772E-02
       N       E                     dE             d eps       ncg     rms          rms(c)
DAV:   1    -0.699973573424E+03    0.83607E-03   -0.41361E-01 11080   0.981E-01    0.971E-02
RMM:   2    -0.699974883419E+03   -0.13100E-02   -0.13725E-02 13119   0.261E-01    0.338E-02
RMM:   3    -0.699975219250E+03   -0.33583E-03   -0.36070E-03 15121   0.105E-01    0.323E-02
RMM:   4    -0.699975243536E+03   -0.24286E-04   -0.40234E-04 14798   0.351E-02    0.209E-02
RMM:   5    -0.699975240014E+03    0.35227E-05   -0.10136E-04 10938   0.174E-02    0.845E-03
RMM:   6    -0.699975240836E+03   -0.82205E-06   -0.22335E-05  7460   0.894E-03
  48 F= -.69997524E+03 E0= -.69997322E+03  d E =-.830290E-03
       N       E                     dE             d eps       ncg     rms          rms(c)
DAV:   1    -0.699975233808E+03    0.62063E-05   -0.17049E-02 11944   0.199E-01    0.182E-02
RMM:   2    -0.699975290658E+03   -0.56850E-04   -0.59560E-04 13110   0.526E-02    0.696E-03
RMM:   3    -0.699975302879E+03   -0.12221E-04   -0.14286E-04 12864   0.210E-02    0.739E-03
RMM:   4    -0.699975303657E+03   -0.77770E-06   -0.20287E-05  6174   0.997E-03
  49 F= -.69997530E+03 E0= -.69997328E+03  d E =-.893111E-03
       N       E                     dE             d eps       ncg     rms          rms(c)
DAV:   1    -0.699975058070E+03    0.24481E-03   -0.66630E-02 11214   0.394E-01    0.395E-02
RMM:   2    -0.699975269136E+03   -0.21107E-03   -0.22096E-03 13083   0.105E-01    0.136E-02
RMM:   3    -0.699975322892E+03   -0.53755E-04   -0.58607E-04 14897   0.421E-02    0.125E-02
RMM:   4    -0.699975326979E+03   -0.40871E-05   -0.67524E-05 10841   0.152E-02
  50 F= -.69997533E+03 E0= -.69997329E+03  d E =-.916434E-03
       N       E                     dE             d eps       ncg     rms          rms(c)
DAV:   1    -0.699975212370E+03    0.11052E-03   -0.25772E-02 11144   0.247E-01    0.229E-02
RMM:   2    -0.699975305311E+03   -0.92941E-04   -0.97681E-04 13327   0.694E-02    0.860E-03
RMM:   3    -0.699975326645E+03   -0.21333E-04   -0.23807E-04 13756   0.272E-02    0.951E-03
RMM:   4    -0.699975327710E+03   -0.10657E-05   -0.31527E-05  6756   0.118E-02
  51 F= -.69997533E+03 E0= -.69997330E+03  d E =-.917165E-03
       N       E                     dE             d eps       ncg     rms          rms(c)
DAV:   1    -0.699975305158E+03    0.21486E-04   -0.64301E-03 11056   0.123E-01    0.115E-02
RMM:   2    -0.699975328629E+03   -0.23471E-04   -0.24657E-04 13163   0.345E-02    0.427E-03
RMM:   3    -0.699975333251E+03   -0.46212E-05   -0.57204E-05  8169   0.138E-02
  52 F= -.69997533E+03 E0= -.69997330E+03  d E =-.922705E-03
       N       E                     dE             d eps       ncg     rms          rms(c)
DAV:   1    -0.699974571968E+03    0.75666E-03   -0.32403E-01 11403   0.865E-01    0.781E-02
RMM:   2    -0.699975527901E+03   -0.95593E-03   -0.99991E-03 12993   0.223E-01    0.296E-02
RMM:   3    -0.699975772912E+03   -0.24501E-03   -0.25924E-03 14894   0.896E-02    0.273E-02
RMM:   4    -0.699975791536E+03   -0.18625E-04   -0.31219E-04 14260   0.310E-02    0.168E-02
RMM:   5    -0.699975790480E+03    0.10560E-05   -0.72849E-05 10400   0.154E-02
  53 F= -.69997579E+03 E0= -.69997376E+03  d E =-.457230E-03
       N       E                     dE             d eps       ncg     rms          rms(c)
DAV:   1    -0.699975784278E+03    0.72579E-05   -0.12080E-02 12224   0.168E-01    0.178E-02
RMM:   2    -0.699975824299E+03   -0.40021E-04   -0.41979E-04 12940   0.464E-02    0.598E-03
RMM:   3    -0.699975835121E+03   -0.10822E-04   -0.12015E-04 12371   0.194E-02    0.492E-03
RMM:   4    -0.699975836294E+03   -0.11737E-05   -0.18819E-05  5996   0.100E-02
  54 F= -.69997584E+03 E0= -.69997380E+03  d E =-.503044E-03
       N       E                     dE             d eps       ncg     rms          rms(c)
DAV:   1    -0.699975707680E+03    0.12744E-03   -0.47666E-02 11524   0.332E-01    0.304E-02
RMM:   2    -0.699975850107E+03   -0.14243E-03   -0.14876E-03 12975   0.870E-02    0.111E-02
RMM:   3    -0.699975885833E+03   -0.35727E-04   -0.38506E-04 13973   0.348E-02    0.101E-02
RMM:   4    -0.699975888518E+03   -0.26851E-05   -0.48872E-05  9295   0.145E-02
  55 F= -.69997589E+03 E0= -.69997386E+03  d E =-.555268E-03
       N       E                     dE             d eps       ncg     rms          rms(c)
DAV:   1    -0.699975718116E+03    0.16772E-03   -0.11829E-01 10984   0.524E-01    0.521E-02
RMM:   2    -0.699976122709E+03   -0.40459E-03   -0.42253E-03 13268   0.143E-01    0.177E-02
RMM:   3    -0.699976218412E+03   -0.95702E-04   -0.10141E-03 14945   0.554E-02    0.177E-02
RMM:   4    -0.699976225084E+03   -0.66727E-05   -0.12274E-04 12317   0.201E-02    0.112E-02
RMM:   5    -0.699976224075E+03    0.10091E-05   -0.34554E-05  8919   0.121E-02
  56 F= -.69997622E+03 E0= -.69997418E+03  d E =-.335557E-03
       N       E                     dE             d eps       ncg     rms          rms(c)
DAV:   1    -0.699976020680E+03    0.20440E-03   -0.67211E-02 11310   0.395E-01    0.403E-02
RMM:   2    -0.699976251933E+03   -0.23125E-03   -0.24138E-03 13249   0.107E-01    0.133E-02
RMM:   3    -0.699976306272E+03   -0.54339E-04   -0.57452E-04 14776   0.415E-02    0.133E-02
RMM:   4    -0.699976310178E+03   -0.39061E-05   -0.72184E-05 11221   0.156E-02
  57 F= -.69997631E+03 E0= -.69997426E+03  d E =-.421660E-03
       N       E                     dE             d eps       ncg     rms          rms(c)
DAV:   1    -0.699976223258E+03    0.83014E-04   -0.84884E-02 11048   0.437E-01    0.477E-02
RMM:   2    -0.699976485282E+03   -0.26202E-03   -0.27535E-03 12823   0.113E-01    0.146E-02
RMM:   3    -0.699976546657E+03   -0.61375E-04   -0.65652E-04 14876   0.454E-02    0.140E-02
RMM:   4    -0.699976552117E+03   -0.54604E-05   -0.87811E-05 11653   0.170E-02
  58 F= -.69997655E+03 E0= -.69997450E+03  d E =-.241939E-03
       N       E                     dE             d eps       ncg     rms          rms(c)
DAV:   1    -0.699976577949E+03   -0.31292E-04   -0.68491E-03 11944   0.125E-01    0.146E-02
RMM:   2    -0.699976602073E+03   -0.24124E-04   -0.25407E-04 12751   0.346E-02    0.494E-03
RMM:   3    -0.699976607152E+03   -0.50783E-05   -0.66250E-05 10123   0.145E-02
  59 F= -.69997661E+03 E0= -.69997455E+03  d E =-.296973E-03
       N       E                     dE             d eps       ncg     rms          rms(c)
DAV:   1    -0.699976587066E+03    0.15007E-04   -0.28057E-02 11268   0.251E-01    0.257E-02
RMM:   2    -0.699976676095E+03   -0.89028E-04   -0.93866E-04 12812   0.657E-02    0.907E-03
RMM:   3    -0.699976696797E+03   -0.20702E-04   -0.22997E-04 13028   0.269E-02    0.883E-03
RMM:   4    -0.699976698733E+03   -0.19359E-05   -0.37302E-05  7886   0.137E-02
  60 F= -.69997670E+03 E0= -.69997465E+03  d E =-.388554E-03
       N       E                     dE             d eps       ncg     rms          rms(c)
DAV:   1    -0.699976370978E+03    0.32582E-03   -0.11135E-01 11143   0.500E-01    0.532E-02
RMM:   2    -0.699976708642E+03   -0.33766E-03   -0.35404E-03 12790   0.127E-01    0.165E-02
RMM:   3    -0.699976789983E+03   -0.81342E-04   -0.86334E-04 14920   0.511E-02    0.162E-02
RMM:   4    -0.699976796414E+03   -0.64309E-05   -0.10659E-04 12162   0.182E-02    0.107E-02
RMM:   5    -0.699976795816E+03    0.59811E-06   -0.29557E-05  8209   0.108E-02
  61 F= -.69997680E+03 E0= -.69997475E+03  d E =-.485638E-03
       N       E                     dE             d eps       ncg     rms          rms(c)
DAV:   1    -0.699976736138E+03    0.60276E-04   -0.56215E-02 11230   0.361E-01    0.389E-02
RMM:   2    -0.699976923947E+03   -0.18781E-03   -0.19657E-03 13111   0.964E-02    0.124E-02
RMM:   3    -0.699976968599E+03   -0.44651E-04   -0.48267E-04 14659   0.382E-02    0.122E-02
RMM:   4    -0.699976972057E+03   -0.34586E-05   -0.59555E-05 10558   0.147E-02
  62 F= -.69997697E+03 E0= -.69997492E+03  d E =-.176241E-03
       N       E                     dE             d eps       ncg     rms          rms(c)
DAV:   1    -0.699976931166E+03    0.37433E-04   -0.24567E-02 11472   0.239E-01    0.264E-02
RMM:   2    -0.699977013552E+03   -0.82386E-04   -0.86441E-04 13109   0.654E-02    0.861E-03
RMM:   3    -0.699977033199E+03   -0.19647E-04   -0.21576E-04 13000   0.261E-02    0.741E-03
RMM:   4    -0.699977035231E+03   -0.20324E-05   -0.34873E-05  7620   0.135E-02
  63 F= -.69997704E+03 E0= -.69997498E+03  d E =-.239415E-03
       N       E                     dE             d eps       ncg     rms          rms(c)
DAV:   1    -0.699977034295E+03   -0.10965E-05   -0.45465E-03 11918   0.104E-01    0.112E-02
RMM:   2    -0.699977050496E+03   -0.16201E-04   -0.17030E-04 12841   0.297E-02    0.368E-03
RMM:   3    -0.699977053693E+03   -0.31972E-05   -0.40478E-05  7287   0.120E-02
  64 F= -.69997705E+03 E0= -.69997500E+03  d E =-.257877E-03
       N       E                     dE             d eps       ncg     rms          rms(c)
DAV:   1    -0.699976926410E+03    0.12409E-03   -0.71505E-02 11216   0.412E-01    0.416E-02
RMM:   2    -0.699977159033E+03   -0.23262E-03   -0.24355E-03 13091   0.114E-01    0.141E-02
RMM:   3    -0.699977223114E+03   -0.64082E-04   -0.67777E-04 14676   0.457E-02    0.136E-02
RMM:   4    -0.699977228553E+03   -0.54389E-05   -0.80515E-05 11600   0.169E-02
  65 F= -.69997723E+03 E0= -.69997517E+03  d E =-.174860E-03
       N       E                     dE             d eps       ncg     rms          rms(c)
DAV:   1    -0.699977236586E+03   -0.13472E-04   -0.12950E-03 12278   0.575E-02    0.775E-03
RMM:   2    -0.699977243386E+03   -0.67995E-05   -0.75588E-05 11119   0.205E-02
  66 F= -.69997724E+03 E0= -.69997519E+03  d E =-.189693E-03
       N       E                     dE             d eps       ncg     rms          rms(c)
DAV:   1    -0.699977243647E+03   -0.70611E-05   -0.54591E-03 11448   0.116E-01    0.121E-02
RMM:   2    -0.699977266166E+03   -0.22519E-04   -0.23771E-04 12978   0.368E-02    0.458E-03
RMM:   3    -0.699977271093E+03   -0.49273E-05   -0.64618E-05  9244   0.149E-02
  67 F= -.69997727E+03 E0= -.69997521E+03  d E =-.217400E-03
       N       E                     dE             d eps       ncg     rms          rms(c)
DAV:   1    -0.699977218585E+03    0.47581E-04   -0.21349E-02 11376   0.226E-01    0.222E-02
RMM:   2    -0.699977289627E+03   -0.71042E-04   -0.74671E-04 13095   0.632E-02    0.823E-03
RMM:   3    -0.699977308081E+03   -0.18454E-04   -0.20382E-04 12888   0.255E-02    0.787E-03
RMM:   4    -0.699977309843E+03   -0.17620E-05   -0.31619E-05  6835   0.130E-02
  68 F= -.69997731E+03 E0= -.69997525E+03  d E =-.256150E-03
       N       E                     dE             d eps       ncg     rms          rms(c)
DAV:   1    -0.699977064954E+03    0.24313E-03   -0.10082E-01 11263   0.484E-01    0.494E-02
RMM:   2    -0.699977367426E+03   -0.30247E-03   -0.31702E-03 12922   0.124E-01    0.161E-02
RMM:   3    -0.699977444742E+03   -0.77316E-04   -0.81443E-04 14889   0.503E-02    0.152E-02
RMM:   4    -0.699977451619E+03   -0.68767E-05   -0.99755E-05 12230   0.178E-02
  69 F= -.69997745E+03 E0= -.69997540E+03  d E =-.141775E-03
       N       E                     dE             d eps       ncg     rms          rms(c)
DAV:   1    -0.699977452702E+03   -0.79599E-05   -0.11698E-04 14000   0.230E-02    0.498E-03
RMM:   2    -0.699977453891E+03   -0.11892E-05   -0.14754E-05  6032   0.861E-03
  70 F= -.69997745E+03 E0= -.69997540E+03  d E =-.144047E-03
       N       E                     dE             d eps       ncg     rms          rms(c)
DAV:   1    -0.699977456383E+03   -0.36810E-05   -0.46944E-04 10946   0.361E-02    0.477E-03
RMM:   2    -0.699977458970E+03   -0.25869E-05   -0.28308E-05  6423   0.135E-02
  71 F= -.69997746E+03 E0= -.69997540E+03  d E =-.149126E-03
       N       E                     dE             d eps       ncg     rms          rms(c)
DAV:   1    -0.699977412983E+03    0.43400E-04   -0.30756E-02 11111   0.269E-01    0.285E-02
RMM:   2    -0.699977516362E+03   -0.10338E-03   -0.10868E-03 13174   0.734E-02    0.115E-02
RMM:   3    -0.699977541969E+03   -0.25607E-04   -0.27878E-04 13755   0.291E-02    0.996E-03
RMM:   4    -0.699977543869E+03   -0.18996E-05   -0.35957E-05  7479   0.129E-02
  72 F= -.69997754E+03 E0= -.69997549E+03  d E =-.848994E-04
       N       E                     dE             d eps       ncg     rms          rms(c)
DAV:   1    -0.699977545180E+03   -0.32102E-05   -0.25785E-03 11976   0.784E-02    0.931E-03
RMM:   2    -0.699977555393E+03   -0.10214E-04   -0.10778E-04 12123   0.240E-02    0.378E-03
RMM:   3    -0.699977557297E+03   -0.19037E-05   -0.27631E-05  6383   0.100E-02
  73 F= -.69997756E+03 E0= -.69997551E+03  d E =-.983272E-04
       N       E                     dE             d eps       ncg     rms          rms(c)
DAV:   1    -0.699977489521E+03    0.65872E-04   -0.34471E-02 11135   0.280E-01    0.286E-02
RMM:   2    -0.699977596709E+03   -0.10719E-03   -0.11309E-03 12895   0.748E-02    0.981E-03
RMM:   3    -0.699977623888E+03   -0.27179E-04   -0.29721E-04 13350   0.305E-02    0.950E-03
RMM:   4    -0.699977626555E+03   -0.26677E-05   -0.45048E-05  8569   0.148E-02
  74 F= -.69997763E+03 E0= -.69997558E+03  d E =-.692585E-04
       N       E                     dE             d eps       ncg     rms          rms(c)
DAV:   1    -0.699977624283E+03   -0.39500E-06   -0.50184E-03 11728   0.107E-01    0.120E-02
RMM:   2    -0.699977640322E+03   -0.16040E-04   -0.16926E-04 12512   0.290E-02    0.402E-03
RMM:   3    -0.699977643671E+03   -0.33486E-05   -0.42768E-05  7499   0.120E-02
  75 F= -.69997764E+03 E0= -.69997559E+03  d E =-.863740E-04
       N       E                     dE             d eps       ncg     rms          rms(c)
DAV:   1    -0.699977616404E+03    0.23918E-04   -0.15942E-02 11168   0.192E-01    0.211E-02
RMM:   2    -0.699977672803E+03   -0.56399E-04   -0.59222E-04 13142   0.543E-02    0.743E-03
RMM:   3    -0.699977686843E+03   -0.14040E-04   -0.15734E-04 12680   0.220E-02    0.658E-03
RMM:   4    -0.699977688239E+03   -0.13962E-05   -0.25782E-05  6288   0.119E-02
  76 F= -.69997769E+03 E0= -.69997564E+03  d E =-.445682E-04
