       N       E                     dE             d eps       ncg     rms          rms(c)
DAV:   1     0.223211149516E+05    0.22321E+05   -0.32009E+05 10128   0.282E+03
DAV:   2     0.501172493641E+04   -0.17309E+05   -0.16305E+05 10128   0.818E+02
DAV:   3    -0.380284560668E+02   -0.50498E+04   -0.47636E+04 13064   0.321E+02
DAV:   4    -0.674841060372E+03   -0.63681E+03   -0.62083E+03 12560   0.121E+02
DAV:   5    -0.719455199528E+03   -0.44614E+02   -0.44081E+02 14560   0.346E+01    0.644E+01
RMM:   6    -0.590274504252E+03    0.12918E+03   -0.43747E+02 13299   0.245E+01    0.162E+01
RMM:   7    -0.593821669337E+03   -0.35472E+01   -0.69414E+01 14117   0.101E+01    0.131E+01
RMM:   8    -0.593385573498E+03    0.43610E+00   -0.10192E+01 13178   0.524E+00    0.373E+00
RMM:   9    -0.593160700923E+03    0.22487E+00   -0.31159E+00 15210   0.218E+00    0.867E-01
RMM:  10    -0.593223331351E+03   -0.62630E-01   -0.72254E-01 13985   0.102E+00    0.624E-01
RMM:  11    -0.593236281191E+03   -0.12950E-01   -0.16183E-01 13961   0.588E-01    0.310E-01
RMM:  12    -0.593240868235E+03   -0.45870E-02   -0.65989E-02 15752   0.264E-01    0.125E-01
RMM:  13    -0.593242665164E+03   -0.17969E-02   -0.20746E-02 15247   0.134E-01    0.336E-02
RMM:  14    -0.593243561519E+03   -0.89635E-03   -0.90610E-03 13773   0.790E-02    0.350E-02
RMM:  15    -0.593243836878E+03   -0.27536E-03   -0.31434E-03 12911   0.458E-02    0.860E-03
RMM:  16    -0.593244000104E+03   -0.16323E-03   -0.15661E-03 11194   0.256E-02    0.797E-03
RMM:  17    -0.593244064669E+03   -0.64565E-04   -0.64600E-04 10370   0.170E-02    0.157E-03
RMM:  18    -0.593244101115E+03   -0.36447E-04   -0.36615E-04  9622   0.105E-02    0.389E-03
RMM:  19    -0.593244117736E+03   -0.16621E-04   -0.16273E-04  8819   0.784E-03    0.777E-04
RMM:  20    -0.593244127131E+03   -0.93948E-05   -0.97270E-05  7457   0.496E-03
   1 F= -.59324413E+03 E0= -.59323464E+03  d E =-.593244E+03
       N       E                     dE             d eps       ncg     rms          rms(c)
DAV:   1    -0.575777664337E+03    0.17466E+02   -0.25531E+03 12904   0.770E+01    0.201E+01
RMM:   2    -0.591682588055E+03   -0.15905E+02   -0.18046E+02 13745   0.228E+01    0.550E+00
RMM:   3    -0.596192902050E+03   -0.45103E+01   -0.47792E+01 15421   0.895E+00    0.839E+00
RMM:   4    -0.596289432738E+03   -0.96531E-01   -0.50890E+00 15458   0.305E+00    0.689E+00
RMM:   5    -0.596168017866E+03    0.12141E+00   -0.10193E+00 15772   0.139E+00    0.330E+00
RMM:   6    -0.596152606392E+03    0.15411E-01   -0.43126E-01 13774   0.909E-01    0.741E-01
RMM:   7    -0.596152583568E+03    0.22824E-04   -0.89413E-02 15666   0.400E-01    0.312E-01
RMM:   8    -0.596153133823E+03   -0.55025E-03   -0.25154E-02 14175   0.178E-01    0.167E-01
RMM:   9    -0.596153526977E+03   -0.39315E-03   -0.57328E-03 15534   0.843E-02    0.508E-02
RMM:  10    -0.596153689586E+03   -0.16261E-03   -0.21487E-03 13306   0.479E-02    0.188E-02
RMM:  11    -0.596153757796E+03   -0.68210E-04   -0.79604E-04 12071   0.242E-02    0.914E-03
RMM:  12    -0.596153789210E+03   -0.31414E-04   -0.33671E-04  9942   0.139E-02    0.102E-02
RMM:  13    -0.596153800263E+03   -0.11053E-04   -0.13245E-04  8725   0.945E-03    0.195E-03
RMM:  14    -0.596153806419E+03   -0.61564E-05   -0.64656E-05  7028   0.549E-03
   2 F= -.59615381E+03 E0= -.59614764E+03  d E =-.290968E+01
       N       E                     dE             d eps       ncg     rms          rms(c)
DAV:   1    -0.595456038392E+03    0.69776E+00   -0.22593E+02 11448   0.211E+01    0.446E+00
RMM:   2    -0.596548610202E+03   -0.10926E+01   -0.11717E+01 13939   0.697E+00    0.874E-01
RMM:   3    -0.596832073561E+03   -0.28346E+00   -0.30814E+00 15272   0.257E+00    0.945E-01
RMM:   4    -0.596850891641E+03   -0.18818E-01   -0.40924E-01 15508   0.914E-01    0.681E-01
RMM:   5    -0.596848483558E+03    0.24081E-02   -0.78248E-02 15394   0.373E-01    0.210E-01
RMM:   6    -0.596849418777E+03   -0.93522E-03   -0.18155E-02 13860   0.193E-01    0.102E-01
RMM:   7    -0.596849817589E+03   -0.39881E-03   -0.66656E-03 15406   0.961E-02    0.447E-02
RMM:   8    -0.596849954173E+03   -0.13658E-03   -0.14974E-03 14092   0.368E-02    0.304E-02
RMM:   9    -0.596849978600E+03   -0.24427E-04   -0.50028E-04 11385   0.233E-02    0.938E-03
RMM:  10    -0.596849996522E+03   -0.17922E-04   -0.19086E-04  9703   0.120E-02    0.520E-03
RMM:  11    -0.596850002402E+03   -0.58801E-05   -0.78249E-05  7987   0.846E-03
   3 F= -.59685000E+03 E0= -.59684349E+03  d E =-.360588E+01
       N       E                     dE             d eps       ncg     rms          rms(c)
DAV:   1    -0.595786940236E+03    0.10631E+01   -0.44481E+02 11112   0.293E+01    0.405E+00
RMM:   2    -0.597604304442E+03   -0.18174E+01   -0.19436E+01 13640   0.864E+00    0.120E+00
RMM:   3    -0.597958912962E+03   -0.35461E+00   -0.40739E+00 15433   0.326E+00    0.134E+00
RMM:   4    -0.597959560464E+03   -0.64750E-03   -0.47132E-01 14748   0.113E+00    0.674E-01
RMM:   5    -0.597957377483E+03    0.21830E-02   -0.12738E-01 15462   0.520E-01    0.186E-01
RMM:   6    -0.597958871221E+03   -0.14937E-02   -0.21219E-02 15178   0.203E-01    0.115E-01
RMM:   7    -0.597959241767E+03   -0.37055E-03   -0.66094E-03 14649   0.106E-01    0.492E-02
RMM:   8    -0.597959447564E+03   -0.20580E-03   -0.22034E-03 14912   0.538E-02    0.174E-02
RMM:   9    -0.597959518199E+03   -0.70635E-04   -0.77205E-04 12134   0.266E-02    0.764E-03
RMM:  10    -0.597959544277E+03   -0.26079E-04   -0.28301E-04 10400   0.145E-02    0.441E-03
RMM:  11    -0.597959556350E+03   -0.12073E-04   -0.13173E-04  8799   0.916E-03    0.156E-03
RMM:  12    -0.597959561101E+03   -0.47504E-05   -0.52480E-05  7641   0.604E-03
   4 F= -.59795956E+03 E0= -.59795312E+03  d E =-.110956E+01
       N       E                     dE             d eps       ncg     rms          rms(c)
DAV:   1    -0.597949352862E+03    0.10203E-01   -0.54572E+00 11776   0.326E+00    0.402E-01
RMM:   2    -0.597968076413E+03   -0.18724E-01   -0.20210E-01 13615   0.891E-01    0.131E-01
RMM:   3    -0.597971442202E+03   -0.33658E-02   -0.40488E-02 15409   0.326E-01    0.130E-01
RMM:   4    -0.597971431058E+03    0.11144E-04   -0.45488E-03 14802   0.114E-01    0.568E-02
RMM:   5    -0.597971432222E+03   -0.11639E-05   -0.14054E-03 15148   0.535E-02    0.213E-02
RMM:   6    -0.597971448647E+03   -0.16425E-04   -0.24586E-04 12390   0.212E-02    0.132E-02
RMM:   7    -0.597971451684E+03   -0.30374E-05   -0.88364E-05  9711   0.139E-02
   5 F= -.59797145E+03 E0= -.59796493E+03  d E =-.112145E+01
       N       E                     dE             d eps       ncg     rms          rms(c)
DAV:   1    -0.597186167483E+03    0.78528E+00   -0.25428E+02 10896   0.227E+01    0.277E+00
RMM:   2    -0.598267683205E+03   -0.10815E+01   -0.11455E+01 13770   0.678E+00    0.859E-01
RMM:   3    -0.598500539812E+03   -0.23286E+00   -0.24599E+00 15516   0.251E+00    0.886E-01
RMM:   4    -0.598511612931E+03   -0.11073E-01   -0.29819E-01 15542   0.871E-01    0.500E-01
RMM:   5    -0.598510229788E+03    0.13831E-02   -0.63235E-02 15430   0.373E-01    0.139E-01
RMM:   6    -0.598511273308E+03   -0.10435E-02   -0.13966E-02 14159   0.178E-01    0.885E-02
RMM:   7    -0.598511668151E+03   -0.39484E-03   -0.48112E-03 15282   0.876E-02    0.377E-02
RMM:   8    -0.598511773012E+03   -0.10486E-03   -0.10938E-03 12569   0.344E-02    0.226E-02
RMM:   9    -0.598511798862E+03   -0.25850E-04   -0.40186E-04 11038   0.203E-02    0.571E-03
RMM:  10    -0.598511812480E+03   -0.13618E-04   -0.14987E-04  9789   0.110E-02    0.326E-03
RMM:  11    -0.598511818142E+03   -0.56621E-05   -0.60739E-05  8307   0.706E-03
   6 F= -.59851182E+03 E0= -.59850595E+03  d E =-.540366E+00
       N       E                     dE             d eps       ncg     rms          rms(c)
DAV:   1    -0.598449946407E+03    0.61866E-01   -0.20137E+01 11512   0.630E+00    0.733E-01
RMM:   2    -0.598523964449E+03   -0.74018E-01   -0.77776E-01 13723   0.175E+00    0.231E-01
RMM:   3    -0.598538941625E+03   -0.14977E-01   -0.15932E-01 15425   0.636E-01    0.227E-01
RMM:   4    -0.598539810417E+03   -0.86879E-03   -0.19181E-02 15577   0.219E-01    0.135E-01
RMM:   5    -0.598539662254E+03    0.14816E-03   -0.44274E-03 15197   0.974E-02    0.345E-02
RMM:   6    -0.598539757496E+03   -0.95242E-04   -0.10649E-03 14875   0.451E-02    0.260E-02
RMM:   7    -0.598539777333E+03   -0.19837E-04   -0.28800E-04 11920   0.211E-02    0.100E-02
RMM:   8    -0.598539785727E+03   -0.83940E-05   -0.89393E-05  9724   0.123E-02
   7 F= -.59853979E+03 E0= -.59853416E+03  d E =-.568334E+00
       N       E                     dE             d eps       ncg     rms          rms(c)
DAV:   1    -0.598135695020E+03    0.40408E+00   -0.15161E+02 10600   0.173E+01    0.221E+00
RMM:   2    -0.598701665810E+03   -0.56597E+00   -0.59858E+00 13532   0.472E+00    0.665E-01
RMM:   3    -0.598806053067E+03   -0.10439E+00   -0.11465E+00 15557   0.176E+00    0.721E-01
RMM:   4    -0.598808941325E+03   -0.28883E-02   -0.12745E-01 15443   0.587E-01    0.429E-01
RMM:   5    -0.598807522442E+03    0.14189E-02   -0.31164E-02 15213   0.264E-01    0.110E-01
RMM:   6    -0.598808083347E+03   -0.56091E-03   -0.66138E-03 14942   0.119E-01    0.750E-02
RMM:   7    -0.598808241428E+03   -0.15808E-03   -0.22154E-03 15520   0.578E-02    0.318E-02
RMM:   8    -0.598808296753E+03   -0.55324E-04   -0.58368E-04 12473   0.261E-02    0.143E-02
RMM:   9    -0.598808313838E+03   -0.17085E-04   -0.22548E-04 10161   0.160E-02    0.446E-03
RMM:  10    -0.598808321487E+03   -0.76496E-05   -0.81421E-05  9121   0.912E-03
   8 F= -.59880832E+03 E0= -.59880309E+03  d E =-.268536E+00
       N       E                     dE             d eps       ncg     rms          rms(c)
DAV:   1    -0.598783908626E+03    0.24405E-01   -0.85250E+00 11552   0.409E+00    0.498E-01
RMM:   2    -0.598813467802E+03   -0.29559E-01   -0.31180E-01 13447   0.108E+00    0.152E-01
RMM:   3    -0.598819070610E+03   -0.56028E-02   -0.61791E-02 15536   0.401E-01    0.158E-01
RMM:   4    -0.598819267917E+03   -0.19731E-03   -0.66913E-03 15414   0.134E-01    0.901E-02
RMM:   5    -0.598819212956E+03    0.54961E-04   -0.17526E-03 15062   0.609E-02    0.302E-02
RMM:   6    -0.598819237910E+03   -0.24954E-04   -0.36345E-04 13749   0.267E-02    0.185E-02
RMM:   7    -0.598819244940E+03   -0.70298E-05   -0.12220E-04 10018   0.136E-02    0.698E-03
RMM:   8    -0.598819247710E+03   -0.27700E-05   -0.35470E-05  8477   0.896E-03
   9 F= -.59881925E+03 E0= -.59881409E+03  d E =-.279462E+00
       N       E                     dE             d eps       ncg     rms          rms(c)
DAV:   1    -0.598498598891E+03    0.32065E+00   -0.10524E+02 10816   0.146E+01    0.165E+00
RMM:   2    -0.598886098954E+03   -0.38750E+00   -0.40386E+00 13775   0.407E+00    0.507E-01
RMM:   3    -0.598967998335E+03   -0.81899E-01   -0.85893E-01 15466   0.151E+00    0.517E-01
RMM:   4    -0.598972626397E+03   -0.46281E-02   -0.10021E-01 15585   0.506E-01    0.290E-01
RMM:   5    -0.598972147571E+03    0.47883E-03   -0.22619E-02 15139   0.226E-01    0.857E-02
RMM:   6    -0.598972596095E+03   -0.44852E-03   -0.53399E-03 15717   0.103E-01    0.591E-02
RMM:   7    -0.598972704822E+03   -0.10873E-03   -0.14741E-03 15261   0.461E-02    0.209E-02
RMM:   8    -0.598972744304E+03   -0.39482E-04   -0.42126E-04 12103   0.240E-02    0.983E-03
RMM:   9    -0.598972758082E+03   -0.13778E-04   -0.16065E-04  9976   0.137E-02    0.411E-03
RMM:  10    -0.598972762987E+03   -0.49053E-05   -0.55899E-05  8674   0.851E-03
  10 F= -.59897276E+03 E0= -.59896757E+03  d E =-.153515E+00
       N       E                     dE             d eps       ncg     rms          rms(c)
DAV:   1    -0.598949691033E+03    0.23067E-01   -0.76149E+00 11536   0.392E+00    0.436E-01
RMM:   2    -0.598974994219E+03   -0.25303E-01   -0.26406E-01 13629   0.105E+00    0.137E-01
RMM:   3    -0.598980664578E+03   -0.56704E-02   -0.59739E-02 15448   0.391E-01    0.135E-01
RMM:   4    -0.598981060792E+03   -0.39621E-03   -0.69132E-03 15469   0.131E-01    0.863E-02
RMM:   5    -0.598980992044E+03    0.68748E-04   -0.16120E-03 14855   0.598E-02    0.275E-02
RMM:   6    -0.598981024350E+03   -0.32306E-04   -0.40452E-04 13736   0.278E-02    0.198E-02
RMM:   7    -0.598981029538E+03   -0.51872E-05   -0.10881E-04  9988   0.133E-02    0.576E-03
RMM:   8    -0.598981032416E+03   -0.28783E-05   -0.34399E-05  8499   0.873E-03
  11 F= -.59898103E+03 E0= -.59897577E+03  d E =-.161785E+00
       N       E                     dE             d eps       ncg     rms          rms(c)
DAV:   1    -0.598719717041E+03    0.26131E+00   -0.88924E+01 10789   0.133E+01    0.157E+00
RMM:   2    -0.599031241330E+03   -0.31152E+00   -0.32910E+00 13461   0.360E+00    0.487E-01
RMM:   3    -0.599096375701E+03   -0.65134E-01   -0.68536E-01 15450   0.137E+00    0.508E-01
RMM:   4    -0.599100542112E+03   -0.41664E-02   -0.77346E-02 15554   0.453E-01    0.367E-01
RMM:   5    -0.599098686783E+03    0.18553E-02   -0.19969E-02 14929   0.207E-01    0.924E-02
RMM:   6    -0.599099008701E+03   -0.32192E-03   -0.41725E-03 14660   0.963E-02    0.715E-02
RMM:   7    -0.599099071886E+03   -0.63185E-04   -0.14381E-03 15016   0.459E-02    0.204E-02
RMM:   8    -0.599099103848E+03   -0.31962E-04   -0.34661E-04 11430   0.217E-02    0.116E-02
RMM:   9    -0.599099115263E+03   -0.11415E-04   -0.12929E-04  9636   0.119E-02    0.355E-03
RMM:  10    -0.599099119808E+03   -0.45449E-05   -0.47957E-05  8540   0.755E-03
  12 F= -.59909912E+03 E0= -.59909375E+03  d E =-.118087E+00
       N       E                     dE             d eps       ncg     rms          rms(c)
DAV:   1    -0.599024411407E+03    0.74704E-01   -0.22717E+01 11192   0.672E+00    0.782E-01
RMM:   2    -0.599100567841E+03   -0.76156E-01   -0.80524E-01 13417   0.177E+00    0.244E-01
RMM:   3    -0.599116142433E+03   -0.15575E-01   -0.16423E-01 15426   0.669E-01    0.249E-01
RMM:   4    -0.599117289524E+03   -0.11471E-02   -0.18969E-02 15603   0.223E-01    0.194E-01
RMM:   5    -0.599116732675E+03    0.55685E-03   -0.51690E-03 14436   0.104E-01    0.539E-02
RMM:   6    -0.599116810866E+03   -0.78191E-04   -0.11103E-03 14657   0.492E-02    0.419E-02
RMM:   7    -0.599116815615E+03   -0.47490E-05   -0.36093E-04 12939   0.230E-02    0.105E-02
RMM:   8    -0.599116824200E+03   -0.85853E-05   -0.96482E-05  9739   0.141E-02
  13 F= -.59911682E+03 E0= -.59911134E+03  d E =-.135792E+00
       N       E                     dE             d eps       ncg     rms          rms(c)
DAV:   1    -0.598782143349E+03    0.33467E+00   -0.10134E+02 11327   0.146E+01    0.164E+00
RMM:   2    -0.599129309257E+03   -0.34717E+00   -0.36987E+00 13478   0.397E+00    0.558E-01
RMM:   3    -0.599212923426E+03   -0.83614E-01   -0.87765E-01 15423   0.155E+00    0.540E-01
RMM:   4    -0.599220338636E+03   -0.74152E-02   -0.10329E-01 15580   0.520E-01    0.453E-01
RMM:   5    -0.599216927252E+03    0.34114E-02   -0.23502E-02 14503   0.231E-01    0.107E-01
RMM:   6    -0.599217443626E+03   -0.51637E-03   -0.61841E-03 14561   0.119E-01    0.106E-01
RMM:   7    -0.599217389902E+03    0.53724E-04   -0.17711E-03 14851   0.555E-02    0.271E-02
RMM:   8    -0.599217436241E+03   -0.46339E-04   -0.47529E-04 12960   0.261E-02    0.133E-02
RMM:   9    -0.599217447502E+03   -0.11261E-04   -0.13621E-04  9973   0.143E-02    0.382E-03
RMM:  10    -0.599217453590E+03   -0.60875E-05   -0.58313E-05  8586   0.812E-03
  14 F= -.59921745E+03 E0= -.59921102E+03  d E =-.100629E+00
       N       E                     dE             d eps       ncg     rms          rms(c)
DAV:   1    -0.599139417209E+03    0.78030E-01   -0.23067E+01 11728   0.693E+00    0.789E-01
RMM:   2    -0.599213244187E+03   -0.73827E-01   -0.79469E-01 13394   0.184E+00    0.282E-01
RMM:   3    -0.599231313157E+03   -0.18069E-01   -0.19319E-01 15383   0.717E-01    0.256E-01
RMM:   4    -0.599232963722E+03   -0.16506E-02   -0.22872E-02 15674   0.244E-01    0.217E-01
RMM:   5    -0.599232179159E+03    0.78456E-03   -0.55107E-03 13476   0.111E-01    0.568E-02
RMM:   6    -0.599232297462E+03   -0.11830E-03   -0.14371E-03 15338   0.566E-02    0.531E-02
RMM:   7    -0.599232276203E+03    0.21259E-04   -0.36017E-04 13027   0.242E-02    0.150E-02
RMM:   8    -0.599232285649E+03   -0.94467E-05   -0.11619E-04 10330   0.160E-02    0.560E-03
RMM:   9    -0.599232288632E+03   -0.29826E-05   -0.34877E-05  8520   0.798E-03
  15 F= -.59923229E+03 E0= -.59922556E+03  d E =-.115464E+00
       N       E                     dE             d eps       ncg     rms          rms(c)
DAV:   1    -0.599079727238E+03    0.15256E+00   -0.64260E+01 11480   0.115E+01    0.144E+00
RMM:   2    -0.599279816985E+03   -0.20009E+00   -0.22762E+00 13484   0.303E+00    0.539E-01
RMM:   3    -0.599326495000E+03   -0.46678E-01   -0.52040E-01 15183   0.117E+00    0.426E-01
RMM:   4    -0.599331014041E+03   -0.45190E-02   -0.68083E-02 15679   0.413E-01    0.353E-01
RMM:   5    -0.599329113463E+03    0.19006E-02   -0.15179E-02 13909   0.183E-01    0.844E-02
RMM:   6    -0.599329379197E+03   -0.26573E-03   -0.38853E-03 14971   0.925E-02    0.692E-02
RMM:   7    -0.599329384051E+03   -0.48538E-05   -0.10437E-03 14230   0.400E-02    0.215E-02
RMM:   8    -0.599329410786E+03   -0.26735E-04   -0.28658E-04 11943   0.223E-02    0.742E-03
RMM:   9    -0.599329420118E+03   -0.93319E-05   -0.96529E-05  9423   0.116E-02
  16 F= -.59932942E+03 E0= -.59932285E+03  d E =-.971315E-01
       N       E                     dE             d eps       ncg     rms          rms(c)
DAV:   1    -0.596818367727E+03    0.25110E+01   -0.57909E+02 11600   0.347E+01    0.410E+00
RMM:   2    -0.598943232211E+03   -0.21249E+01   -0.23963E+01 13308   0.999E+00    0.138E+00
RMM:   3    -0.599487951586E+03   -0.54472E+00   -0.57569E+00 15540   0.391E+00    0.140E+00
RMM:   4    -0.599531975138E+03   -0.44024E-01   -0.74529E-01 15511   0.136E+00    0.109E+00
RMM:   5    -0.599515471086E+03    0.16504E-01   -0.14221E-01 15356   0.566E-01    0.361E-01
RMM:   6    -0.599516006473E+03   -0.53539E-03   -0.44371E-02 13616   0.328E-01    0.202E-01
RMM:   7    -0.599516253442E+03   -0.24697E-03   -0.11267E-02 15746   0.144E-01    0.648E-02
RMM:   8    -0.599516524531E+03   -0.27109E-03   -0.28550E-03 14389   0.643E-02    0.348E-02
RMM:   9    -0.599516613309E+03   -0.88779E-04   -0.92248E-04 14080   0.344E-02    0.189E-02
RMM:  10    -0.599516639752E+03   -0.26443E-04   -0.35340E-04 10719   0.176E-02    0.715E-03
RMM:  11    -0.599516650833E+03   -0.11081E-04   -0.12160E-04  9213   0.101E-02    0.429E-03
RMM:  12    -0.599516655477E+03   -0.46442E-05   -0.51887E-05  8262   0.691E-03
  17 F= -.59951666E+03 E0= -.59950904E+03  d E =-.284367E+00
       N       E                     dE             d eps       ncg     rms          rms(c)
DAV:   1    -0.599519041805E+03   -0.23910E-02   -0.14234E+01 12280   0.526E+00    0.622E-01
RMM:   2    -0.599560327773E+03   -0.41286E-01   -0.47500E-01 13334   0.135E+00    0.222E-01
RMM:   3    -0.599570074312E+03   -0.97465E-02   -0.10577E-01 15171   0.519E-01    0.190E-01
RMM:   4    -0.599570996521E+03   -0.92221E-03   -0.14553E-02 15689   0.186E-01    0.151E-01
RMM:   5    -0.599570665026E+03    0.33150E-03   -0.31809E-03 13578   0.829E-02    0.350E-02
RMM:   6    -0.599570726784E+03   -0.61759E-04   -0.86994E-04 14887   0.420E-02    0.309E-02
RMM:   7    -0.599570728496E+03   -0.17116E-05   -0.23043E-04 10952   0.182E-02    0.105E-02
RMM:   8    -0.599570734175E+03   -0.56792E-05   -0.71524E-05  9401   0.126E-02
  18 F= -.59957073E+03 E0= -.59956241E+03  d E =-.540787E-01
       N       E                     dE             d eps       ncg     rms          rms(c)
DAV:   1    -0.599150663993E+03    0.42006E+00   -0.12827E+02 11446   0.158E+01    0.167E+00
RMM:   2    -0.599573170756E+03   -0.42251E+00   -0.44905E+00 13384   0.419E+00    0.595E-01
RMM:   3    -0.599671546494E+03   -0.98376E-01   -0.10393E+00 15299   0.162E+00    0.566E-01
RMM:   4    -0.599678821294E+03   -0.72748E-02   -0.13144E-01 15652   0.566E-01    0.360E-01
RMM:   5    -0.599677812614E+03    0.10087E-02   -0.26175E-02 15032   0.236E-01    0.885E-02
RMM:   6    -0.599678322330E+03   -0.50972E-03   -0.59292E-03 15205   0.110E-01    0.700E-02
RMM:   7    -0.599678434988E+03   -0.11266E-03   -0.19440E-03 14872   0.512E-02    0.222E-02
RMM:   8    -0.599678482953E+03   -0.47965E-04   -0.49596E-04 11550   0.239E-02    0.173E-02
RMM:   9    -0.599678495439E+03   -0.12486E-04   -0.19273E-04 10137   0.145E-02    0.390E-03
RMM:  10    -0.599678501309E+03   -0.58703E-05   -0.69062E-05  8899   0.863E-03
  19 F= -.59967850E+03 E0= -.59967198E+03  d E =-.161846E+00
       N       E                     dE             d eps       ncg     rms          rms(c)
DAV:   1    -0.599638809675E+03    0.39686E-01   -0.11285E+01 12024   0.464E+00    0.479E-01
RMM:   2    -0.599672799134E+03   -0.33989E-01   -0.35839E-01 13313   0.119E+00    0.174E-01
RMM:   3    -0.599680588896E+03   -0.77898E-02   -0.83257E-02 15244   0.460E-01    0.164E-01
RMM:   4    -0.599681198739E+03   -0.60984E-03   -0.10715E-02 15664   0.161E-01    0.109E-01
RMM:   5    -0.599681098158E+03    0.10058E-03   -0.23437E-03 14835   0.689E-02    0.306E-02
RMM:   6    -0.599681141351E+03   -0.43193E-04   -0.54155E-04 13860   0.315E-02    0.219E-02
RMM:   7    -0.599681148638E+03   -0.72874E-05   -0.15611E-04 10270   0.149E-02    0.632E-03
RMM:   8    -0.599681152790E+03   -0.41520E-05   -0.45445E-05  8645   0.980E-03
  20 F= -.59968115E+03 E0= -.59967474E+03  d E =-.164497E+00
       N       E                     dE             d eps       ncg     rms          rms(c)
DAV:   1    -0.599735940946E+03   -0.54792E-01   -0.46030E+00 11504   0.309E+00    0.308E-01
RMM:   2    -0.599752248787E+03   -0.16308E-01   -0.16986E-01 13723   0.881E-01    0.111E-01
RMM:   3    -0.599756290644E+03   -0.40419E-02   -0.43025E-02 15487   0.330E-01    0.108E-01
RMM:   4    -0.599756597633E+03   -0.30699E-03   -0.50431E-03 15579   0.113E-01    0.684E-02
RMM:   5    -0.599756561274E+03    0.36359E-04   -0.10729E-03 14994   0.501E-02    0.187E-02
RMM:   6    -0.599756582057E+03   -0.20783E-04   -0.25692E-04 13298   0.237E-02    0.149E-02
RMM:   7    -0.599756584942E+03   -0.28857E-05   -0.74525E-05  9785   0.119E-02
  21 F= -.59975658E+03 E0= -.59975019E+03  d E =-.754322E-01
       N       E                     dE             d eps       ncg     rms          rms(c)
DAV:   1    -0.599723547914E+03    0.33034E-01   -0.32186E+01 11104   0.819E+00    0.813E-01
RMM:   2    -0.599847327171E+03   -0.12378E+00   -0.12853E+00 13868   0.239E+00    0.293E-01
RMM:   3    -0.599875692145E+03   -0.28365E-01   -0.29981E-01 15516   0.879E-01    0.290E-01
RMM:   4    -0.599877654812E+03   -0.19627E-02   -0.34539E-02 15780   0.299E-01    0.181E-01
RMM:   5    -0.599877417693E+03    0.23712E-03   -0.76165E-03 15094   0.133E-01    0.518E-02
RMM:   6    -0.599877553281E+03   -0.13559E-03   -0.17318E-03 15520   0.616E-02    0.379E-02
RMM:   7    -0.599877581247E+03   -0.27966E-04   -0.53448E-04 13735   0.285E-02    0.136E-02
RMM:   8    -0.599877590752E+03   -0.95050E-05   -0.12878E-04 10454   0.154E-02    0.703E-03
RMM:   9    -0.599877594394E+03   -0.36414E-05   -0.50683E-05  8686   0.894E-03
  22 F= -.59987759E+03 E0= -.59987119E+03  d E =-.196442E+00
       N       E                     dE             d eps       ncg     rms          rms(c)
DAV:   1    -0.599107185060E+03    0.77041E+00   -0.12915E+02 11192   0.165E+01    0.163E+00
RMM:   2    -0.599626818486E+03   -0.51963E+00   -0.54122E+00 13805   0.497E+00    0.590E-01
RMM:   3    -0.599762145274E+03   -0.13533E+00   -0.14133E+00 15553   0.189E+00    0.602E-01
RMM:   4    -0.599773431039E+03   -0.11286E-01   -0.17904E-01 15818   0.657E-01    0.389E-01
RMM:   5    -0.599772369137E+03    0.10619E-02   -0.32153E-02 15265   0.279E-01    0.100E-01
RMM:   6    -0.599772959416E+03   -0.59028E-03   -0.76180E-03 14075   0.141E-01    0.826E-02
RMM:   7    -0.599773127754E+03   -0.16834E-03   -0.30217E-03 14979   0.722E-02    0.277E-02
RMM:   8    -0.599773188063E+03   -0.60309E-04   -0.57494E-04 12652   0.279E-02    0.279E-02
RMM:   9    -0.599773186772E+03    0.12915E-05   -0.19769E-04 10717   0.161E-02    0.541E-03
RMM:  10    -0.599773193054E+03   -0.62824E-05   -0.70832E-05  9070   0.878E-03
  23 F= -.59977319E+03 E0= -.59976639E+03  d E =-.920403E-01
       N       E                     dE             d eps       ncg     rms          rms(c)
DAV:   1    -0.599557486093E+03    0.21570E+00   -0.68914E+01 10984   0.120E+01    0.122E+00
RMM:   2    -0.599822926709E+03   -0.26544E+00   -0.27608E+00 13865   0.353E+00    0.432E-01
RMM:   3    -0.599890112416E+03   -0.67186E-01   -0.70590E-01 15521   0.133E+00    0.419E-01
RMM:   4    -0.599894999532E+03   -0.48871E-02   -0.83921E-02 15818   0.458E-01    0.250E-01
RMM:   5    -0.599894742747E+03    0.25678E-03   -0.16786E-02 15189   0.198E-01    0.635E-02
RMM:   6    -0.599895084039E+03   -0.34129E-03   -0.37934E-03 15524   0.926E-02    0.539E-02
RMM:   7    -0.599895150185E+03   -0.66146E-04   -0.11387E-03 15179   0.442E-02    0.189E-02
RMM:   8    -0.599895173807E+03   -0.23622E-04   -0.28605E-04 11944   0.212E-02    0.126E-02
RMM:   9    -0.599895179355E+03   -0.55485E-05   -0.97788E-05  9627   0.126E-02
  24 F= -.59989518E+03 E0= -.59988872E+03  d E =-.214027E+00
       N       E                     dE             d eps       ncg     rms          rms(c)
DAV:   1    -0.599930724940E+03   -0.35551E-01   -0.69617E+00 10656   0.381E+00    0.421E-01
RMM:   2    -0.599954463851E+03   -0.23739E-01   -0.24856E-01 13465   0.101E+00    0.134E-01
RMM:   3    -0.599959438409E+03   -0.49746E-02   -0.53718E-02 15598   0.382E-01    0.142E-01
RMM:   4    -0.599959658771E+03   -0.22036E-03   -0.54809E-03 15577   0.126E-01    0.852E-02
RMM:   5    -0.599959599933E+03    0.58837E-04   -0.15060E-03 14981   0.582E-02    0.326E-02
RMM:   6    -0.599959617879E+03   -0.17946E-04   -0.29489E-04 13649   0.257E-02    0.215E-02
RMM:   7    -0.599959620518E+03   -0.26390E-05   -0.10098E-04  9994   0.132E-02    0.614E-03
RMM:   8    -0.599959622548E+03   -0.20304E-05   -0.27346E-05  8274   0.891E-03
  25 F= -.59995962E+03 E0= -.59995312E+03  d E =-.644432E-01
       N       E                     dE             d eps       ncg     rms          rms(c)
DAV:   1    -0.599800597547E+03    0.15902E+00   -0.62603E+01 10653   0.114E+01    0.127E+00
RMM:   2    -0.600017327866E+03   -0.21673E+00   -0.22673E+00 13445   0.309E+00    0.404E-01
RMM:   3    -0.600066386557E+03   -0.49059E-01   -0.52664E-01 15600   0.119E+00    0.430E-01
RMM:   4    -0.600068966685E+03   -0.25801E-02   -0.53921E-02 15665   0.393E-01    0.269E-01
RMM:   5    -0.600068301491E+03    0.66519E-03   -0.14154E-02 14960   0.181E-01    0.959E-02
RMM:   6    -0.600068514903E+03   -0.21341E-03   -0.29279E-03 15401   0.812E-02    0.692E-02
RMM:   7    -0.600068538652E+03   -0.23749E-04   -0.10116E-03 14562   0.394E-02    0.218E-02
RMM:   8    -0.600068557893E+03   -0.19240E-04   -0.23573E-04 10944   0.188E-02    0.141E-02
RMM:   9    -0.600068563280E+03   -0.53872E-05   -0.89148E-05  9275   0.116E-02
  26 F= -.60006856E+03 E0= -.60006188E+03  d E =-.173384E+00
       N       E                     dE             d eps       ncg     rms          rms(c)
DAV:   1    -0.600044215593E+03    0.24342E-01   -0.78905E+00 11344   0.405E+00    0.449E-01
RMM:   2    -0.600071014266E+03   -0.26799E-01   -0.28020E-01 13460   0.108E+00    0.142E-01
RMM:   3    -0.600076802862E+03   -0.57886E-02   -0.62300E-02 15606   0.408E-01    0.150E-01
RMM:   4    -0.600077091448E+03   -0.28859E-03   -0.63716E-03 15598   0.135E-01    0.921E-02
RMM:   5    -0.600077026254E+03    0.65194E-04   -0.17597E-03 14950   0.624E-02    0.362E-02
RMM:   6    -0.600077047684E+03   -0.21429E-04   -0.35460E-04 13805   0.277E-02    0.239E-02
RMM:   7    -0.600077050976E+03   -0.32925E-05   -0.12414E-04 10381   0.143E-02    0.683E-03
RMM:   8    -0.600077053670E+03   -0.26939E-05   -0.33493E-05  8530   0.948E-03
  27 F= -.60007705E+03 E0= -.60007028E+03  d E =-.181874E+00
       N       E                     dE             d eps       ncg     rms          rms(c)
DAV:   1    -0.600078139401E+03   -0.10884E-02   -0.14171E+01 10792   0.538E+00    0.599E-01
RMM:   2    -0.600126269819E+03   -0.48130E-01   -0.50398E-01 13409   0.142E+00    0.192E-01
RMM:   3    -0.600136193279E+03   -0.99235E-02   -0.10596E-01 15454   0.535E-01    0.197E-01
RMM:   4    -0.600136732891E+03   -0.53961E-03   -0.11486E-02 15568   0.177E-01    0.122E-01
RMM:   5    -0.600136600254E+03    0.13264E-03   -0.29601E-03 14725   0.801E-02    0.433E-02
RMM:   6    -0.600136641664E+03   -0.41410E-04   -0.62767E-04 15067   0.364E-02    0.288E-02
RMM:   7    -0.600136648907E+03   -0.72434E-05   -0.19705E-04 11052   0.168E-02    0.745E-03
RMM:   8    -0.600136653438E+03   -0.45312E-05   -0.52055E-05  8964   0.109E-02
  28 F= -.60013665E+03 E0= -.60012974E+03  d E =-.595998E-01
       N       E                     dE             d eps       ncg     rms          rms(c)
DAV:   1    -0.600087804186E+03    0.48845E-01   -0.19568E+01 10856   0.633E+00    0.703E-01
RMM:   2    -0.600154472334E+03   -0.66668E-01   -0.69730E-01 13400   0.167E+00    0.225E-01
RMM:   3    -0.600168357314E+03   -0.13885E-01   -0.14802E-01 15451   0.632E-01    0.231E-01
RMM:   4    -0.600169135838E+03   -0.77852E-03   -0.16045E-02 15578   0.209E-01    0.145E-01
RMM:   5    -0.600168947648E+03    0.18819E-03   -0.41158E-03 14707   0.947E-02    0.519E-02
RMM:   6    -0.600169004594E+03   -0.56945E-04   -0.87306E-04 15473   0.430E-02    0.345E-02
RMM:   7    -0.600169014300E+03   -0.97069E-05   -0.27697E-04 12081   0.196E-02    0.911E-03
RMM:   8    -0.600169020685E+03   -0.63850E-05   -0.70314E-05  9215   0.121E-02
  29 F= -.60016902E+03 E0= -.60016196E+03  d E =-.919670E-01
       N       E                     dE             d eps       ncg     rms          rms(c)
DAV:   1    -0.600164194779E+03    0.48195E-02   -0.16996E+00 11448   0.186E+00    0.204E-01
RMM:   2    -0.600169920628E+03   -0.57258E-02   -0.59827E-02 13401   0.487E-01    0.660E-02
RMM:   3    -0.600171082007E+03   -0.11614E-02   -0.12429E-02 15440   0.183E-01    0.679E-02
RMM:   4    -0.600171143857E+03   -0.61850E-04   -0.13543E-03 15390   0.609E-02    0.418E-02
RMM:   5    -0.600171131600E+03    0.12257E-04   -0.37417E-04 13228   0.281E-02    0.164E-02
RMM:   6    -0.600171134391E+03   -0.27906E-05   -0.68975E-05  9947   0.131E-02
  30 F= -.60017113E+03 E0= -.60016403E+03  d E =-.940807E-01
       N       E                     dE             d eps       ncg     rms          rms(c)
DAV:   1    -0.600164169499E+03    0.69621E-02   -0.12705E+01 10792   0.516E+00    0.563E-01
RMM:   2    -0.600207094298E+03   -0.42925E-01   -0.44767E-01 13531   0.136E+00    0.172E-01
RMM:   3    -0.600216116511E+03   -0.90222E-02   -0.94399E-02 15432   0.509E-01    0.179E-01
RMM:   4    -0.600216724443E+03   -0.60793E-03   -0.10271E-02 15518   0.169E-01    0.124E-01
RMM:   5    -0.600216551300E+03    0.17314E-03   -0.27319E-03 14627   0.776E-02    0.438E-02
RMM:   6    -0.600216586614E+03   -0.35313E-04   -0.57356E-04 14809   0.352E-02    0.293E-02
RMM:   7    -0.600216590891E+03   -0.42779E-05   -0.17115E-04 10860   0.161E-02    0.694E-03
RMM:   8    -0.600216595674E+03   -0.47827E-05   -0.49084E-05  9036   0.109E-02
  31 F= -.60021660E+03 E0= -.60020929E+03  d E =-.454613E-01
       N       E                     dE             d eps       ncg     rms          rms(c)
DAV:   1    -0.600157163021E+03    0.59428E-01   -0.22422E+01 10936   0.685E+00    0.744E-01
RMM:   2    -0.600232984311E+03   -0.75821E-01   -0.79049E-01 13517   0.182E+00    0.229E-01
RMM:   3    -0.600249226152E+03   -0.16242E-01   -0.17007E-01 15429   0.682E-01    0.239E-01
RMM:   4    -0.600250374352E+03   -0.11482E-02   -0.18532E-02 15565   0.226E-01    0.170E-01
RMM:   5    -0.600250032111E+03    0.34224E-03   -0.48947E-03 14618   0.104E-01    0.594E-02
RMM:   6    -0.600250097475E+03   -0.65364E-04   -0.10243E-03 15515   0.468E-02    0.407E-02
RMM:   7    -0.600250102585E+03   -0.51102E-05   -0.30187E-04 12362   0.207E-02    0.965E-03
RMM:   8    -0.600250111733E+03   -0.91477E-05   -0.85696E-05  9707   0.132E-02
  32 F= -.60025011E+03 E0= -.60024250E+03  d E =-.789773E-01
       N       E                     dE             d eps       ncg     rms          rms(c)
DAV:   1    -0.599838108970E+03    0.41199E+00   -0.89601E+01 10701   0.137E+01    0.149E+00
RMM:   2    -0.600149894018E+03   -0.31179E+00   -0.32492E+00 13508   0.372E+00    0.463E-01
RMM:   3    -0.600219331029E+03   -0.69437E-01   -0.72533E-01 15428   0.142E+00    0.484E-01
RMM:   4    -0.600224565591E+03   -0.52346E-02   -0.80812E-02 15582   0.470E-01    0.348E-01
RMM:   5    -0.600223020641E+03    0.15450E-02   -0.19664E-02 14863   0.212E-01    0.103E-01
RMM:   6    -0.600223368088E+03   -0.34745E-03   -0.41412E-03 15476   0.958E-02    0.824E-02
RMM:   7    -0.600223386944E+03   -0.18855E-04   -0.12092E-03 14830   0.426E-02    0.209E-02
RMM:   8    -0.600223425487E+03   -0.38543E-04   -0.34652E-04 11580   0.221E-02    0.231E-02
RMM:   9    -0.600223426304E+03   -0.81758E-06   -0.11554E-04 10143   0.131E-02    0.752E-03
RMM:  10    -0.600223429984E+03   -0.36798E-05   -0.47628E-05  8671   0.751E-03
  33 F= -.60022343E+03 E0= -.60021529E+03  d E =-.522956E-01
       N       E                     dE             d eps       ncg     rms          rms(c)
DAV:   1    -0.600051353626E+03    0.17207E+00   -0.48015E+01 10683   0.100E+01    0.111E+00
RMM:   2    -0.600217584567E+03   -0.16623E+00   -0.17388E+00 13555   0.270E+00    0.338E-01
RMM:   3    -0.600253465188E+03   -0.35881E-01   -0.37502E-01 15436   0.101E+00    0.355E-01
RMM:   4    -0.600255986548E+03   -0.25214E-02   -0.41157E-02 15589   0.336E-01    0.253E-01
RMM:   5    -0.600255155100E+03    0.83145E-03   -0.10381E-02 14659   0.153E-01    0.781E-02
RMM:   6    -0.600255315970E+03   -0.16087E-03   -0.22247E-03 15614   0.698E-02    0.559E-02
RMM:   7    -0.600255332669E+03   -0.16700E-04   -0.62947E-04 13963   0.301E-02    0.152E-02
RMM:   8    -0.600255347876E+03   -0.15207E-04   -0.16491E-04 10388   0.166E-02    0.894E-03
RMM:   9    -0.600255352851E+03   -0.49747E-05   -0.60717E-05  9164   0.950E-03
  34 F= -.60025535E+03 E0= -.60024758E+03  d E =-.842185E-01
       N       E                     dE             d eps       ncg     rms          rms(c)
DAV:   1    -0.600223042009E+03    0.32306E-01   -0.18516E+01 10750   0.615E+00    0.710E-01
RMM:   2    -0.600282613779E+03   -0.59572E-01   -0.62756E-01 13235   0.160E+00    0.217E-01
RMM:   3    -0.600295892827E+03   -0.13279E-01   -0.14020E-01 15413   0.615E-01    0.220E-01
RMM:   4    -0.600296994755E+03   -0.11019E-02   -0.15476E-02 15498   0.202E-01    0.183E-01
RMM:   5    -0.600296525551E+03    0.46920E-03   -0.44963E-03 13899   0.975E-02    0.699E-02
RMM:   6    -0.600296556496E+03   -0.30945E-04   -0.87373E-04 14973   0.443E-02    0.472E-02
RMM:   7    -0.600296544408E+03    0.12088E-04   -0.27529E-04 12448   0.202E-02    0.109E-02
RMM:   8    -0.600296551890E+03   -0.74816E-05   -0.76372E-05  9677   0.137E-02
  35 F= -.60029655E+03 E0= -.60028835E+03  d E =-.411990E-01
       N       E                     dE             d eps       ncg     rms          rms(c)
DAV:   1    -0.600215027302E+03    0.81517E-01   -0.26374E+01 10926   0.734E+00    0.840E-01
RMM:   2    -0.600300056025E+03   -0.85029E-01   -0.89467E-01 13229   0.191E+00    0.258E-01
RMM:   3    -0.600319287999E+03   -0.19232E-01   -0.20303E-01 15401   0.739E-01    0.264E-01
RMM:   4    -0.600320897508E+03   -0.16095E-02   -0.22506E-02 15492   0.243E-01    0.217E-01
RMM:   5    -0.600320249827E+03    0.64768E-03   -0.64554E-03 13932   0.117E-01    0.841E-02
RMM:   6    -0.600320298661E+03   -0.48834E-04   -0.12696E-03 15108   0.530E-02    0.569E-02
RMM:   7    -0.600320281752E+03    0.16909E-04   -0.39834E-04 12866   0.240E-02    0.130E-02
RMM:   8    -0.600320293295E+03   -0.11543E-04   -0.11097E-04 10182   0.157E-02    0.105E-02
RMM:   9    -0.600320295760E+03   -0.24645E-05   -0.37695E-05  8664   0.795E-03
  36 F= -.60032030E+03 E0= -.60031179E+03  d E =-.649429E-01
       N       E                     dE             d eps       ncg     rms          rms(c)
DAV:   1    -0.600309389027E+03    0.10904E-01   -0.32424E+00 11384   0.257E+00    0.294E-01
RMM:   2    -0.600319749791E+03   -0.10361E-01   -0.10894E-01 13260   0.662E-01    0.897E-02
RMM:   3    -0.600322014952E+03   -0.22652E-02   -0.23905E-02 15384   0.253E-01    0.913E-02
RMM:   4    -0.600322198853E+03   -0.18390E-03   -0.26590E-03 15391   0.836E-02    0.741E-02
RMM:   5    -0.600322129889E+03    0.68964E-04   -0.81075E-04 13402   0.409E-02    0.309E-02
RMM:   6    -0.600322131589E+03   -0.17005E-05   -0.14789E-04 11919   0.184E-02    0.185E-02
RMM:   7    -0.600322130870E+03    0.71940E-06   -0.51044E-05  8704   0.101E-02
  37 F= -.60032213E+03 E0= -.60031358E+03  d E =-.667780E-01
       N       E                     dE             d eps       ncg     rms          rms(c)
DAV:   1    -0.600241663556E+03    0.80468E-01   -0.29158E+01 11022   0.782E+00    0.883E-01
RMM:   2    -0.600337788953E+03   -0.96125E-01   -0.10199E+00 13410   0.205E+00    0.277E-01
RMM:   3    -0.600358450641E+03   -0.20662E-01   -0.22026E-01 15332   0.780E-01    0.274E-01
RMM:   4    -0.600360142974E+03   -0.16923E-02   -0.25790E-02 15558   0.263E-01    0.213E-01
RMM:   5    -0.600359521177E+03    0.62180E-03   -0.64003E-03 13798   0.123E-01    0.647E-02
RMM:   6    -0.600359620784E+03   -0.99607E-04   -0.15458E-03 15266   0.590E-02    0.473E-02
RMM:   7    -0.600359621095E+03   -0.31133E-06   -0.41007E-04 12922   0.247E-02    0.121E-02
RMM:   8    -0.600359633071E+03   -0.11976E-04   -0.11866E-04 10409   0.166E-02    0.823E-03
RMM:   9    -0.600359636011E+03   -0.29397E-05   -0.40271E-05  8714   0.784E-03
  38 F= -.60035964E+03 E0= -.60035161E+03  d E =-.375051E-01
       N       E                     dE             d eps       ncg     rms          rms(c)
DAV:   1    -0.600319492016E+03    0.40141E-01   -0.12474E+01 11448   0.511E+00    0.565E-01
RMM:   2    -0.600360335723E+03   -0.40844E-01   -0.42932E-01 13380   0.133E+00    0.177E-01
RMM:   3    -0.600368946250E+03   -0.86105E-02   -0.91505E-02 15296   0.504E-01    0.176E-01
RMM:   4    -0.600369564062E+03   -0.61781E-03   -0.10663E-02 15494   0.171E-01    0.121E-01
RMM:   5    -0.600369409193E+03    0.15487E-03   -0.25382E-03 14137   0.771E-02    0.396E-02
RMM:   6    -0.600369449191E+03   -0.39998E-04   -0.60950E-04 15057   0.364E-02    0.258E-02
RMM:   7    -0.600369455535E+03   -0.63441E-05   -0.16604E-04 10776   0.153E-02    0.707E-03
RMM:   8    -0.600369459885E+03   -0.43504E-05   -0.46913E-05  8901   0.105E-02
  39 F= -.60036946E+03 E0= -.60036213E+03  d E =-.473290E-01
       N       E                     dE             d eps       ncg     rms          rms(c)
DAV:   1    -0.600269735440E+03    0.99720E-01   -0.32808E+01 11158   0.840E+00    0.889E-01
RMM:   2    -0.600383398631E+03   -0.11366E+00   -0.11845E+00 13499   0.225E+00    0.284E-01
RMM:   3    -0.600408051439E+03   -0.24653E-01   -0.26012E-01 15397   0.852E-01    0.288E-01
RMM:   4    -0.600409741573E+03   -0.16901E-02   -0.31109E-02 15568   0.292E-01    0.183E-01
RMM:   5    -0.600409520131E+03    0.22144E-03   -0.68141E-03 14854   0.128E-01    0.538E-02
RMM:   6    -0.600409652257E+03   -0.13213E-03   -0.16216E-03 15488   0.594E-02    0.398E-02
RMM:   7    -0.600409676598E+03   -0.24342E-04   -0.47421E-04 13476   0.264E-02    0.117E-02
RMM:   8    -0.600409689722E+03   -0.13124E-04   -0.13070E-04 10070   0.145E-02    0.863E-03
RMM:   9    -0.600409692901E+03   -0.31794E-05   -0.48566E-05  8812   0.898E-03
  40 F= -.60040969E+03 E0= -.60040322E+03  d E =-.402330E-01
       N       E                     dE             d eps       ncg     rms          rms(c)
DAV:   1    -0.600385719625E+03    0.23970E-01   -0.73625E+00 11776   0.398E+00    0.414E-01
RMM:   2    -0.600410584295E+03   -0.24865E-01   -0.25821E-01 13432   0.105E+00    0.132E-01
RMM:   3    -0.600415953723E+03   -0.53694E-02   -0.56776E-02 15376   0.398E-01    0.135E-01
RMM:   4    -0.600416332203E+03   -0.37848E-03   -0.68204E-03 15526   0.137E-01    0.859E-02
RMM:   5    -0.600416286530E+03    0.45673E-04   -0.15365E-03 14829   0.600E-02    0.277E-02
RMM:   6    -0.600416313337E+03   -0.26808E-04   -0.35337E-04 13887   0.276E-02    0.196E-02
RMM:   7    -0.600416318003E+03   -0.46653E-05   -0.10718E-04 10126   0.134E-02    0.549E-03
RMM:   8    -0.600416320982E+03   -0.29797E-05   -0.31972E-05  8438   0.885E-03
  41 F= -.60041632E+03 E0= -.60040987E+03  d E =-.468611E-01
       N       E                     dE             d eps       ncg     rms          rms(c)
DAV:   1    -0.600295272693E+03    0.12105E+00   -0.36338E+01 11166   0.890E+00    0.902E-01
RMM:   2    -0.600422245675E+03   -0.12697E+00   -0.13183E+00 13535   0.239E+00    0.300E-01
RMM:   3    -0.600449719230E+03   -0.27474E-01   -0.28940E-01 15319   0.905E-01    0.298E-01
RMM:   4    -0.600451658583E+03   -0.19394E-02   -0.35011E-02 15649   0.312E-01    0.181E-01
RMM:   5    -0.600451512371E+03    0.14621E-03   -0.71338E-03 14923   0.129E-01    0.560E-02
RMM:   6    -0.600451648452E+03   -0.13608E-03   -0.16457E-03 15564   0.600E-02    0.409E-02
RMM:   7    -0.600451673042E+03   -0.24590E-04   -0.51020E-04 13775   0.278E-02    0.125E-02
RMM:   8    -0.600451686486E+03   -0.13444E-04   -0.13788E-04 10105   0.151E-02    0.900E-03
RMM:   9    -0.600451689875E+03   -0.33887E-05   -0.52750E-05  8848   0.948E-03
  42 F= -.60045169E+03 E0= -.60044513E+03  d E =-.353689E-01
       N       E                     dE             d eps       ncg     rms          rms(c)
DAV:   1    -0.600440265476E+03    0.11421E-01   -0.34673E+00 11960   0.274E+00    0.276E-01
RMM:   2    -0.600451860603E+03   -0.11595E-01   -0.12045E-01 13419   0.725E-01    0.923E-02
RMM:   3    -0.600454419157E+03   -0.25586E-02   -0.27080E-02 15288   0.275E-01    0.915E-02
RMM:   4    -0.600454621959E+03   -0.20280E-03   -0.33692E-03 15586   0.965E-02    0.584E-02
RMM:   5    -0.600454603291E+03    0.18668E-04   -0.69597E-04 14450   0.404E-02    0.174E-02
RMM:   6    -0.600454616521E+03   -0.13230E-04   -0.16323E-04 12187   0.193E-02    0.134E-02
RMM:   7    -0.600454618297E+03   -0.17757E-05   -0.49770E-05  9230   0.103E-02
  43 F= -.60045462E+03 E0= -.60044803E+03  d E =-.382973E-01
       N       E                     dE             d eps       ncg     rms          rms(c)
DAV:   1    -0.600336191673E+03    0.11842E+00   -0.33590E+01 11366   0.862E+00    0.821E-01
RMM:   2    -0.600456717313E+03   -0.12053E+00   -0.12473E+00 13604   0.238E+00    0.278E-01
RMM:   3    -0.600484401469E+03   -0.27684E-01   -0.28746E-01 15313   0.900E-01    0.275E-01
RMM:   4    -0.600486583572E+03   -0.21821E-02   -0.33684E-02 15694   0.305E-01    0.179E-01
RMM:   5    -0.600486392557E+03    0.19101E-03   -0.67934E-03 14840   0.125E-01    0.631E-02
RMM:   6    -0.600486498283E+03   -0.10573E-03   -0.14849E-03 15600   0.579E-02    0.434E-02
RMM:   7    -0.600486516406E+03   -0.18123E-04   -0.49395E-04 13708   0.272E-02    0.137E-02
RMM:   8    -0.600486527677E+03   -0.11270E-04   -0.12022E-04  9893   0.147E-02    0.122E-02
RMM:   9    -0.600486529421E+03   -0.17442E-05   -0.48445E-05  8804   0.913E-03
  44 F= -.60048653E+03 E0= -.60047999E+03  d E =-.319111E-01
       N       E                     dE             d eps       ncg     rms          rms(c)
DAV:   1    -0.600472118120E+03    0.14410E-01   -0.41683E+00 11872   0.303E+00    0.288E-01
RMM:   2    -0.600486241272E+03   -0.14123E-01   -0.14634E-01 13443   0.820E-01    0.981E-02
RMM:   3    -0.600489620706E+03   -0.33794E-02   -0.35204E-02 15288   0.313E-01    0.958E-02
RMM:   4    -0.600489906607E+03   -0.28590E-03   -0.42590E-03 15595   0.108E-01    0.621E-02
RMM:   5    -0.600489886390E+03    0.20217E-04   -0.85254E-04 14726   0.446E-02    0.203E-02
RMM:   6    -0.600489901311E+03   -0.14921E-04   -0.19370E-04 12762   0.209E-02    0.149E-02
RMM:   7    -0.600489903334E+03   -0.20225E-05   -0.59534E-05  9408   0.110E-02
  45 F= -.60048990E+03 E0= -.60048340E+03  d E =-.352850E-01
       N       E                     dE             d eps       ncg     rms          rms(c)
DAV:   1    -0.600357113808E+03    0.13279E+00   -0.36556E+01 11511   0.890E+00    0.847E-01
RMM:   2    -0.600490590682E+03   -0.13348E+00   -0.13832E+00 13635   0.250E+00    0.288E-01
RMM:   3    -0.600521005965E+03   -0.30415E-01   -0.31198E-01 15280   0.936E-01    0.279E-01
RMM:   4    -0.600523438383E+03   -0.24324E-02   -0.36684E-02 15676   0.318E-01    0.185E-01
RMM:   5    -0.600523220198E+03    0.21818E-03   -0.72799E-03 14912   0.128E-01    0.605E-02
RMM:   6    -0.600523339054E+03   -0.11886E-03   -0.15691E-03 15584   0.588E-02    0.420E-02
RMM:   7    -0.600523360030E+03   -0.20976E-04   -0.50548E-04 13753   0.273E-02    0.127E-02
RMM:   8    -0.600523372519E+03   -0.12489E-04   -0.12897E-04 10039   0.149E-02    0.117E-02
RMM:   9    -0.600523374400E+03   -0.18814E-05   -0.50441E-05  8804   0.916E-03
  46 F= -.60052337E+03 E0= -.60051679E+03  d E =-.334711E-01
       N       E                     dE             d eps       ncg     rms          rms(c)
DAV:   1    -0.600489925134E+03    0.33447E-01   -0.90481E+00 11896   0.441E+00    0.422E-01
RMM:   2    -0.600521523729E+03   -0.31599E-01   -0.32765E-01 13545   0.122E+00    0.143E-01
RMM:   3    -0.600528863881E+03   -0.73402E-02   -0.75568E-02 15267   0.458E-01    0.137E-01
RMM:   4    -0.600529474336E+03   -0.61046E-03   -0.89046E-03 15667   0.157E-01    0.922E-02
RMM:   5    -0.600529418897E+03    0.55439E-04   -0.18030E-03 14767   0.635E-02    0.319E-02
RMM:   6    -0.600529447153E+03   -0.28256E-04   -0.39423E-04 14254   0.295E-02    0.219E-02
RMM:   7    -0.600529451456E+03   -0.43032E-05   -0.12642E-04 10443   0.144E-02    0.612E-03
RMM:   8    -0.600529454526E+03   -0.30700E-05   -0.35589E-05  8489   0.967E-03
  47 F= -.60052945E+03 E0= -.60052285E+03  d E =-.395512E-01
       N       E                     dE             d eps       ncg     rms          rms(c)
DAV:   1    -0.600381976063E+03    0.14748E+00   -0.41748E+01 11592   0.929E+00    0.919E-01
RMM:   2    -0.600529580819E+03   -0.14760E+00   -0.15355E+00 13485   0.258E+00    0.310E-01
RMM:   3    -0.600563759300E+03   -0.34178E-01   -0.35110E-01 15211   0.972E-01    0.292E-01
RMM:   4    -0.600566319470E+03   -0.25602E-02   -0.41628E-02 15595   0.334E-01    0.168E-01
RMM:   5    -0.600566290000E+03    0.29470E-04   -0.79940E-03 15068   0.133E-01    0.561E-02
RMM:   6    -0.600566438639E+03   -0.14864E-03   -0.18249E-03 15610   0.609E-02    0.375E-02
RMM:   7    -0.600566474670E+03   -0.36031E-04   -0.56111E-04 13624   0.286E-02    0.135E-02
RMM:   8    -0.600566487672E+03   -0.13002E-04   -0.14746E-04 10266   0.156E-02    0.938E-03
RMM:   9    -0.600566491194E+03   -0.35223E-05   -0.57667E-05  8930   0.945E-03
  48 F= -.60056649E+03 E0= -.60055993E+03  d E =-.370367E-01
       N       E                     dE             d eps       ncg     rms          rms(c)
DAV:   1    -0.600498575925E+03    0.67912E-01   -0.17889E+01 11832   0.607E+00    0.607E-01
RMM:   2    -0.600561630146E+03   -0.63054E-01   -0.65596E-01 13521   0.168E+00    0.205E-01
RMM:   3    -0.600576046009E+03   -0.14416E-01   -0.14853E-01 15219   0.630E-01    0.190E-01
RMM:   4    -0.600577196760E+03   -0.11508E-02   -0.17510E-02 15681   0.217E-01    0.117E-01
RMM:   5    -0.600577158313E+03    0.38447E-04   -0.34646E-03 14920   0.862E-02    0.431E-02
RMM:   6    -0.600577212164E+03   -0.53851E-04   -0.76573E-04 15265   0.397E-02    0.275E-02
RMM:   7    -0.600577225155E+03   -0.12990E-04   -0.24657E-04 11644   0.189E-02    0.894E-03
RMM:   8    -0.600577230710E+03   -0.55551E-05   -0.64120E-05  9176   0.117E-02
  49 F= -.60057723E+03 E0= -.60057071E+03  d E =-.477762E-01
       N       E                     dE             d eps       ncg     rms          rms(c)
DAV:   1    -0.600403916695E+03    0.17331E+00   -0.46942E+01 11440   0.976E+00    0.994E-01
RMM:   2    -0.600573977137E+03   -0.17006E+00   -0.17701E+00 13564   0.274E+00    0.330E-01
RMM:   3    -0.600612770175E+03   -0.38793E-01   -0.39608E-01 15299   0.103E+00    0.312E-01
RMM:   4    -0.600615585368E+03   -0.28152E-02   -0.45850E-02 15533   0.349E-01    0.182E-01
RMM:   5    -0.600615540511E+03    0.44857E-04   -0.91302E-03 15239   0.142E-01    0.533E-02
RMM:   6    -0.600615719787E+03   -0.17928E-03   -0.20109E-03 15371   0.650E-02    0.407E-02
RMM:   7    -0.600615762118E+03   -0.42331E-04   -0.66172E-04 13922   0.312E-02    0.136E-02
RMM:   8    -0.600615777864E+03   -0.15746E-04   -0.16935E-04 10316   0.159E-02    0.114E-02
RMM:   9    -0.600615781019E+03   -0.31554E-05   -0.64592E-05  9051   0.991E-03
  50 F= -.60061578E+03 E0= -.60060903E+03  d E =-.385503E-01
       N       E                     dE             d eps       ncg     rms          rms(c)
DAV:   1    -0.600574313925E+03    0.41464E-01   -0.11096E+01 11624   0.473E+00    0.488E-01
RMM:   2    -0.600613630085E+03   -0.39316E-01   -0.40877E-01 13579   0.131E+00    0.161E-01
RMM:   3    -0.600622250671E+03   -0.86206E-02   -0.88385E-02 15298   0.488E-01    0.151E-01
RMM:   4    -0.600622883207E+03   -0.63254E-03   -0.10101E-02 15625   0.165E-01    0.930E-02
RMM:   5    -0.600622855269E+03    0.27938E-04   -0.21209E-03 15104   0.675E-02    0.285E-02
RMM:   6    -0.600622895053E+03   -0.39784E-04   -0.47093E-04 14033   0.312E-02    0.209E-02
RMM:   7    -0.600622903937E+03   -0.88836E-05   -0.15526E-04 10785   0.157E-02    0.672E-03
RMM:   8    -0.600622907728E+03   -0.37909E-05   -0.43479E-05  8734   0.990E-03
  51 F= -.60062291E+03 E0= -.60061605E+03  d E =-.456770E-01
       N       E                     dE             d eps       ncg     rms          rms(c)
DAV:   1    -0.600463704140E+03    0.15920E+00   -0.41084E+01 11248   0.930E+00    0.931E-01
RMM:   2    -0.600616064514E+03   -0.15236E+00   -0.15796E+00 13607   0.264E+00    0.310E-01
RMM:   3    -0.600651405002E+03   -0.35340E-01   -0.36246E-01 15402   0.998E-01    0.299E-01
RMM:   4    -0.600654048060E+03   -0.26431E-02   -0.41002E-02 15645   0.337E-01    0.186E-01
RMM:   5    -0.600653888326E+03    0.15973E-03   -0.83523E-03 15209   0.139E-01    0.563E-02
RMM:   6    -0.600654050277E+03   -0.16195E-03   -0.18303E-03 15227   0.646E-02    0.456E-02
RMM:   7    -0.600654081441E+03   -0.31164E-04   -0.63642E-04 13892   0.313E-02    0.138E-02
RMM:   8    -0.600654096685E+03   -0.15244E-04   -0.15633E-04 10326   0.161E-02    0.137E-02
RMM:   9    -0.600654097931E+03   -0.12458E-05   -0.58677E-05  9062   0.988E-03
  52 F= -.60065410E+03 E0= -.60064706E+03  d E =-.311902E-01
       N       E                     dE             d eps       ncg     rms          rms(c)
DAV:   1    -0.600646396725E+03    0.77000E-02   -0.21614E+00 11792   0.213E+00    0.213E-01
RMM:   2    -0.600653837142E+03   -0.74404E-02   -0.77144E-02 13517   0.589E-01    0.725E-02
RMM:   3    -0.600655639475E+03   -0.18023E-02   -0.18609E-02 15356   0.223E-01    0.675E-02
RMM:   4    -0.600655789754E+03   -0.15028E-03   -0.22114E-03 15529   0.771E-02    0.429E-02
RMM:   5    -0.600655782662E+03    0.70922E-05   -0.44687E-04 13805   0.320E-02    0.120E-02
RMM:   6    -0.600655791847E+03   -0.91853E-05   -0.10309E-04 10783   0.159E-02    0.103E-02
RMM:   7    -0.600655793377E+03   -0.15300E-05   -0.33556E-05  8635   0.926E-03
  53 F= -.60065579E+03 E0= -.60064872E+03  d E =-.328856E-01
       N       E                     dE             d eps       ncg     rms          rms(c)
DAV:   1    -0.600498025002E+03    0.15777E+00   -0.40831E+01 11190   0.940E+00    0.941E-01
RMM:   2    -0.600646194832E+03   -0.14817E+00   -0.15366E+00 13551   0.260E+00    0.317E-01
RMM:   3    -0.600679515024E+03   -0.33320E-01   -0.34645E-01 15364   0.988E-01    0.313E-01
RMM:   4    -0.600681825890E+03   -0.23109E-02   -0.40186E-02 15654   0.338E-01    0.192E-01
RMM:   5    -0.600681591966E+03    0.23392E-03   -0.83798E-03 15100   0.140E-01    0.574E-02
RMM:   6    -0.600681754549E+03   -0.16258E-03   -0.18475E-03 15356   0.651E-02    0.459E-02
RMM:   7    -0.600681782252E+03   -0.27703E-04   -0.62068E-04 14104   0.312E-02    0.134E-02
RMM:   8    -0.600681798298E+03   -0.16046E-04   -0.15630E-04 10337   0.158E-02    0.140E-02
RMM:   9    -0.600681799430E+03   -0.11322E-05   -0.59335E-05  9055   0.102E-02
  54 F= -.60068180E+03 E0= -.60067423E+03  d E =-.260061E-01
       N       E                     dE             d eps       ncg     rms          rms(c)
DAV:   1    -0.600680849716E+03    0.94858E-03   -0.29422E-01 12024   0.795E-01    0.796E-02
RMM:   2    -0.600681841537E+03   -0.99182E-03   -0.10279E-02 13445   0.211E-01    0.267E-02
RMM:   3    -0.600682056572E+03   -0.21504E-03   -0.22458E-03 15238   0.797E-02    0.254E-02
RMM:   4    -0.600682071960E+03   -0.15388E-04   -0.27159E-04 13612   0.283E-02    0.158E-02
RMM:   5    -0.600682071819E+03    0.14135E-06   -0.71081E-05 10327   0.149E-02
  55 F= -.60068207E+03 E0= -.60067446E+03  d E =-.262784E-01
       N       E                     dE             d eps       ncg     rms          rms(c)
DAV:   1    -0.600554174069E+03    0.12790E+00   -0.34597E+01 11112   0.871E+00    0.891E-01
RMM:   2    -0.600673812675E+03   -0.11964E+00   -0.12424E+00 13386   0.235E+00    0.291E-01
RMM:   3    -0.600702234661E+03   -0.28422E-01   -0.29406E-01 15329   0.917E-01    0.291E-01
RMM:   4    -0.600704385688E+03   -0.21510E-02   -0.34583E-02 15686   0.312E-01    0.192E-01
RMM:   5    -0.600704084579E+03    0.30111E-03   -0.71696E-03 14720   0.131E-01    0.558E-02
RMM:   6    -0.600704234012E+03   -0.14943E-03   -0.16908E-03 15264   0.629E-02    0.478E-02
RMM:   7    -0.600704251683E+03   -0.17671E-04   -0.56744E-04 13869   0.296E-02    0.131E-02
RMM:   8    -0.600704266204E+03   -0.14521E-04   -0.13891E-04 10135   0.153E-02    0.145E-02
RMM:   9    -0.600704266409E+03   -0.20589E-06   -0.51344E-05  9022   0.943E-03
  56 F= -.60070427E+03 E0= -.60069637E+03  d E =-.221946E-01
       N       E                     dE             d eps       ncg     rms          rms(c)
DAV:   1    -0.600702294593E+03    0.19716E-02   -0.59086E-01 12072   0.114E+00    0.116E-01
RMM:   2    -0.600704278196E+03   -0.19836E-02   -0.20583E-02 13370   0.297E-01    0.375E-02
RMM:   3    -0.600704713774E+03   -0.43558E-03   -0.45288E-03 15266   0.114E-01    0.369E-02
RMM:   4    -0.600704746853E+03   -0.33079E-04   -0.54781E-04 15104   0.397E-02    0.245E-02
RMM:   5    -0.600704743849E+03    0.30036E-05   -0.13414E-04 11450   0.183E-02    0.823E-03
RMM:   6    -0.600704745571E+03   -0.17211E-05   -0.29245E-05  8391   0.936E-03
  57 F= -.60070475E+03 E0= -.60069681E+03  d E =-.226738E-01
       N       E                     dE             d eps       ncg     rms          rms(c)
DAV:   1    -0.600615630150E+03    0.89114E-01   -0.24635E+01 10988   0.730E+00    0.780E-01
RMM:   2    -0.600699385121E+03   -0.83755E-01   -0.87360E-01 13338   0.194E+00    0.251E-01
RMM:   3    -0.600718565061E+03   -0.19180E-01   -0.19983E-01 15369   0.755E-01    0.251E-01
RMM:   4    -0.600719984381E+03   -0.14193E-02   -0.23193E-02 15682   0.255E-01    0.173E-01
RMM:   5    -0.600719695957E+03    0.28842E-03   -0.52056E-03 14529   0.109E-01    0.525E-02
RMM:   6    -0.600719794362E+03   -0.98405E-04   -0.11957E-03 15000   0.525E-02    0.425E-02
RMM:   7    -0.600719803482E+03   -0.91204E-05   -0.39659E-04 13303   0.248E-02    0.110E-02
RMM:   8    -0.600719813892E+03   -0.10409E-04   -0.10247E-04  9833   0.140E-02    0.108E-02
RMM:   9    -0.600719815083E+03   -0.11918E-05   -0.36375E-05  8587   0.787E-03
  58 F= -.60071982E+03 E0= -.60071171E+03  d E =-.150695E-01
       N       E                     dE             d eps       ncg     rms          rms(c)
DAV:   1    -0.600719012925E+03    0.80097E-03   -0.24231E-01 12032   0.723E-01    0.771E-02
RMM:   2    -0.600719819382E+03   -0.80646E-03   -0.84045E-03 13329   0.188E-01    0.245E-02
RMM:   3    -0.600719996428E+03   -0.17705E-03   -0.18624E-03 15278   0.727E-02    0.241E-02
RMM:   4    -0.600720009212E+03   -0.12784E-04   -0.21923E-04 13225   0.252E-02    0.165E-02
RMM:   5    -0.600720008241E+03    0.97052E-06   -0.66078E-05 10159   0.149E-02
  59 F= -.60072001E+03 E0= -.60071189E+03  d E =-.152627E-01
       N       E                     dE             d eps       ncg     rms          rms(c)
DAV:   1    -0.600645091385E+03    0.74918E-01   -0.21638E+01 10985   0.689E+00    0.721E-01
RMM:   2    -0.600715583450E+03   -0.70492E-01   -0.73496E-01 13266   0.182E+00    0.228E-01
RMM:   3    -0.600732804846E+03   -0.17221E-01   -0.17859E-01 15291   0.719E-01    0.226E-01
RMM:   4    -0.600734181421E+03   -0.13766E-02   -0.20293E-02 15696   0.240E-01    0.160E-01
RMM:   5    -0.600733922277E+03    0.25914E-03   -0.43407E-03 14005   0.102E-01    0.510E-02
RMM:   6    -0.600734014958E+03   -0.92681E-04   -0.10981E-03 15303   0.503E-02    0.425E-02
RMM:   7    -0.600734017196E+03   -0.22385E-05   -0.32736E-04 13024   0.229E-02    0.997E-03
RMM:   8    -0.600734027118E+03   -0.99223E-05   -0.91095E-05  9696   0.137E-02
  60 F= -.60073403E+03 E0= -.60072586E+03  d E =-.140189E-01
       N       E                     dE             d eps       ncg     rms          rms(c)
DAV:   1    -0.600730894098E+03    0.31231E-02   -0.10503E+00 11768   0.152E+00    0.155E-01
RMM:   2    -0.600734236321E+03   -0.33422E-02   -0.34825E-02 13248   0.391E-01    0.497E-02
RMM:   3    -0.600735015837E+03   -0.77952E-03   -0.81341E-03 15258   0.153E-01    0.496E-02
RMM:   4    -0.600735077565E+03   -0.61729E-04   -0.94661E-04 15381   0.515E-02    0.344E-02
RMM:   5    -0.600735069804E+03    0.77610E-05   -0.24116E-04 12780   0.233E-02    0.133E-02
RMM:   6    -0.600735071573E+03   -0.17684E-05   -0.46255E-05  9296   0.111E-02
  61 F= -.60073507E+03 E0= -.60072691E+03  d E =-.150633E-01
       N       E                     dE             d eps       ncg     rms          rms(c)
DAV:   1    -0.600705437747E+03    0.29632E-01   -0.10311E+01 11174   0.479E+00    0.490E-01
RMM:   2    -0.600738923765E+03   -0.33486E-01   -0.34812E-01 13319   0.125E+00    0.154E-01
RMM:   3    -0.600746660437E+03   -0.77367E-02   -0.80072E-02 15290   0.486E-01    0.154E-01
RMM:   4    -0.600747308867E+03   -0.64843E-03   -0.92791E-03 15712   0.163E-01    0.112E-01
RMM:   5    -0.600747177442E+03    0.13143E-03   -0.19774E-03 13652   0.691E-02    0.359E-02
RMM:   6    -0.600747219749E+03   -0.42308E-04   -0.51490E-04 15214   0.346E-02    0.292E-02
RMM:   7    -0.600747219213E+03    0.53670E-06   -0.13838E-04 11368   0.152E-02    0.651E-03
RMM:   8    -0.600747223940E+03   -0.47269E-05   -0.43219E-05  8956   0.103E-02
  62 F= -.60074722E+03 E0= -.60073906E+03  d E =-.121524E-01
       N       E                     dE             d eps       ncg     rms          rms(c)
DAV:   1    -0.600736544371E+03    0.10675E-01   -0.36168E+00 11544   0.283E+00    0.287E-01
RMM:   2    -0.600748146410E+03   -0.11602E-01   -0.12060E-01 13308   0.732E-01    0.907E-02
RMM:   3    -0.600750768883E+03   -0.26225E-02   -0.27177E-02 15262   0.283E-01    0.905E-02
RMM:   4    -0.600750986489E+03   -0.21761E-03   -0.31998E-03 15659   0.960E-02    0.648E-02
RMM:   5    -0.600750946284E+03    0.40205E-04   -0.70855E-04 13925   0.404E-02    0.219E-02
RMM:   6    -0.600750957967E+03   -0.11683E-04   -0.16365E-04 12601   0.198E-02    0.160E-02
RMM:   7    -0.600750958427E+03   -0.46020E-06   -0.47073E-05  9019   0.105E-02
  63 F= -.60075096E+03 E0= -.60074284E+03  d E =-.158869E-01
       N       E                     dE             d eps       ncg     rms          rms(c)
DAV:   1    -0.600692222335E+03    0.58736E-01   -0.14468E+01 11190   0.567E+00    0.576E-01
RMM:   2    -0.600739164629E+03   -0.46942E-01   -0.48799E-01 13310   0.148E+00    0.182E-01
RMM:   3    -0.600749966768E+03   -0.10802E-01   -0.11189E-01 15278   0.575E-01    0.183E-01
RMM:   4    -0.600750861067E+03   -0.89430E-03   -0.13083E-02 15693   0.194E-01    0.131E-01
RMM:   5    -0.600750680687E+03    0.18038E-03   -0.27825E-03 13706   0.820E-02    0.420E-02
RMM:   6    -0.600750739746E+03   -0.59059E-04   -0.71930E-04 15439   0.408E-02    0.336E-02
RMM:   7    -0.600750740373E+03   -0.62709E-06   -0.19609E-04 12307   0.176E-02    0.767E-03
RMM:   8    -0.600750746722E+03   -0.63490E-05   -0.58095E-05  9220   0.115E-02
  64 F= -.60075075E+03 E0= -.60074282E+03  d E =-.156751E-01
       N       E                     dE             d eps       ncg     rms          rms(c)
DAV:   1    -0.600731217387E+03    0.19523E-01   -0.52223E+00 11176   0.341E+00    0.350E-01
RMM:   2    -0.600748056531E+03   -0.16839E-01   -0.17514E-01 13325   0.883E-01    0.109E-01
RMM:   3    -0.600751822777E+03   -0.37662E-02   -0.39005E-02 15251   0.340E-01    0.108E-01
RMM:   4    -0.600752130914E+03   -0.30814E-03   -0.46338E-03 15655   0.116E-01    0.761E-02
RMM:   5    -0.600752076488E+03    0.54427E-04   -0.98742E-04 14204   0.484E-02    0.252E-02
RMM:   6    -0.600752092781E+03   -0.16294E-04   -0.22355E-04 13590   0.231E-02    0.184E-02
RMM:   7    -0.600752093318E+03   -0.53610E-06   -0.61733E-05  9348   0.113E-02
  65 F= -.60075209E+03 E0= -.60074404E+03  d E =-.170217E-01
       N       E                     dE             d eps       ncg     rms          rms(c)
DAV:   1    -0.600739983693E+03    0.12109E-01   -0.48092E+00 11128   0.328E+00    0.335E-01
RMM:   2    -0.600755180126E+03   -0.15196E-01   -0.15782E-01 13229   0.849E-01    0.106E-01
RMM:   3    -0.600758862826E+03   -0.36827E-02   -0.37856E-02 15251   0.334E-01    0.102E-01
RMM:   4    -0.600759189798E+03   -0.32697E-03   -0.44735E-03 15727   0.113E-01    0.759E-02
RMM:   5    -0.600759135407E+03    0.54391E-04   -0.95751E-04 13996   0.468E-02    0.293E-02
RMM:   6    -0.600759148466E+03   -0.13059E-04   -0.21539E-04 13475   0.225E-02    0.202E-02
RMM:   7    -0.600759148024E+03    0.44169E-06   -0.62297E-05  9322   0.113E-02
  66 F= -.60075915E+03 E0= -.60075122E+03  d E =-.705471E-02
       N       E                     dE             d eps       ncg     rms          rms(c)
DAV:   1    -0.600735928959E+03    0.23220E-01   -0.70543E+00 11400   0.397E+00    0.397E-01
RMM:   2    -0.600758326379E+03   -0.22397E-01   -0.23253E-01 13231   0.103E+00    0.127E-01
RMM:   3    -0.600763667779E+03   -0.53414E-02   -0.55150E-02 15225   0.404E-01    0.126E-01
RMM:   4    -0.600764144106E+03   -0.47633E-03   -0.66820E-03 15737   0.137E-01    0.927E-02
RMM:   5    -0.600764064142E+03    0.79964E-04   -0.14274E-03 13866   0.569E-02    0.347E-02
RMM:   6    -0.600764085876E+03   -0.21734E-04   -0.33544E-04 14424   0.276E-02    0.242E-02
RMM:   7    -0.600764085856E+03    0.19456E-07   -0.95662E-05  9823   0.129E-02
  67 F= -.60076409E+03 E0= -.60075636E+03  d E =-.119925E-01
       N       E                     dE             d eps       ncg     rms          rms(c)
DAV:   1    -0.600647371875E+03    0.11671E+00   -0.28186E+01 11251   0.794E+00    0.797E-01
RMM:   2    -0.600737815224E+03   -0.90443E-01   -0.93903E-01 13225   0.209E+00    0.256E-01
RMM:   3    -0.600760183414E+03   -0.22368E-01   -0.23044E-01 15259   0.825E-01    0.253E-01
RMM:   4    -0.600762149951E+03   -0.19665E-02   -0.27344E-02 15730   0.278E-01    0.186E-01
RMM:   5    -0.600761799374E+03    0.35058E-03   -0.55710E-03 13567   0.116E-01    0.637E-02
RMM:   6    -0.600761914473E+03   -0.11510E-03   -0.14589E-03 15646   0.580E-02    0.499E-02
RMM:   7    -0.600761912210E+03    0.22632E-05   -0.39732E-04 13066   0.250E-02    0.111E-02
RMM:   8    -0.600761925553E+03   -0.13343E-04   -0.11456E-04 10141   0.154E-02    0.140E-02
RMM:   9    -0.600761925769E+03   -0.21569E-06   -0.38069E-05  8796   0.849E-03
  68 F= -.60076193E+03 E0= -.60075471E+03  d E =-.983245E-02
       N       E                     dE             d eps       ncg     rms          rms(c)
DAV:   1    -0.600708230594E+03    0.53695E-01   -0.14297E+01 11259   0.565E+00    0.568E-01
RMM:   2    -0.600753527603E+03   -0.45297E-01   -0.47046E-01 13228   0.147E+00    0.181E-01
RMM:   3    -0.600764297367E+03   -0.10770E-01   -0.11096E-01 15224   0.575E-01    0.178E-01
RMM:   4    -0.600765223583E+03   -0.92622E-03   -0.13469E-02 15710   0.195E-01    0.127E-01
RMM:   5    -0.600765073357E+03    0.15023E-03   -0.27599E-03 13954   0.806E-02    0.433E-02
RMM:   6    -0.600765123416E+03   -0.50059E-04   -0.67410E-04 15433   0.392E-02    0.314E-02
RMM:   7    -0.600765126044E+03   -0.26279E-05   -0.18828E-04 12177   0.172E-02    0.744E-03
RMM:   8    -0.600765131558E+03   -0.55137E-05   -0.52880E-05  9091   0.110E-02
  69 F= -.60076513E+03 E0= -.60075754E+03  d E =-.130382E-01
       N       E                     dE             d eps       ncg     rms          rms(c)
DAV:   1    -0.600752520190E+03    0.12606E-01   -0.49335E+00 11160   0.333E+00    0.334E-01
RMM:   2    -0.600768162970E+03   -0.15643E-01   -0.16206E-01 13228   0.861E-01    0.105E-01
RMM:   3    -0.600771897486E+03   -0.37345E-02   -0.38364E-02 15271   0.338E-01    0.104E-01
RMM:   4    -0.600772238595E+03   -0.34111E-03   -0.46318E-03 15723   0.115E-01    0.794E-02
RMM:   5    -0.600772172277E+03    0.66318E-04   -0.97379E-04 13786   0.478E-02    0.292E-02
RMM:   6    -0.600772188393E+03   -0.16116E-04   -0.22915E-04 13776   0.235E-02    0.224E-02
RMM:   7    -0.600772186199E+03    0.21940E-05   -0.66841E-05  9519   0.118E-02
  70 F= -.60077219E+03 E0= -.60076478E+03  d E =-.705464E-02
       N       E                     dE             d eps       ncg     rms          rms(c)
DAV:   1    -0.600750435099E+03    0.21753E-01   -0.66598E+00 11400   0.387E+00    0.381E-01
RMM:   2    -0.600771543849E+03   -0.21109E-01   -0.21867E-01 13221   0.100E+00    0.122E-01
RMM:   3    -0.600776600922E+03   -0.50571E-02   -0.52061E-02 15255   0.393E-01    0.122E-01
RMM:   4    -0.600777066799E+03   -0.46588E-03   -0.63596E-03 15738   0.134E-01    0.937E-02
RMM:   5    -0.600776976090E+03    0.90709E-04   -0.13596E-03 13715   0.558E-02    0.349E-02
RMM:   6    -0.600776999121E+03   -0.23031E-04   -0.32578E-04 14445   0.276E-02    0.266E-02
RMM:   7    -0.600776996348E+03    0.27733E-05   -0.96593E-05 10120   0.133E-02
  71 F= -.60077700E+03 E0= -.60076983E+03  d E =-.118648E-01
       N       E                     dE             d eps       ncg     rms          rms(c)
DAV:   1    -0.600667599621E+03    0.10940E+00   -0.26607E+01 11242   0.773E+00    0.767E-01
RMM:   2    -0.600752962713E+03   -0.85363E-01   -0.88441E-01 13223   0.203E+00    0.245E-01
RMM:   3    -0.600774058226E+03   -0.21096E-01   -0.21684E-01 15284   0.803E-01    0.244E-01
RMM:   4    -0.600775997487E+03   -0.19393E-02   -0.26249E-02 15735   0.271E-01    0.187E-01
RMM:   5    -0.600775610843E+03    0.38664E-03   -0.52988E-03 13426   0.114E-01    0.631E-02
RMM:   6    -0.600775730489E+03   -0.11965E-03   -0.14161E-03 15581   0.578E-02    0.540E-02
RMM:   7    -0.600775717262E+03    0.13227E-04   -0.39623E-04 13008   0.256E-02    0.107E-02
RMM:   8    -0.600775731671E+03   -0.14410E-04   -0.11828E-04 10715   0.166E-02    0.157E-02
RMM:   9    -0.600775730469E+03    0.12025E-05   -0.37029E-05  8859   0.866E-03
  72 F= -.60077573E+03 E0= -.60076909E+03  d E =-.105989E-01
       N       E                     dE             d eps       ncg     rms          rms(c)
DAV:   1    -0.600730522996E+03    0.45209E-01   -0.11867E+01 11139   0.516E+00    0.515E-01
RMM:   2    -0.600768237582E+03   -0.37715E-01   -0.39071E-01 13213   0.134E+00    0.164E-01
RMM:   3    -0.600777444677E+03   -0.92071E-02   -0.94652E-02 15260   0.530E-01    0.162E-01
RMM:   4    -0.600778294934E+03   -0.85026E-03   -0.11409E-02 15758   0.180E-01    0.125E-01
RMM:   5    -0.600778127018E+03    0.16792E-03   -0.23551E-03 13582   0.747E-02    0.462E-02
RMM:   6    -0.600778170843E+03   -0.43825E-04   -0.58105E-04 15271   0.372E-02    0.365E-02
RMM:   7    -0.600778164343E+03    0.65004E-05   -0.17265E-04 12358   0.171E-02    0.706E-03
RMM:   8    -0.600778170293E+03   -0.59505E-05   -0.50291E-05  9019   0.114E-02
  73 F= -.60077817E+03 E0= -.60077118E+03  d E =-.130387E-01
       N       E                     dE             d eps       ncg     rms          rms(c)
DAV:   1    -0.600754557036E+03    0.23607E-01   -0.80022E+00 11232   0.423E+00    0.423E-01
RMM:   2    -0.600779501171E+03   -0.24944E-01   -0.25870E-01 13149   0.109E+00    0.135E-01
RMM:   3    -0.600785530679E+03   -0.60295E-02   -0.61976E-02 15204   0.431E-01    0.132E-01
RMM:   4    -0.600786079327E+03   -0.54865E-03   -0.76462E-03 15736   0.147E-01    0.987E-02
RMM:   5    -0.600785985552E+03    0.93775E-04   -0.15909E-03 14129   0.604E-02    0.365E-02
RMM:   6    -0.600786010340E+03   -0.24788E-04   -0.36023E-04 14314   0.288E-02    0.268E-02
RMM:   7    -0.600786008717E+03    0.16231E-05   -0.11184E-04 10578   0.143E-02    0.614E-03
RMM:   8    -0.600786012533E+03   -0.38158E-05   -0.33650E-05  8440   0.967E-03
  74 F= -.60078601E+03 E0= -.60077929E+03  d E =-.784224E-02
       N       E                     dE             d eps       ncg     rms          rms(c)
DAV:   1    -0.600760548760E+03    0.25460E-01   -0.74351E+00 11616   0.407E+00    0.403E-01
RMM:   2    -0.600783581895E+03   -0.23033E-01   -0.23886E-01 13146   0.104E+00    0.129E-01
RMM:   3    -0.600789082846E+03   -0.55010E-02   -0.56522E-02 15204   0.411E-01    0.126E-01
RMM:   4    -0.600789585832E+03   -0.50299E-03   -0.71272E-03 15725   0.141E-01    0.928E-02
RMM:   5    -0.600789511006E+03    0.74826E-04   -0.14966E-03 14325   0.576E-02    0.342E-02
RMM:   6    -0.600789532746E+03   -0.21740E-04   -0.33084E-04 13991   0.271E-02    0.237E-02
RMM:   7    -0.600789533325E+03   -0.57894E-06   -0.10405E-04 10118   0.136E-02    0.593E-03
RMM:   8    -0.600789536685E+03   -0.33595E-05   -0.31472E-05  8369   0.927E-03
  75 F= -.60078954E+03 E0= -.60078309E+03  d E =-.113664E-01
       N       E                     dE             d eps       ncg     rms          rms(c)
DAV:   1    -0.600777133163E+03    0.12400E-01   -0.45598E+00 11336   0.320E+00    0.313E-01
RMM:   2    -0.600792012688E+03   -0.14880E-01   -0.15362E-01 13353   0.840E-01    0.100E-01
RMM:   3    -0.600795635919E+03   -0.36232E-02   -0.37113E-02 15354   0.329E-01    0.101E-01
RMM:   4    -0.600795974836E+03   -0.33892E-03   -0.42513E-03 15742   0.110E-01    0.823E-02
RMM:   5    -0.600795892800E+03    0.82036E-04   -0.98286E-04 13793   0.469E-02    0.324E-02
RMM:   6    -0.600795910352E+03   -0.17552E-04   -0.22823E-04 13646   0.233E-02    0.268E-02
RMM:   7    -0.600795903984E+03    0.63683E-05   -0.72509E-05  9736   0.124E-02
  76 F= -.60079590E+03 E0= -.60078968E+03  d E =-.636730E-02
       N       E                     dE             d eps       ncg     rms          rms(c)
DAV:   1    -0.600792940669E+03    0.29697E-02   -0.11872E+00 11752   0.163E+00    0.154E-01
RMM:   2    -0.600796814408E+03   -0.38737E-02   -0.40006E-02 13353   0.426E-01    0.508E-02
RMM:   3    -0.600797746235E+03   -0.93183E-03   -0.96031E-03 15322   0.167E-01    0.537E-02
RMM:   4    -0.600797831852E+03   -0.85617E-04   -0.10990E-03 15455   0.561E-02    0.446E-02
RMM:   5    -0.600797809404E+03    0.22448E-04   -0.29718E-04 12754   0.262E-02    0.189E-02
RMM:   6    -0.600797812208E+03   -0.28035E-05   -0.57695E-05  9692   0.127E-02
  77 F= -.60079781E+03 E0= -.60079171E+03  d E =-.827552E-02
       N       E                     dE             d eps       ncg     rms          rms(c)
DAV:   1    -0.600779286499E+03    0.18523E-01   -0.47393E+00 11184   0.326E+00    0.321E-01
RMM:   2    -0.600794873666E+03   -0.15587E-01   -0.16091E-01 13367   0.859E-01    0.102E-01
RMM:   3    -0.600798664765E+03   -0.37911E-02   -0.38810E-02 15365   0.336E-01    0.103E-01
RMM:   4    -0.600799019746E+03   -0.35498E-03   -0.44422E-03 15748   0.112E-01    0.850E-02
RMM:   5    -0.600798930785E+03    0.88961E-04   -0.10198E-03 13641   0.480E-02    0.327E-02
RMM:   6    -0.600798951282E+03   -0.20497E-04   -0.24626E-04 13883   0.242E-02    0.282E-02
RMM:   7    -0.600798943782E+03    0.74993E-05   -0.77035E-05  9924   0.128E-02
  78 F= -.60079894E+03 E0= -.60079309E+03  d E =-.940710E-02
       N       E                     dE             d eps       ncg     rms          rms(c)
DAV:   1    -0.600796755001E+03    0.21963E-02   -0.54130E-01 11240   0.110E+00    0.115E-01
RMM:   2    -0.600798511282E+03   -0.17563E-02   -0.18147E-02 13351   0.288E-01    0.354E-02
RMM:   3    -0.600798932257E+03   -0.42098E-03   -0.42967E-03 15297   0.112E-01    0.322E-02
RMM:   4    -0.600798970331E+03   -0.38075E-04   -0.48620E-04 14985   0.380E-02    0.257E-02
RMM:   5    -0.600798964152E+03    0.61796E-05   -0.12211E-04 11239   0.184E-02    0.104E-02
RMM:   6    -0.600798965331E+03   -0.11791E-05   -0.25747E-05  8076   0.914E-03
  79 F= -.60079897E+03 E0= -.60079302E+03  d E =-.942865E-02
       N       E                     dE             d eps       ncg     rms          rms(c)
DAV:   1    -0.600792957264E+03    0.60069E-02   -0.26257E+00 11320   0.240E+00    0.238E-01
RMM:   2    -0.600801187317E+03   -0.82301E-02   -0.85173E-02 13233   0.617E-01    0.766E-02
RMM:   3    -0.600803124082E+03   -0.19368E-02   -0.19782E-02 15179   0.241E-01    0.743E-02
RMM:   4    -0.600803304251E+03   -0.18017E-03   -0.24411E-03 15709   0.832E-02    0.575E-02
RMM:   5    -0.600803270880E+03    0.33371E-04   -0.53574E-04 13653   0.345E-02    0.205E-02
RMM:   6    -0.600803278895E+03   -0.80158E-05   -0.11523E-04 11240   0.168E-02    0.159E-02
RMM:   7    -0.600803277860E+03    0.10356E-05   -0.37514E-05  8973   0.100E-02
  80 F= -.60080328E+03 E0= -.60079749E+03  d E =-.431253E-02
       N       E                     dE             d eps       ncg     rms          rms(c)
DAV:   1    -0.600793410041E+03    0.98689E-02   -0.34547E+00 11496   0.276E+00    0.269E-01
RMM:   2    -0.600804262228E+03   -0.10852E-01   -0.11231E-01 13247   0.704E-01    0.875E-02
RMM:   3    -0.600806777447E+03   -0.25152E-02   -0.25726E-02 15175   0.275E-01    0.868E-02
RMM:   4    -0.600807013768E+03   -0.23632E-03   -0.32230E-03 15727   0.950E-02    0.675E-02
RMM:   5    -0.600806968112E+03    0.45656E-04   -0.73353E-04 14033   0.397E-02    0.248E-02
RMM:   6    -0.600806978687E+03   -0.10575E-04   -0.15718E-04 12127   0.191E-02    0.186E-02
RMM:   7    -0.600806977317E+03    0.13706E-05   -0.50573E-05  9155   0.107E-02
  81 F= -.60080698E+03 E0= -.60080136E+03  d E =-.801199E-02
       N       E                     dE             d eps       ncg     rms          rms(c)
DAV:   1    -0.600755184480E+03    0.51794E-01   -0.13801E+01 11301   0.551E+00    0.543E-01
RMM:   2    -0.600799014131E+03   -0.43830E-01   -0.45370E-01 13246   0.143E+00    0.176E-01
RMM:   3    -0.600809487295E+03   -0.10473E-01   -0.10699E-01 15186   0.560E-01    0.173E-01
RMM:   4    -0.600810472656E+03   -0.98536E-03   -0.13158E-02 15779   0.192E-01    0.136E-01
RMM:   5    -0.600810268601E+03    0.20406E-03   -0.27996E-03 13962   0.792E-02    0.458E-02
RMM:   6    -0.600810326701E+03   -0.58099E-04   -0.67577E-04 15270   0.389E-02    0.388E-02
RMM:   7    -0.600810319545E+03    0.71560E-05   -0.20538E-04 12356   0.184E-02    0.758E-03
RMM:   8    -0.600810328598E+03   -0.90531E-05   -0.67679E-05  9389   0.127E-02
  82 F= -.60081033E+03 E0= -.60080506E+03  d E =-.113633E-01
       N       E                     dE             d eps       ncg     rms          rms(c)
DAV:   1    -0.600795753227E+03    0.14566E-01   -0.51578E+00 11616   0.336E+00    0.335E-01
RMM:   2    -0.600812046382E+03   -0.16293E-01   -0.16852E-01 13245   0.860E-01    0.106E-01
RMM:   3    -0.600815846546E+03   -0.38002E-02   -0.38717E-02 15206   0.335E-01    0.104E-01
RMM:   4    -0.600816211407E+03   -0.36486E-03   -0.47708E-03 15745   0.115E-01    0.828E-02
RMM:   5    -0.600816136705E+03    0.74702E-04   -0.10606E-03 14001   0.473E-02    0.309E-02
RMM:   6    -0.600816153085E+03   -0.16380E-04   -0.23284E-04 13354   0.228E-02    0.229E-02
RMM:   7    -0.600816150671E+03    0.24140E-05   -0.69907E-05  9346   0.118E-02
  83 F= -.60081615E+03 E0= -.60081110E+03  d E =-.582207E-02
       N       E                     dE             d eps       ncg     rms          rms(c)
DAV:   1    -0.600708434023E+03    0.10772E+00   -0.28081E+01 11347   0.785E+00    0.784E-01
RMM:   2    -0.600799039184E+03   -0.90605E-01   -0.93767E-01 13248   0.205E+00    0.250E-01
RMM:   3    -0.600821069877E+03   -0.22031E-01   -0.22455E-01 15215   0.806E-01    0.247E-01
RMM:   4    -0.600823185159E+03   -0.21153E-02   -0.27368E-02 15788   0.276E-01    0.198E-01
RMM:   5    -0.600822707975E+03    0.47718E-03   -0.55592E-03 13610   0.113E-01    0.641E-02
RMM:   6    -0.600822839076E+03   -0.13110E-03   -0.14259E-03 15504   0.571E-02    0.571E-02
RMM:   7    -0.600822820309E+03    0.18768E-04   -0.39832E-04 13123   0.255E-02    0.112E-02
RMM:   8    -0.600822838525E+03   -0.18217E-04   -0.13997E-04 10925   0.172E-02    0.207E-02
RMM:   9    -0.600822834058E+03    0.44668E-05   -0.46380E-05  9142   0.988E-03
  84 F= -.60082283E+03 E0= -.60081829E+03  d E =-.125055E-01
       N       E                     dE             d eps       ncg     rms          rms(c)
DAV:   1    -0.600794523260E+03    0.28315E-01   -0.93113E+00 11536   0.444E+00    0.464E-01
RMM:   2    -0.600823798573E+03   -0.29275E-01   -0.30355E-01 13161   0.113E+00    0.146E-01
RMM:   3    -0.600830565191E+03   -0.67666E-02   -0.69320E-02 15253   0.442E-01    0.142E-01
RMM:   4    -0.600831195540E+03   -0.63035E-03   -0.85449E-03 15739   0.152E-01    0.111E-01
RMM:   5    -0.600831063054E+03    0.13249E-03   -0.19257E-03 13895   0.638E-02    0.415E-02
RMM:   6    -0.600831091267E+03   -0.28213E-04   -0.43561E-04 14442   0.309E-02    0.295E-02
RMM:   7    -0.600831089412E+03    0.18554E-05   -0.13366E-04 10580   0.147E-02    0.587E-03
RMM:   8    -0.600831094414E+03   -0.50020E-05   -0.41617E-05  8779   0.104E-02
  85 F= -.60083109E+03 E0= -.60082676E+03  d E =-.826036E-02
       N       E                     dE             d eps       ncg     rms          rms(c)
DAV:   1    -0.600809586144E+03    0.21503E-01   -0.67661E+00 11560   0.378E+00    0.392E-01
RMM:   2    -0.600830753894E+03   -0.21168E-01   -0.21951E-01 13158   0.958E-01    0.124E-01
RMM:   3    -0.600835575768E+03   -0.48219E-02   -0.49458E-02 15236   0.374E-01    0.121E-01
RMM:   4    -0.600836024865E+03   -0.44910E-03   -0.61564E-03 15728   0.129E-01    0.948E-02
RMM:   5    -0.600835929062E+03    0.95804E-04   -0.14285E-03 13975   0.544E-02    0.369E-02
RMM:   6    -0.600835946072E+03   -0.17010E-04   -0.30940E-04 13910   0.260E-02    0.247E-02
RMM:   7    -0.600835945164E+03    0.90822E-06   -0.96510E-05  9744   0.127E-02
  86 F= -.60083595E+03 E0= -.60083180E+03  d E =-.131111E-01
       N       E                     dE             d eps       ncg     rms          rms(c)
DAV:   1    -0.600731123117E+03    0.10482E+00   -0.27064E+01 11332   0.757E+00    0.785E-01
RMM:   2    -0.600817399199E+03   -0.86276E-01   -0.89494E-01 13171   0.195E+00    0.249E-01
RMM:   3    -0.600837635083E+03   -0.20236E-01   -0.20766E-01 15273   0.765E-01    0.247E-01
RMM:   4    -0.600839495401E+03   -0.18603E-02   -0.25286E-02 15749   0.261E-01    0.194E-01
RMM:   5    -0.600839043639E+03    0.45176E-03   -0.55832E-03 13723   0.111E-01    0.672E-02
RMM:   6    -0.600839146407E+03   -0.10277E-03   -0.13521E-03 15460   0.546E-02    0.522E-02
RMM:   7    -0.600839137573E+03    0.88339E-05   -0.39104E-04 12972   0.242E-02    0.105E-02
RMM:   8    -0.600839153354E+03   -0.15782E-04   -0.12106E-04 10276   0.162E-02    0.186E-02
RMM:   9    -0.600839150579E+03    0.27753E-05   -0.40406E-05  9053   0.866E-03
[...]
RMM:   6    -0.602540661045E+03   -0.28890E-05   -0.64518E-05  9782   0.133E-02
 225 F= -.60254066E+03 E0= -.60253703E+03  d E =-.418141E-02
       N       E                     dE             d eps       ncg     rms          rms(c)
DAV:   1    -0.602538574328E+03    0.20838E-02   -0.55696E-01 11000   0.111E+00    0.114E-01
RMM:   2    -0.602540304151E+03   -0.17298E-02   -0.17989E-02 13285   0.285E-01    0.364E-02
RMM:   3    -0.602540716019E+03   -0.41187E-03   -0.42521E-03 15349   0.111E-01    0.349E-02
RMM:   4    -0.602540749441E+03   -0.33421E-04   -0.48201E-04 14870   0.373E-02    0.251E-02
RMM:   5    -0.602540744903E+03    0.45378E-05   -0.12516E-04 11448   0.181E-02    0.105E-02
RMM:   6    -0.602540745405E+03   -0.50190E-06   -0.25106E-05  8081   0.897E-03
 226 F= -.60254075E+03 E0= -.60253712E+03  d E =-.426577E-02
       N       E                     dE             d eps       ncg     rms          rms(c)
DAV:   1    -0.602523082183E+03    0.17663E-01   -0.50504E+00 11004   0.338E+00    0.336E-01
RMM:   2    -0.602539525755E+03   -0.16444E-01   -0.17052E-01 13381   0.897E-01    0.106E-01
RMM:   3    -0.602543610829E+03   -0.40851E-02   -0.41711E-02 15428   0.350E-01    0.107E-01
RMM:   4    -0.602543978852E+03   -0.36802E-03   -0.47226E-03 15717   0.116E-01    0.836E-02
RMM:   5    -0.602543890128E+03    0.88724E-04   -0.10028E-03 13585   0.492E-02    0.280E-02
RMM:   6    -0.602543913426E+03   -0.23297E-04   -0.25757E-04 14024   0.251E-02    0.260E-02
RMM:   7    -0.602543907979E+03    0.54469E-05   -0.75737E-05 10147   0.131E-02
 227 F= -.60254391E+03 E0= -.60254028E+03  d E =-.316257E-02
       N       E                     dE             d eps       ncg     rms          rms(c)
DAV:   1    -0.602543738982E+03    0.17444E-03   -0.73638E-02 11856   0.408E-01    0.352E-02
RMM:   2    -0.602543983176E+03   -0.24419E-03   -0.25426E-03 13348   0.109E-01    0.132E-02
RMM:   3    -0.602544043166E+03   -0.59989E-04   -0.63578E-04 15121   0.429E-02    0.150E-02
RMM:   4    -0.602544048111E+03   -0.49449E-05   -0.73541E-05 11407   0.154E-02
 228 F= -.60254405E+03 E0= -.60254042E+03  d E =-.330271E-02
       N       E                     dE             d eps       ncg     rms          rms(c)
DAV:   1    -0.602538818664E+03    0.52245E-02   -0.17923E+00 11111   0.200E+00    0.205E-01
RMM:   2    -0.602544750809E+03   -0.59321E-02   -0.61781E-02 13458   0.523E-01    0.646E-02
RMM:   3    -0.602546034471E+03   -0.12837E-02   -0.13395E-02 15486   0.198E-01    0.656E-02
RMM:   4    -0.602546123059E+03   -0.88588E-04   -0.15558E-03 15482   0.662E-02    0.433E-02
RMM:   5    -0.602546108230E+03    0.14830E-04   -0.38903E-04 13153   0.296E-02    0.153E-02
RMM:   6    -0.602546111941E+03   -0.37111E-05   -0.73926E-05 10060   0.143E-02
 229 F= -.60254611E+03 E0= -.60254247E+03  d E =-.206383E-02
       N       E                     dE             d eps       ncg     rms          rms(c)
DAV:   1    -0.602546024214E+03    0.84016E-04   -0.51900E-02 12000   0.342E-01    0.330E-02
RMM:   2    -0.602546211536E+03   -0.18732E-03   -0.19552E-03 13462   0.944E-02    0.113E-02
RMM:   3    -0.602546252094E+03   -0.40558E-04   -0.43956E-04 14760   0.362E-02    0.128E-02
RMM:   4    -0.602546254769E+03   -0.26743E-05   -0.58802E-05 10729   0.149E-02
 230 F= -.60254625E+03 E0= -.60254261E+03  d E =-.220666E-02
       N       E                     dE             d eps       ncg     rms          rms(c)
DAV:   1    -0.602545536890E+03    0.71520E-03   -0.20332E-01 11280   0.673E-01    0.694E-02
RMM:   2    -0.602546203845E+03   -0.66696E-03   -0.69403E-03 13453   0.174E-01    0.217E-02
RMM:   3    -0.602546347030E+03   -0.14318E-03   -0.14917E-03 15283   0.662E-02    0.213E-02
RMM:   4    -0.602546356815E+03   -0.97857E-05   -0.17904E-04 12986   0.235E-02    0.140E-02
RMM:   5    -0.602546356560E+03    0.25506E-06   -0.55972E-05  9856   0.138E-02
 231 F= -.60254636E+03 E0= -.60254270E+03  d E =-.230845E-02
       N       E                     dE             d eps       ncg     rms          rms(c)
DAV:   1    -0.602543133531E+03    0.32233E-02   -0.10888E+00 11287   0.156E+00    0.158E-01
RMM:   2    -0.602546612704E+03   -0.34792E-02   -0.36158E-02 13287   0.403E-01    0.498E-02
RMM:   3    -0.602547423429E+03   -0.81073E-03   -0.83684E-03 15305   0.157E-01    0.497E-02
RMM:   4    -0.602547492104E+03   -0.68675E-04   -0.10227E-03 15487   0.537E-02    0.358E-02
RMM:   5    -0.602547482441E+03    0.96637E-05   -0.24586E-04 12714   0.236E-02    0.137E-02
RMM:   6    -0.602547484079E+03   -0.16380E-05   -0.46000E-05  9290   0.116E-02
 232 F= -.60254748E+03 E0= -.60254383E+03  d E =-.112752E-02
       N       E                     dE             d eps       ncg     rms          rms(c)
DAV:   1    -0.602547367564E+03    0.11488E-03   -0.60923E-02 12070   0.370E-01    0.358E-02
RMM:   2    -0.602547573915E+03   -0.20635E-03   -0.21447E-03 13341   0.984E-02    0.118E-02
RMM:   3    -0.602547619350E+03   -0.45435E-04   -0.47756E-04 14738   0.379E-02    0.128E-02
RMM:   4    -0.602547622599E+03   -0.32498E-05   -0.64519E-05 10826   0.153E-02
 233 F= -.60254762E+03 E0= -.60254397E+03  d E =-.126604E-02
       N       E                     dE             d eps       ncg     rms          rms(c)
DAV:   1    -0.602546804836E+03    0.81451E-03   -0.23982E-01 11408   0.732E-01    0.742E-02
RMM:   2    -0.602547560226E+03   -0.75539E-03   -0.78482E-03 13336   0.186E-01    0.235E-02
RMM:   3    -0.602547730681E+03   -0.17045E-03   -0.17549E-03 15211   0.718E-02    0.224E-02
RMM:   4    -0.602547744071E+03   -0.13391E-04   -0.21364E-04 13245   0.250E-02    0.153E-02
RMM:   5    -0.602547743979E+03    0.92383E-07   -0.63654E-05 10029   0.145E-02
 234 F= -.60254774E+03 E0= -.60254409E+03  d E =-.138742E-02
       N       E                     dE             d eps       ncg     rms          rms(c)
DAV:   1    -0.602546767111E+03    0.97696E-03   -0.44567E-01 11136   0.101E+00    0.987E-02
RMM:   2    -0.602548293643E+03   -0.15265E-02   -0.15828E-02 13489   0.276E-01    0.314E-02
RMM:   3    -0.602548663960E+03   -0.37032E-03   -0.38416E-03 15494   0.106E-01    0.324E-02
RMM:   4    -0.602548694594E+03   -0.30633E-04   -0.42393E-04 15066   0.358E-02    0.247E-02
RMM:   5    -0.602548687270E+03    0.73243E-05   -0.10850E-04 11699   0.177E-02    0.743E-03
RMM:   6    -0.602548689216E+03   -0.19462E-05   -0.25585E-05  7846   0.919E-03
 235 F= -.60254869E+03 E0= -.60254504E+03  d E =-.945237E-03
       N       E                     dE             d eps       ncg     rms          rms(c)
DAV:   1    -0.602548562490E+03    0.12478E-03   -0.79380E-02 11552   0.427E-01    0.406E-02
RMM:   2    -0.602548840599E+03   -0.27811E-03   -0.28814E-03 13516   0.116E-01    0.131E-02
RMM:   3    -0.602548903222E+03   -0.62623E-04   -0.65649E-04 15289   0.441E-02    0.142E-02
RMM:   4    -0.602548907818E+03   -0.45958E-05   -0.74835E-05 11886   0.157E-02
 236 F= -.60254891E+03 E0= -.60254526E+03  d E =-.116384E-02
       N       E                     dE             d eps       ncg     rms          rms(c)
DAV:   1    -0.602547706533E+03    0.11967E-02   -0.31389E-01 11160   0.847E-01    0.829E-02
RMM:   2    -0.602548768782E+03   -0.10622E-02   -0.11008E-02 13594   0.224E-01    0.264E-02
RMM:   3    -0.602548994002E+03   -0.22522E-03   -0.23315E-03 15393   0.836E-02    0.259E-02
RMM:   4    -0.602549010473E+03   -0.16471E-04   -0.26894E-04 14005   0.287E-02    0.176E-02
RMM:   5    -0.602549007988E+03    0.24858E-05   -0.73844E-05 10621   0.151E-02
 237 F= -.60254901E+03 E0= -.60254536E+03  d E =-.126401E-02
       N       E                     dE             d eps       ncg     rms          rms(c)
DAV:   1    -0.602548687271E+03    0.32320E-03   -0.78618E-02 11096   0.425E-01    0.381E-02
RMM:   2    -0.602548950901E+03   -0.26363E-03   -0.27369E-03 13470   0.114E-01    0.133E-02
RMM:   3    -0.602549010344E+03   -0.59443E-04   -0.63733E-04 15305   0.436E-02    0.145E-02
RMM:   4    -0.602549014004E+03   -0.36594E-05   -0.66999E-05 11737   0.152E-02
 238 F= -.60254901E+03 E0= -.60254537E+03  d E =-.127002E-02
       N       E                     dE             d eps       ncg     rms          rms(c)
DAV:   1    -0.602548927251E+03    0.83093E-04   -0.20877E-02 11654   0.221E-01    0.187E-02
RMM:   2    -0.602549007513E+03   -0.80262E-04   -0.83627E-04 13450   0.637E-02    0.712E-03
RMM:   3    -0.602549025976E+03   -0.18463E-04   -0.20190E-04 14203   0.250E-02    0.899E-03
RMM:   4    -0.602549027227E+03   -0.12508E-05   -0.27927E-05  6385   0.111E-02
 239 F= -.60254903E+03 E0= -.60254538E+03  d E =-.128325E-02
       N       E                     dE             d eps       ncg     rms          rms(c)
DAV:   1    -0.602547622483E+03    0.14035E-02   -0.50045E-01 11078   0.107E+00    0.102E-01
RMM:   2    -0.602549272816E+03   -0.16503E-02   -0.17125E-02 13422   0.287E-01    0.334E-02
RMM:   3    -0.602549676961E+03   -0.40414E-03   -0.42121E-03 15419   0.111E-01    0.344E-02
RMM:   4    -0.602549710261E+03   -0.33301E-04   -0.46561E-04 15106   0.373E-02    0.260E-02
RMM:   5    -0.602549703417E+03    0.68445E-05   -0.12309E-04 11668   0.182E-02    0.952E-03
RMM:   6    -0.602549704664E+03   -0.12475E-05   -0.25608E-05  7997   0.930E-03
 240 F= -.60254970E+03 E0= -.60254606E+03  d E =-.677437E-03
       N       E                     dE             d eps       ncg     rms          rms(c)
DAV:   1    -0.602549659547E+03    0.43870E-04   -0.29596E-02 11678   0.260E-01    0.243E-02
RMM:   2    -0.602549763070E+03   -0.10352E-03   -0.10724E-03 13498   0.698E-02    0.799E-03
RMM:   3    -0.602549785038E+03   -0.21968E-04   -0.23618E-04 13612   0.267E-02    0.891E-03
RMM:   4    -0.602549786435E+03   -0.13967E-05   -0.31689E-05  7862   0.120E-02
 241 F= -.60254979E+03 E0= -.60254614E+03  d E =-.759208E-03
       N       E                     dE             d eps       ncg     rms          rms(c)
DAV:   1    -0.602549370760E+03    0.41428E-03   -0.11613E-01 11216   0.513E-01    0.505E-02
RMM:   2    -0.602549754769E+03   -0.38401E-03   -0.39798E-03 13419   0.138E-01    0.159E-02
RMM:   3    -0.602549849371E+03   -0.94602E-04   -0.97732E-04 15247   0.536E-02    0.156E-02
RMM:   4    -0.602549857020E+03   -0.76496E-05   -0.11085E-04 12721   0.190E-02    0.118E-02
RMM:   5    -0.602549856226E+03    0.79392E-06   -0.35043E-05  8784   0.119E-02
 242 F= -.60254986E+03 E0= -.60254621E+03  d E =-.828999E-03
       N       E                     dE             d eps       ncg     rms          rms(c)
DAV:   1    -0.602547801140E+03    0.20559E-02   -0.64029E-01 11020   0.119E+00    0.121E-01
RMM:   2    -0.602549919125E+03   -0.21180E-02   -0.22056E-02 13436   0.314E-01    0.372E-02
RMM:   3    -0.602550395553E+03   -0.47643E-03   -0.49629E-03 15438   0.120E-01    0.393E-02
RMM:   4    -0.602550430351E+03   -0.34798E-04   -0.55887E-04 15117   0.401E-02    0.282E-02
RMM:   5    -0.602550422688E+03    0.76638E-05   -0.15043E-04 12102   0.195E-02    0.103E-02
RMM:   6    -0.602550423820E+03   -0.11324E-05   -0.29418E-05  8559   0.953E-03
 243 F= -.60255042E+03 E0= -.60254678E+03  d E =-.567593E-03
       N       E                     dE             d eps       ncg     rms          rms(c)
DAV:   1    -0.602550421100E+03    0.15877E-05   -0.43569E-03 12104   0.995E-02    0.955E-03
RMM:   2    -0.602550438820E+03   -0.17721E-04   -0.18508E-04 13082   0.287E-02    0.334E-03
RMM:   3    -0.602550441631E+03   -0.28112E-05   -0.39193E-05  7598   0.115E-02
 244 F= -.60255044E+03 E0= -.60254679E+03  d E =-.585405E-03
       N       E                     dE             d eps       ncg     rms          rms(c)
DAV:   1    -0.602549972884E+03    0.46594E-03   -0.18730E-01 11008   0.653E-01    0.619E-02
RMM:   2    -0.602550626976E+03   -0.65409E-03   -0.68342E-03 13605   0.179E-01    0.207E-02
RMM:   3    -0.602550772677E+03   -0.14570E-03   -0.15447E-03 15438   0.673E-02    0.228E-02
RMM:   4    -0.602550781360E+03   -0.86827E-05   -0.17012E-04 12976   0.233E-02    0.155E-02
RMM:   5    -0.602550779159E+03    0.22003E-05   -0.53963E-05 10217   0.142E-02
 245 F= -.60255078E+03 E0= -.60254712E+03  d E =-.337528E-03
       N       E                     dE             d eps       ncg     rms          rms(c)
DAV:   1    -0.602550777809E+03    0.35507E-05   -0.34249E-03 12000   0.884E-02    0.112E-02
RMM:   2    -0.602550791373E+03   -0.13564E-04   -0.14304E-04 13171   0.255E-02    0.324E-03
RMM:   3    -0.602550794048E+03   -0.26754E-05   -0.34535E-05  6921   0.106E-02
 246 F= -.60255079E+03 E0= -.60254714E+03  d E =-.352417E-03
       N       E                     dE             d eps       ncg     rms          rms(c)
DAV:   1    -0.602550551218E+03    0.24015E-03   -0.94962E-02 11136   0.467E-01    0.442E-02
RMM:   2    -0.602550884531E+03   -0.33331E-03   -0.34679E-03 13566   0.130E-01    0.149E-02
RMM:   3    -0.602550963859E+03   -0.79328E-04   -0.84024E-04 15238   0.495E-02    0.158E-02
RMM:   4    -0.602550969225E+03   -0.53656E-05   -0.93960E-05 12548   0.178E-02
 247 F= -.60255097E+03 E0= -.60254731E+03  d E =-.175177E-03
       N       E                     dE             d eps       ncg     rms          rms(c)
DAV:   1    -0.602550972373E+03   -0.85142E-05   -0.18306E-04 14672   0.241E-02    0.445E-03
RMM:   2    -0.602550973077E+03   -0.70399E-06   -0.85649E-06  5946   0.611E-03
 248 F= -.60255097E+03 E0= -.60254731E+03  d E =-.179029E-03
       N       E                     dE             d eps       ncg     rms          rms(c)
DAV:   1    -0.602550974654E+03   -0.22808E-05   -0.69888E-04 11344   0.409E-02    0.464E-03
RMM:   2    -0.602550977651E+03   -0.29973E-05   -0.31528E-05  7038   0.129E-02
 249 F= -.60255098E+03 E0= -.60254732E+03  d E =-.183603E-03
       N       E                     dE             d eps       ncg     rms          rms(c)
DAV:   1    -0.602550784494E+03    0.19016E-03   -0.81380E-02 11383   0.435E-01    0.389E-02
RMM:   2    -0.602551057581E+03   -0.27309E-03   -0.28248E-03 13447   0.117E-01    0.134E-02
RMM:   3    -0.602551123313E+03   -0.65731E-04   -0.68467E-04 15094   0.451E-02    0.137E-02
RMM:   4    -0.602551128109E+03   -0.47964E-05   -0.79331E-05 12163   0.166E-02
 250 F= -.60255113E+03 E0= -.60254746E+03  d E =-.150458E-03
       N       E                     dE             d eps       ncg     rms          rms(c)
DAV:   1    -0.602551133382E+03   -0.10069E-04   -0.59125E-04 13348   0.388E-02    0.603E-03
RMM:   2    -0.602551135736E+03   -0.23539E-05   -0.26560E-05  7623   0.110E-02
 251 F= -.60255114E+03 E0= -.60254747E+03  d E =-.158084E-03
       N       E                     dE             d eps       ncg     rms          rms(c)
DAV:   1    -0.602551137208E+03   -0.38261E-05   -0.24746E-03 11798   0.771E-02    0.761E-03
RMM:   2    -0.602551147777E+03   -0.10569E-04   -0.11040E-04 12455   0.240E-02    0.279E-03
RMM:   3    -0.602551149440E+03   -0.16629E-05   -0.24558E-05  6231   0.963E-03
 252 F= -.60255115E+03 E0= -.60254748E+03  d E =-.171789E-03
       N       E                     dE             d eps       ncg     rms          rms(c)
DAV:   1    -0.602551124588E+03    0.23189E-04   -0.97179E-03 11464   0.151E-01    0.134E-02
RMM:   2    -0.602551160701E+03   -0.36113E-04   -0.37573E-04 13421   0.450E-02    0.505E-03
RMM:   3    -0.602551170376E+03   -0.96745E-05   -0.10443E-04 11595   0.178E-02    0.512E-03
RMM:   4    -0.602551171158E+03   -0.78289E-06   -0.16639E-05  6002   0.987E-03
 253 F= -.60255117E+03 E0= -.60254750E+03  d E =-.193507E-03
       N       E                     dE             d eps       ncg     rms          rms(c)
DAV:   1    -0.602551060409E+03    0.10997E-03   -0.52127E-02 11423   0.342E-01    0.334E-02
RMM:   2    -0.602551223490E+03   -0.16308E-03   -0.16947E-03 13278   0.893E-02    0.107E-02
RMM:   3    -0.602551262078E+03   -0.38589E-04   -0.40125E-04 14510   0.347E-02    0.105E-02
RMM:   4    -0.602551264779E+03   -0.27002E-05   -0.50680E-05  9931   0.141E-02
 254 F= -.60255126E+03 E0= -.60254759E+03  d E =-.936201E-04
       N       E                     dE             d eps       ncg     rms          rms(c)
DAV:   1    -0.602551189670E+03    0.72409E-04   -0.30922E-02 11680   0.263E-01    0.264E-02
RMM:   2    -0.602551288324E+03   -0.98655E-04   -0.10241E-03 13377   0.696E-02    0.843E-03
RMM:   3    -0.602551311563E+03   -0.23239E-04   -0.24192E-04 13262   0.270E-02    0.770E-03
RMM:   4    -0.602551313642E+03   -0.20794E-05   -0.40337E-05  8435   0.142E-02
 255 F= -.60255131E+03 E0= -.60254764E+03  d E =-.142484E-03
       N       E                     dE             d eps       ncg     rms          rms(c)
DAV:   1    -0.602551309908E+03    0.16547E-05   -0.52859E-03 12088   0.109E-01    0.109E-02
RMM:   2    -0.602551327285E+03   -0.17377E-04   -0.17978E-04 12963   0.290E-02    0.345E-03
RMM:   3    -0.602551330766E+03   -0.34813E-05   -0.41154E-05  7646   0.116E-02
 256 F= -.60255133E+03 E0= -.60254765E+03  d E =-.159608E-03
       N       E                     dE             d eps       ncg     rms          rms(c)
DAV:   1    -0.602551300423E+03    0.26862E-04   -0.20017E-02 11096   0.212E-01    0.204E-02
RMM:   2    -0.602551372717E+03   -0.72294E-04   -0.75475E-04 13536   0.601E-02    0.720E-03
RMM:   3    -0.602551389304E+03   -0.16587E-04   -0.18318E-04 13063   0.234E-02    0.751E-03
RMM:   4    -0.602551390738E+03   -0.14341E-05   -0.30176E-05  6667   0.124E-02
 257 F= -.60255139E+03 E0= -.60254771E+03  d E =-.599720E-04
       N       E                     dE             d eps       ncg     rms          rms(c)
DAV:   1    -0.602551376845E+03    0.12459E-04   -0.93022E-03 11576   0.145E-01    0.149E-02
RMM:   2    -0.602551408860E+03   -0.32015E-04   -0.33320E-04 13420   0.402E-02    0.455E-03
RMM:   3    -0.602551416066E+03   -0.72061E-05   -0.79975E-05 11598   0.154E-02
 258 F= -.60255142E+03 E0= -.60254774E+03  d E =-.852996E-04
       N       E                     dE             d eps       ncg     rms          rms(c)
DAV:   1    -0.602551396505E+03    0.12354E-04   -0.15126E-02 11376   0.184E-01    0.179E-02
RMM:   2    -0.602551450426E+03   -0.53920E-04   -0.56608E-04 13536   0.506E-02    0.667E-03
RMM:   3    -0.602551462131E+03   -0.11705E-04   -0.13140E-04 12639   0.200E-02    0.676E-03
RMM:   4    -0.602551462980E+03   -0.84870E-06   -0.22500E-05  6293   0.109E-02
 259 F= -.60255146E+03 E0= -.60254778E+03  d E =-.469137E-04
       N       E                     dE             d eps       ncg     rms          rms(c)
DAV:   1    -0.602551428359E+03    0.33772E-04   -0.15222E-02 11496   0.184E-01    0.186E-02
RMM:   2    -0.602551478016E+03   -0.49657E-04   -0.51660E-04 13377   0.484E-02    0.576E-03
RMM:   3    -0.602551488862E+03   -0.10847E-04   -0.11557E-04 12721   0.185E-02    0.574E-03
RMM:   4    -0.602551489612E+03   -0.74954E-06   -0.17986E-05  6134   0.957E-03
 260 F= -.60255149E+03 E0= -.60254781E+03  d E =-.735462E-04
       N       E                     dE             d eps       ncg     rms          rms(c)
DAV:   1    -0.602551481511E+03    0.73519E-05   -0.87057E-03 11584   0.138E-01    0.144E-02
RMM:   2    -0.602551509197E+03   -0.27686E-04   -0.28832E-04 12997   0.366E-02    0.444E-03
RMM:   3    -0.602551515241E+03   -0.60444E-05   -0.69340E-05 10433   0.146E-02
 261 F= -.60255152E+03 E0= -.60254784E+03  d E =-.256294E-04
       N       E                     dE             d eps       ncg     rms          rms(c)
DAV:   1    -0.602551520029E+03   -0.10832E-04   -0.70186E-04 13496   0.402E-02    0.402E-03
RMM:   2    -0.602551522184E+03   -0.21551E-05   -0.25092E-05  6834   0.101E-02
 262 F= -.60255152E+03 E0= -.60254784E+03  d E =-.325723E-04
       N       E                     dE             d eps       ncg     rms          rms(c)
DAV:   1    -0.602551523063E+03   -0.30335E-05   -0.26306E-03 11520   0.769E-02    0.712E-03
RMM:   2    -0.602551532282E+03   -0.92197E-05   -0.97775E-05 10810   0.214E-02
 263 F= -.60255153E+03 E0= -.60254785E+03  d E =-.426704E-04
