       N       E                     dE             d eps       ncg     rms          rms(c)
DAV:   1     0.223254234340E+05    0.22325E+05   -0.31997E+05 10128   0.282E+03
DAV:   2     0.500322057635E+04   -0.17322E+05   -0.16317E+05 10128   0.817E+02
DAV:   3    -0.407405092549E+02   -0.50440E+04   -0.47570E+04 13048   0.321E+02
DAV:   4    -0.674785812366E+03   -0.63405E+03   -0.61790E+03 12536   0.121E+02
DAV:   5    -0.719635838353E+03   -0.44850E+02   -0.44316E+02 14472   0.347E+01    0.644E+01
RMM:   6    -0.590584085154E+03    0.12905E+03   -0.43606E+02 13281   0.245E+01    0.162E+01
RMM:   7    -0.594386138400E+03   -0.38021E+01   -0.69946E+01 14155   0.102E+01    0.131E+01
RMM:   8    -0.593935909979E+03    0.45023E+00   -0.99055E+00 13133   0.518E+00    0.363E+00
RMM:   9    -0.593755470711E+03    0.18044E+00   -0.28244E+00 15388   0.216E+00    0.119E+00
RMM:  10    -0.593812917812E+03   -0.57447E-01   -0.93598E-01 13607   0.116E+00    0.813E-01
RMM:  11    -0.593818573003E+03   -0.56552E-02   -0.20590E-01 13909   0.738E-01    0.390E-01
RMM:  12    -0.593821854471E+03   -0.32815E-02   -0.63027E-02 15589   0.273E-01    0.204E-01
RMM:  13    -0.593823198476E+03   -0.13440E-02   -0.21067E-02 15472   0.139E-01    0.529E-02
RMM:  14    -0.593824061529E+03   -0.86305E-03   -0.93637E-03 13637   0.890E-02    0.439E-02
RMM:  15    -0.593824303135E+03   -0.24161E-03   -0.30185E-03 12895   0.476E-02    0.119E-02
RMM:  16    -0.593824446327E+03   -0.14319E-03   -0.14355E-03 11266   0.258E-02    0.759E-03
RMM:  17    -0.593824505239E+03   -0.58912E-04   -0.56428E-04 10348   0.170E-02    0.350E-03
RMM:  18    -0.593824536600E+03   -0.31360E-04   -0.32579E-04  9733   0.109E-02    0.418E-03
RMM:  19    -0.593824551125E+03   -0.14526E-04   -0.14092E-04  8909   0.776E-03    0.117E-03
RMM:  20    -0.593824559638E+03   -0.85129E-05   -0.81695E-05  7377   0.501E-03
   1 F= -.59382456E+03 E0= -.59381555E+03  d E =-.593825E+03
       N       E                     dE             d eps       ncg     rms          rms(c)
DAV:   1    -0.572024081546E+03    0.21800E+02   -0.31714E+03 12832   0.880E+01    0.201E+01
RMM:   2    -0.590826601759E+03   -0.18803E+02   -0.21047E+02 13862   0.248E+01    0.500E+00
RMM:   3    -0.595936976457E+03   -0.51104E+01   -0.53714E+01 15428   0.980E+00    0.811E+00
RMM:   4    -0.595983153303E+03   -0.46177E-01   -0.61059E+00 14367   0.365E+00    0.555E+00
RMM:   5    -0.596048804087E+03   -0.65651E-01   -0.15246E+00 15910   0.164E+00    0.309E+00
RMM:   6    -0.596036676596E+03    0.12127E-01   -0.25908E-01 14183   0.709E-01    0.590E-01
RMM:   7    -0.596040720236E+03   -0.40436E-02   -0.67698E-02 15729   0.349E-01    0.411E-01
RMM:   8    -0.596038648388E+03    0.20718E-02   -0.21094E-02 13717   0.219E-01    0.171E-01
RMM:   9    -0.596039213909E+03   -0.56552E-03   -0.67269E-03 14210   0.109E-01    0.106E-01
RMM:  10    -0.596039372485E+03   -0.15858E-03   -0.25634E-03 14995   0.594E-02    0.239E-02
RMM:  11    -0.596039452472E+03   -0.79987E-04   -0.85682E-04 12621   0.275E-02    0.192E-02
RMM:  12    -0.596039477528E+03   -0.25056E-04   -0.33835E-04 10867   0.182E-02    0.628E-03
RMM:  13    -0.596039491573E+03   -0.14045E-04   -0.14872E-04  8996   0.939E-03    0.411E-03
RMM:  14    -0.596039497491E+03   -0.59184E-05   -0.73211E-05  7199   0.729E-03
   2 F= -.59603950E+03 E0= -.59603170E+03  d E =-.221494E+01
       N       E                     dE             d eps       ncg     rms          rms(c)
DAV:   1    -0.595083848469E+03    0.95564E+00   -0.34169E+02 11752   0.268E+01    0.579E+00
RMM:   2    -0.596780908000E+03   -0.16971E+01   -0.18136E+01 13845   0.894E+00    0.111E+00
RMM:   3    -0.597187202467E+03   -0.40629E+00   -0.44343E+00 15139   0.326E+00    0.132E+00
RMM:   4    -0.597211025771E+03   -0.23823E-01   -0.59415E-01 15050   0.118E+00    0.843E-01
RMM:   5    -0.597211406480E+03   -0.38071E-03   -0.11956E-01 15651   0.490E-01    0.271E-01
RMM:   6    -0.597212499454E+03   -0.10930E-02   -0.22696E-02 13973   0.234E-01    0.111E-01
RMM:   7    -0.597213070888E+03   -0.57143E-03   -0.87070E-03 15589   0.120E-01    0.441E-02
RMM:   8    -0.597213250093E+03   -0.17920E-03   -0.18332E-03 14546   0.476E-02    0.286E-02
RMM:   9    -0.597213290626E+03   -0.40533E-04   -0.59838E-04 12281   0.275E-02    0.111E-02
RMM:  10    -0.597213308088E+03   -0.17463E-04   -0.20901E-04 10575   0.135E-02    0.628E-03
RMM:  11    -0.597213315167E+03   -0.70788E-05   -0.87981E-05  8579   0.856E-03
   3 F= -.59721332E+03 E0= -.59720373E+03  d E =-.338876E+01
       N       E                     dE             d eps       ncg     rms          rms(c)
DAV:   1    -0.595967311692E+03    0.12460E+01   -0.44622E+02 10816   0.297E+01    0.435E+00
RMM:   2    -0.597916721389E+03   -0.19494E+01   -0.20893E+01 13903   0.899E+00    0.129E+00
RMM:   3    -0.598283662437E+03   -0.36694E+00   -0.42076E+00 15557   0.330E+00    0.153E+00
RMM:   4    -0.598281292096E+03    0.23703E-02   -0.48128E-01 14704   0.116E+00    0.748E-01
RMM:   5    -0.598281690086E+03   -0.39799E-03   -0.15225E-01 15475   0.547E-01    0.185E-01
RMM:   6    -0.598283475901E+03   -0.17858E-02   -0.22615E-02 14960   0.212E-01    0.124E-01
RMM:   7    -0.598283923949E+03   -0.44805E-03   -0.77079E-03 14784   0.114E-01    0.479E-02
RMM:   8    -0.598284149118E+03   -0.22517E-03   -0.24208E-03 15019   0.564E-02    0.155E-02
RMM:   9    -0.598284222256E+03   -0.73138E-04   -0.79204E-04 12066   0.261E-02    0.790E-03
RMM:  10    -0.598284247577E+03   -0.25321E-04   -0.28097E-04 10384   0.149E-02    0.384E-03
RMM:  11    -0.598284259791E+03   -0.12214E-04   -0.13059E-04  9000   0.938E-03    0.131E-03
RMM:  12    -0.598284264450E+03   -0.46590E-05   -0.50864E-05  7743   0.610E-03
   4 F= -.59828426E+03 E0= -.59827644E+03  d E =-.107095E+01
       N       E                     dE             d eps       ncg     rms          rms(c)
DAV:   1    -0.598284266875E+03   -0.70843E-05   -0.15018E-03 11680   0.543E-02    0.712E-03
RMM:   2    -0.598284273589E+03   -0.67133E-05   -0.71700E-05  9267   0.159E-02
   5 F= -.59828427E+03 E0= -.59827645E+03  d E =-.107096E+01
       N       E                     dE             d eps       ncg     rms          rms(c)
DAV:   1    -0.597812296567E+03    0.47197E+00   -0.18181E+02 11024   0.195E+01    0.229E+00
RMM:   2    -0.598574062226E+03   -0.76177E+00   -0.79814E+00 13922   0.586E+00    0.725E-01
RMM:   3    -0.598745667427E+03   -0.17161E+00   -0.18126E+00 15415   0.219E+00    0.760E-01
RMM:   4    -0.598756080550E+03   -0.10413E-01   -0.21270E-01 15718   0.745E-01    0.470E-01
RMM:   5    -0.598754425861E+03    0.16547E-02   -0.44862E-02 15318   0.315E-01    0.115E-01
RMM:   6    -0.598755283121E+03   -0.85726E-03   -0.96647E-03 14207   0.151E-01    0.965E-02
RMM:   7    -0.598755525595E+03   -0.24247E-03   -0.36994E-03 15125   0.765E-02    0.321E-02
RMM:   8    -0.598755596578E+03   -0.70984E-04   -0.77390E-04 12382   0.297E-02    0.246E-02
RMM:   9    -0.598755611121E+03   -0.14542E-04   -0.29979E-04 10921   0.191E-02    0.583E-03
RMM:  10    -0.598755620547E+03   -0.94268E-05   -0.10617E-04  9446   0.996E-03    0.282E-03
RMM:  11    -0.598755624705E+03   -0.41580E-05   -0.44480E-05  7983   0.643E-03
   6 F= -.59875562E+03 E0= -.59874784E+03  d E =-.471351E+00
       N       E                     dE             d eps       ncg     rms          rms(c)
DAV:   1    -0.598635727452E+03    0.11989E+00   -0.35700E+01 11448   0.858E+00    0.968E-01
RMM:   2    -0.598772100641E+03   -0.13637E+00   -0.14249E+00 13804   0.247E+00    0.312E-01
RMM:   3    -0.598803200251E+03   -0.31100E-01   -0.32951E-01 15387   0.917E-01    0.321E-01
RMM:   4    -0.598805079084E+03   -0.18788E-02   -0.37089E-02 15700   0.312E-01    0.194E-01
RMM:   5    -0.598804813007E+03    0.26608E-03   -0.86285E-03 15204   0.137E-01    0.552E-02
RMM:   6    -0.598804980287E+03   -0.16728E-03   -0.18733E-03 15328   0.635E-02    0.449E-02
RMM:   7    -0.598805012355E+03   -0.32068E-04   -0.62084E-04 14124   0.307E-02    0.136E-02
RMM:   8    -0.598805027087E+03   -0.14732E-04   -0.15715E-04 10236   0.151E-02    0.108E-02
RMM:   9    -0.598805029678E+03   -0.25913E-05   -0.60133E-05  8823   0.101E-02
   7 F= -.59880503E+03 E0= -.59879725E+03  d E =-.520756E+00
       N       E                     dE             d eps       ncg     rms          rms(c)
DAV:   1    -0.598221119497E+03    0.58391E+00   -0.18326E+02 10736   0.191E+01    0.252E+00
RMM:   2    -0.598928461016E+03   -0.70734E+00   -0.74619E+00 13663   0.540E+00    0.744E-01
RMM:   3    -0.599076723893E+03   -0.14826E+00   -0.15935E+00 15492   0.204E+00    0.807E-01
RMM:   4    -0.599082957573E+03   -0.62337E-02   -0.17863E-01 15586   0.690E-01    0.501E-01
RMM:   5    -0.599081001315E+03    0.19563E-02   -0.41306E-02 15206   0.300E-01    0.122E-01
RMM:   6    -0.599081754565E+03   -0.75325E-03   -0.84039E-03 14192   0.141E-01    0.927E-02
RMM:   7    -0.599081959784E+03   -0.20522E-03   -0.31577E-03 15495   0.709E-02    0.348E-02
RMM:   8    -0.599082026597E+03   -0.66814E-04   -0.71190E-04 12540   0.279E-02    0.218E-02
RMM:   9    -0.599082044718E+03   -0.18121E-04   -0.28417E-04 10704   0.186E-02    0.433E-03
RMM:  10    -0.599082054113E+03   -0.93945E-05   -0.10031E-04  9235   0.101E-02    0.235E-03
RMM:  11    -0.599082058129E+03   -0.40164E-05   -0.43953E-05  8009   0.651E-03
   8 F= -.59908206E+03 E0= -.59907530E+03  d E =-.277028E+00
       N       E                     dE             d eps       ncg     rms          rms(c)
DAV:   1    -0.599077399279E+03    0.46548E-02   -0.16564E+00 11792   0.180E+00    0.219E-01
RMM:   2    -0.599083192488E+03   -0.57932E-02   -0.60922E-02 13605   0.482E-01    0.680E-02
RMM:   3    -0.599084334964E+03   -0.11425E-02   -0.12386E-02 15453   0.178E-01    0.689E-02
RMM:   4    -0.599084381765E+03   -0.46801E-04   -0.13689E-03 15268   0.600E-02    0.385E-02
RMM:   5    -0.599084374531E+03    0.72346E-05   -0.35577E-04 13300   0.274E-02    0.138E-02
RMM:   6    -0.599084378533E+03   -0.40020E-05   -0.69144E-05  9977   0.128E-02
   9 F= -.59908438E+03 E0= -.59907770E+03  d E =-.279349E+00
       N       E                     dE             d eps       ncg     rms          rms(c)
DAV:   1    -0.598683998303E+03    0.40038E+00   -0.13283E+02 10622   0.163E+01    0.204E+00
RMM:   2    -0.599174763809E+03   -0.49077E+00   -0.51388E+00 13605   0.449E+00    0.612E-01
RMM:   3    -0.599273400062E+03   -0.98636E-01   -0.10468E+00 15498   0.168E+00    0.637E-01
RMM:   4    -0.599277562458E+03   -0.41624E-02   -0.11631E-01 15533   0.562E-01    0.375E-01
RMM:   5    -0.599276600733E+03    0.96172E-03   -0.28315E-02 15109   0.250E-01    0.106E-01
RMM:   6    -0.599277099006E+03   -0.49827E-03   -0.58611E-03 15102   0.114E-01    0.747E-02
RMM:   7    -0.599277228101E+03   -0.12909E-03   -0.19798E-03 15340   0.545E-02    0.253E-02
RMM:   8    -0.599277276212E+03   -0.48111E-04   -0.50429E-04 12371   0.249E-02    0.148E-02
RMM:   9    -0.599277291330E+03   -0.15118E-04   -0.20025E-04 10017   0.153E-02    0.411E-03
RMM:  10    -0.599277297744E+03   -0.64132E-05   -0.69118E-05  9023   0.868E-03
  10 F= -.59927730E+03 E0= -.59927085E+03  d E =-.192919E+00
       N       E                     dE             d eps       ncg     rms          rms(c)
DAV:   1    -0.599234038098E+03    0.43253E-01   -0.13402E+01 11384   0.517E+00    0.624E-01
RMM:   2    -0.599280614517E+03   -0.46576E-01   -0.48715E-01 13543   0.137E+00    0.189E-01
RMM:   3    -0.599289821467E+03   -0.92069E-02   -0.97911E-02 15472   0.509E-01    0.191E-01
RMM:   4    -0.599290217746E+03   -0.39628E-03   -0.10851E-02 15475   0.171E-01    0.109E-01
RMM:   5    -0.599290166045E+03    0.51701E-04   -0.28107E-03 15060   0.765E-02    0.398E-02
RMM:   6    -0.599290202334E+03   -0.36289E-04   -0.56714E-04 14888   0.340E-02    0.241E-02
RMM:   7    -0.599290213641E+03   -0.11307E-04   -0.19250E-04 10853   0.166E-02    0.763E-03
RMM:   8    -0.599290218256E+03   -0.46153E-05   -0.53290E-05  9038   0.108E-02
  11 F= -.59929022E+03 E0= -.59928382E+03  d E =-.205840E+00
       N       E                     dE             d eps       ncg     rms          rms(c)
DAV:   1    -0.599011832412E+03    0.27838E+00   -0.91788E+01 10664   0.136E+01    0.158E+00
RMM:   2    -0.599335801758E+03   -0.32397E+00   -0.33880E+00 13527   0.369E+00    0.488E-01
RMM:   3    -0.599402448364E+03   -0.66647E-01   -0.70496E-01 15420   0.139E+00    0.508E-01
RMM:   4    -0.599405607578E+03   -0.31592E-02   -0.77658E-02 15467   0.462E-01    0.300E-01
RMM:   5    -0.599404859111E+03    0.74847E-03   -0.19561E-02 15009   0.210E-01    0.976E-02
RMM:   6    -0.599405156819E+03   -0.29771E-03   -0.40180E-03 15486   0.942E-02    0.645E-02
RMM:   7    -0.599405228374E+03   -0.71555E-04   -0.12523E-03 15059   0.422E-02    0.198E-02
RMM:   8    -0.599405260038E+03   -0.31664E-04   -0.32181E-04 11585   0.212E-02    0.113E-02
RMM:   9    -0.599405270131E+03   -0.10093E-04   -0.12612E-04  9619   0.126E-02    0.461E-03
RMM:  10    -0.599405274078E+03   -0.39465E-05   -0.43961E-05  8404   0.743E-03
  12 F= -.59940527E+03 E0= -.59939866E+03  d E =-.115056E+00
       N       E                     dE             d eps       ncg     rms          rms(c)
DAV:   1    -0.599383570040E+03    0.21700E-01   -0.68348E+00 11440   0.371E+00    0.424E-01
RMM:   2    -0.599406685597E+03   -0.23116E-01   -0.24138E-01 13483   0.976E-01    0.131E-01
RMM:   3    -0.599411223668E+03   -0.45381E-02   -0.48104E-02 15404   0.363E-01    0.135E-01
RMM:   4    -0.599411424130E+03   -0.20046E-03   -0.52712E-03 15407   0.121E-01    0.777E-02
RMM:   5    -0.599411387741E+03    0.36389E-04   -0.14192E-03 14989   0.554E-02    0.303E-02
RMM:   6    -0.599411403442E+03   -0.15701E-04   -0.28295E-04 13433   0.245E-02    0.179E-02
RMM:   7    -0.599411408102E+03   -0.46608E-05   -0.91542E-05  9497   0.121E-02
  13 F= -.59941141E+03 E0= -.59940474E+03  d E =-.121190E+00
       N       E                     dE             d eps       ncg     rms          rms(c)
DAV:   1    -0.599114370450E+03    0.29703E+00   -0.87096E+01 10662   0.134E+01    0.154E+00
RMM:   2    -0.599419016275E+03   -0.30465E+00   -0.31790E+00 13469   0.365E+00    0.463E-01
RMM:   3    -0.599486285129E+03   -0.67269E-01   -0.70343E-01 15447   0.140E+00    0.483E-01
RMM:   4    -0.599490349067E+03   -0.40639E-02   -0.75519E-02 15556   0.459E-01    0.312E-01
RMM:   5    -0.599489389044E+03    0.96002E-03   -0.18318E-02 14850   0.206E-01    0.920E-02
RMM:   6    -0.599489704464E+03   -0.31542E-03   -0.39221E-03 15076   0.952E-02    0.691E-02
RMM:   7    -0.599489767154E+03   -0.62690E-04   -0.13134E-03 14880   0.442E-02    0.195E-02
RMM:   8    -0.599489796978E+03   -0.29824E-04   -0.30138E-04 10959   0.193E-02    0.144E-02
RMM:   9    -0.599489804601E+03   -0.76233E-05   -0.11605E-04  9592   0.119E-02    0.352E-03
RMM:  10    -0.599489808746E+03   -0.41454E-05   -0.42792E-05  8321   0.689E-03
  14 F= -.59948981E+03 E0= -.59948314E+03  d E =-.784006E-01
       N       E                     dE             d eps       ncg     rms          rms(c)
DAV:   1    -0.599486309419E+03    0.34952E-02   -0.11098E+00 11760   0.151E+00    0.170E-01
RMM:   2    -0.599489972947E+03   -0.36635E-02   -0.38185E-02 13434   0.396E-01    0.515E-02
RMM:   3    -0.599490779276E+03   -0.80633E-03   -0.84649E-03 15426   0.151E-01    0.527E-02
RMM:   4    -0.599490828253E+03   -0.48978E-04   -0.89594E-04 15270   0.496E-02    0.331E-02
RMM:   5    -0.599490821085E+03    0.71679E-05   -0.24219E-04 12721   0.232E-02    0.132E-02
RMM:   6    -0.599490823114E+03   -0.20290E-05   -0.46018E-05  9257   0.109E-02
  15 F= -.59949082E+03 E0= -.59948416E+03  d E =-.794150E-01
       N       E                     dE             d eps       ncg     rms          rms(c)
DAV:   1    -0.599311631880E+03    0.17919E+00   -0.54279E+01 10783   0.108E+01    0.117E+00
RMM:   2    -0.599495997795E+03   -0.18437E+00   -0.19205E+00 13475   0.293E+00    0.362E-01
RMM:   3    -0.599541572499E+03   -0.45575E-01   -0.47181E-01 15406   0.113E+00    0.372E-01
RMM:   4    -0.599544985783E+03   -0.34133E-02   -0.51559E-02 15638   0.371E-01    0.256E-01
RMM:   5    -0.599544265383E+03    0.72040E-03   -0.11695E-02 14348   0.164E-01    0.847E-02
RMM:   6    -0.599544469060E+03   -0.20368E-03   -0.26531E-03 15112   0.779E-02    0.645E-02
RMM:   7    -0.599544486223E+03   -0.17163E-04   -0.83779E-04 14593   0.355E-02    0.155E-02
RMM:   8    -0.599544506640E+03   -0.20417E-04   -0.19999E-04 10587   0.171E-02    0.124E-02
RMM:   9    -0.599544511401E+03   -0.47611E-05   -0.73036E-05  9260   0.103E-02
  16 F= -.59954451E+03 E0= -.59953764E+03  d E =-.536883E-01
       N       E                     dE             d eps       ncg     rms          rms(c)
DAV:   1    -0.599529667808E+03    0.14839E-01   -0.44770E+00 11432   0.309E+00    0.332E-01
RMM:   2    -0.599544299518E+03   -0.14632E-01   -0.15228E-01 13421   0.814E-01    0.103E-01
RMM:   3    -0.599547779648E+03   -0.34801E-02   -0.36068E-02 15393   0.313E-01    0.105E-01
RMM:   4    -0.599548042755E+03   -0.26311E-03   -0.39435E-03 15526   0.103E-01    0.739E-02
RMM:   5    -0.599547988969E+03    0.53786E-04   -0.10023E-03 14371   0.461E-02    0.295E-02
RMM:   6    -0.599547999351E+03   -0.10383E-04   -0.20892E-04 13103   0.216E-02    0.193E-02
RMM:   7    -0.599548000058E+03   -0.70703E-06   -0.68500E-05  9242   0.111E-02
  17 F= -.59954800E+03 E0= -.59954109E+03  d E =-.571769E-01
       N       E                     dE             d eps       ncg     rms          rms(c)
DAV:   1    -0.599369756367E+03    0.17824E+00   -0.55010E+01 10909   0.108E+01    0.117E+00
RMM:   2    -0.599546364483E+03   -0.17661E+00   -0.18427E+00 13195   0.283E+00    0.363E-01
RMM:   3    -0.599589865807E+03   -0.43501E-01   -0.45166E-01 15363   0.112E+00    0.375E-01
RMM:   4    -0.599592910936E+03   -0.30451E-02   -0.49632E-02 15605   0.365E-01    0.249E-01
RMM:   5    -0.599592373059E+03    0.53788E-03   -0.11490E-02 14258   0.161E-01    0.918E-02
RMM:   6    -0.599592545927E+03   -0.17287E-03   -0.26280E-03 15521   0.759E-02    0.618E-02
RMM:   7    -0.599592569137E+03   -0.23210E-04   -0.81802E-04 14504   0.339E-02    0.156E-02
RMM:   8    -0.599592587827E+03   -0.18690E-04   -0.19200E-04 10218   0.166E-02    0.991E-03
RMM:   9    -0.599592594070E+03   -0.62433E-05   -0.74827E-05  9179   0.102E-02
  18 F= -.59959259E+03 E0= -.59958556E+03  d E =-.445940E-01
       N       E                     dE             d eps       ncg     rms          rms(c)
DAV:   1    -0.599578575251E+03    0.14013E-01   -0.43910E+00 11616   0.304E+00    0.328E-01
RMM:   2    -0.599592226464E+03   -0.13651E-01   -0.14235E-01 13149   0.781E-01    0.102E-01
RMM:   3    -0.599595567619E+03   -0.33412E-02   -0.34765E-02 15348   0.308E-01    0.104E-01
RMM:   4    -0.599595805515E+03   -0.23790E-03   -0.37729E-03 15591   0.101E-01    0.712E-02
RMM:   5    -0.599595766705E+03    0.38810E-04   -0.96014E-04 14344   0.447E-02    0.313E-02
RMM:   6    -0.599595773877E+03   -0.71719E-05   -0.19961E-04 12854   0.209E-02    0.186E-02
RMM:   7    -0.599595775096E+03   -0.12197E-05   -0.67796E-05  9236   0.109E-02
  19 F= -.59959578E+03 E0= -.59958870E+03  d E =-.477750E-01
       N       E                     dE             d eps       ncg     rms          rms(c)
DAV:   1    -0.599398307220E+03    0.19747E+00   -0.56701E+01 10996   0.112E+01    0.117E+00
RMM:   2    -0.599584551333E+03   -0.18624E+00   -0.19395E+00 13253   0.299E+00    0.366E-01
RMM:   3    -0.599632696132E+03   -0.48145E-01   -0.49435E-01 15350   0.119E+00    0.369E-01
RMM:   4    -0.599636653075E+03   -0.39569E-02   -0.55158E-02 15730   0.389E-01    0.271E-01
RMM:   5    -0.599635809061E+03    0.84401E-03   -0.12071E-02 13838   0.166E-01    0.978E-02
RMM:   6    -0.599636011217E+03   -0.20216E-03   -0.28544E-03 15428   0.810E-02    0.729E-02
RMM:   7    -0.599636011119E+03    0.97149E-07   -0.89000E-04 14406   0.366E-02    0.158E-02
RMM:   8    -0.599636033943E+03   -0.22823E-04   -0.21560E-04 11034   0.186E-02    0.151E-02
RMM:   9    -0.599636038038E+03   -0.40956E-05   -0.77437E-05  9357   0.111E-02
  20 F= -.59963604E+03 E0= -.59962898E+03  d E =-.402629E-01
       N       E                     dE             d eps       ncg     rms          rms(c)
DAV:   1    -0.599619429984E+03    0.16604E-01   -0.49818E+00 11664   0.330E+00    0.343E-01
RMM:   2    -0.599635112533E+03   -0.15683E-01   -0.16328E-01 13204   0.858E-01    0.108E-01
RMM:   3    -0.599639097037E+03   -0.39845E-02   -0.41040E-02 15284   0.340E-01    0.107E-01
RMM:   4    -0.599639441710E+03   -0.34467E-03   -0.46497E-03 15626   0.113E-01    0.810E-02
RMM:   5    -0.599639379013E+03    0.62697E-04   -0.11486E-03 14133   0.487E-02    0.382E-02
RMM:   6    -0.599639384605E+03   -0.55920E-05   -0.22992E-04 13351   0.226E-02    0.225E-02
RMM:   7    -0.599639383933E+03    0.67148E-06   -0.77840E-05  9389   0.116E-02
  21 F= -.59963938E+03 E0= -.59963232E+03  d E =-.436088E-01
       N       E                     dE             d eps       ncg     rms          rms(c)
DAV:   1    -0.599475253007E+03    0.16413E+00   -0.49515E+01 11179   0.104E+01    0.110E+00
RMM:   2    -0.599630920458E+03   -0.15567E+00   -0.16292E+00 13084   0.274E+00    0.345E-01
RMM:   3    -0.599672248182E+03   -0.41328E-01   -0.42391E-01 15258   0.111E+00    0.341E-01
RMM:   4    -0.599675789941E+03   -0.35418E-02   -0.48823E-02 15692   0.365E-01    0.255E-01
RMM:   5    -0.599675091878E+03    0.69806E-03   -0.10251E-02 13722   0.154E-01    0.844E-02
RMM:   6    -0.599675297164E+03   -0.20529E-03   -0.25693E-03 15540   0.760E-02    0.672E-02
RMM:   7    -0.599675294784E+03    0.23809E-05   -0.72820E-04 13973   0.334E-02    0.147E-02
RMM:   8    -0.599675315880E+03   -0.21097E-04   -0.20205E-04 11461   0.191E-02    0.130E-02
RMM:   9    -0.599675319650E+03   -0.37698E-05   -0.67082E-05  9342   0.104E-02
  22 F= -.59967532E+03 E0= -.59966829E+03  d E =-.359357E-01
       N       E                     dE             d eps       ncg     rms          rms(c)
DAV:   1    -0.599627221764E+03    0.48094E-01   -0.14204E+01 11496   0.557E+00    0.584E-01
RMM:   2    -0.599670348784E+03   -0.43127E-01   -0.45134E-01 13053   0.144E+00    0.185E-01
RMM:   3    -0.599681904687E+03   -0.11556E-01   -0.11869E-01 15215   0.579E-01    0.179E-01
RMM:   4    -0.599682953308E+03   -0.10486E-02   -0.13799E-02 15697   0.193E-01    0.140E-01
RMM:   5    -0.599682745161E+03    0.20815E-03   -0.30547E-03 13830   0.814E-02    0.551E-02
RMM:   6    -0.599682789684E+03   -0.44522E-04   -0.70266E-04 15216   0.394E-02    0.392E-02
RMM:   7    -0.599682785667E+03    0.40168E-05   -0.21291E-04 12396   0.180E-02    0.855E-03
RMM:   8    -0.599682791706E+03   -0.60390E-05   -0.62143E-05  9170   0.120E-02
  23 F= -.59968279E+03 E0= -.59967577E+03  d E =-.434078E-01
       N       E                     dE             d eps       ncg     rms          rms(c)
DAV:   1    -0.599484495289E+03    0.19829E+00   -0.56456E+01 11170   0.112E+01    0.116E+00
RMM:   2    -0.599667161101E+03   -0.18267E+00   -0.19106E+00 13223   0.300E+00    0.364E-01
RMM:   3    -0.599714831901E+03   -0.47671E-01   -0.49059E-01 15268   0.120E+00    0.360E-01
RMM:   4    -0.599719145955E+03   -0.43141E-02   -0.57039E-02 15702   0.398E-01    0.283E-01
RMM:   5    -0.599718128638E+03    0.10173E-02   -0.11487E-02 13736   0.171E-01    0.797E-02
RMM:   6    -0.599718428324E+03   -0.29969E-03   -0.32149E-03 15382   0.874E-02    0.808E-02
RMM:   7    -0.599718394969E+03    0.33355E-04   -0.89958E-04 13950   0.395E-02    0.154E-02
RMM:   8    -0.599718425168E+03   -0.30199E-04   -0.26528E-04 12129   0.233E-02    0.196E-02
RMM:   9    -0.599718424547E+03    0.62125E-06   -0.79642E-05  9490   0.126E-02
  24 F= -.59971842E+03 E0= -.59971144E+03  d E =-.356328E-01
       N       E                     dE             d eps       ncg     rms          rms(c)
DAV:   1    -0.599679145689E+03    0.39279E-01   -0.11166E+01 11632   0.499E+00    0.515E-01
RMM:   2    -0.599713996684E+03   -0.34851E-01   -0.36465E-01 13194   0.130E+00    0.162E-01
RMM:   3    -0.599723116734E+03   -0.91200E-02   -0.94023E-02 15263   0.520E-01    0.159E-01
RMM:   4    -0.599723987660E+03   -0.87093E-03   -0.10844E-02 15725   0.173E-01    0.131E-01
RMM:   5    -0.599723770269E+03    0.21739E-03   -0.23711E-03 13436   0.745E-02    0.476E-02
RMM:   6    -0.599723822105E+03   -0.51836E-04   -0.61825E-04 15170   0.378E-02    0.426E-02
RMM:   7    -0.599723807090E+03    0.15015E-04   -0.18327E-04 12453   0.177E-02    0.735E-03
RMM:   8    -0.599723813386E+03   -0.62962E-05   -0.60282E-05  9110   0.124E-02
  25 F= -.59972381E+03 E0= -.59971682E+03  d E =-.410217E-01
       N       E                     dE             d eps       ncg     rms          rms(c)
DAV:   1    -0.599481442353E+03    0.24236E+00   -0.66495E+01 11121   0.122E+01    0.128E+00
RMM:   2    -0.599694521113E+03   -0.21308E+00   -0.22363E+00 13112   0.326E+00    0.398E-01
RMM:   3    -0.599752697081E+03   -0.58176E-01   -0.59827E-01 15268   0.132E+00    0.396E-01
RMM:   4    -0.599758412360E+03   -0.57153E-02   -0.70483E-02 15721   0.438E-01    0.333E-01
RMM:   5    -0.599756962344E+03    0.14500E-02   -0.14149E-02 13448   0.188E-01    0.959E-02
RMM:   6    -0.599757374141E+03   -0.41180E-03   -0.42020E-03 15447   0.986E-02    0.105E-01
RMM:   7    -0.599757277984E+03    0.96157E-04   -0.11912E-03 14050   0.453E-02    0.177E-02
RMM:   8    -0.599757315304E+03   -0.37320E-04   -0.33911E-04 12303   0.262E-02    0.188E-02
RMM:   9    -0.599757317288E+03   -0.19836E-05   -0.95241E-05  9640   0.139E-02
  26 F= -.59975732E+03 E0= -.59975024E+03  d E =-.335039E-01
       N       E                     dE             d eps       ncg     rms          rms(c)
DAV:   1    -0.599686403721E+03    0.70912E-01   -0.19617E+01 11448   0.663E+00    0.693E-01
RMM:   2    -0.599747069784E+03   -0.60666E-01   -0.63777E-01 13088   0.173E+00    0.217E-01
RMM:   3    -0.599763576215E+03   -0.16506E-01   -0.17026E-01 15254   0.700E-01    0.213E-01
RMM:   4    -0.599765240917E+03   -0.16647E-02   -0.19818E-02 15742   0.232E-01    0.186E-01
RMM:   5    -0.599764787685E+03    0.45323E-03   -0.43354E-03 13200   0.101E-01    0.651E-02
RMM:   6    -0.599764896245E+03   -0.10856E-03   -0.11873E-03 15415   0.518E-02    0.627E-02
RMM:   7    -0.599764856816E+03    0.39429E-04   -0.33793E-04 12862   0.238E-02    0.112E-02
RMM:   8    -0.599764868483E+03   -0.11668E-04   -0.11308E-04 10702   0.164E-02    0.123E-02
RMM:   9    -0.599764868105E+03    0.37804E-06   -0.29896E-05  8520   0.811E-03
  27 F= -.59976487E+03 E0= -.59975768E+03  d E =-.410547E-01
       N       E                     dE             d eps       ncg     rms          rms(c)
DAV:   1    -0.599557048536E+03    0.20782E+00   -0.59877E+01 11269   0.116E+01    0.123E+00
RMM:   2    -0.599745665617E+03   -0.18862E+00   -0.20063E+00 13116   0.310E+00    0.391E-01
RMM:   3    -0.599796732077E+03   -0.51066E-01   -0.52885E-01 15245   0.125E+00    0.376E-01
RMM:   4    -0.599802011969E+03   -0.52799E-02   -0.65123E-02 15742   0.422E-01    0.329E-01
RMM:   5    -0.599800446741E+03    0.15652E-02   -0.12768E-02 13330   0.181E-01    0.883E-02
RMM:   6    -0.599800836982E+03   -0.39024E-03   -0.40656E-03 15496   0.972E-02    0.102E-01
RMM:   7    -0.599800726267E+03    0.11072E-03   -0.10765E-03 14036   0.434E-02    0.195E-02
RMM:   8    -0.599800759055E+03   -0.32789E-04   -0.31901E-04 12372   0.258E-02    0.150E-02
RMM:   9    -0.599800762615E+03   -0.35599E-05   -0.85458E-05  9611   0.134E-02
  28 F= -.59980076E+03 E0= -.59979323E+03  d E =-.358945E-01
       N       E                     dE             d eps       ncg     rms          rms(c)
DAV:   1    -0.599602937214E+03    0.19782E+00   -0.53407E+01 11488   0.110E+01    0.116E+00
RMM:   2    -0.599770083768E+03   -0.16715E+00   -0.17858E+00 13125   0.292E+00    0.373E-01
RMM:   3    -0.599815107648E+03   -0.45024E-01   -0.46748E-01 15224   0.118E+00    0.356E-01
RMM:   4    -0.599819822224E+03   -0.47146E-02   -0.58297E-02 15761   0.399E-01    0.314E-01
RMM:   5    -0.599818381263E+03    0.14410E-02   -0.11478E-02 13316   0.171E-01    0.842E-02
RMM:   6    -0.599818724214E+03   -0.34295E-03   -0.36202E-03 15472   0.918E-02    0.971E-02
RMM:   7    -0.599818623482E+03    0.10073E-03   -0.94487E-04 13868   0.408E-02    0.196E-02
RMM:   8    -0.599818652498E+03   -0.29017E-04   -0.29177E-04 12339   0.253E-02    0.143E-02
RMM:   9    -0.599818655726E+03   -0.32279E-05   -0.77465E-05  9462   0.129E-02
  29 F= -.59981866E+03 E0= -.59981080E+03  d E =-.537876E-01
       N       E                     dE             d eps       ncg     rms          rms(c)
DAV:   1    -0.598891720250E+03    0.92693E+00   -0.21334E+02 11313   0.220E+01    0.237E+00
RMM:   2    -0.599597313318E+03   -0.70559E+00   -0.75939E+00 13202   0.607E+00    0.768E-01
RMM:   3    -0.599792586084E+03   -0.19527E+00   -0.20310E+00 15330   0.248E+00    0.744E-01
RMM:   4    -0.599812618356E+03   -0.20032E-01   -0.25988E-01 15717   0.853E-01    0.642E-01
RMM:   5    -0.599807217680E+03    0.54007E-02   -0.45695E-02 14817   0.352E-01    0.202E-01
RMM:   6    -0.599808021328E+03   -0.80365E-03   -0.17671E-02 13729   0.213E-01    0.187E-01
RMM:   7    -0.599807717183E+03    0.30415E-03   -0.48063E-03 15452   0.104E-01    0.416E-02
RMM:   8    -0.599807857248E+03   -0.14007E-03   -0.13255E-03 14945   0.457E-02    0.311E-02
RMM:   9    -0.599807866128E+03   -0.88798E-05   -0.28679E-04 11730   0.219E-02    0.107E-02
RMM:  10    -0.599807877788E+03   -0.11660E-04   -0.11877E-04  9010   0.116E-02    0.496E-03
RMM:  11    -0.599807880746E+03   -0.29577E-05   -0.37952E-05  8069   0.797E-03
  30 F= -.59980788E+03 E0= -.59980008E+03  d E =-.430126E-01
       N       E                     dE             d eps       ncg     rms          rms(c)
DAV:   1    -0.599372314061E+03    0.43556E+00   -0.11000E+02 11321   0.158E+01    0.169E+00
RMM:   2    -0.599719912988E+03   -0.34760E+00   -0.37359E+00 13145   0.423E+00    0.543E-01
RMM:   3    -0.599814772863E+03   -0.94860E-01   -0.98700E-01 15259   0.172E+00    0.522E-01
RMM:   4    -0.599824318149E+03   -0.95453E-02   -0.12295E-01 15685   0.582E-01    0.451E-01
RMM:   5    -0.599821388753E+03    0.29294E-02   -0.22976E-02 13883   0.253E-01    0.114E-01
RMM:   6    -0.599822083862E+03   -0.69511E-03   -0.83542E-03 15024   0.140E-01    0.131E-01
RMM:   7    -0.599821901893E+03    0.18197E-03   -0.21134E-03 15186   0.638E-02    0.280E-02
RMM:   8    -0.599821963036E+03   -0.61143E-04   -0.56746E-04 13267   0.297E-02    0.198E-02
RMM:   9    -0.599821970070E+03   -0.70333E-05   -0.14942E-04 10722   0.183E-02    0.561E-03
RMM:  10    -0.599821976513E+03   -0.64432E-05   -0.59063E-05  8329   0.879E-03
  31 F= -.59982198E+03 E0= -.59981404E+03  d E =-.571084E-01
       N       E                     dE             d eps       ncg     rms          rms(c)
DAV:   1    -0.599794110446E+03    0.27860E-01   -0.11737E+01 11544   0.516E+00    0.552E-01
RMM:   2    -0.599828755556E+03   -0.34645E-01   -0.37763E-01 13155   0.133E+00    0.180E-01
RMM:   3    -0.599837768815E+03   -0.90133E-02   -0.94180E-02 15074   0.533E-01    0.161E-01
RMM:   4    -0.599838754265E+03   -0.98545E-03   -0.12461E-02 15806   0.187E-01    0.142E-01
RMM:   5    -0.599838466400E+03    0.28786E-03   -0.24544E-03 13258   0.785E-02    0.414E-02
RMM:   6    -0.599838522032E+03   -0.55632E-04   -0.70080E-04 15142   0.409E-02    0.403E-02
RMM:   7    -0.599838507162E+03    0.14870E-04   -0.17793E-04 12391   0.182E-02    0.102E-02
RMM:   8    -0.599838511693E+03   -0.45305E-05   -0.60724E-05  9307   0.132E-02
  32 F= -.59983851E+03 E0= -.59983060E+03  d E =-.165352E-01
       N       E                     dE             d eps       ncg     rms          rms(c)
DAV:   1    -0.599458916907E+03    0.37959E+00   -0.10551E+02 11538   0.155E+01    0.168E+00
RMM:   2    -0.599790399377E+03   -0.33148E+00   -0.36281E+00 13264   0.418E+00    0.557E-01
RMM:   3    -0.599881045002E+03   -0.90646E-01   -0.95003E-01 15158   0.169E+00    0.503E-01
RMM:   4    -0.599890709351E+03   -0.96643E-02   -0.12450E-01 15798   0.590E-01    0.437E-01
RMM:   5    -0.599887978247E+03    0.27311E-02   -0.21520E-02 13942   0.244E-01    0.113E-01
RMM:   6    -0.599888555077E+03   -0.57683E-03   -0.77419E-03 14773   0.137E-01    0.118E-01
RMM:   7    -0.599888437216E+03    0.11786E-03   -0.19515E-03 15230   0.628E-02    0.289E-02
RMM:   8    -0.599888489962E+03   -0.52746E-04   -0.52791E-04 13195   0.293E-02    0.175E-02
RMM:   9    -0.599888497447E+03   -0.74845E-05   -0.13261E-04 10850   0.173E-02    0.766E-03
RMM:  10    -0.599888502573E+03   -0.51263E-05   -0.55495E-05  8476   0.869E-03
  33 F= -.59988850E+03 E0= -.59988086E+03  d E =-.665261E-01
       N       E                     dE             d eps       ncg     rms          rms(c)
DAV:   1    -0.598093485389E+03    0.17950E+01   -0.42179E+02 11619   0.313E+01    0.342E+00
RMM:   2    -0.599539623579E+03   -0.14461E+01   -0.16064E+01 13242   0.900E+00    0.111E+00
RMM:   3    -0.599953323118E+03   -0.41370E+00   -0.43115E+00 15439   0.366E+00    0.109E+00
RMM:   4    -0.599993928201E+03   -0.40605E-01   -0.57760E-01 15708   0.129E+00    0.898E-01
RMM:   5    -0.599985529023E+03    0.83992E-02   -0.94500E-02 15268   0.503E-01    0.391E-01
RMM:   6    -0.599984681021E+03    0.84800E-03   -0.40720E-02 13264   0.338E-01    0.217E-01
RMM:   7    -0.599984581329E+03    0.99692E-04   -0.92594E-03 15890   0.148E-01    0.708E-02
RMM:   8    -0.599984798041E+03   -0.21671E-03   -0.24593E-03 14773   0.616E-02    0.418E-02
RMM:   9    -0.599984823821E+03   -0.25781E-04   -0.55026E-04 13597   0.306E-02    0.201E-02
RMM:  10    -0.599984841069E+03   -0.17248E-04   -0.22786E-04 10522   0.176E-02    0.714E-03
RMM:  11    -0.599984847466E+03   -0.63975E-05   -0.68599E-05  8715   0.109E-02
  34 F= -.59998485E+03 E0= -.59997761E+03  d E =-.162871E+00
       N       E                     dE             d eps       ncg     rms          rms(c)
DAV:   1    -0.590403516098E+03    0.95813E+01   -0.16938E+03 11818   0.643E+01    0.702E+00
RMM:   2    -0.597909434628E+03   -0.75059E+01   -0.83450E+01 13304   0.213E+01    0.238E+00
RMM:   3    -0.599792145319E+03   -0.18827E+01   -0.19839E+01 15776   0.820E+00    0.271E+00
RMM:   4    -0.599831710219E+03   -0.39565E-01   -0.24524E+00 14203   0.293E+00    0.166E+00
RMM:   5    -0.599850941949E+03   -0.19232E-01   -0.88277E-01 15554   0.139E+00    0.636E-01
RMM:   6    -0.599849427331E+03    0.15146E-02   -0.11692E-01 13551   0.559E-01    0.276E-01
RMM:   7    -0.599850701186E+03   -0.12739E-02   -0.24634E-02 15143   0.243E-01    0.103E-01
RMM:   8    -0.599851420915E+03   -0.71973E-03   -0.80399E-03 15058   0.116E-01    0.607E-02
RMM:   9    -0.599851598703E+03   -0.17779E-03   -0.23096E-03 14434   0.569E-02    0.349E-02
RMM:  10    -0.599851642995E+03   -0.44292E-04   -0.84448E-04 13142   0.335E-02    0.842E-03
RMM:  11    -0.599851672344E+03   -0.29349E-04   -0.30018E-04 10457   0.173E-02    0.793E-03
RMM:  12    -0.599851682644E+03   -0.10300E-04   -0.11689E-04  9411   0.128E-02    0.711E-03
RMM:  13    -0.599851684768E+03   -0.21243E-05   -0.43541E-05  8375   0.741E-03
  35 F= -.59985168E+03 E0= -.59984780E+03  d E =-.297083E-01
       N       E                     dE             d eps       ncg     rms          rms(c)
DAV:   1    -0.594761527925E+03    0.50902E+01   -0.10527E+03 11537   0.501E+01    0.540E+00
RMM:   2    -0.598865321716E+03   -0.41038E+01   -0.45119E+01 13303   0.154E+01    0.178E+00
RMM:   3    -0.599955623014E+03   -0.10903E+01   -0.11361E+01 15694   0.611E+00    0.198E+00
RMM:   4    -0.600030101887E+03   -0.74479E-01   -0.15343E+00 15256   0.215E+00    0.141E+00
RMM:   5    -0.600014641712E+03    0.15460E-01   -0.31147E-01 15497   0.875E-01    0.584E-01
RMM:   6    -0.600012381960E+03    0.22598E-02   -0.82693E-02 13198   0.478E-01    0.242E-01
RMM:   7    -0.600013145930E+03   -0.76397E-03   -0.16086E-02 15981   0.190E-01    0.110E-01
RMM:   8    -0.600013440607E+03   -0.29468E-03   -0.45096E-03 13593   0.889E-02    0.497E-02
RMM:   9    -0.600013539172E+03   -0.98565E-04   -0.13102E-03 15338   0.469E-02    0.227E-02
RMM:  10    -0.600013579515E+03   -0.40343E-04   -0.44930E-04 12402   0.239E-02    0.698E-03
RMM:  11    -0.600013593910E+03   -0.14395E-04   -0.14685E-04  9499   0.121E-02    0.580E-03
RMM:  12    -0.600013599485E+03   -0.55753E-05   -0.59600E-05  8591   0.861E-03
  36 F= -.60001360E+03 E0= -.60000795E+03  d E =-.191623E+00
       N       E                     dE             d eps       ncg     rms          rms(c)
DAV:   1    -0.599629846410E+03    0.38375E+00   -0.96013E+01 11536   0.148E+01    0.151E+00
RMM:   2    -0.599929193407E+03   -0.29935E+00   -0.31988E+00 13174   0.394E+00    0.496E-01
RMM:   3    -0.600011778499E+03   -0.82585E-01   -0.85746E-01 15140   0.161E+00    0.468E-01
RMM:   4    -0.600020630987E+03   -0.88525E-02   -0.11345E-01 15802   0.565E-01    0.401E-01
RMM:   5    -0.600018466214E+03    0.21648E-02   -0.18657E-02 14550   0.224E-01    0.107E-01
RMM:   6    -0.600018950789E+03   -0.48457E-03   -0.64159E-03 14085   0.125E-01    0.116E-01
RMM:   7    -0.600018852257E+03    0.98532E-04   -0.17388E-03 15165   0.605E-02    0.264E-02
RMM:   8    -0.600018901375E+03   -0.49118E-04   -0.48490E-04 13710   0.288E-02    0.209E-02
RMM:   9    -0.600018903394E+03   -0.20195E-05   -0.10843E-04  9986   0.154E-02    0.717E-03
RMM:  10    -0.600018907776E+03   -0.43820E-05   -0.47401E-05  8524   0.879E-03
  37 F= -.60001891E+03 E0= -.60001345E+03  d E =-.196931E+00
       N       E                     dE             d eps       ncg     rms          rms(c)
DAV:   1    -0.599965048474E+03    0.53855E-01   -0.14718E+01 11608   0.577E+00    0.590E-01
RMM:   2    -0.600008397188E+03   -0.43349E-01   -0.46259E-01 13131   0.148E+00    0.193E-01
RMM:   3    -0.600020025707E+03   -0.11629E-01   -0.12098E-01 15162   0.601E-01    0.182E-01
RMM:   4    -0.600021267714E+03   -0.12420E-02   -0.15456E-02 15788   0.207E-01    0.159E-01
RMM:   5    -0.600020902393E+03    0.36532E-03   -0.28835E-03 14217   0.843E-02    0.422E-02
RMM:   6    -0.600020983116E+03   -0.80722E-04   -0.83170E-04 14913   0.429E-02    0.456E-02
RMM:   7    -0.600020965541E+03    0.17574E-04   -0.20086E-04 12518   0.196E-02    0.128E-02
RMM:   8    -0.600020971252E+03   -0.57107E-05   -0.74572E-05  9598   0.131E-02
  38 F= -.60002097E+03 E0= -.60001541E+03  d E =-.198995E+00
       N       E                     dE             d eps       ncg     rms          rms(c)
DAV:   1    -0.599983505954E+03    0.37460E-01   -0.16481E+01 11736   0.610E+00    0.617E-01
RMM:   2    -0.600032049395E+03   -0.48543E-01   -0.52151E-01 13195   0.158E+00    0.206E-01
RMM:   3    -0.600044998684E+03   -0.12949E-01   -0.13495E-01 15048   0.635E-01    0.188E-01
RMM:   4    -0.600046421671E+03   -0.14230E-02   -0.18006E-02 15802   0.226E-01    0.164E-01
RMM:   5    -0.600046033746E+03    0.38792E-03   -0.30943E-03 14160   0.900E-02    0.417E-02
RMM:   6    -0.600046120685E+03   -0.86939E-04   -0.99525E-04 14515   0.478E-02    0.468E-02
RMM:   7    -0.600046102170E+03    0.18515E-04   -0.24329E-04 12955   0.223E-02    0.132E-02
RMM:   8    -0.600046108290E+03   -0.61198E-05   -0.83362E-05  9823   0.141E-02
  39 F= -.60004611E+03 E0= -.60004068E+03  d E =-.251370E-01
       N       E                     dE             d eps       ncg     rms          rms(c)
DAV:   1    -0.599748290376E+03    0.29781E+00   -0.82003E+01 11784   0.136E+01    0.136E+00
RMM:   2    -0.600005376089E+03   -0.25709E+00   -0.27401E+00 13268   0.364E+00    0.452E-01
RMM:   3    -0.600073879589E+03   -0.68504E-01   -0.71117E-01 15089   0.146E+00    0.422E-01
RMM:   4    -0.600080923159E+03   -0.70436E-02   -0.94537E-02 15772   0.519E-01    0.342E-01
RMM:   5    -0.600079467899E+03    0.14553E-02   -0.15994E-02 14326   0.210E-01    0.845E-02
RMM:   6    -0.600079889088E+03   -0.42119E-03   -0.49604E-03 14613   0.111E-01    0.925E-02
RMM:   7    -0.600079854053E+03    0.35035E-04   -0.13578E-03 14867   0.520E-02    0.228E-02
RMM:   8    -0.600079894227E+03   -0.40174E-04   -0.38947E-04 13048   0.269E-02    0.206E-02
RMM:   9    -0.600079894548E+03   -0.32123E-06   -0.94809E-05  9972   0.146E-02
  40 F= -.60007989E+03 E0= -.60007514E+03  d E =-.589233E-01
       N       E                     dE             d eps       ncg     rms          rms(c)
DAV:   1    -0.600029412518E+03    0.50482E-01   -0.13865E+01 12032   0.559E+00    0.548E-01
RMM:   2    -0.600070486410E+03   -0.41074E-01   -0.43543E-01 13190   0.145E+00    0.184E-01
RMM:   3    -0.600081448553E+03   -0.10962E-01   -0.11418E-01 15103   0.583E-01    0.172E-01
RMM:   4    -0.600082584271E+03   -0.11357E-02   -0.14793E-02 15787   0.205E-01    0.139E-01
RMM:   5    -0.600082350677E+03    0.23359E-03   -0.27338E-03 14033   0.837E-02    0.403E-02
RMM:   6    -0.600082416167E+03   -0.65490E-04   -0.76711E-04 15037   0.423E-02    0.396E-02
RMM:   7    -0.600082406770E+03    0.93973E-05   -0.20439E-04 12428   0.193E-02    0.898E-03
RMM:   8    -0.600082412813E+03   -0.60434E-05   -0.66055E-05  9535   0.133E-02
  41 F= -.60008241E+03 E0= -.60007806E+03  d E =-.614416E-01
       N       E                     dE             d eps       ncg     rms          rms(c)
DAV:   1    -0.600122115646E+03   -0.39709E-01   -0.17701E+00 11824   0.199E+00    0.188E-01
RMM:   2    -0.600127983669E+03   -0.58680E-02   -0.62235E-02 13556   0.558E-01    0.664E-02
RMM:   3    -0.600129514957E+03   -0.15313E-02   -0.16194E-02 15185   0.215E-01    0.648E-02
RMM:   4    -0.600129650750E+03   -0.13579E-03   -0.18576E-03 15542   0.728E-02    0.512E-02
RMM:   5    -0.600129613834E+03    0.36916E-04   -0.38728E-04 13484   0.324E-02    0.141E-02
RMM:   6    -0.600129621406E+03   -0.75714E-05   -0.10380E-04 11575   0.165E-02    0.137E-02
RMM:   7    -0.600129619711E+03    0.16945E-05   -0.27724E-05  8495   0.968E-03
  42 F= -.60012962E+03 E0= -.60012545E+03  d E =-.472069E-01
       N       E                     dE             d eps       ncg     rms          rms(c)
DAV:   1    -0.600177054100E+03   -0.47433E-01   -0.15906E+01 11384   0.597E+00    0.562E-01
RMM:   2    -0.600231897439E+03   -0.54843E-01   -0.57871E-01 13581   0.172E+00    0.200E-01
RMM:   3    -0.600247306166E+03   -0.15409E-01   -0.16164E-01 15180   0.670E-01    0.196E-01
RMM:   4    -0.600248670963E+03   -0.13648E-02   -0.18327E-02 15716   0.224E-01    0.152E-01
RMM:   5    -0.600248354956E+03    0.31601E-03   -0.33875E-03 14606   0.958E-02    0.390E-02
RMM:   6    -0.600248439139E+03   -0.84183E-04   -0.97121E-04 14991   0.483E-02    0.406E-02
RMM:   7    -0.600248428738E+03    0.10401E-04   -0.25241E-04 13102   0.224E-02    0.894E-03
RMM:   8    -0.600248435274E+03   -0.65364E-05   -0.70344E-05  9604   0.134E-02
  43 F= -.60024844E+03 E0= -.60024467E+03  d E =-.166022E+00
       N       E                     dE             d eps       ncg     rms          rms(c)
DAV:   1    -0.600072308333E+03    0.17612E+00   -0.63538E+01 11368   0.120E+01    0.112E+00
RMM:   2    -0.600309930516E+03   -0.23762E+00   -0.24897E+00 13730   0.354E+00    0.400E-01
RMM:   3    -0.600373573369E+03   -0.63643E-01   -0.66490E-01 15261   0.137E+00    0.397E-01
RMM:   4    -0.600378956542E+03   -0.53832E-02   -0.74269E-02 15763   0.453E-01    0.310E-01
RMM:   5    -0.600377648335E+03    0.13082E-02   -0.14254E-02 15159   0.193E-01    0.778E-02
RMM:   6    -0.600377965981E+03   -0.31765E-03   -0.35631E-03 14483   0.954E-02    0.831E-02
RMM:   7    -0.600377938382E+03    0.27598E-04   -0.11473E-03 14866   0.479E-02    0.187E-02
RMM:   8    -0.600377966845E+03   -0.28462E-04   -0.26528E-04 12434   0.220E-02    0.198E-02
RMM:   9    -0.600377963584E+03    0.32608E-05   -0.75521E-05  9906   0.131E-02
  44 F= -.60037796E+03 E0= -.60037447E+03  d E =-.295551E+00
       N       E                     dE             d eps       ncg     rms          rms(c)
DAV:   1    -0.600350119281E+03    0.27848E-01   -0.84661E+00 11672   0.435E+00    0.401E-01
RMM:   2    -0.600379093446E+03   -0.28974E-01   -0.30320E-01 13621   0.124E+00    0.146E-01
RMM:   3    -0.600386959198E+03   -0.78658E-02   -0.82665E-02 15234   0.481E-01    0.143E-01
RMM:   4    -0.600387673951E+03   -0.71475E-03   -0.94481E-03 15716   0.161E-01    0.115E-01
RMM:   5    -0.600387482629E+03    0.19132E-03   -0.18200E-03 14800   0.687E-02    0.294E-02
RMM:   6    -0.600387529976E+03   -0.47347E-04   -0.51553E-04 14453   0.346E-02    0.323E-02
RMM:   7    -0.600387521230E+03    0.87457E-05   -0.13380E-04 11934   0.170E-02    0.698E-03
RMM:   8    -0.600387525483E+03   -0.42527E-05   -0.43315E-05  8777   0.106E-02
  45 F= -.60038753E+03 E0= -.60038405E+03  d E =-.305113E+00
       N       E                     dE             d eps       ncg     rms          rms(c)
DAV:   1    -0.600422511237E+03   -0.34990E-01   -0.13964E+01 11040   0.554E+00    0.574E-01
RMM:   2    -0.600471012761E+03   -0.48502E-01   -0.51221E-01 13536   0.153E+00    0.194E-01
RMM:   3    -0.600482771465E+03   -0.11759E-01   -0.12553E-01 15513   0.588E-01    0.200E-01
RMM:   4    -0.600483762528E+03   -0.99106E-03   -0.13935E-02 15725   0.195E-01    0.164E-01
RMM:   5    -0.600483338784E+03    0.42374E-03   -0.34591E-03 14187   0.876E-02    0.495E-02
RMM:   6    -0.600483401289E+03   -0.62505E-04   -0.81786E-04 15004   0.422E-02    0.429E-02
RMM:   7    -0.600483389693E+03    0.11596E-04   -0.21982E-04 12423   0.190E-02    0.120E-02
RMM:   8    -0.600483394709E+03   -0.50158E-05   -0.69073E-05  9505   0.125E-02
  46 F= -.60048339E+03 E0= -.60047999E+03  d E =-.958692E-01
       N       E                     dE             d eps       ncg     rms          rms(c)
DAV:   1    -0.600340180173E+03    0.14321E+00   -0.55835E+01 11000   0.111E+01    0.115E+00
RMM:   2    -0.600541245665E+03   -0.20107E+00   -0.21231E+00 13613   0.311E+00    0.389E-01
RMM:   3    -0.600591101671E+03   -0.49856E-01   -0.52970E-01 15526   0.121E+00    0.404E-01
RMM:   4    -0.600595344687E+03   -0.42430E-02   -0.59512E-02 15761   0.400E-01    0.330E-01
RMM:   5    -0.600593627343E+03    0.17173E-02   -0.14128E-02 14450   0.178E-01    0.911E-02
RMM:   6    -0.600593900297E+03   -0.27295E-03   -0.33179E-03 15079   0.858E-02    0.837E-02
RMM:   7    -0.600593861821E+03    0.38475E-04   -0.93472E-04 14409   0.392E-02    0.222E-02
RMM:   8    -0.600593885312E+03   -0.23491E-04   -0.26417E-04 11888   0.211E-02    0.129E-02
RMM:   9    -0.600593889960E+03   -0.46474E-05   -0.78981E-05  9790   0.120E-02
  47 F= -.60059389E+03 E0= -.60059057E+03  d E =-.206364E+00
       N       E                     dE             d eps       ncg     rms          rms(c)
DAV:   1    -0.600547237391E+03    0.46648E-01   -0.13843E+01 11376   0.550E+00    0.572E-01
RMM:   2    -0.600595479955E+03   -0.48243E-01   -0.51019E-01 13552   0.152E+00    0.193E-01
RMM:   3    -0.600607245444E+03   -0.11765E-01   -0.12545E-01 15539   0.586E-01    0.199E-01
RMM:   4    -0.600608236749E+03   -0.99131E-03   -0.13865E-02 15753   0.194E-01    0.164E-01
RMM:   5    -0.600607818003E+03    0.41875E-03   -0.34790E-03 14091   0.876E-02    0.494E-02
RMM:   6    -0.600607882750E+03   -0.64748E-04   -0.83401E-04 15054   0.424E-02    0.429E-02
RMM:   7    -0.600607871561E+03    0.11189E-04   -0.22216E-04 12411   0.190E-02    0.121E-02
RMM:   8    -0.600607876859E+03   -0.52985E-05   -0.70919E-05  9544   0.127E-02
  48 F= -.60060788E+03 E0= -.60060453E+03  d E =-.220351E+00
       N       E                     dE             d eps       ncg     rms          rms(c)
DAV:   1    -0.600563462844E+03    0.44409E-01   -0.36812E+01 10816   0.891E+00    0.100E+00
RMM:   2    -0.600691255170E+03   -0.12779E+00   -0.13672E+00 13524   0.244E+00    0.319E-01
RMM:   3    -0.600720724138E+03   -0.29469E-01   -0.31335E-01 15489   0.935E-01    0.326E-01
RMM:   4    -0.600723097352E+03   -0.23732E-02   -0.34462E-02 15700   0.306E-01    0.270E-01
RMM:   5    -0.600721917955E+03    0.11794E-02   -0.92673E-03 13890   0.144E-01    0.798E-02
RMM:   6    -0.600722051084E+03   -0.13313E-03   -0.20716E-03 15271   0.688E-02    0.639E-02
RMM:   7    -0.600722029226E+03    0.21858E-04   -0.56994E-04 13481   0.299E-02    0.177E-02
RMM:   8    -0.600722042994E+03   -0.13768E-04   -0.16528E-04 11509   0.193E-02    0.771E-03
RMM:   9    -0.600722047245E+03   -0.42505E-05   -0.52156E-05  9096   0.948E-03
  49 F= -.60072205E+03 E0= -.60071876E+03  d E =-.114170E+00
       N       E                     dE             d eps       ncg     rms          rms(c)
DAV:   1    -0.600585619734E+03    0.13642E+00   -0.44607E+01 11024   0.981E+00    0.111E+00
RMM:   2    -0.600740523902E+03   -0.15490E+00   -0.16573E+00 13523   0.268E+00    0.353E-01
RMM:   3    -0.600776282624E+03   -0.35759E-01   -0.37964E-01 15508   0.103E+00    0.358E-01
RMM:   4    -0.600779190618E+03   -0.29080E-02   -0.42038E-02 15670   0.338E-01    0.297E-01
RMM:   5    -0.600777751470E+03    0.14391E-02   -0.11281E-02 13924   0.159E-01    0.864E-02
RMM:   6    -0.600777912812E+03   -0.16134E-03   -0.25042E-03 15283   0.759E-02    0.689E-02
RMM:   7    -0.600777889366E+03    0.23445E-04   -0.68857E-04 13632   0.329E-02    0.193E-02
RMM:   8    -0.600777906227E+03   -0.16861E-04   -0.19776E-04 11864   0.207E-02    0.813E-03
RMM:   9    -0.600777911583E+03   -0.53560E-05   -0.62381E-05  9239   0.102E-02
  50 F= -.60077791E+03 E0= -.60077402E+03  d E =-.170035E+00
       N       E                     dE             d eps       ncg     rms          rms(c)
DAV:   1    -0.600767584989E+03    0.10321E-01   -0.31978E+00 11592   0.262E+00    0.294E-01
RMM:   2    -0.600778303544E+03   -0.10719E-01   -0.11483E-01 13480   0.702E-01    0.939E-02
RMM:   3    -0.600780726578E+03   -0.24230E-02   -0.25820E-02 15496   0.267E-01    0.947E-02
RMM:   4    -0.600780923524E+03   -0.19695E-03   -0.28694E-03 15509   0.883E-02    0.791E-02
RMM:   5    -0.600780825079E+03    0.98445E-04   -0.82786E-04 13586   0.428E-02    0.252E-02
RMM:   6    -0.600780833999E+03   -0.89200E-05   -0.17410E-04 12739   0.201E-02    0.186E-02
RMM:   7    -0.600780832359E+03    0.16401E-05   -0.50348E-05  8762   0.106E-02
  51 F= -.60078083E+03 E0= -.60077671E+03  d E =-.172955E+00
       N       E                     dE             d eps       ncg     rms          rms(c)
DAV:   1    -0.600698046878E+03    0.82787E-01   -0.44679E+01 10936   0.989E+00    0.115E+00
RMM:   2    -0.600849855291E+03   -0.15181E+00   -0.16517E+00 13476   0.269E+00    0.376E-01
RMM:   3    -0.600885549301E+03   -0.35694E-01   -0.38140E-01 15482   0.104E+00    0.352E-01
RMM:   4    -0.600888578637E+03   -0.30293E-02   -0.43342E-02 15607   0.348E-01    0.292E-01
RMM:   5    -0.600887201464E+03    0.13772E-02   -0.10697E-02 13858   0.161E-01    0.767E-02
RMM:   6    -0.600887381275E+03   -0.17981E-03   -0.26028E-03 15162   0.796E-02    0.659E-02
RMM:   7    -0.600887365202E+03    0.16073E-04   -0.69750E-04 13798   0.346E-02    0.195E-02
RMM:   8    -0.600887383671E+03   -0.18470E-04   -0.20862E-04 12171   0.219E-02    0.853E-03
RMM:   9    -0.600887388463E+03   -0.47916E-05   -0.62972E-05  9407   0.108E-02
  52 F= -.60088739E+03 E0= -.60088232E+03  d E =-.106556E+00
       N       E                     dE             d eps       ncg     rms          rms(c)
DAV:   1    -0.600621813072E+03    0.26557E+00   -0.78221E+01 11150   0.131E+01    0.151E+00
RMM:   2    -0.600891880767E+03   -0.27007E+00   -0.29349E+00 13516   0.359E+00    0.482E-01
RMM:   3    -0.600955213508E+03   -0.63333E-01   -0.67212E-01 15464   0.139E+00    0.463E-01
RMM:   4    -0.600960628916E+03   -0.54154E-02   -0.77812E-02 15622   0.465E-01    0.379E-01
RMM:   5    -0.600958318833E+03    0.23101E-02   -0.18445E-02 14144   0.213E-01    0.959E-02
RMM:   6    -0.600958647712E+03   -0.32888E-03   -0.45111E-03 14939   0.105E-01    0.849E-02
RMM:   7    -0.600958631432E+03    0.16280E-04   -0.12550E-03 14483   0.469E-02    0.247E-02
RMM:   8    -0.600958665210E+03   -0.33778E-04   -0.35815E-04 12732   0.265E-02    0.121E-02
RMM:   9    -0.600958672865E+03   -0.76549E-05   -0.10632E-04 10109   0.137E-02    0.532E-03
RMM:  10    -0.600958676436E+03   -0.35711E-05   -0.39861E-05  8557   0.746E-03
  53 F= -.60095868E+03 E0= -.60095316E+03  d E =-.177844E+00
       N       E                     dE             d eps       ncg     rms          rms(c)
DAV:   1    -0.600920456363E+03    0.38217E-01   -0.10582E+01 11480   0.480E+00    0.548E-01
RMM:   2    -0.600955754285E+03   -0.35298E-01   -0.38267E-01 13470   0.129E+00    0.174E-01
RMM:   3    -0.600963753963E+03   -0.79997E-02   -0.85241E-02 15463   0.493E-01    0.168E-01
RMM:   4    -0.600964427735E+03   -0.67377E-03   -0.97916E-03 15587   0.165E-01    0.137E-01
RMM:   5    -0.600964137955E+03    0.28978E-03   -0.24973E-03 13931   0.767E-02    0.386E-02
RMM:   6    -0.600964174162E+03   -0.36208E-04   -0.58033E-04 14862   0.370E-02    0.306E-02
RMM:   7    -0.600964172705E+03    0.14569E-05   -0.16195E-04 11470   0.168E-02    0.927E-03
RMM:   8    -0.600964176612E+03   -0.39067E-05   -0.50937E-05  9221   0.123E-02
  54 F= -.60096418E+03 E0= -.60095863E+03  d E =-.183344E+00
       N       E                     dE             d eps       ncg     rms          rms(c)
DAV:   1    -0.600886647121E+03    0.77526E-01   -0.44075E+01 11263   0.971E+00    0.110E+00
RMM:   2    -0.601026473425E+03   -0.13983E+00   -0.15470E+00 13451   0.258E+00    0.355E-01
RMM:   3    -0.601059480433E+03   -0.33007E-01   -0.34969E-01 15341   0.997E-01    0.331E-01
RMM:   4    -0.601062344921E+03   -0.28645E-02   -0.41929E-02 15500   0.338E-01    0.262E-01
RMM:   5    -0.601061306086E+03    0.10388E-02   -0.93417E-03 13985   0.154E-01    0.661E-02
RMM:   6    -0.601061481367E+03   -0.17528E-03   -0.24039E-03 15100   0.761E-02    0.581E-02
RMM:   7    -0.601061477312E+03    0.40549E-05   -0.63495E-04 13833   0.331E-02    0.169E-02
RMM:   8    -0.601061494913E+03   -0.17601E-04   -0.18178E-04 11669   0.201E-02    0.937E-03
RMM:   9    -0.601061498390E+03   -0.34766E-05   -0.55450E-05  9316   0.102E-02
  55 F= -.60106150E+03 E0= -.60105587E+03  d E =-.973218E-01
       N       E                     dE             d eps       ncg     rms          rms(c)
DAV:   1    -0.600680222495E+03    0.38127E+00   -0.11362E+02 11197   0.156E+01    0.170E+00
RMM:   2    -0.601059089378E+03   -0.37887E+00   -0.40941E+00 13468   0.421E+00    0.546E-01
RMM:   3    -0.601147745656E+03   -0.88656E-01   -0.93255E-01 15358   0.163E+00    0.527E-01
RMM:   4    -0.601154815707E+03   -0.70701E-02   -0.11237E-01 15483   0.553E-01    0.374E-01
RMM:   5    -0.601153168128E+03    0.16476E-02   -0.23517E-02 14872   0.241E-01    0.930E-02
RMM:   6    -0.601153596327E+03   -0.42820E-03   -0.53345E-03 14530   0.116E-01    0.798E-02
RMM:   7    -0.601153662161E+03   -0.65834E-04   -0.17692E-03 14996   0.551E-02    0.231E-02
RMM:   8    -0.601153704703E+03   -0.42542E-04   -0.41036E-04 12448   0.259E-02    0.182E-02
RMM:   9    -0.601153711691E+03   -0.69875E-05   -0.14021E-04 10250   0.147E-02    0.398E-03
RMM:  10    -0.601153716639E+03   -0.49485E-05   -0.51969E-05  8836   0.865E-03
  56 F= -.60115372E+03 E0= -.60114795E+03  d E =-.189540E+00
       N       E                     dE             d eps       ncg     rms          rms(c)
DAV:   1    -0.601048208051E+03    0.10550E+00   -0.28292E+01 11488   0.774E+00    0.829E-01
RMM:   2    -0.601139534809E+03   -0.91327E-01   -0.97183E-01 13415   0.206E+00    0.268E-01
RMM:   3    -0.601161417960E+03   -0.21883E-01   -0.23109E-01 15374   0.801E-01    0.263E-01
RMM:   4    -0.601163083916E+03   -0.16660E-02   -0.26330E-02 15482   0.268E-01    0.179E-01
RMM:   5    -0.601162739377E+03    0.34454E-03   -0.57271E-03 14789   0.118E-01    0.525E-02
RMM:   6    -0.601162842924E+03   -0.10355E-03   -0.13282E-03 15154   0.553E-02    0.414E-02
RMM:   7    -0.601162853945E+03   -0.11021E-04   -0.39799E-04 13183   0.253E-02    0.109E-02
RMM:   8    -0.601162864221E+03   -0.10276E-04   -0.10265E-04 10012   0.145E-02    0.936E-03
RMM:   9    -0.601162866015E+03   -0.17936E-05   -0.36348E-05  8700   0.818E-03
  57 F= -.60116287E+03 E0= -.60115752E+03  d E =-.198689E+00
       N       E                     dE             d eps       ncg     rms          rms(c)
DAV:   1    -0.600934274794E+03    0.22859E+00   -0.83719E+01 11199   0.132E+01    0.137E+00
RMM:   2    -0.601207187502E+03   -0.27291E+00   -0.28705E+00 13441   0.351E+00    0.463E-01
RMM:   3    -0.601272386699E+03   -0.65199E-01   -0.68096E-01 15436   0.136E+00    0.456E-01
RMM:   4    -0.601276887211E+03   -0.45005E-02   -0.77907E-02 15479   0.453E-01    0.280E-01
RMM:   5    -0.601276346071E+03    0.54114E-03   -0.16856E-02 15103   0.200E-01    0.885E-02
RMM:   6    -0.601276636157E+03   -0.29009E-03   -0.37293E-03 15480   0.913E-02    0.637E-02
RMM:   7    -0.601276696544E+03   -0.60386E-04   -0.12139E-03 14627   0.426E-02    0.207E-02
RMM:   8    -0.601276721124E+03   -0.24580E-04   -0.28182E-04 11012   0.203E-02    0.141E-02
RMM:   9    -0.601276727316E+03   -0.61915E-05   -0.10457E-04  9594   0.125E-02    0.341E-03
RMM:  10    -0.601276730603E+03   -0.32870E-05   -0.36308E-05  8424   0.739E-03
  58 F= -.60127673E+03 E0= -.60127157E+03  d E =-.113865E+00
       N       E                     dE             d eps       ncg     rms          rms(c)
DAV:   1    -0.601212501263E+03    0.64226E-01   -0.20599E+01 11488   0.650E+00    0.675E-01
RMM:   2    -0.601277801266E+03   -0.65300E-01   -0.68565E-01 13448   0.172E+00    0.230E-01
RMM:   3    -0.601293178208E+03   -0.15377E-01   -0.16144E-01 15421   0.665E-01    0.223E-01
RMM:   4    -0.601294289727E+03   -0.11115E-02   -0.18731E-02 15555   0.222E-01    0.139E-01
RMM:   5    -0.601294170651E+03    0.11908E-03   -0.40761E-03 15041   0.964E-02    0.482E-02
RMM:   6    -0.601294234272E+03   -0.63621E-04   -0.89031E-04 15230   0.440E-02    0.325E-02
RMM:   7    -0.601294246573E+03   -0.12301E-04   -0.28522E-04 12312   0.211E-02    0.990E-03
RMM:   8    -0.601294253333E+03   -0.67601E-05   -0.74120E-05  9454   0.125E-02
  59 F= -.60129425E+03 E0= -.60128896E+03  d E =-.131387E+00
       N       E                     dE             d eps       ncg     rms          rms(c)
DAV:   1    -0.601271304259E+03    0.22942E-01   -0.25850E+01 10768   0.741E+00    0.791E-01
RMM:   2    -0.601361603657E+03   -0.90299E-01   -0.94788E-01 13508   0.201E+00    0.250E-01
RMM:   3    -0.601380996739E+03   -0.19393E-01   -0.20792E-01 15566   0.760E-01    0.278E-01
RMM:   4    -0.601382010892E+03   -0.10142E-02   -0.21488E-02 15615   0.249E-01    0.182E-01
RMM:   5    -0.601381600115E+03    0.41078E-03   -0.58624E-03 14931   0.116E-01    0.645E-02
RMM:   6    -0.601381667727E+03   -0.67612E-04   -0.11303E-03 15245   0.520E-02    0.448E-02
RMM:   7    -0.601381670363E+03   -0.26358E-05   -0.37194E-04 13052   0.243E-02    0.109E-02
RMM:   8    -0.601381679070E+03   -0.87072E-05   -0.89221E-05  9733   0.138E-02
  60 F= -.60138168E+03 E0= -.60137649E+03  d E =-.874257E-01
       N       E                     dE             d eps       ncg     rms          rms(c)
DAV:   1    -0.601336859115E+03    0.44811E-01   -0.16981E+01 11000   0.601E+00    0.639E-01
RMM:   2    -0.601395995499E+03   -0.59136E-01   -0.62030E-01 13507   0.162E+00    0.203E-01
RMM:   3    -0.601408627125E+03   -0.12632E-01   -0.13558E-01 15570   0.613E-01    0.225E-01
RMM:   4    -0.601409294015E+03   -0.66689E-03   -0.14028E-02 15600   0.201E-01    0.148E-01
RMM:   5    -0.601409029953E+03    0.26406E-03   -0.38801E-03 14918   0.941E-02    0.540E-02
RMM:   6    -0.601409070969E+03   -0.41015E-04   -0.74555E-04 15114   0.420E-02    0.365E-02
RMM:   7    -0.601409072966E+03   -0.19973E-05   -0.24590E-04 12273   0.198E-02    0.900E-03
RMM:   8    -0.601409078930E+03   -0.59643E-05   -0.62737E-05  9420   0.123E-02
  61 F= -.60140908E+03 E0= -.60140401E+03  d E =-.114826E+00
       N       E                     dE             d eps       ncg     rms          rms(c)
DAV:   1    -0.601319646579E+03    0.89426E-01   -0.34104E+01 10791   0.864E+00    0.902E-01
RMM:   2    -0.601442811855E+03   -0.12317E+00   -0.12834E+00 13507   0.238E+00    0.285E-01
RMM:   3    -0.601470472394E+03   -0.27661E-01   -0.29258E-01 15503   0.908E-01    0.302E-01
RMM:   4    -0.601472365106E+03   -0.18927E-02   -0.31502E-02 15529   0.300E-01    0.206E-01
RMM:   5    -0.601471844042E+03    0.52106E-03   -0.76764E-03 14373   0.136E-01    0.696E-02
RMM:   6    -0.601471966703E+03   -0.12266E-03   -0.17327E-03 15327   0.636E-02    0.505E-02
RMM:   7    -0.601471975152E+03   -0.84494E-05   -0.48676E-04 13672   0.278E-02    0.134E-02
RMM:   8    -0.601471989811E+03   -0.14659E-04   -0.13383E-04 10363   0.161E-02    0.149E-02
RMM:   9    -0.601471989708E+03    0.10271E-06   -0.46443E-05  9088   0.951E-03
  62 F= -.60147199E+03 E0= -.60146689E+03  d E =-.629108E-01
       N       E                     dE             d eps       ncg     rms          rms(c)
DAV:   1    -0.601457576254E+03    0.14414E-01   -0.46971E+00 11552   0.320E+00    0.334E-01
RMM:   2    -0.601474218175E+03   -0.16642E-01   -0.17346E-01 13527   0.864E-01    0.105E-01
RMM:   3    -0.601477675612E+03   -0.34574E-02   -0.36655E-02 15490   0.323E-01    0.110E-01
RMM:   4    -0.601477897292E+03   -0.22168E-03   -0.39802E-03 15411   0.107E-01    0.742E-02
RMM:   5    -0.601477836139E+03    0.61153E-04   -0.10641E-03 14657   0.491E-02    0.279E-02
RMM:   6    -0.601477846747E+03   -0.10608E-04   -0.21285E-04 13167   0.220E-02    0.173E-02
RMM:   7    -0.601477848618E+03   -0.18708E-05   -0.62953E-05  9073   0.110E-02
  63 F= -.60147785E+03 E0= -.60147277E+03  d E =-.687697E-01
       N       E                     dE             d eps       ncg     rms          rms(c)
DAV:   1    -0.601369259038E+03    0.10859E+00   -0.35678E+01 10845   0.876E+00    0.944E-01
RMM:   2    -0.601491244636E+03   -0.12199E+00   -0.12780E+00 13419   0.235E+00    0.294E-01
RMM:   3    -0.601518757741E+03   -0.27513E-01   -0.28858E-01 15374   0.905E-01    0.308E-01
RMM:   4    -0.601520900617E+03   -0.21429E-02   -0.31649E-02 15528   0.298E-01    0.234E-01
RMM:   5    -0.601520134329E+03    0.76629E-03   -0.77676E-03 13999   0.135E-01    0.739E-02
RMM:   6    -0.601520264307E+03   -0.12998E-03   -0.17843E-03 15341   0.641E-02    0.583E-02
RMM:   7    -0.601520255806E+03    0.85011E-05   -0.47509E-04 13371   0.277E-02    0.162E-02
RMM:   8    -0.601520270712E+03   -0.14906E-04   -0.15336E-04 11113   0.181E-02    0.144E-02
RMM:   9    -0.601520271159E+03   -0.44773E-06   -0.45960E-05  9189   0.936E-03
  64 F= -.60152027E+03 E0= -.60151524E+03  d E =-.424225E-01
       N       E                     dE             d eps       ncg     rms          rms(c)
DAV:   1    -0.601510084151E+03    0.10187E-01   -0.32785E+00 11560   0.265E+00    0.285E-01
RMM:   2    -0.601520953952E+03   -0.10870E-01   -0.11393E-01 13397   0.695E-01    0.885E-02
RMM:   3    -0.601523319764E+03   -0.23658E-02   -0.24897E-02 15358   0.266E-01    0.917E-02
RMM:   4    -0.601523507707E+03   -0.18794E-03   -0.27595E-03 15415   0.881E-02    0.712E-02
RMM:   5    -0.601523439987E+03    0.67721E-04   -0.74771E-04 13838   0.409E-02    0.250E-02
RMM:   6    -0.601523447440E+03   -0.74531E-05   -0.14795E-04 12188   0.188E-02    0.174E-02
RMM:   7    -0.601523446996E+03    0.44384E-06   -0.43699E-05  8800   0.101E-02
  65 F= -.60152345E+03 E0= -.60151843E+03  d E =-.455984E-01
       N       E                     dE             d eps       ncg     rms          rms(c)
DAV:   1    -0.601480230728E+03    0.43217E-01   -0.15872E+01 10960   0.592E+00    0.626E-01
RMM:   2    -0.601534927455E+03   -0.54697E-01   -0.57329E-01 13525   0.160E+00    0.200E-01
RMM:   3    -0.601547499259E+03   -0.12572E-01   -0.13189E-01 15515   0.610E-01    0.208E-01
RMM:   4    -0.601548547018E+03   -0.10478E-02   -0.14649E-02 15700   0.202E-01    0.172E-01
RMM:   5    -0.601548087038E+03    0.45998E-03   -0.38425E-03 13988   0.933E-02    0.541E-02
RMM:   6    -0.601548153042E+03   -0.66005E-04   -0.88497E-04 15025   0.450E-02    0.468E-02
RMM:   7    -0.601548138744E+03    0.14298E-04   -0.23972E-04 12673   0.203E-02    0.141E-02
RMM:   8    -0.601548145164E+03   -0.64203E-05   -0.84348E-05  9902   0.143E-02
  66 F= -.60154815E+03 E0= -.60154333E+03  d E =-.246982E-01
       N       E                     dE             d eps       ncg     rms          rms(c)
DAV:   1    -0.601542256522E+03    0.58822E-02   -0.21488E+00 11416   0.217E+00    0.228E-01
RMM:   2    -0.601549593658E+03   -0.73371E-02   -0.77001E-02 13531   0.581E-01    0.740E-02
RMM:   3    -0.601551235022E+03   -0.16414E-02   -0.17297E-02 15507   0.221E-01    0.768E-02
RMM:   4    -0.601551372137E+03   -0.13711E-03   -0.19393E-03 15466   0.734E-02    0.645E-02
RMM:   5    -0.601551310366E+03    0.61771E-04   -0.57267E-04 13385   0.357E-02    0.223E-02
RMM:   6    -0.601551315680E+03   -0.53143E-05   -0.11561E-04 11492   0.168E-02    0.169E-02
RMM:   7    -0.601551314197E+03    0.14827E-05   -0.34150E-05  8660   0.952E-03
  67 F= -.60155131E+03 E0= -.60154657E+03  d E =-.278672E-01
       N       E                     dE             d eps       ncg     rms          rms(c)
DAV:   1    -0.601521538365E+03    0.29777E-01   -0.11260E+01 10855   0.492E+00    0.563E-01
RMM:   2    -0.601559425259E+03   -0.37887E-01   -0.40353E-01 13471   0.131E+00    0.183E-01
RMM:   3    -0.601568073423E+03   -0.86482E-02   -0.92578E-02 15563   0.504E-01    0.181E-01
RMM:   4    -0.601568759876E+03   -0.68645E-03   -0.10301E-02 15689   0.166E-01    0.155E-01
RMM:   5    -0.601568366177E+03    0.39370E-03   -0.29373E-03 13891   0.809E-02    0.498E-02
RMM:   6    -0.601568396949E+03   -0.30772E-04   -0.65196E-04 14748   0.386E-02    0.380E-02
RMM:   7    -0.601568388955E+03    0.79940E-05   -0.17911E-04 11859   0.177E-02    0.129E-02
RMM:   8    -0.601568392105E+03   -0.31498E-05   -0.59354E-05  9361   0.129E-02
  68 F= -.60156839E+03 E0= -.60156382E+03  d E =-.170779E-01
       N       E                     dE             d eps       ncg     rms          rms(c)
DAV:   1    -0.601563885160E+03    0.45038E-02   -0.17259E+00 11352   0.192E+00    0.219E-01
RMM:   2    -0.601569637734E+03   -0.57526E-02   -0.61432E-02 13462   0.509E-01    0.736E-02
RMM:   3    -0.601570911338E+03   -0.12736E-02   -0.13756E-02 15549   0.194E-01    0.716E-02
RMM:   4    -0.601571012373E+03   -0.10104E-03   -0.15741E-03 15371   0.648E-02    0.611E-02
RMM:   5    -0.601570953435E+03    0.58939E-04   -0.49620E-04 13081   0.334E-02    0.214E-02
RMM:   6    -0.601570955128E+03   -0.16932E-05   -0.95439E-05 11086   0.154E-02
  69 F= -.60157096E+03 E0= -.60156642E+03  d E =-.196409E-01
       N       E                     dE             d eps       ncg     rms          rms(c)
DAV:   1    -0.601554843730E+03    0.16110E-01   -0.80561E+00 10837   0.408E+00    0.529E-01
RMM:   2    -0.601580470474E+03   -0.25627E-01   -0.28012E-01 13278   0.107E+00    0.195E-01
RMM:   3    -0.601586318729E+03   -0.58483E-02   -0.66542E-02 15562   0.418E-01    0.155E-01
RMM:   4    -0.601586790774E+03   -0.47205E-03   -0.74836E-03 15626   0.139E-01    0.130E-01
RMM:   5    -0.601586556420E+03    0.23435E-03   -0.22218E-03 13562   0.693E-02    0.436E-02
RMM:   6    -0.601586564296E+03   -0.78763E-05   -0.47991E-04 14602   0.330E-02    0.280E-02
RMM:   7    -0.601586564320E+03   -0.24527E-07   -0.14311E-04 10569   0.150E-02    0.951E-03
RMM:   8    -0.601586566809E+03   -0.24887E-05   -0.40340E-05  8748   0.109E-02
  70 F= -.60158657E+03 E0= -.60158197E+03  d E =-.156117E-01
       N       E                     dE             d eps       ncg     rms          rms(c)
DAV:   1    -0.601556477325E+03    0.30087E-01   -0.11324E+01 10966   0.484E+00    0.641E-01
RMM:   2    -0.601592580352E+03   -0.36103E-01   -0.39533E-01 13285   0.126E+00    0.268E-01
RMM:   3    -0.601600143694E+03   -0.75633E-02   -0.92875E-02 15575   0.493E-01    0.188E-01
RMM:   4    -0.601600739818E+03   -0.59612E-03   -0.10419E-02 15633   0.164E-01    0.155E-01
RMM:   5    -0.601600385059E+03    0.35476E-03   -0.31504E-03 13654   0.824E-02    0.484E-02
RMM:   6    -0.601600397019E+03   -0.11959E-04   -0.66424E-04 14968   0.388E-02    0.309E-02
RMM:   7    -0.601600399028E+03   -0.20097E-05   -0.19709E-04 11181   0.170E-02    0.107E-02
RMM:   8    -0.601600402929E+03   -0.39005E-05   -0.54580E-05  9129   0.123E-02
  71 F= -.60160040E+03 E0= -.60159557E+03  d E =-.294478E-01
       N       E                     dE             d eps       ncg     rms          rms(c)
DAV:   1    -0.601437672959E+03    0.16273E+00   -0.45257E+01 10912   0.967E+00    0.134E+00
RMM:   2    -0.601586611904E+03   -0.14894E+00   -0.16240E+00 13338   0.255E+00    0.664E-01
RMM:   3    -0.601612957809E+03   -0.26346E-01   -0.37429E-01 15588   0.998E-01    0.389E-01
RMM:   4    -0.601615118732E+03   -0.21609E-02   -0.43186E-02 15644   0.335E-01    0.309E-01
RMM:   5    -0.601613614769E+03    0.15040E-02   -0.12336E-02 13822   0.166E-01    0.828E-02
RMM:   6    -0.601613702903E+03   -0.88134E-04   -0.27270E-03 15281   0.793E-02    0.561E-02
RMM:   7    -0.601613719508E+03   -0.16605E-04   -0.77690E-04 13674   0.337E-02    0.205E-02
RMM:   8    -0.601613738695E+03   -0.19187E-04   -0.20603E-04 11318   0.206E-02    0.570E-03
RMM:   9    -0.601613746044E+03   -0.73486E-05   -0.73237E-05  8988   0.104E-02
  72 F= -.60161375E+03 E0= -.60160845E+03  d E =-.427909E-01
       N       E                     dE             d eps       ncg     rms          rms(c)
DAV:   1    -0.601615588035E+03   -0.18493E-02   -0.10637E+00 11768   0.144E+00    0.223E-01
RMM:   2    -0.601618928061E+03   -0.33400E-02   -0.36995E-02 13172   0.365E-01    0.127E-01
RMM:   3    -0.601619293968E+03   -0.36591E-03   -0.80207E-03 15565   0.143E-01    0.584E-02
RMM:   4    -0.601619338660E+03   -0.44692E-04   -0.96584E-04 14943   0.487E-02    0.461E-02
RMM:   5    -0.601619306458E+03    0.32201E-04   -0.30915E-04 12610   0.263E-02    0.133E-02
RMM:   6    -0.601619307594E+03   -0.11360E-05   -0.62974E-05  9725   0.121E-02
  73 F= -.60161931E+03 E0= -.60161399E+03  d E =-.556155E-02
       N       E                     dE             d eps       ncg     rms          rms(c)
DAV:   1    -0.601614511591E+03    0.47949E-02   -0.48787E+00 10926   0.309E+00    0.480E-01
RMM:   2    -0.601629805494E+03   -0.15294E-01   -0.16956E-01 13179   0.784E-01    0.272E-01
RMM:   3    -0.601631510102E+03   -0.17046E-02   -0.36677E-02 15599   0.308E-01    0.126E-01
RMM:   4    -0.601631707530E+03   -0.19743E-03   -0.43452E-03 15435   0.103E-01    0.983E-02
RMM:   5    -0.601631557730E+03    0.14980E-03   -0.13412E-03 13780   0.530E-02    0.276E-02
RMM:   6    -0.601631564978E+03   -0.72480E-05   -0.28080E-04 13127   0.245E-02    0.175E-02
RMM:   7    -0.601631567605E+03   -0.26273E-05   -0.91465E-05  9352   0.123E-02
  74 F= -.60163157E+03 E0= -.60162631E+03  d E =-.178216E-01
       N       E                     dE             d eps       ncg     rms          rms(c)
DAV:   1    -0.601587343973E+03    0.44221E-01   -0.19499E+01 10890   0.618E+00    0.927E-01
RMM:   2    -0.601646806698E+03   -0.59463E-01   -0.66997E-01 13153   0.157E+00    0.478E-01
RMM:   3    -0.601656223163E+03   -0.94165E-02   -0.15183E-01 15580   0.621E-01    0.251E-01
RMM:   4    -0.601657094746E+03   -0.87158E-03   -0.18194E-02 15501   0.209E-01    0.198E-01
RMM:   5    -0.601656486759E+03    0.60799E-03   -0.54822E-03 13949   0.105E-01    0.566E-02
RMM:   6    -0.601656521087E+03   -0.34328E-04   -0.11747E-03 15017   0.487E-02    0.361E-02
RMM:   7    -0.601656530203E+03   -0.91166E-05   -0.36302E-04 11990   0.217E-02    0.109E-02
RMM:   8    -0.601656538881E+03   -0.86782E-05   -0.93563E-05  9754   0.144E-02
  75 F= -.60165654E+03 E0= -.60165169E+03  d E =-.427928E-01
       N       E                     dE             d eps       ncg     rms          rms(c)
DAV:   1    -0.601414001394E+03    0.24253E+00   -0.77948E+01 10775   0.123E+01    0.177E+00
RMM:   2    -0.601653634897E+03   -0.23963E+00   -0.27080E+00 13171   0.317E+00    0.785E-01
RMM:   3    -0.601701969703E+03   -0.48335E-01   -0.63261E-01 15586   0.126E+00    0.504E-01
RMM:   4    -0.601705974994E+03   -0.40053E-02   -0.74680E-02 15577   0.423E-01    0.403E-01
RMM:   5    -0.601703420347E+03    0.25546E-02   -0.21884E-02 13824   0.210E-01    0.108E-01
RMM:   6    -0.601703584581E+03   -0.16423E-03   -0.47752E-03 15204   0.996E-02    0.755E-02
RMM:   7    -0.601703613786E+03   -0.29205E-04   -0.14962E-03 13821   0.436E-02    0.227E-02
RMM:   8    -0.601703651969E+03   -0.38184E-04   -0.38206E-04 12143   0.255E-02    0.941E-03
RMM:   9    -0.601703666243E+03   -0.14274E-04   -0.14169E-04  9299   0.128E-02    0.535E-03
RMM:  10    -0.601703669213E+03   -0.29694E-05   -0.43374E-05  8474   0.863E-03
  76 F= -.60170367E+03 E0= -.60169872E+03  d E =-.899232E-01
       N       E                     dE             d eps       ncg     rms          rms(c)
DAV:   1    -0.600422972267E+03    0.12807E+01   -0.31101E+02 10743   0.246E+01    0.308E+00
RMM:   2    -0.601479093987E+03   -0.10561E+01   -0.11562E+01 13211   0.656E+00    0.911E-01
RMM:   3    -0.601721126489E+03   -0.24203E+00   -0.25656E+00 15557   0.256E+00    0.947E-01
RMM:   4    -0.601739565247E+03   -0.18439E-01   -0.29673E-01 15602   0.843E-01    0.723E-01
RMM:   5    -0.601732545164E+03    0.70201E-02   -0.83341E-02 14468   0.411E-01    0.210E-01
RMM:   6    -0.601733397272E+03   -0.85211E-03   -0.18025E-02 14530   0.192E-01    0.146E-01
RMM:   7    -0.601733615331E+03   -0.21806E-03   -0.63438E-03 15170   0.938E-02    0.432E-02
RMM:   8    -0.601733760321E+03   -0.14499E-03   -0.15472E-03 14014   0.477E-02    0.236E-02
RMM:   9    -0.601733817492E+03   -0.57171E-04   -0.58414E-04 12119   0.250E-02    0.651E-03
RMM:  10    -0.601733837096E+03   -0.19604E-04   -0.21326E-04  9739   0.150E-02    0.985E-03
RMM:  11    -0.601733842493E+03   -0.53966E-05   -0.81615E-05  8929   0.921E-03
  77 F= -.60173384E+03 E0= -.60172868E+03  d E =-.120096E+00
       N       E                     dE             d eps       ncg     rms          rms(c)
DAV:   1    -0.601533244746E+03    0.20059E+00   -0.52960E+01 10695   0.101E+01    0.132E+00
RMM:   2    -0.601698122250E+03   -0.16488E+00   -0.18038E+00 13142   0.260E+00    0.450E-01
RMM:   3    -0.601737080232E+03   -0.38958E-01   -0.43762E-01 15586   0.102E+00    0.412E-01
RMM:   4    -0.601739830489E+03   -0.27503E-02   -0.45578E-02 15574   0.332E-01    0.339E-01
RMM:   5    -0.601738091061E+03    0.17394E-02   -0.15583E-02 13462   0.171E-01    0.131E-01
RMM:   6    -0.601738009019E+03    0.82042E-04   -0.29278E-03 15564   0.790E-02    0.616E-02
RMM:   7    -0.601738042051E+03   -0.33031E-04   -0.89964E-04 13052   0.322E-02    0.224E-02
RMM:   8    -0.601738061596E+03   -0.19546E-04   -0.24400E-04 11431   0.227E-02    0.650E-03
RMM:   9    -0.601738071980E+03   -0.10383E-04   -0.99382E-05  9009   0.105E-02    0.708E-03
RMM:  10    -0.601738073006E+03   -0.10263E-05   -0.28190E-05  8023   0.765E-03
  78 F= -.60173807E+03 E0= -.60173220E+03  d E =-.124327E+00
       N       E                     dE             d eps       ncg     rms          rms(c)
DAV:   1    -0.601706877840E+03    0.31194E-01   -0.19314E+01 10638   0.595E+00    0.790E-01
RMM:   2    -0.601763227808E+03   -0.56350E-01   -0.63061E-01 13061   0.151E+00    0.239E-01
RMM:   3    -0.601777888929E+03   -0.14661E-01   -0.15782E-01 15518   0.595E-01    0.232E-01
RMM:   4    -0.601779085540E+03   -0.11966E-02   -0.16863E-02 15507   0.194E-01    0.196E-01
RMM:   5    -0.601778619611E+03    0.46593E-03   -0.60599E-03 13445   0.104E-01    0.948E-02
RMM:   6    -0.601778527646E+03    0.91965E-04   -0.11502E-03 15083   0.477E-02    0.459E-02
RMM:   7    -0.601778527845E+03   -0.19910E-06   -0.42387E-04 11721   0.212E-02    0.120E-02
RMM:   8    -0.601778536618E+03   -0.87731E-05   -0.10172E-04  9603   0.154E-02    0.388E-03
RMM:   9    -0.601778541255E+03   -0.46373E-05   -0.42835E-05  8214   0.733E-03
  79 F= -.60177854E+03 E0= -.60177310E+03  d E =-.404682E-01
       N       E                     dE             d eps       ncg     rms          rms(c)
DAV:   1    -0.601533895733E+03    0.24464E+00   -0.73284E+01 10668   0.116E+01    0.142E+00
RMM:   2    -0.601758642908E+03   -0.22475E+00   -0.23986E+00 13032   0.296E+00    0.431E-01
RMM:   3    -0.601817137015E+03   -0.58494E-01   -0.62008E-01 15489   0.117E+00    0.457E-01
RMM:   4    -0.601821328369E+03   -0.41914E-02   -0.62729E-02 15529   0.378E-01    0.362E-01
RMM:   5    -0.601819792979E+03    0.15354E-02   -0.21513E-02 13673   0.194E-01    0.183E-01
RMM:   6    -0.601819590864E+03    0.20212E-03   -0.39675E-03 15465   0.883E-02    0.938E-02
RMM:   7    -0.601819576705E+03    0.14158E-04   -0.14202E-03 13180   0.391E-02    0.248E-02
RMM:   8    -0.601819607687E+03   -0.30982E-04   -0.34680E-04 11681   0.258E-02    0.108E-02
RMM:   9    -0.601819622995E+03   -0.15308E-04   -0.14501E-04  9449   0.123E-02    0.145E-02
RMM:  10    -0.601819622327E+03    0.66777E-06   -0.43872E-05  8440   0.854E-03
  80 F= -.60181962E+03 E0= -.60181517E+03  d E =-.815493E-01
       N       E                     dE             d eps       ncg     rms          rms(c)
DAV:   1    -0.601854402036E+03   -0.34779E-01   -0.36152E+00 11616   0.271E+00    0.280E-01
RMM:   2    -0.601867049572E+03   -0.12648E-01   -0.13205E-01 13663   0.748E-01    0.883E-02
RMM:   3    -0.601869936185E+03   -0.28866E-02   -0.30607E-02 15501   0.277E-01    0.949E-02
RMM:   4    -0.601870136318E+03   -0.20013E-03   -0.34408E-03 15432   0.935E-02    0.620E-02
RMM:   5    -0.601870091049E+03    0.45269E-04   -0.84966E-04 14290   0.428E-02    0.201E-02
RMM:   6    -0.601870103710E+03   -0.12661E-04   -0.19242E-04 12250   0.203E-02    0.145E-02
RMM:   7    -0.601870105869E+03   -0.21597E-05   -0.57277E-05  9074   0.108E-02
  81 F= -.60187011E+03 E0= -.60186575E+03  d E =-.504835E-01
       N       E                     dE             d eps       ncg     rms          rms(c)
DAV:   1    -0.601829715185E+03    0.40389E-01   -0.32557E+01 10856   0.815E+00    0.836E-01
RMM:   2    -0.601949052948E+03   -0.11934E+00   -0.12419E+00 13756   0.228E+00    0.265E-01
RMM:   3    -0.601976160398E+03   -0.27107E-01   -0.28570E-01 15512   0.845E-01    0.287E-01
RMM:   4    -0.601978018064E+03   -0.18577E-02   -0.32059E-02 15644   0.282E-01    0.183E-01
RMM:   5    -0.601977649119E+03    0.36894E-03   -0.76798E-03 14694   0.127E-01    0.644E-02
RMM:   6    -0.601977757179E+03   -0.10806E-03   -0.16446E-03 15206   0.590E-02    0.440E-02
RMM:   7    -0.601977778044E+03   -0.20865E-04   -0.52831E-04 13430   0.276E-02    0.127E-02
RMM:   8    -0.601977789890E+03   -0.11845E-04   -0.13416E-04 10118   0.159E-02    0.109E-02
RMM:   9    -0.601977792106E+03   -0.22164E-05   -0.51721E-05  8971   0.907E-03
  82 F= -.60197779E+03 E0= -.60197371E+03  d E =-.158170E+00
       N       E                     dE             d eps       ncg     rms          rms(c)
DAV:   1    -0.601363696022E+03    0.61409E+00   -0.13066E+02 11054   0.164E+01    0.167E+00
RMM:   2    -0.601862625589E+03   -0.49893E+00   -0.51966E+00 13624   0.470E+00    0.541E-01
RMM:   3    -0.601980296653E+03   -0.11767E+00   -0.12325E+00 15525   0.178E+00    0.586E-01
RMM:   4    -0.601988563311E+03   -0.82667E-02   -0.14628E-01 15633   0.604E-01    0.359E-01
RMM:   5    -0.601987178193E+03    0.13851E-02   -0.30101E-02 15083   0.261E-01    0.915E-02
RMM:   6    -0.601987772721E+03   -0.59453E-03   -0.65836E-03 14691   0.124E-01    0.876E-02
RMM:   7    -0.601987886643E+03   -0.11392E-03   -0.24402E-03 14930   0.640E-02    0.325E-02
RMM:   8    -0.601987935353E+03   -0.48710E-04   -0.54179E-04 12461   0.273E-02    0.318E-02
RMM:   9    -0.601987931793E+03    0.35597E-05   -0.21560E-04 10556   0.175E-02    0.484E-03
[...]
RMM:   2    -0.603238263453E+03   -0.16644E-02   -0.17343E-02 13208   0.272E-01    0.345E-02
RMM:   3    -0.603238657763E+03   -0.39431E-03   -0.41668E-03 15530   0.107E-01    0.358E-02
RMM:   4    -0.603238686391E+03   -0.28628E-04   -0.44313E-04 14471   0.349E-02    0.259E-02
RMM:   5    -0.603238682067E+03    0.43240E-05   -0.14232E-04 11489   0.190E-02    0.131E-02
RMM:   6    -0.603238681654E+03    0.41301E-06   -0.28193E-05  8232   0.902E-03
 154 F= -.60323868E+03 E0= -.60323419E+03  d E =-.421639E-02
       N       E                     dE             d eps       ncg     rms          rms(c)
DAV:   1    -0.603229739755E+03    0.89423E-02   -0.28917E+00 10789   0.248E+00    0.264E-01
RMM:   2    -0.603238663795E+03   -0.89240E-02   -0.93097E-02 13154   0.633E-01    0.810E-02
RMM:   3    -0.603240841888E+03   -0.21781E-02   -0.22801E-02 15474   0.250E-01    0.844E-02
RMM:   4    -0.603241007168E+03   -0.16528E-03   -0.24130E-03 15466   0.805E-02    0.620E-02
RMM:   5    -0.603240972942E+03    0.34226E-04   -0.68975E-04 13432   0.376E-02    0.301E-02
RMM:   6    -0.603240972460E+03    0.48138E-06   -0.12768E-04 11065   0.173E-02    0.162E-02
RMM:   7    -0.603240973021E+03   -0.56034E-06   -0.48303E-05  8798   0.102E-02
 155 F= -.60324097E+03 E0= -.60323647E+03  d E =-.229137E-02
       N       E                     dE             d eps       ncg     rms          rms(c)
DAV:   1    -0.603240575097E+03    0.39736E-03   -0.17940E-01 11584   0.618E-01    0.626E-02
RMM:   2    -0.603241128632E+03   -0.55354E-03   -0.57737E-03 13140   0.155E-01    0.200E-02
RMM:   3    -0.603241256347E+03   -0.12771E-03   -0.13590E-03 15321   0.607E-02    0.218E-02
RMM:   4    -0.603241264812E+03   -0.84655E-05   -0.14486E-04 12824   0.203E-02    0.162E-02
RMM:   5    -0.603241263914E+03    0.89845E-06   -0.60122E-05  9956   0.133E-02
 156 F= -.60324126E+03 E0= -.60323675E+03  d E =-.258226E-02
       N       E                     dE             d eps       ncg     rms          rms(c)
DAV:   1    -0.603238707015E+03    0.25578E-02   -0.71477E-01 10816   0.123E+00    0.135E-01
RMM:   2    -0.603240920948E+03   -0.22139E-02   -0.23101E-02 13134   0.317E-01    0.406E-02
RMM:   3    -0.603241477628E+03   -0.55668E-03   -0.58015E-03 15477   0.126E-01    0.413E-02
RMM:   4    -0.603241521154E+03   -0.43527E-04   -0.61240E-04 14986   0.410E-02    0.311E-02
RMM:   5    -0.603241514195E+03    0.69591E-05   -0.18852E-04 11804   0.207E-02    0.157E-02
RMM:   6    -0.603241513461E+03    0.73398E-06   -0.34973E-05  8765   0.100E-02
 157 F= -.60324151E+03 E0= -.60323700E+03  d E =-.283181E-02
       N       E                     dE             d eps       ncg     rms          rms(c)
DAV:   1    -0.603240712397E+03    0.80180E-03   -0.53756E-01 10968   0.109E+00    0.112E-01
RMM:   2    -0.603242599548E+03   -0.18872E-02   -0.19661E-02 13576   0.292E-01    0.359E-02
RMM:   3    -0.603242993366E+03   -0.39382E-03   -0.41864E-03 15549   0.110E-01    0.387E-02
RMM:   4    -0.603243014409E+03   -0.21043E-04   -0.45908E-04 14990   0.367E-02    0.240E-02
RMM:   5    -0.603243010031E+03    0.43776E-05   -0.13207E-04 11595   0.184E-02    0.926E-03
RMM:   6    -0.603243011164E+03   -0.11324E-05   -0.27520E-05  8414   0.931E-03
 158 F= -.60324301E+03 E0= -.60323850E+03  d E =-.149770E-02
       N       E                     dE             d eps       ncg     rms          rms(c)
DAV:   1    -0.603242839395E+03    0.17064E-03   -0.11552E-01 11376   0.507E-01    0.512E-02
RMM:   2    -0.603243249476E+03   -0.41008E-03   -0.42712E-03 13557   0.135E-01    0.167E-02
RMM:   3    -0.603243333291E+03   -0.83815E-04   -0.90294E-04 15402   0.508E-02    0.183E-02
RMM:   4    -0.603243337672E+03   -0.43809E-05   -0.10321E-04 12627   0.177E-02    0.114E-02
RMM:   5    -0.603243336961E+03    0.71081E-06   -0.34297E-05  8907   0.108E-02
 159 F= -.60324334E+03 E0= -.60323883E+03  d E =-.182350E-02
       N       E                     dE             d eps       ncg     rms          rms(c)
DAV:   1    -0.603241303156E+03    0.20345E-02   -0.45894E-01 10840   0.101E+00    0.105E-01
RMM:   2    -0.603242913171E+03   -0.16100E-02   -0.16775E-02 13535   0.272E-01    0.330E-02
RMM:   3    -0.603243264609E+03   -0.35144E-03   -0.37297E-03 15522   0.103E-01    0.352E-02
RMM:   4    -0.603243285525E+03   -0.20917E-04   -0.40413E-04 14942   0.345E-02    0.226E-02
RMM:   5    -0.603243281646E+03    0.38799E-05   -0.11543E-04 11275   0.175E-02    0.864E-03
RMM:   6    -0.603243282788E+03   -0.11420E-05   -0.25257E-05  8036   0.902E-03
 160 F= -.60324328E+03 E0= -.60323879E+03  d E =-.176933E-02
       N       E                     dE             d eps       ncg     rms          rms(c)
DAV:   1    -0.603242671868E+03    0.60978E-03   -0.17819E-01 10688   0.629E-01    0.650E-02
RMM:   2    -0.603243291276E+03   -0.61941E-03   -0.64546E-03 13538   0.170E-01    0.206E-02
RMM:   3    -0.603243423960E+03   -0.13268E-03   -0.14191E-03 15461   0.640E-02    0.218E-02
RMM:   4    -0.603243430753E+03   -0.67933E-05   -0.14914E-04 12786   0.216E-02    0.139E-02
RMM:   5    -0.603243429345E+03    0.14077E-05   -0.49484E-05  9856   0.136E-02
 161 F= -.60324343E+03 E0= -.60323893E+03  d E =-.191588E-02
       N       E                     dE             d eps       ncg     rms          rms(c)
DAV:   1    -0.603242432258E+03    0.99850E-03   -0.49986E-01 10840   0.106E+00    0.104E-01
RMM:   2    -0.603244076137E+03   -0.16439E-02   -0.17131E-02 13421   0.280E-01    0.336E-02
RMM:   3    -0.603244464070E+03   -0.38793E-03   -0.40835E-03 15444   0.108E-01    0.361E-02
RMM:   4    -0.603244490572E+03   -0.26502E-04   -0.43077E-04 14906   0.359E-02    0.244E-02
RMM:   5    -0.603244485421E+03    0.51513E-05   -0.12359E-04 11385   0.181E-02    0.114E-02
RMM:   6    -0.603244485678E+03   -0.25738E-06   -0.24441E-05  7929   0.890E-03
 162 F= -.60324449E+03 E0= -.60323997E+03  d E =-.105633E-02
       N       E                     dE             d eps       ncg     rms          rms(c)
DAV:   1    -0.603243804643E+03    0.68078E-03   -0.24224E-01 11160   0.736E-01    0.726E-02
RMM:   2    -0.603244613019E+03   -0.80838E-03   -0.84180E-03 13453   0.193E-01    0.235E-02
RMM:   3    -0.603244796797E+03   -0.18378E-03   -0.19387E-03 15402   0.745E-02    0.253E-02
RMM:   4    -0.603244808096E+03   -0.11299E-04   -0.20277E-04 13158   0.250E-02    0.168E-02
RMM:   5    -0.603244806966E+03    0.11303E-05   -0.71052E-05 10660   0.153E-02
 163 F= -.60324481E+03 E0= -.60324028E+03  d E =-.137762E-02
       N       E                     dE             d eps       ncg     rms          rms(c)
DAV:   1    -0.603243127051E+03    0.16810E-02   -0.59777E-01 10752   0.114E+00    0.122E-01
RMM:   2    -0.603245126854E+03   -0.19998E-02   -0.20973E-02 13360   0.300E-01    0.382E-02
RMM:   3    -0.603245577535E+03   -0.45068E-03   -0.48338E-03 15556   0.116E-01    0.407E-02
RMM:   4    -0.603245601860E+03   -0.24325E-04   -0.49437E-04 14941   0.380E-02    0.256E-02
RMM:   5    -0.603245597075E+03    0.47855E-05   -0.14793E-04 11680   0.193E-02    0.123E-02
RMM:   6    -0.603245597460E+03   -0.38558E-06   -0.29191E-05  8707   0.942E-03
 164 F= -.60324560E+03 E0= -.60324102E+03  d E =-.790494E-03
       N       E                     dE             d eps       ncg     rms          rms(c)
DAV:   1    -0.603245592555E+03    0.45193E-05   -0.66322E-03 11792   0.121E-01    0.122E-02
RMM:   2    -0.603245618544E+03   -0.25989E-04   -0.27076E-04 13340   0.328E-02    0.444E-03
RMM:   3    -0.603245622342E+03   -0.37977E-05   -0.52264E-05  9136   0.126E-02
 165 F= -.60324562E+03 E0= -.60324104E+03  d E =-.815376E-03
       N       E                     dE             d eps       ncg     rms          rms(c)
DAV:   1    -0.603244973327E+03    0.64522E-03   -0.25246E-01 10800   0.744E-01    0.767E-02
RMM:   2    -0.603245820892E+03   -0.84757E-03   -0.88669E-03 13474   0.197E-01    0.244E-02
RMM:   3    -0.603246003434E+03   -0.18254E-03   -0.19514E-03 15395   0.745E-02    0.261E-02
RMM:   4    -0.603246012581E+03   -0.91467E-05   -0.20514E-04 13045   0.252E-02    0.163E-02
RMM:   5    -0.603246011497E+03    0.10838E-05   -0.68835E-05 10533   0.153E-02
 166 F= -.60324601E+03 E0= -.60324140E+03  d E =-.389155E-03
       N       E                     dE             d eps       ncg     rms          rms(c)
DAV:   1    -0.603246001539E+03    0.11042E-04   -0.96570E-03 11640   0.145E-01    0.179E-02
RMM:   2    -0.603246037113E+03   -0.35574E-04   -0.37186E-04 13289   0.398E-02    0.503E-03
RMM:   3    -0.603246044738E+03   -0.76254E-05   -0.89810E-05 12048   0.159E-02
 167 F= -.60324604E+03 E0= -.60324143E+03  d E =-.422396E-03
       N       E                     dE             d eps       ncg     rms          rms(c)
DAV:   1    -0.603245506595E+03    0.53052E-03   -0.20946E-01 10856   0.675E-01    0.701E-02
RMM:   2    -0.603246197053E+03   -0.69046E-03   -0.72224E-03 13438   0.176E-01    0.228E-02
RMM:   3    -0.603246346461E+03   -0.14941E-03   -0.15986E-03 15341   0.673E-02    0.236E-02
RMM:   4    -0.603246353971E+03   -0.75102E-05   -0.16897E-04 12889   0.229E-02    0.141E-02
RMM:   5    -0.603246354045E+03   -0.74026E-07   -0.56541E-05  9966   0.140E-02
 168 F= -.60324635E+03 E0= -.60324174E+03  d E =-.309307E-03
       N       E                     dE             d eps       ncg     rms          rms(c)
DAV:   1    -0.603246343984E+03    0.99869E-05   -0.12709E-02 11512   0.166E-01    0.196E-02
RMM:   2    -0.603246388735E+03   -0.44751E-04   -0.46742E-04 13321   0.444E-02    0.569E-03
RMM:   3    -0.603246398266E+03   -0.95310E-05   -0.11006E-04 12551   0.176E-02    0.535E-03
RMM:   4    -0.603246398984E+03   -0.71855E-06   -0.16849E-05  6140   0.896E-03
 169 F= -.60324640E+03 E0= -.60324179E+03  d E =-.354246E-03
       N       E                     dE             d eps       ncg     rms          rms(c)
DAV:   1    -0.603246240356E+03    0.15791E-03   -0.49915E-02 10984   0.329E-01    0.354E-02
RMM:   2    -0.603246403631E+03   -0.16328E-03   -0.17062E-03 13325   0.874E-02    0.109E-02
RMM:   3    -0.603246442122E+03   -0.38490E-04   -0.41204E-04 14468   0.341E-02    0.108E-02
RMM:   4    -0.603246444530E+03   -0.24087E-05   -0.45901E-05  9557   0.133E-02
 170 F= -.60324644E+03 E0= -.60324184E+03  d E =-.399792E-03
       N       E                     dE             d eps       ncg     rms          rms(c)
DAV:   1    -0.603246245878E+03    0.19624E-03   -0.90593E-02 10928   0.438E-01    0.488E-02
RMM:   2    -0.603246527573E+03   -0.28170E-03   -0.29415E-03 13132   0.114E-01    0.148E-02
RMM:   3    -0.603246596209E+03   -0.68635E-04   -0.72232E-04 14989   0.449E-02    0.137E-02
RMM:   4    -0.603246600623E+03   -0.44139E-05   -0.82106E-05 11700   0.163E-02
 171 F= -.60324660E+03 E0= -.60324198E+03  d E =-.156092E-03
       N       E                     dE             d eps       ncg     rms          rms(c)
DAV:   1    -0.603246030404E+03    0.56580E-03   -0.18481E-01 10984   0.625E-01    0.693E-02
RMM:   2    -0.603246602354E+03   -0.57195E-03   -0.59728E-03 13217   0.160E-01    0.210E-02
RMM:   3    -0.603246739423E+03   -0.13707E-03   -0.14253E-03 15164   0.627E-02    0.197E-02
RMM:   4    -0.603246748814E+03   -0.93912E-05   -0.16186E-04 12794   0.220E-02    0.120E-02
RMM:   5    -0.603246749766E+03   -0.95224E-06   -0.47655E-05  9304   0.128E-02
 172 F= -.60324675E+03 E0= -.60324212E+03  d E =-.305236E-03
       N       E                     dE             d eps       ncg     rms          rms(c)
DAV:   1    -0.603243910383E+03    0.28384E-02   -0.74357E-01 10822   0.125E+00    0.136E-01
RMM:   2    -0.603246192082E+03   -0.22817E-02   -0.23810E-02 13119   0.319E-01    0.420E-02
RMM:   3    -0.603246747798E+03   -0.55572E-03   -0.57679E-03 15339   0.126E-01    0.415E-02
RMM:   4    -0.603246787822E+03   -0.40024E-04   -0.62180E-04 14772   0.416E-02    0.279E-02
RMM:   5    -0.603246785296E+03    0.25262E-05   -0.17027E-04 11803   0.203E-02    0.139E-02
RMM:   6    -0.603246785082E+03    0.21379E-06   -0.33606E-05  8786   0.978E-03
 173 F= -.60324679E+03 E0= -.60324213E+03  d E =-.340552E-03
       N       E                     dE             d eps       ncg     rms          rms(c)
DAV:   1    -0.603245282401E+03    0.15029E-02   -0.39395E-01 10765   0.913E-01    0.986E-02
RMM:   2    -0.603246473813E+03   -0.11914E-02   -0.12448E-02 13071   0.233E-01    0.307E-02
RMM:   3    -0.603246770097E+03   -0.29628E-03   -0.30933E-03 15324   0.927E-02    0.301E-02
RMM:   4    -0.603246789705E+03   -0.19608E-04   -0.31324E-04 13505   0.305E-02    0.209E-02
RMM:   5    -0.603246788270E+03    0.14351E-05   -0.99762E-05 11470   0.179E-02
 174 F= -.60324679E+03 E0= -.60324215E+03  d E =-.343739E-03
       N       E                     dE             d eps       ncg     rms          rms(c)
DAV:   1    -0.603246450737E+03    0.33897E-03   -0.98216E-02 10832   0.456E-01    0.453E-02
RMM:   2    -0.603246746548E+03   -0.29581E-03   -0.30842E-03 13115   0.114E-01    0.151E-02
RMM:   3    -0.603246811861E+03   -0.65312E-04   -0.70799E-04 14990   0.444E-02    0.159E-02
RMM:   4    -0.603246814310E+03   -0.24495E-05   -0.73360E-05 11423   0.155E-02
 175 F= -.60324681E+03 E0= -.60324217E+03  d E =-.369780E-03
       N       E                     dE             d eps       ncg     rms          rms(c)
DAV:   1    -0.603246741900E+03    0.69961E-04   -0.16698E-02 11054   0.189E-01    0.177E-02
RMM:   2    -0.603246799834E+03   -0.57934E-04   -0.60495E-04 13312   0.497E-02    0.669E-03
RMM:   3    -0.603246810620E+03   -0.10786E-04   -0.12756E-04 12048   0.192E-02    0.800E-03
RMM:   4    -0.603246810615E+03    0.48603E-08   -0.18876E-05  6296   0.989E-03
 176 F= -.60324681E+03 E0= -.60324217E+03  d E =-.366084E-03
       N       E                     dE             d eps       ncg     rms          rms(c)
DAV:   1    -0.603246796917E+03    0.13703E-04   -0.38125E-03 10888   0.901E-02    0.845E-03
RMM:   2    -0.603246810318E+03   -0.13402E-04   -0.13992E-04 10961   0.236E-02    0.334E-03
RMM:   3    -0.603246811936E+03   -0.16171E-05   -0.29799E-05  6859   0.104E-02
 177 F= -.60324681E+03 E0= -.60324217E+03  d E =-.367405E-03
       N       E                     dE             d eps       ncg     rms          rms(c)
DAV:   1    -0.603246809225E+03    0.10930E-05   -0.80763E-04 10390   0.416E-02    0.547E-03
RMM:   2    -0.603246812323E+03   -0.30977E-05   -0.32778E-05  8040   0.113E-02
 178 F= -.60324681E+03 E0= -.60324217E+03  d E =-.367793E-03
       N       E                     dE             d eps       ncg     rms          rms(c)
DAV:   1    -0.603246810205E+03   -0.97966E-06   -0.32587E-04 10800   0.273E-02    0.332E-03
RMM:   2    -0.603246811542E+03   -0.13367E-05   -0.14633E-05  5749   0.864E-03
 179 F= -.60324681E+03 E0= -.60324217E+03  d E =-.367011E-03
       N       E                     dE             d eps       ncg     rms          rms(c)
DAV:   1    -0.603246810567E+03   -0.36161E-06   -0.74360E-05  9152   0.155E-02    0.164E-03
RMM:   2    -0.603246811385E+03   -0.81817E-06   -0.89072E-06  5253   0.639E-03
 180 F= -.60324681E+03 E0= -.60324217E+03  d E =-.366854E-03
       N       E                     dE             d eps       ncg     rms          rms(c)
DAV:   1    -0.603246811246E+03   -0.67959E-06   -0.22061E-05  7628   0.106E-02    0.985E-04
RMM:   2    -0.603246811634E+03   -0.38811E-06   -0.40153E-06  5188   0.399E-03
 181 F= -.60324681E+03 E0= -.60324217E+03  d E =-.367104E-03
       N       E                     dE             d eps       ncg     rms          rms(c)
DAV:   1    -0.603246485885E+03    0.32536E-03   -0.13407E-01 10756   0.532E-01    0.572E-02
RMM:   2    -0.603246915067E+03   -0.42918E-03   -0.44817E-03 13274   0.137E-01    0.177E-02
RMM:   3    -0.603247009588E+03   -0.94521E-04   -0.10102E-03 15306   0.529E-02    0.183E-02
RMM:   4    -0.603247014737E+03   -0.51497E-05   -0.10606E-04 12635   0.180E-02    0.116E-02
RMM:   5    -0.603247014539E+03    0.19858E-06   -0.36389E-05  8761   0.112E-02
 182 F= -.60324701E+03 E0= -.60324235E+03  d E =-.202905E-03
       N       E                     dE             d eps       ncg     rms          rms(c)
DAV:   1    -0.603246574899E+03    0.43984E-03   -0.12784E-01 10960   0.520E-01    0.579E-02
RMM:   2    -0.603246993633E+03   -0.41873E-03   -0.43699E-03 13305   0.135E-01    0.173E-02
RMM:   3    -0.603247086983E+03   -0.93350E-04   -0.99155E-04 15278   0.522E-02    0.176E-02
RMM:   4    -0.603247092592E+03   -0.56098E-05   -0.10603E-04 12579   0.180E-02    0.114E-02
RMM:   5    -0.603247092554E+03    0.38643E-07   -0.36167E-05  8754   0.113E-02
 183 F= -.60324709E+03 E0= -.60324242E+03  d E =-.280919E-03
       N       E                     dE             d eps       ncg     rms          rms(c)
DAV:   1    -0.603246923409E+03    0.16918E-03   -0.75196E-02 10672   0.391E-01    0.456E-02
RMM:   2    -0.603247168190E+03   -0.24478E-03   -0.25740E-03 13077   0.101E-01    0.139E-02
RMM:   3    -0.603247222248E+03   -0.54058E-04   -0.59409E-04 15056   0.396E-02    0.143E-02
RMM:   4    -0.603247224586E+03   -0.23374E-05   -0.63483E-05 10548   0.142E-02
 184 F= -.60324722E+03 E0= -.60324255E+03  d E =-.132032E-03
       N       E                     dE             d eps       ncg     rms          rms(c)
DAV:   1    -0.603247222324E+03   -0.75459E-07   -0.44639E-03 11864   0.968E-02    0.136E-02
RMM:   2    -0.603247238431E+03   -0.16108E-04   -0.17456E-04 12466   0.292E-02    0.448E-03
RMM:   3    -0.603247241598E+03   -0.31665E-05   -0.42643E-05  7572   0.120E-02
 185 F= -.60324724E+03 E0= -.60324256E+03  d E =-.149044E-03
       N       E                     dE             d eps       ncg     rms          rms(c)
DAV:   1    -0.603247201153E+03    0.37278E-04   -0.24662E-02 10744   0.233E-01    0.244E-02
RMM:   2    -0.603247292334E+03   -0.91181E-04   -0.95408E-04 13478   0.655E-02    0.795E-03
RMM:   3    -0.603247312303E+03   -0.19969E-04   -0.21991E-04 13382   0.254E-02    0.856E-03
RMM:   4    -0.603247313654E+03   -0.13510E-05   -0.31678E-05  7249   0.123E-02
 186 F= -.60324731E+03 E0= -.60324263E+03  d E =-.720563E-04
       N       E                     dE             d eps       ncg     rms          rms(c)
DAV:   1    -0.603247311715E+03    0.58810E-06   -0.35191E-03 11520   0.884E-02    0.106E-02
RMM:   2    -0.603247325007E+03   -0.13292E-04   -0.13967E-04 12747   0.259E-02    0.320E-03
RMM:   3    -0.603247327263E+03   -0.22559E-05   -0.30730E-05  6617   0.104E-02
 187 F= -.60324733E+03 E0= -.60324264E+03  d E =-.856652E-04
       N       E                     dE             d eps       ncg     rms          rms(c)
DAV:   1    -0.603247281490E+03    0.43517E-04   -0.26688E-02 10976   0.242E-01    0.251E-02
RMM:   2    -0.603247375463E+03   -0.93973E-04   -0.98575E-04 13434   0.671E-02    0.822E-03
RMM:   3    -0.603247395578E+03   -0.20115E-04   -0.22039E-04 13198   0.256E-02    0.858E-03
RMM:   4    -0.603247396806E+03   -0.12274E-05   -0.33919E-05  7419   0.130E-02
 188 F= -.60324740E+03 E0= -.60324271E+03  d E =-.695426E-04
       N       E                     dE             d eps       ncg     rms          rms(c)
DAV:   1    -0.603247387738E+03    0.78405E-05   -0.73279E-03 11536   0.127E-01    0.140E-02
RMM:   2    -0.603247412757E+03   -0.25019E-04   -0.26234E-04 13185   0.349E-02    0.420E-03
RMM:   3    -0.603247418008E+03   -0.52511E-05   -0.61490E-05 10155   0.137E-02
 189 F= -.60324742E+03 E0= -.60324273E+03  d E =-.907451E-04
       N       E                     dE             d eps       ncg     rms          rms(c)
DAV:   1    -0.603247355637E+03    0.57120E-04   -0.28757E-02 11182   0.253E-01    0.253E-02
RMM:   2    -0.603247453850E+03   -0.98212E-04   -0.10260E-03 13425   0.681E-02    0.868E-03
RMM:   3    -0.603247474370E+03   -0.20520E-04   -0.22495E-04 13203   0.261E-02    0.873E-03
RMM:   4    -0.603247475794E+03   -0.14246E-05   -0.36452E-05  7616   0.135E-02
 190 F= -.60324748E+03 E0= -.60324278E+03  d E =-.577862E-04
