       N       E                     dE             d eps       ncg     rms          rms(c)
DAV:   1     0.217389592842E+05    0.21739E+05   -0.31758E+05 10000   0.280E+03
DAV:   2     0.482135704933E+04   -0.16918E+05   -0.15953E+05 10000   0.814E+02
DAV:   3    -0.137548311122E+03   -0.49589E+04   -0.46716E+04 12776   0.320E+02
DAV:   4    -0.758923066167E+03   -0.62137E+03   -0.60833E+03 12352   0.121E+02
DAV:   5    -0.802504451115E+03   -0.43581E+02   -0.43256E+02 14360   0.347E+01    0.612E+01
RMM:   6    -0.690342453788E+03    0.11216E+03   -0.38793E+02 13120   0.238E+01    0.205E+01
RMM:   7    -0.696853515549E+03   -0.65111E+01   -0.68690E+01 13778   0.100E+01    0.167E+01
RMM:   8    -0.693176031293E+03    0.36775E+01   -0.11160E+01 15145   0.451E+00    0.117E+01
RMM:   9    -0.700093737546E+03   -0.69177E+01   -0.11876E+01 12795   0.431E+00    0.229E+01
RMM:  10    -0.692459049687E+03    0.76347E+01   -0.22511E+00 14453   0.191E+00    0.846E+00
RMM:  11    -0.692398991973E+03    0.60058E-01   -0.20449E+00 12869   0.136E+00    0.385E+00
RMM:  12    -0.692356793869E+03    0.42198E-01   -0.79756E-01 13131   0.989E-01    0.365E+00
RMM:  13    -0.692056095178E+03    0.30070E+00   -0.13137E-01 15020   0.468E-01    0.257E+00
RMM:  14    -0.691963910795E+03    0.92184E-01   -0.62162E-02 13944   0.237E-01    0.210E+00
RMM:  15    -0.691893159336E+03    0.70751E-01   -0.31911E-02 13515   0.167E-01    0.158E+00
RMM:  16    -0.691843354135E+03    0.49805E-01   -0.34806E-02 13265   0.148E-01    0.930E-01
RMM:  17    -0.691835365705E+03    0.79884E-02   -0.79228E-03 15106   0.812E-02    0.766E-01
RMM:  18    -0.691821578799E+03    0.13787E-01   -0.12916E-02 13162   0.895E-02    0.328E-01
RMM:  19    -0.691820167135E+03    0.14117E-02   -0.46533E-03 13127   0.561E-02    0.203E-01
RMM:  20    -0.691819864402E+03    0.30273E-03   -0.27945E-03 13454   0.450E-02    0.146E-01
RMM:  21    -0.691819800990E+03    0.63412E-04   -0.48189E-04 11167   0.231E-02    0.651E-02
RMM:  22    -0.691819774370E+03    0.26620E-04   -0.60604E-04 11530   0.216E-02    0.697E-02
RMM:  23    -0.691819750303E+03    0.24066E-04   -0.13017E-04 10200   0.124E-02    0.531E-02
RMM:  24    -0.691819732489E+03    0.17815E-04   -0.38881E-05  7665   0.667E-03    0.342E-02
RMM:  25    -0.691819721071E+03    0.11417E-04   -0.16222E-05  6330   0.451E-03    0.155E-02
RMM:  26    -0.691819718383E+03    0.26885E-05   -0.87763E-06  6157   0.342E-03
   1 F= -.69181972E+03 E0= -.69180626E+03  d E =-.691820E+03
       N       E                     dE             d eps       ncg     rms          rms(c)
DAV:   1    -0.651722037444E+03    0.40098E+02   -0.61388E+03 11216   0.120E+02    0.186E+01
RMM:   2    -0.685453709420E+03   -0.33732E+02   -0.38459E+02 13905   0.327E+01    0.430E+00
RMM:   3    -0.693258295270E+03   -0.78046E+01   -0.69440E+01 14292   0.134E+01    0.862E+00
RMM:   4    -0.694286237794E+03   -0.10279E+01   -0.13795E+01 15635   0.574E+00    0.725E+00
RMM:   5    -0.694111200506E+03    0.17504E+00   -0.20493E+00 14358   0.235E+00    0.381E+00
RMM:   6    -0.694110266135E+03    0.93437E-03   -0.10530E+00 13675   0.150E+00    0.107E+00
RMM:   7    -0.694147540678E+03   -0.37275E-01   -0.32799E-01 15593   0.771E-01    0.167E+00
RMM:   8    -0.694130902834E+03    0.16638E-01   -0.14094E-01 13303   0.536E-01    0.668E-01
RMM:   9    -0.694130964254E+03   -0.61420E-04   -0.49624E-02 14000   0.264E-01    0.343E-01
RMM:  10    -0.694130414515E+03    0.54974E-03   -0.14114E-02 14986   0.142E-01    0.294E-01
RMM:  11    -0.694130353704E+03    0.60811E-04   -0.64777E-03 13766   0.104E-01    0.127E-01
RMM:  12    -0.694130324896E+03    0.28809E-04   -0.27210E-03 15037   0.489E-02    0.568E-02
RMM:  13    -0.694130386235E+03   -0.61339E-04   -0.76521E-04 11980   0.211E-02    0.360E-02
RMM:  14    -0.694130403173E+03   -0.16938E-04   -0.31448E-04  9703   0.144E-02    0.633E-03
RMM:  15    -0.694130416648E+03   -0.13476E-04   -0.12308E-04  8297   0.979E-03    0.121E-02
RMM:  16    -0.694130420145E+03   -0.34971E-05   -0.52530E-05  6473   0.608E-03
   2 F= -.69413042E+03 E0= -.69411681E+03  d E =-.231070E+01
       N       E                     dE             d eps       ncg     rms          rms(c)
DAV:   1    -0.690633014446E+03    0.34974E+01   -0.76950E+02 12888   0.390E+01    0.853E+00
RMM:   2    -0.694316930442E+03   -0.36839E+01   -0.41373E+01 13553   0.112E+01    0.221E+00
RMM:   3    -0.695483453741E+03   -0.11665E+01   -0.11007E+01 15316   0.517E+00    0.238E+00
RMM:   4    -0.695622856584E+03   -0.13940E+00   -0.14553E+00 15721   0.172E+00    0.236E+00
RMM:   5    -0.695613449602E+03    0.94070E-02   -0.15449E-01 15608   0.596E-01    0.139E+00
RMM:   6    -0.695596348415E+03    0.17101E-01   -0.12461E-01 13135   0.575E-01    0.992E-01
RMM:   7    -0.695595792023E+03    0.55639E-03   -0.18491E-02 15625   0.201E-01    0.655E-01
RMM:   8    -0.695593855139E+03    0.19369E-02   -0.78451E-03 13041   0.135E-01    0.761E-02
RMM:   9    -0.695593956462E+03   -0.10132E-03   -0.16938E-03 14903   0.565E-02    0.376E-02
RMM:  10    -0.695593988384E+03   -0.31922E-04   -0.44090E-04 13048   0.281E-02    0.180E-02
RMM:  11    -0.695594001544E+03   -0.13160E-04   -0.13103E-04 10293   0.153E-02    0.221E-02
RMM:  12    -0.695594001285E+03    0.25984E-06   -0.40578E-05  9051   0.975E-03
   3 F= -.69559400E+03 E0= -.69558260E+03  d E =-.377428E+01
       N       E                     dE             d eps       ncg     rms          rms(c)
DAV:   1    -0.695591249679E+03    0.27519E-02   -0.11429E+00 11808   0.142E+00    0.205E-01
RMM:   2    -0.695595009638E+03   -0.37600E-02   -0.41950E-02 13725   0.388E-01    0.990E-02
RMM:   3    -0.695595964752E+03   -0.95511E-03   -0.10948E-02 15220   0.155E-01    0.580E-02
RMM:   4    -0.695596040683E+03   -0.75931E-04   -0.14424E-03 15058   0.564E-02    0.370E-02
RMM:   5    -0.695596020546E+03    0.20137E-04   -0.29224E-04 13106   0.248E-02    0.129E-02
RMM:   6    -0.695596022231E+03   -0.16844E-05   -0.78465E-05  9975   0.126E-02
   4 F= -.69559602E+03 E0= -.69558450E+03  d E =-.377630E+01
       N       E                     dE             d eps       ncg     rms          rms(c)
DAV:   1    -0.695124230413E+03    0.47179E+00   -0.22864E+02 10536   0.219E+01    0.312E+00
RMM:   2    -0.696125349813E+03   -0.10011E+01   -0.10939E+01 13681   0.677E+00    0.107E+00
RMM:   3    -0.696331601456E+03   -0.20625E+00   -0.24012E+00 15417   0.252E+00    0.117E+00
RMM:   4    -0.696346973467E+03   -0.15372E-01   -0.29561E-01 15561   0.869E-01    0.953E-01
RMM:   5    -0.696333934583E+03    0.13039E-01   -0.63911E-02 15026   0.373E-01    0.299E-01
RMM:   6    -0.696333872743E+03    0.61840E-04   -0.25984E-02 13170   0.218E-01    0.263E-01
RMM:   7    -0.696333285374E+03    0.58737E-03   -0.55166E-03 14975   0.100E-01    0.123E-01
RMM:   8    -0.696333245136E+03    0.40238E-04   -0.24835E-03 13307   0.541E-02    0.539E-02
RMM:   9    -0.696333229798E+03    0.15338E-04   -0.47204E-04 12172   0.289E-02    0.165E-02
RMM:  10    -0.696333241135E+03   -0.11337E-04   -0.15599E-04 10255   0.143E-02    0.644E-03
RMM:  11    -0.696333244742E+03   -0.36063E-05   -0.45230E-05  8955   0.920E-03
   5 F= -.69633324E+03 E0= -.69632580E+03  d E =-.737223E+00
       N       E                     dE             d eps       ncg     rms          rms(c)
DAV:   1    -0.696322678567E+03    0.10563E-01   -0.51823E+00 11616   0.327E+00    0.392E-01
RMM:   2    -0.696341540957E+03   -0.18862E-01   -0.20660E-01 13474   0.918E-01    0.157E-01
RMM:   3    -0.696345302193E+03   -0.37612E-02   -0.44297E-02 15314   0.339E-01    0.144E-01
RMM:   4    -0.696345526974E+03   -0.22478E-03   -0.56605E-03 15323   0.121E-01    0.113E-01
RMM:   5    -0.696345243499E+03    0.28348E-03   -0.14518E-03 14718   0.554E-02    0.299E-02
RMM:   6    -0.696345261574E+03   -0.18076E-04   -0.43126E-04 12725   0.287E-02    0.256E-02
RMM:   7    -0.696345256853E+03    0.47218E-05   -0.99111E-05 10644   0.154E-02
   6 F= -.69634526E+03 E0= -.69633848E+03  d E =-.749235E+00
       N       E                     dE             d eps       ncg     rms          rms(c)
DAV:   1    -0.696076460205E+03    0.26880E+00   -0.14262E+02 10504   0.171E+01    0.257E+00
RMM:   2    -0.696644156167E+03   -0.56770E+00   -0.62839E+00 13779   0.497E+00    0.950E-01
RMM:   3    -0.696751986632E+03   -0.10783E+00   -0.12353E+00 15394   0.181E+00    0.782E-01
RMM:   4    -0.696759766491E+03   -0.77799E-02   -0.15325E-01 15563   0.625E-01    0.628E-01
RMM:   5    -0.696753886568E+03    0.58799E-02   -0.36452E-02 14918   0.285E-01    0.173E-01
RMM:   6    -0.696754285073E+03   -0.39851E-03   -0.10286E-02 13861   0.148E-01    0.116E-01
RMM:   7    -0.696754251822E+03    0.33251E-04   -0.27286E-03 15133   0.703E-02    0.447E-02
RMM:   8    -0.696754324070E+03   -0.72249E-04   -0.88062E-04 13170   0.335E-02    0.281E-02
RMM:   9    -0.696754323618E+03    0.45222E-06   -0.21050E-04 10798   0.202E-02    0.778E-03
RMM:  10    -0.696754330952E+03   -0.73341E-05   -0.81947E-05  9281   0.102E-02
   7 F= -.69675433E+03 E0= -.69675119E+03  d E =-.409074E+00
       N       E                     dE             d eps       ncg     rms          rms(c)
DAV:   1    -0.696678771114E+03    0.75553E-01   -0.26889E+01 11152   0.745E+00    0.102E+00
RMM:   2    -0.696778945744E+03   -0.10017E+00   -0.11053E+00 13591   0.208E+00    0.396E-01
RMM:   3    -0.696798541878E+03   -0.19596E-01   -0.22321E-01 15367   0.766E-01    0.312E-01
RMM:   4    -0.696799877406E+03   -0.13355E-02   -0.27541E-02 15522   0.266E-01    0.242E-01
RMM:   5    -0.696798866492E+03    0.10109E-02   -0.69201E-03 14676   0.125E-01    0.579E-02
RMM:   6    -0.696798974122E+03   -0.10763E-03   -0.17418E-03 13847   0.627E-02    0.440E-02
RMM:   7    -0.696798980067E+03   -0.59446E-05   -0.50450E-04 14168   0.311E-02    0.162E-02
RMM:   8    -0.696798993631E+03   -0.13564E-04   -0.15652E-04 10368   0.160E-02    0.101E-02
RMM:   9    -0.696798993417E+03    0.21433E-06   -0.40830E-05  9033   0.984E-03
   8 F= -.69679899E+03 E0= -.69679683E+03  d E =-.453737E+00
       N       E                     dE             d eps       ncg     rms          rms(c)
DAV:   1    -0.696558456059E+03    0.24054E+00   -0.13207E+02 10296   0.159E+01    0.270E+00
RMM:   2    -0.697057027808E+03   -0.49857E+00   -0.56363E+00 13452   0.438E+00    0.104E+00
RMM:   3    -0.697143623273E+03   -0.86595E-01   -0.10356E+00 15365   0.162E+00    0.813E-01
RMM:   4    -0.697150352203E+03   -0.67289E-02   -0.13354E-01 15466   0.559E-01    0.664E-01
RMM:   5    -0.697144536558E+03    0.58156E-02   -0.34669E-02 14127   0.267E-01    0.141E-01
RMM:   6    -0.697145129752E+03   -0.59319E-03   -0.96958E-03 14603   0.136E-01    0.118E-01
RMM:   7    -0.697145078472E+03    0.51280E-04   -0.29063E-03 14974   0.646E-02    0.376E-02
RMM:   8    -0.697145143403E+03   -0.64931E-04   -0.76196E-04 13011   0.314E-02    0.234E-02
RMM:   9    -0.697145151658E+03   -0.82548E-05   -0.21864E-04 10415   0.185E-02    0.649E-03
RMM:  10    -0.697145159259E+03   -0.76012E-05   -0.80395E-05  9378   0.101E-02
   9 F= -.69714516E+03 E0= -.69714426E+03  d E =-.346166E+00
       N       E                     dE             d eps       ncg     rms          rms(c)
DAV:   1    -0.696711039585E+03    0.43411E+00   -0.12466E+02 10616   0.155E+01    0.267E+00
RMM:   2    -0.697176032377E+03   -0.46499E+00   -0.52499E+00 13374   0.427E+00    0.100E+00
RMM:   3    -0.697263190116E+03   -0.87158E-01   -0.10174E+00 15373   0.160E+00    0.777E-01
RMM:   4    -0.697270105497E+03   -0.69154E-02   -0.12929E-01 15444   0.549E-01    0.626E-01
RMM:   5    -0.697265056565E+03    0.50489E-02   -0.33600E-02 14085   0.261E-01    0.129E-01
RMM:   6    -0.697265643853E+03   -0.58729E-03   -0.89114E-03 14881   0.130E-01    0.116E-01
RMM:   7    -0.697265615224E+03    0.28629E-04   -0.28908E-03 14641   0.618E-02    0.380E-02
RMM:   8    -0.697265664341E+03   -0.49117E-04   -0.68522E-04 12885   0.307E-02    0.201E-02
RMM:   9    -0.697265675436E+03   -0.11095E-04   -0.21419E-04 10199   0.170E-02    0.601E-03
RMM:  10    -0.697265682285E+03   -0.68490E-05   -0.73921E-05  9384   0.100E-02
  10 F= -.69726568E+03 E0= -.69726515E+03  d E =-.466689E+00
       N       E                     dE             d eps       ncg     rms          rms(c)
DAV:   1    -0.697180384880E+03    0.85291E-01   -0.83016E+01 10606   0.127E+01    0.249E+00
RMM:   2    -0.697490682321E+03   -0.31030E+00   -0.34836E+00 13153   0.345E+00    0.891E-01
RMM:   3    -0.697553196269E+03   -0.62514E-01   -0.71667E-01 15379   0.133E+00    0.673E-01
RMM:   4    -0.697558705275E+03   -0.55090E-02   -0.92551E-02 15401   0.458E-01    0.530E-01
RMM:   5    -0.697556134099E+03    0.25712E-02   -0.23216E-02 14021   0.221E-01    0.122E-01
RMM:   6    -0.697556522137E+03   -0.38804E-03   -0.61552E-03 14788   0.109E-01    0.111E-01
RMM:   7    -0.697556511783E+03    0.10355E-04   -0.22753E-03 14258   0.537E-02    0.333E-02
RMM:   8    -0.697556540153E+03   -0.28370E-04   -0.48352E-04 12456   0.280E-02    0.145E-02
RMM:   9    -0.697556550233E+03   -0.10080E-04   -0.15930E-04 10049   0.147E-02    0.566E-03
RMM:  10    -0.697556554751E+03   -0.45182E-05   -0.50837E-05  9116   0.884E-03
  11 F= -.69755655E+03 E0= -.69755575E+03  d E =-.290872E+00
       N       E                     dE             d eps       ncg     rms          rms(c)
DAV:   1    -0.696820380460E+03    0.73617E+00   -0.21426E+02 10404   0.204E+01    0.579E+00
RMM:   2    -0.697659479162E+03   -0.83910E+00   -0.95964E+00 13290   0.568E+00    0.169E+00
RMM:   3    -0.697829899361E+03   -0.17042E+00   -0.20650E+00 15527   0.220E+00    0.147E+00
RMM:   4    -0.697843494174E+03   -0.13595E-01   -0.25060E-01 15488   0.753E-01    0.107E+00
RMM:   5    -0.697836475102E+03    0.70191E-02   -0.80957E-02 14311   0.393E-01    0.457E-01
RMM:   6    -0.697836309802E+03    0.16530E-03   -0.18044E-02 14902   0.183E-01    0.306E-01
RMM:   7    -0.697836157163E+03    0.15264E-03   -0.87802E-03 14543   0.974E-02    0.718E-02
RMM:   8    -0.697836188097E+03   -0.30934E-04   -0.14878E-03 13698   0.474E-02    0.354E-02
RMM:   9    -0.697836224074E+03   -0.35978E-04   -0.53402E-04 11647   0.248E-02    0.218E-02
RMM:  10    -0.697836237295E+03   -0.13220E-04   -0.14564E-04 10074   0.144E-02    0.194E-02
RMM:  11    -0.697836238725E+03   -0.14300E-05   -0.52371E-05  9321   0.939E-03
  12 F= -.69783624E+03 E0= -.69783167E+03  d E =-.570556E+00
       N       E                     dE             d eps       ncg     rms          rms(c)
DAV:   1    -0.697687396120E+03    0.14884E+00   -0.88146E+01 10656   0.132E+01    0.390E+00
RMM:   2    -0.698082556719E+03   -0.39516E+00   -0.42356E+00 13464   0.371E+00    0.111E+00
RMM:   3    -0.698150419076E+03   -0.67862E-01   -0.79890E-01 15561   0.138E+00    0.568E-01
RMM:   4    -0.698154486050E+03   -0.40670E-02   -0.10020E-01 15369   0.502E-01    0.266E-01
RMM:   5    -0.698155713480E+03   -0.12274E-02   -0.24244E-02 15716   0.225E-01    0.836E-02
RMM:   6    -0.698156218442E+03   -0.50496E-03   -0.54250E-03 15394   0.105E-01    0.478E-02
RMM:   7    -0.698156360108E+03   -0.14167E-03   -0.16037E-03 14587   0.522E-02    0.123E-02
RMM:   8    -0.698156403490E+03   -0.43382E-04   -0.46989E-04 12587   0.268E-02    0.478E-03
RMM:   9    -0.698156417084E+03   -0.13594E-04   -0.15311E-04 10393   0.143E-02    0.314E-03
RMM:  10    -0.698156420877E+03   -0.37935E-05   -0.49472E-05  9352   0.865E-03
  13 F= -.69815642E+03 E0= -.69815059E+03  d E =-.320182E+00
       N       E                     dE             d eps       ncg     rms          rms(c)
DAV:   1    -0.698042426002E+03    0.11399E+00   -0.32104E+01 10632   0.789E+00    0.235E+00
RMM:   2    -0.698183336938E+03   -0.14091E+00   -0.15373E+00 13441   0.219E+00    0.817E-01
RMM:   3    -0.698205150329E+03   -0.21813E-01   -0.28045E-01 15552   0.809E-01    0.366E-01
RMM:   4    -0.698206432670E+03   -0.12823E-02   -0.34792E-02 15296   0.297E-01    0.136E-01
RMM:   5    -0.698206996805E+03   -0.56413E-03   -0.85846E-03 15801   0.133E-01    0.478E-02
RMM:   6    -0.698207155651E+03   -0.15885E-03   -0.18048E-03 15097   0.607E-02    0.299E-02
RMM:   7    -0.698207196895E+03   -0.41244E-04   -0.51895E-04 12861   0.310E-02    0.579E-03
RMM:   8    -0.698207210947E+03   -0.14052E-04   -0.16614E-04 11017   0.171E-02    0.391E-03
RMM:   9    -0.698207215697E+03   -0.47497E-05   -0.57693E-05  9453   0.105E-02
  14 F= -.69820722E+03 E0= -.69820300E+03  d E =-.370977E+00
       N       E                     dE             d eps       ncg     rms          rms(c)
DAV:   1    -0.698255643077E+03   -0.48432E-01   -0.41761E+01 10720   0.949E+00    0.129E+00
RMM:   2    -0.698417499515E+03   -0.16186E+00   -0.17202E+00 13641   0.267E+00    0.469E-01
RMM:   3    -0.698447172653E+03   -0.29673E-01   -0.34245E-01 15398   0.971E-01    0.370E-01
RMM:   4    -0.698447751595E+03   -0.57894E-03   -0.38414E-02 15493   0.337E-01    0.184E-01
RMM:   5    -0.698447470696E+03    0.28090E-03   -0.94682E-03 15142   0.153E-01    0.518E-02
RMM:   6    -0.698447614797E+03   -0.14410E-03   -0.19397E-03 15360   0.680E-02    0.369E-02
RMM:   7    -0.698447640010E+03   -0.25213E-04   -0.54887E-04 13428   0.358E-02    0.182E-02
RMM:   8    -0.698447650281E+03   -0.10271E-04   -0.17789E-04 12211   0.189E-02    0.668E-03
RMM:   9    -0.698447653163E+03   -0.28825E-05   -0.47078E-05  9147   0.103E-02
  15 F= -.69844765E+03 E0= -.69844443E+03  d E =-.240437E+00
       N       E                     dE             d eps       ncg     rms          rms(c)
DAV:   1    -0.698357557268E+03    0.90093E-01   -0.39963E+01 10880   0.931E+00    0.128E+00
RMM:   2    -0.698511546636E+03   -0.15399E+00   -0.16385E+00 13670   0.262E+00    0.480E-01
RMM:   3    -0.698540020493E+03   -0.28474E-01   -0.32613E-01 15400   0.956E-01    0.362E-01
RMM:   4    -0.698540655761E+03   -0.63527E-03   -0.36825E-02 15477   0.333E-01    0.164E-01
RMM:   5    -0.698540675767E+03   -0.20005E-04   -0.87471E-03 15395   0.149E-01    0.485E-02
RMM:   6    -0.698540824078E+03   -0.14831E-03   -0.17678E-03 15270   0.650E-02    0.340E-02
RMM:   7    -0.698540854954E+03   -0.30877E-04   -0.48532E-04 13087   0.349E-02    0.140E-02
RMM:   8    -0.698540866559E+03   -0.11604E-04   -0.16176E-04 12178   0.185E-02    0.555E-03
RMM:   9    -0.698540869520E+03   -0.29616E-05   -0.44173E-05  8917   0.101E-02
  16 F= -.69854087E+03 E0= -.69853599E+03  d E =-.333654E+00
       N       E                     dE             d eps       ncg     rms          rms(c)
DAV:   1    -0.698530121558E+03    0.10745E-01   -0.45381E+01 10360   0.967E+00    0.132E+00
RMM:   2    -0.698689566192E+03   -0.15944E+00   -0.17056E+00 13457   0.255E+00    0.419E-01
RMM:   3    -0.698717428595E+03   -0.27862E-01   -0.32722E-01 15319   0.929E-01    0.383E-01
RMM:   4    -0.698717736412E+03   -0.30782E-03   -0.33664E-02 15503   0.307E-01    0.200E-01
RMM:   5    -0.698717313795E+03    0.42262E-03   -0.87362E-03 14665   0.140E-01    0.632E-02
RMM:   6    -0.698717408693E+03   -0.94898E-04   -0.17630E-03 15478   0.635E-02    0.349E-02
RMM:   7    -0.698717439227E+03   -0.30534E-04   -0.50359E-04 13641   0.293E-02    0.177E-02
RMM:   8    -0.698717448271E+03   -0.90433E-05   -0.13436E-04 10290   0.157E-02    0.593E-03
RMM:   9    -0.698717451642E+03   -0.33717E-05   -0.45875E-05  9265   0.100E-02
  17 F= -.69871745E+03 E0= -.69871257E+03  d E =-.176582E+00
       N       E                     dE             d eps       ncg     rms          rms(c)
DAV:   1    -0.698620813799E+03    0.96634E-01   -0.37355E+01 10584   0.878E+00    0.118E+00
RMM:   2    -0.698751892963E+03   -0.13108E+00   -0.14051E+00 13458   0.231E+00    0.377E-01
RMM:   3    -0.698774341698E+03   -0.22449E-01   -0.26559E-01 15299   0.836E-01    0.346E-01
RMM:   4    -0.698774538948E+03   -0.19725E-03   -0.27591E-02 15519   0.277E-01    0.179E-01
RMM:   5    -0.698774193011E+03    0.34594E-03   -0.71686E-03 14738   0.126E-01    0.581E-02
RMM:   6    -0.698774267357E+03   -0.74346E-04   -0.14332E-03 15446   0.568E-02    0.318E-02
RMM:   7    -0.698774292213E+03   -0.24855E-04   -0.42163E-04 12986   0.266E-02    0.162E-02
RMM:   8    -0.698774299205E+03   -0.69926E-05   -0.11112E-04 10070   0.148E-02    0.585E-03
RMM:   9    -0.698774301966E+03   -0.27611E-05   -0.39078E-05  9134   0.927E-03
  18 F= -.69877430E+03 E0= -.69876942E+03  d E =-.233432E+00
       N       E                     dE             d eps       ncg     rms          rms(c)
DAV:   1    -0.698651916675E+03    0.12238E+00   -0.62474E+01 10392   0.111E+01    0.155E+00
RMM:   2    -0.698862871615E+03   -0.21095E+00   -0.22423E+00 13159   0.287E+00    0.499E-01
RMM:   3    -0.698905202061E+03   -0.42330E-01   -0.47629E-01 15258   0.108E+00    0.465E-01
RMM:   4    -0.698906182380E+03   -0.98032E-03   -0.46362E-02 15352   0.352E-01    0.247E-01
RMM:   5    -0.698905941481E+03    0.24090E-03   -0.11539E-02 14782   0.158E-01    0.872E-02
RMM:   6    -0.698906065276E+03   -0.12380E-03   -0.23913E-03 15539   0.714E-02    0.474E-02
RMM:   7    -0.698906111067E+03   -0.45791E-04   -0.68216E-04 14080   0.332E-02    0.212E-02
RMM:   8    -0.698906126909E+03   -0.15842E-04   -0.18380E-04 10573   0.177E-02    0.956E-03
RMM:   9    -0.698906131297E+03   -0.43873E-05   -0.63861E-05  9564   0.109E-02
  19 F= -.69890613E+03 E0= -.69890062E+03  d E =-.131829E+00
       N       E                     dE             d eps       ncg     rms          rms(c)
DAV:   1    -0.698806426925E+03    0.99700E-01   -0.33251E+01 10600   0.810E+00    0.111E+00
RMM:   2    -0.698917951467E+03   -0.11152E+00   -0.11818E+00 13155   0.207E+00    0.361E-01
RMM:   3    -0.698939482193E+03   -0.21531E-01   -0.24444E-01 15222   0.779E-01    0.334E-01
RMM:   4    -0.698940008548E+03   -0.52636E-03   -0.25043E-02 15301   0.258E-01    0.159E-01
RMM:   5    -0.698940064835E+03   -0.56287E-04   -0.59482E-03 14977   0.113E-01    0.628E-02
RMM:   6    -0.698940126476E+03   -0.61641E-04   -0.12365E-03 15284   0.504E-02    0.337E-02
RMM:   7    -0.698940151765E+03   -0.25289E-04   -0.36872E-04 12638   0.250E-02    0.148E-02
RMM:   8    -0.698940159539E+03   -0.77733E-05   -0.97958E-05 10014   0.139E-02
  20 F= -.69894016E+03 E0= -.69893504E+03  d E =-.165858E+00
       N       E                     dE             d eps       ncg     rms          rms(c)
DAV:   1    -0.698838867580E+03    0.10128E+00   -0.43201E+01 10536   0.951E+00    0.123E+00
RMM:   2    -0.698995888078E+03   -0.15702E+00   -0.16609E+00 13447   0.256E+00    0.537E-01
RMM:   3    -0.699027455002E+03   -0.31567E-01   -0.34599E-01 15389   0.951E-01    0.415E-01
RMM:   4    -0.699028616464E+03   -0.11615E-02   -0.37905E-02 15434   0.324E-01    0.191E-01
RMM:   5    -0.699028902180E+03   -0.28572E-03   -0.84712E-03 15249   0.142E-01    0.638E-02
RMM:   6    -0.699029026653E+03   -0.12447E-03   -0.18286E-03 15402   0.640E-02    0.384E-02
RMM:   7    -0.699029058377E+03   -0.31724E-04   -0.52011E-04 13781   0.318E-02    0.121E-02
RMM:   8    -0.699029069215E+03   -0.10838E-04   -0.14046E-04 10843   0.167E-02    0.643E-03
RMM:   9    -0.699029072434E+03   -0.32194E-05   -0.47746E-05  9267   0.101E-02
  21 F= -.69902907E+03 E0= -.69902425E+03  d E =-.889129E-01
       N       E                     dE             d eps       ncg     rms          rms(c)
DAV:   1    -0.699004367636E+03    0.24702E-01   -0.84463E+00 11208   0.420E+00    0.526E-01
RMM:   2    -0.699033991169E+03   -0.29624E-01   -0.31420E-01 13405   0.111E+00    0.234E-01
RMM:   3    -0.699040023269E+03   -0.60321E-02   -0.66260E-02 15377   0.413E-01    0.198E-01
RMM:   4    -0.699040230222E+03   -0.20695E-03   -0.71860E-03 15362   0.141E-01    0.931E-02
RMM:   5    -0.699040294590E+03   -0.64367E-04   -0.16838E-03 14993   0.627E-02    0.331E-02
RMM:   6    -0.699040312204E+03   -0.17614E-04   -0.35569E-04 13607   0.286E-02    0.192E-02
RMM:   7    -0.699040317516E+03   -0.53125E-05   -0.11230E-04 10335   0.149E-02    0.548E-03
RMM:   8    -0.699040318987E+03   -0.14705E-05   -0.29732E-05  8824   0.937E-03
  22 F= -.69904032E+03 E0= -.69903495E+03  d E =-.100159E+00
       N       E                     dE             d eps       ncg     rms          rms(c)
DAV:   1    -0.698937801244E+03    0.10252E+00   -0.37119E+01 10607   0.894E+00    0.121E+00
RMM:   2    -0.699076441433E+03   -0.13864E+00   -0.14525E+00 13424   0.249E+00    0.476E-01
RMM:   3    -0.699108440679E+03   -0.31999E-01   -0.35016E-01 15325   0.967E-01    0.362E-01
RMM:   4    -0.699110375558E+03   -0.19349E-02   -0.38086E-02 15543   0.330E-01    0.197E-01
RMM:   5    -0.699110441291E+03   -0.65733E-04   -0.79628E-03 15192   0.143E-01    0.535E-02
RMM:   6    -0.699110593844E+03   -0.15255E-03   -0.18275E-03 15471   0.658E-02    0.359E-02
RMM:   7    -0.699110626213E+03   -0.32369E-04   -0.48913E-04 13845   0.303E-02    0.135E-02
RMM:   8    -0.699110636975E+03   -0.10762E-04   -0.13050E-04 10595   0.163E-02    0.509E-03
RMM:   9    -0.699110640095E+03   -0.31198E-05   -0.45047E-05  9234   0.101E-02
  23 F= -.69911064E+03 E0= -.69910491E+03  d E =-.703211E-01
       N       E                     dE             d eps       ncg     rms          rms(c)
DAV:   1    -0.699079205480E+03    0.31431E-01   -0.94454E+00 11128   0.451E+00    0.629E-01
RMM:   2    -0.699112669427E+03   -0.33464E-01   -0.35106E-01 13301   0.123E+00    0.238E-01
RMM:   3    -0.699120746845E+03   -0.80774E-02   -0.88055E-02 15329   0.484E-01    0.189E-01
RMM:   4    -0.699121234346E+03   -0.48750E-03   -0.96496E-03 15449   0.167E-01    0.102E-01
RMM:   5    -0.699121267298E+03   -0.32952E-04   -0.20824E-03 15158   0.728E-02    0.294E-02
RMM:   6    -0.699121307581E+03   -0.40283E-04   -0.47592E-04 14375   0.332E-02    0.202E-02
RMM:   7    -0.699121314973E+03   -0.73921E-05   -0.13205E-04 10837   0.163E-02    0.680E-03
RMM:   8    -0.699121317476E+03   -0.25033E-05   -0.37147E-05  8986   0.997E-03
  24 F= -.69912132E+03 E0= -.69911545E+03  d E =-.809985E-01
       N       E                     dE             d eps       ncg     rms          rms(c)
DAV:   1    -0.698996010115E+03    0.12530E+00   -0.38242E+01 10623   0.915E+00    0.107E+00
RMM:   2    -0.699142058650E+03   -0.14605E+00   -0.15355E+00 13512   0.256E+00    0.445E-01
RMM:   3    -0.699174349999E+03   -0.32291E-01   -0.34940E-01 15353   0.973E-01    0.441E-01
RMM:   4    -0.699175776113E+03   -0.14261E-02   -0.38341E-02 15530   0.332E-01    0.237E-01
RMM:   5    -0.699175825970E+03   -0.49857E-04   -0.93676E-03 15110   0.150E-01    0.860E-02
RMM:   6    -0.699175935229E+03   -0.10926E-03   -0.20119E-03 15551   0.685E-02    0.551E-02
RMM:   7    -0.699175946067E+03   -0.10838E-04   -0.64092E-04 14442   0.338E-02    0.168E-02
RMM:   8    -0.699175958835E+03   -0.12767E-04   -0.16128E-04 11113   0.177E-02    0.801E-03
RMM:   9    -0.699175962763E+03   -0.39279E-05   -0.54656E-05  9478   0.111E-02
  25 F= -.69917596E+03 E0= -.69916978E+03  d E =-.546453E-01
       N       E                     dE             d eps       ncg     rms          rms(c)
DAV:   1    -0.699169505801E+03    0.64530E-02   -0.21160E+00 11392   0.214E+00    0.272E-01
RMM:   2    -0.699176957314E+03   -0.74515E-02   -0.78442E-02 13358   0.577E-01    0.961E-02
RMM:   3    -0.699178687344E+03   -0.17300E-02   -0.18717E-02 15347   0.224E-01    0.109E-01
RMM:   4    -0.699178787722E+03   -0.10038E-03   -0.21162E-03 15282   0.774E-02    0.672E-02
RMM:   5    -0.699178783793E+03    0.39295E-05   -0.54567E-04 13601   0.367E-02    0.244E-02
RMM:   6    -0.699178788737E+03   -0.49436E-05   -0.12165E-04 11501   0.174E-02    0.157E-02
RMM:   7    -0.699178788364E+03    0.37252E-06   -0.45203E-05  9177   0.102E-02
  26 F= -.69917879E+03 E0= -.69917260E+03  d E =-.574709E-01
       N       E                     dE             d eps       ncg     rms          rms(c)
DAV:   1    -0.699084040059E+03    0.94749E-01   -0.28215E+01 10503   0.773E+00    0.103E+00
RMM:   2    -0.699190423201E+03   -0.10638E+00   -0.11282E+00 13397   0.211E+00    0.364E-01
RMM:   3    -0.699212822431E+03   -0.22399E-01   -0.24639E-01 15467   0.803E-01    0.361E-01
RMM:   4    -0.699213802978E+03   -0.98055E-03   -0.26982E-02 15521   0.275E-01    0.201E-01
RMM:   5    -0.699213768064E+03    0.34914E-04   -0.67453E-03 15010   0.124E-01    0.661E-02
RMM:   6    -0.699213848465E+03   -0.80401E-04   -0.14636E-03 15271   0.576E-02    0.414E-02
RMM:   7    -0.699213864730E+03   -0.16265E-04   -0.47908E-04 13471   0.284E-02    0.123E-02
RMM:   8    -0.699213874053E+03   -0.93234E-05   -0.11840E-04 10511   0.155E-02    0.645E-03
RMM:   9    -0.699213876955E+03   -0.29015E-05   -0.42411E-05  9126   0.952E-03
  27 F= -.69921388E+03 E0= -.69920836E+03  d E =-.350886E-01
       N       E                     dE             d eps       ncg     rms          rms(c)
DAV:   1    -0.699211446395E+03    0.24277E-02   -0.76395E-01 11520   0.127E+00    0.189E-01
RMM:   2    -0.699214185664E+03   -0.27393E-02   -0.29115E-02 13289   0.337E-01    0.570E-02
RMM:   3    -0.699214775535E+03   -0.58987E-03   -0.65017E-03 15413   0.129E-01    0.636E-02
RMM:   4    -0.699214805771E+03   -0.30236E-04   -0.73208E-04 15022   0.451E-02    0.380E-02
RMM:   5    -0.699214804821E+03    0.94967E-06   -0.19819E-04 11988   0.220E-02    0.131E-02
RMM:   6    -0.699214806163E+03   -0.13420E-05   -0.43705E-05  9642   0.110E-02
  28 F= -.69921481E+03 E0= -.69920944E+03  d E =-.360178E-01
       N       E                     dE             d eps       ncg     rms          rms(c)
DAV:   1    -0.699153251758E+03    0.61553E-01   -0.18859E+01 10751   0.640E+00    0.808E-01
RMM:   2    -0.699220761684E+03   -0.67510E-01   -0.71196E-01 13309   0.176E+00    0.279E-01
RMM:   3    -0.699237285661E+03   -0.16524E-01   -0.17728E-01 15397   0.689E-01    0.261E-01
RMM:   4    -0.699238351196E+03   -0.10655E-02   -0.19631E-02 15507   0.233E-01    0.154E-01
RMM:   5    -0.699238301170E+03    0.50026E-04   -0.44672E-03 14737   0.104E-01    0.519E-02
RMM:   6    -0.699238365913E+03   -0.64743E-04   -0.10396E-03 15360   0.484E-02    0.333E-02
RMM:   7    -0.699238377645E+03   -0.11731E-04   -0.30624E-04 12763   0.225E-02    0.103E-02
RMM:   8    -0.699238383932E+03   -0.62869E-05   -0.77256E-05 10045   0.130E-02
  29 F= -.69923838E+03 E0= -.69923324E+03  d E =-.235778E-01
       N       E                     dE             d eps       ncg     rms          rms(c)
DAV:   1    -0.699236816710E+03    0.15609E-02   -0.59367E-01 11776   0.113E+00    0.151E-01
RMM:   2    -0.699238841231E+03   -0.20245E-02   -0.21358E-02 13269   0.304E-01    0.477E-02
RMM:   3    -0.699239324793E+03   -0.48356E-03   -0.52226E-03 15321   0.119E-01    0.474E-02
RMM:   4    -0.699239357457E+03   -0.32664E-04   -0.60208E-04 14810   0.412E-02    0.284E-02
RMM:   5    -0.699239357675E+03   -0.21821E-06   -0.15636E-04 11519   0.203E-02    0.108E-02
RMM:   6    -0.699239358622E+03   -0.94665E-06   -0.34794E-05  9161   0.102E-02
  30 F= -.69923936E+03 E0= -.69923426E+03  d E =-.245525E-01
       N       E                     dE             d eps       ncg     rms          rms(c)
DAV:   1    -0.699192081529E+03    0.47276E-01   -0.15149E+01 10944   0.576E+00    0.617E-01
RMM:   2    -0.699244408679E+03   -0.52327E-01   -0.54829E-01 13298   0.157E+00    0.269E-01
RMM:   3    -0.699257375888E+03   -0.12967E-01   -0.13522E-01 15276   0.613E-01    0.225E-01
RMM:   4    -0.699258234323E+03   -0.85843E-03   -0.15552E-02 15446   0.209E-01    0.122E-01
RMM:   5    -0.699258276547E+03   -0.42224E-04   -0.32346E-03 14965   0.896E-02    0.434E-02
RMM:   6    -0.699258328442E+03   -0.51896E-04   -0.74391E-04 15145   0.411E-02    0.281E-02
RMM:   7    -0.699258336681E+03   -0.82390E-05   -0.22359E-04 12140   0.200E-02    0.885E-03
RMM:   8    -0.699258340595E+03   -0.39137E-05   -0.55568E-05  9647   0.116E-02
  31 F= -.69925834E+03 E0= -.69925345E+03  d E =-.189820E-01
       N       E                     dE             d eps       ncg     rms          rms(c)
DAV:   1    -0.699255591872E+03    0.27448E-02   -0.10076E+00 11632   0.148E+00    0.154E-01
RMM:   2    -0.699258882196E+03   -0.32903E-02   -0.34483E-02 13275   0.394E-01    0.621E-02
RMM:   3    -0.699259679630E+03   -0.79743E-03   -0.83625E-03 15224   0.153E-01    0.565E-02
RMM:   4    -0.699259736887E+03   -0.57257E-04   -0.99924E-04 15073   0.531E-02    0.345E-02
RMM:   5    -0.699259738633E+03   -0.17459E-05   -0.22837E-04 12702   0.242E-02    0.123E-02
RMM:   6    -0.699259740398E+03   -0.17651E-05   -0.47216E-05  9831   0.117E-02
  32 F= -.69925974E+03 E0= -.69925490E+03  d E =-.203818E-01
       N       E                     dE             d eps       ncg     rms          rms(c)
DAV:   1    -0.699206394273E+03    0.53344E-01   -0.16537E+01 11056   0.600E+00    0.604E-01
RMM:   2    -0.699261039447E+03   -0.54645E-01   -0.57311E-01 13257   0.161E+00    0.216E-01
RMM:   3    -0.699274415618E+03   -0.13376E-01   -0.13936E-01 15158   0.626E-01    0.205E-01
RMM:   4    -0.699275448087E+03   -0.10325E-02   -0.16485E-02 15451   0.213E-01    0.130E-01
RMM:   5    -0.699275358952E+03    0.89135E-04   -0.32854E-03 14628   0.899E-02    0.402E-02
RMM:   6    -0.699275421432E+03   -0.62480E-04   -0.75761E-04 14938   0.426E-02    0.314E-02
RMM:   7    -0.699275427444E+03   -0.60125E-05   -0.23292E-04 12462   0.203E-02    0.952E-03
RMM:   8    -0.699275433057E+03   -0.56126E-05   -0.60523E-05  9437   0.119E-02
  33 F= -.69927543E+03 E0= -.69927048E+03  d E =-.156927E-01
       N       E                     dE             d eps       ncg     rms          rms(c)
DAV:   1    -0.699271975029E+03    0.34524E-02   -0.12181E+00 11736   0.162E+00    0.163E-01
RMM:   2    -0.699275778127E+03   -0.38031E-02   -0.39920E-02 13218   0.425E-01    0.560E-02
RMM:   3    -0.699276694039E+03   -0.91591E-03   -0.96092E-03 15118   0.165E-01    0.545E-02
RMM:   4    -0.699276767328E+03   -0.73289E-04   -0.11569E-03 15156   0.564E-02    0.363E-02
RMM:   5    -0.699276761411E+03    0.59167E-05   -0.25418E-04 12826   0.250E-02    0.123E-02
RMM:   6    -0.699276764295E+03   -0.28837E-05   -0.52961E-05  9765   0.122E-02
  34 F= -.69927676E+03 E0= -.69927178E+03  d E =-.170239E-01
       N       E                     dE             d eps       ncg     rms          rms(c)
DAV:   1    -0.699211913344E+03    0.64848E-01   -0.18848E+01 11031   0.635E+00    0.681E-01
RMM:   2    -0.699273173111E+03   -0.61260E-01   -0.64348E-01 13226   0.170E+00    0.233E-01
RMM:   3    -0.699288300541E+03   -0.15127E-01   -0.15667E-01 15170   0.658E-01    0.214E-01
RMM:   4    -0.699289442243E+03   -0.11417E-02   -0.18342E-02 15493   0.222E-01    0.139E-01
RMM:   5    -0.699289323776E+03    0.11847E-03   -0.36111E-03 14616   0.921E-02    0.418E-02
RMM:   6    -0.699289388259E+03   -0.64483E-04   -0.79041E-04 14733   0.435E-02    0.309E-02
RMM:   7    -0.699289397226E+03   -0.89667E-05   -0.25332E-04 12618   0.213E-02    0.108E-02
RMM:   8    -0.699289402967E+03   -0.57411E-05   -0.64121E-05  9454   0.123E-02
  35 F= -.69928940E+03 E0= -.69928477E+03  d E =-.126387E-01
       N       E                     dE             d eps       ncg     rms          rms(c)
DAV:   1    -0.699288578953E+03    0.81827E-03   -0.31172E-01 12008   0.814E-01    0.868E-02
RMM:   2    -0.699289541737E+03   -0.96278E-03   -0.10112E-02 13212   0.211E-01    0.287E-02
RMM:   3    -0.699289770480E+03   -0.22874E-03   -0.23899E-03 15014   0.810E-02    0.272E-02
RMM:   4    -0.699289787312E+03   -0.16832E-04   -0.28776E-04 13444   0.286E-02    0.181E-02
RMM:   5    -0.699289786273E+03    0.10393E-05   -0.72381E-05 10315   0.149E-02
  36 F= -.69928979E+03 E0= -.69928520E+03  d E =-.130220E-01
       N       E                     dE             d eps       ncg     rms          rms(c)
DAV:   1    -0.699228127410E+03    0.61660E-01   -0.17410E+01 11006   0.613E+00    0.656E-01
RMM:   2    -0.699284703278E+03   -0.56576E-01   -0.59603E-01 13212   0.164E+00    0.220E-01
RMM:   3    -0.699298539214E+03   -0.13836E-01   -0.14243E-01 15172   0.633E-01    0.203E-01
RMM:   4    -0.699299693799E+03   -0.11546E-02   -0.17110E-02 15538   0.216E-01    0.140E-01
RMM:   5    -0.699299552498E+03    0.14130E-03   -0.33250E-03 14142   0.886E-02    0.431E-02
RMM:   6    -0.699299615619E+03   -0.63120E-04   -0.77905E-04 14913   0.433E-02    0.326E-02
RMM:   7    -0.699299620692E+03   -0.50734E-05   -0.23619E-04 12582   0.203E-02    0.937E-03
RMM:   8    -0.699299626506E+03   -0.58136E-05   -0.62958E-05  9519   0.121E-02
  37 F= -.69929963E+03 E0= -.69929512E+03  d E =-.984023E-02
       N       E                     dE             d eps       ncg     rms          rms(c)
DAV:   1    -0.699298913072E+03    0.70762E-03   -0.26035E-01 11912   0.748E-01    0.794E-02
RMM:   2    -0.699299721803E+03   -0.80873E-03   -0.85105E-03 13162   0.193E-01    0.258E-02
RMM:   3    -0.699299913326E+03   -0.19152E-03   -0.19900E-03 14993   0.747E-02    0.248E-02
RMM:   4    -0.699299928539E+03   -0.15213E-04   -0.24419E-04 13291   0.265E-02    0.177E-02
RMM:   5    -0.699299927370E+03    0.11696E-05   -0.64283E-05 10037   0.143E-02
  38 F= -.69929993E+03 E0= -.69929544E+03  d E =-.101411E-01
       N       E                     dE             d eps       ncg     rms          rms(c)
DAV:   1    -0.699239361261E+03    0.60567E-01   -0.16885E+01 11053   0.603E+00    0.662E-01
RMM:   2    -0.699294139333E+03   -0.54778E-01   -0.57857E-01 13195   0.159E+00    0.229E-01
RMM:   3    -0.699307149955E+03   -0.13011E-01   -0.13409E-01 15155   0.615E-01    0.203E-01
RMM:   4    -0.699308182770E+03   -0.10328E-02   -0.16267E-02 15520   0.211E-01    0.133E-01
RMM:   5    -0.699308104645E+03    0.78126E-04   -0.32101E-03 14331   0.869E-02    0.412E-02
RMM:   6    -0.699308162095E+03   -0.57450E-04   -0.75286E-04 15050   0.415E-02    0.282E-02
RMM:   7    -0.699308170868E+03   -0.87736E-05   -0.21601E-04 12034   0.190E-02    0.861E-03
RMM:   8    -0.699308176046E+03   -0.51779E-05   -0.59303E-05  9464   0.118E-02
  39 F= -.69930818E+03 E0= -.69930378E+03  d E =-.824868E-02
       N       E                     dE             d eps       ncg     rms          rms(c)
DAV:   1    -0.699307922307E+03    0.24856E-03   -0.10152E-01 11984   0.467E-01    0.495E-02
RMM:   2    -0.699308240828E+03   -0.31852E-03   -0.33571E-03 13146   0.120E-01    0.166E-02
RMM:   3    -0.699308313238E+03   -0.72411E-04   -0.76465E-04 14759   0.462E-02    0.158E-02
RMM:   4    -0.699308318927E+03   -0.56892E-05   -0.10052E-04 11869   0.175E-02    0.109E-02
RMM:   5    -0.699308318785E+03    0.14248E-06   -0.27730E-05  7987   0.998E-03
  40 F= -.69930832E+03 E0= -.69930394E+03  d E =-.839142E-02
       N       E                     dE             d eps       ncg     rms          rms(c)
DAV:   1    -0.699255355419E+03    0.52964E-01   -0.14549E+01 11051   0.560E+00    0.631E-01
RMM:   2    -0.699302088617E+03   -0.46733E-01   -0.50083E-01 13174   0.148E+00    0.221E-01
RMM:   3    -0.699313354697E+03   -0.11266E-01   -0.11708E-01 15126   0.574E-01    0.192E-01
RMM:   4    -0.699314287864E+03   -0.93317E-03   -0.14232E-02 15500   0.197E-01    0.128E-01
RMM:   5    -0.699314192882E+03    0.94981E-04   -0.28248E-03 14211   0.826E-02    0.363E-02
RMM:   6    -0.699314249654E+03   -0.56772E-04   -0.70146E-04 14948   0.403E-02    0.273E-02
RMM:   7    -0.699314256627E+03   -0.69724E-05   -0.19614E-04 11961   0.184E-02    0.835E-03
RMM:   8    -0.699314261142E+03   -0.45154E-05   -0.55556E-05  9405   0.116E-02
  41 F= -.69931426E+03 E0= -.69931012E+03  d E =-.594236E-02
       N       E                     dE             d eps       ncg     rms          rms(c)
DAV:   1    -0.699314211307E+03    0.45320E-04   -0.84415E-03 11216   0.136E-01    0.166E-02
RMM:   2    -0.699314239378E+03   -0.28072E-04   -0.30260E-04 12921   0.368E-02    0.532E-03
RMM:   3    -0.699314244966E+03   -0.55878E-05   -0.66863E-05  8868   0.145E-02
  42 F= -.69931424E+03 E0= -.69931009E+03  d E =-.592618E-02
       N       E                     dE             d eps       ncg     rms          rms(c)
DAV:   1    -0.699314234527E+03    0.48510E-05   -0.58022E-03 11776   0.112E-01    0.142E-02
RMM:   2    -0.699314254906E+03   -0.20379E-04   -0.21866E-04 12728   0.301E-02    0.367E-03
RMM:   3    -0.699314258898E+03   -0.39918E-05   -0.48788E-05  7770   0.123E-02
  43 F= -.69931426E+03 E0= -.69931011E+03  d E =-.594011E-02
       N       E                     dE             d eps       ncg     rms          rms(c)
DAV:   1    -0.699276578646E+03    0.37676E-01   -0.10477E+01 11013   0.477E+00    0.542E-01
RMM:   2    -0.699310082309E+03   -0.33504E-01   -0.35989E-01 13161   0.125E+00    0.176E-01
RMM:   3    -0.699318373276E+03   -0.82910E-02   -0.85670E-02 15188   0.488E-01    0.161E-01
RMM:   4    -0.699319105808E+03   -0.73253E-03   -0.10304E-02 15502   0.166E-01    0.119E-01
RMM:   5    -0.699318992726E+03    0.11308E-03   -0.21156E-03 13768   0.714E-02    0.345E-02
RMM:   6    -0.699319034675E+03   -0.41949E-04   -0.53481E-04 14772   0.356E-02    0.270E-02
RMM:   7    -0.699319036662E+03   -0.19871E-05   -0.15074E-04 11380   0.163E-02    0.763E-03
RMM:   8    -0.699319040232E+03   -0.35699E-05   -0.44667E-05  9154   0.108E-02
  44 F= -.69931904E+03 E0= -.69931517E+03  d E =-.478133E-02
       N       E                     dE             d eps       ncg     rms          rms(c)
DAV:   1    -0.699318977376E+03    0.59286E-04   -0.31847E-02 11816   0.262E-01    0.286E-02
RMM:   2    -0.699319077029E+03   -0.99653E-04   -0.10648E-03 13038   0.681E-02    0.923E-03
RMM:   3    -0.699319101201E+03   -0.24172E-04   -0.25913E-04 13277   0.269E-02    0.911E-03
RMM:   4    -0.699319103334E+03   -0.21329E-05   -0.36448E-05  8004   0.124E-02
  45 F= -.69931910E+03 E0= -.69931525E+03  d E =-.484444E-02
       N       E                     dE             d eps       ncg     rms          rms(c)
DAV:   1    -0.699291565241E+03    0.27536E-01   -0.78781E+00 10941   0.414E+00    0.475E-01
RMM:   2    -0.699316471720E+03   -0.24906E-01   -0.26806E-01 13089   0.108E+00    0.152E-01
RMM:   3    -0.699322689293E+03   -0.62176E-02   -0.64861E-02 15193   0.426E-01    0.138E-01
RMM:   4    -0.699323238424E+03   -0.54913E-03   -0.77668E-03 15493   0.145E-01    0.104E-01
RMM:   5    -0.699323135021E+03    0.10340E-03   -0.16017E-03 13849   0.614E-02    0.293E-02
RMM:   6    -0.699323166497E+03   -0.31476E-04   -0.39736E-04 14136   0.309E-02    0.236E-02
RMM:   7    -0.699323168471E+03   -0.19741E-05   -0.12009E-04 10885   0.151E-02    0.652E-03
RMM:   8    -0.699323171407E+03   -0.29361E-05   -0.35660E-05  8697   0.998E-03
  46 F= -.69932317E+03 E0= -.69931931E+03  d E =-.406807E-02
       N       E                     dE             d eps       ncg     rms          rms(c)
DAV:   1    -0.699323141690E+03    0.26782E-04   -0.17632E-02 12000   0.196E-01    0.208E-02
RMM:   2    -0.699323197300E+03   -0.55611E-04   -0.59474E-04 12917   0.509E-02    0.688E-03
RMM:   3    -0.699323210525E+03   -0.13225E-04   -0.14854E-04 12690   0.204E-02    0.683E-03
RMM:   4    -0.699323211593E+03   -0.10682E-05   -0.22235E-05  6454   0.102E-02
  47 F= -.69932321E+03 E0= -.69931935E+03  d E =-.410826E-02
       N       E                     dE             d eps       ncg     rms          rms(c)
DAV:   1    -0.699297369150E+03    0.25841E-01   -0.73182E+00 10957   0.402E+00    0.440E-01
RMM:   2    -0.699320027080E+03   -0.22658E-01   -0.24306E-01 13079   0.105E+00    0.144E-01
RMM:   3    -0.699325980052E+03   -0.59530E-02   -0.61810E-02 15162   0.418E-01    0.131E-01
RMM:   4    -0.699326509212E+03   -0.52916E-03   -0.70076E-03 15482   0.139E-01    0.101E-01
RMM:   5    -0.699326404314E+03    0.10490E-03   -0.15219E-03 13677   0.603E-02    0.339E-02
RMM:   6    -0.699326427173E+03   -0.22860E-04   -0.35918E-04 14438   0.298E-02    0.250E-02
RMM:   7    -0.699326426299E+03    0.87447E-06   -0.10768E-04 10559   0.141E-02    0.601E-03
RMM:   8    -0.699326428593E+03   -0.22942E-05   -0.29735E-05  8422   0.977E-03
  48 F= -.69932643E+03 E0= -.69932264E+03  d E =-.321700E-02
       N       E                     dE             d eps       ncg     rms          rms(c)
DAV:   1    -0.699326400139E+03    0.26160E-04   -0.17080E-02 11672   0.194E-01    0.192E-02
RMM:   2    -0.699326452827E+03   -0.52688E-04   -0.56212E-04 12909   0.506E-02    0.668E-03
RMM:   3    -0.699326466137E+03   -0.13310E-04   -0.14818E-04 12593   0.205E-02    0.678E-03
RMM:   4    -0.699326467255E+03   -0.11183E-05   -0.21732E-05  6384   0.102E-02
  49 F= -.69932647E+03 E0= -.69932269E+03  d E =-.325566E-02
       N       E                     dE             d eps       ncg     rms          rms(c)
DAV:   1    -0.699302746457E+03    0.23720E-01   -0.67435E+00 11029   0.386E+00    0.427E-01
RMM:   2    -0.699323160898E+03   -0.20414E-01   -0.22020E-01 13014   0.101E+00    0.143E-01
RMM:   3    -0.699328809056E+03   -0.56482E-02   -0.58492E-02 15154   0.409E-01    0.125E-01
RMM:   4    -0.699329335840E+03   -0.52678E-03   -0.67313E-03 15498   0.137E-01    0.970E-02
RMM:   5    -0.699329248220E+03    0.87620E-04   -0.14241E-03 14008   0.580E-02    0.324E-02
RMM:   6    -0.699329269091E+03   -0.20870E-04   -0.33547E-04 13969   0.285E-02    0.233E-02
RMM:   7    -0.699329268841E+03    0.25027E-06   -0.98462E-05 10352   0.138E-02
  50 F= -.69932927E+03 E0= -.69932568E+03  d E =-.280159E-02
       N       E                     dE             d eps       ncg     rms          rms(c)
DAV:   1    -0.699329276629E+03   -0.75386E-05   -0.89531E-04 11752   0.467E-02    0.486E-03
RMM:   2    -0.699329280993E+03   -0.43634E-05   -0.53445E-05  8457   0.166E-02
  51 F= -.69932928E+03 E0= -.69932569E+03  d E =-.281374E-02
       N       E                     dE             d eps       ncg     rms          rms(c)
DAV:   1    -0.699307114729E+03    0.22162E-01   -0.64130E+00 11069   0.378E+00    0.416E-01
RMM:   2    -0.699326436521E+03   -0.19322E-01   -0.20969E-01 13034   0.997E-01    0.138E-01
RMM:   3    -0.699331905649E+03   -0.54691E-02   -0.56309E-02 15082   0.403E-01    0.120E-01
RMM:   4    -0.699332450497E+03   -0.54485E-03   -0.66735E-03 15513   0.137E-01    0.952E-02
RMM:   5    -0.699332370285E+03    0.80213E-04   -0.13073E-03 13720   0.578E-02    0.280E-02
RMM:   6    -0.699332398349E+03   -0.28065E-04   -0.35145E-04 14300   0.293E-02    0.235E-02
RMM:   7    -0.699332397222E+03    0.11275E-05   -0.94464E-05 10439   0.139E-02
  52 F= -.69933240E+03 E0= -.69932889E+03  d E =-.311623E-02
       N       E                     dE             d eps       ncg     rms          rms(c)
DAV:   1    -0.699331932950E+03    0.46540E-03   -0.19359E-01 11904   0.656E-01    0.690E-02
RMM:   2    -0.699332505186E+03   -0.57224E-03   -0.61869E-03 12972   0.170E-01    0.230E-02
RMM:   3    -0.699332669447E+03   -0.16426E-03   -0.17046E-03 15015   0.696E-02    0.220E-02
RMM:   4    -0.699332685197E+03   -0.15749E-04   -0.20050E-04 13087   0.242E-02    0.181E-02
RMM:   5    -0.699332682996E+03    0.22008E-05   -0.57491E-05  9890   0.141E-02
  53 F= -.69933268E+03 E0= -.69932919E+03  d E =-.340200E-02
       N       E                     dE             d eps       ncg     rms          rms(c)
DAV:   1    -0.699330043559E+03    0.26416E-02   -0.76893E-01 11152   0.131E+00    0.147E-01
RMM:   2    -0.699332299237E+03   -0.22557E-02   -0.24585E-02 12988   0.342E-01    0.483E-02
RMM:   3    -0.699332958319E+03   -0.65908E-03   -0.67796E-03 15060   0.139E-01    0.410E-02
RMM:   4    -0.699333024296E+03   -0.65978E-04   -0.80401E-04 15182   0.478E-02    0.326E-02
RMM:   5    -0.699333016849E+03    0.74471E-05   -0.17496E-04 12211   0.216E-02    0.945E-03
RMM:   6    -0.699333019374E+03   -0.25249E-05   -0.40560E-05  9094   0.112E-02
  54 F= -.69933302E+03 E0= -.69932956E+03  d E =-.373838E-02
       N       E                     dE             d eps       ncg     rms          rms(c)
DAV:   1    -0.699325428686E+03    0.75882E-02   -0.25159E+00 11088   0.235E+00    0.266E-01
RMM:   2    -0.699332778325E+03   -0.73496E-02   -0.80419E-02 12937   0.608E-01    0.875E-02
RMM:   3    -0.699334883103E+03   -0.21048E-02   -0.21700E-02 15117   0.247E-01    0.772E-02
RMM:   4    -0.699335095117E+03   -0.21201E-03   -0.25771E-03 15450   0.842E-02    0.616E-02
RMM:   5    -0.699335066940E+03    0.28177E-04   -0.53406E-04 13329   0.359E-02    0.195E-02
RMM:   6    -0.699335075149E+03   -0.82090E-05   -0.12626E-04 11522   0.179E-02    0.152E-02
RMM:   7    -0.699335074401E+03    0.74776E-06   -0.37191E-05  8844   0.101E-02
  55 F= -.69933507E+03 E0= -.69933171E+03  d E =-.205503E-02
       N       E                     dE             d eps       ncg     rms          rms(c)
DAV:   1    -0.699278332867E+03    0.56742E-01   -0.15394E+01 11093   0.582E+00    0.660E-01
RMM:   2    -0.699324739691E+03   -0.46407E-01   -0.50844E-01 13043   0.152E+00    0.217E-01
RMM:   3    -0.699337336685E+03   -0.12597E-01   -0.12976E-01 15100   0.610E-01    0.188E-01
RMM:   4    -0.699338599215E+03   -0.12625E-02   -0.15871E-02 15547   0.209E-01    0.147E-01
RMM:   5    -0.699338432970E+03    0.16625E-03   -0.31204E-03 14079   0.874E-02    0.444E-02
RMM:   6    -0.699338489876E+03   -0.56906E-04   -0.78552E-04 15051   0.430E-02    0.331E-02
RMM:   7    -0.699338492055E+03   -0.21790E-05   -0.21229E-04 12204   0.191E-02    0.106E-02
RMM:   8    -0.699338496847E+03   -0.47921E-05   -0.63023E-05  9590   0.127E-02
  56 F= -.69933850E+03 E0= -.69933535E+03  d E =-.547747E-02
       N       E                     dE             d eps       ncg     rms          rms(c)
DAV:   1    -0.699323159393E+03    0.15333E-01   -0.50456E+00 11312   0.333E+00    0.383E-01
RMM:   2    -0.699338054383E+03   -0.14895E-01   -0.16609E-01 13034   0.875E-01    0.125E-01
RMM:   3    -0.699342330810E+03   -0.42764E-02   -0.44499E-02 15194   0.353E-01    0.112E-01
RMM:   4    -0.699342757767E+03   -0.42696E-03   -0.52344E-03 15488   0.120E-01    0.900E-02
RMM:   5    -0.699342691914E+03    0.65853E-04   -0.10952E-03 13741   0.522E-02    0.270E-02
RMM:   6    -0.699342710319E+03   -0.18404E-04   -0.27812E-04 13752   0.262E-02    0.215E-02
RMM:   7    -0.699342708946E+03    0.13722E-05   -0.76709E-05  9890   0.128E-02
  57 F= -.69934271E+03 E0= -.69933979E+03  d E =-.421210E-02
       N       E                     dE             d eps       ncg     rms          rms(c)
DAV:   1    -0.699203652655E+03    0.13906E+00   -0.35808E+01 10997   0.889E+00    0.104E+00
RMM:   2    -0.699316935511E+03   -0.11328E+00   -0.12640E+00 13364   0.239E+00    0.339E-01
RMM:   3    -0.699346228691E+03   -0.29293E-01   -0.30375E-01 15237   0.929E-01    0.296E-01
RMM:   4    -0.699348998186E+03   -0.27695E-02   -0.36172E-02 15512   0.314E-01    0.228E-01
RMM:   5    -0.699348581053E+03    0.41713E-03   -0.76249E-03 14291   0.136E-01    0.655E-02
RMM:   6    -0.699348705013E+03   -0.12396E-03   -0.18711E-03 15337   0.660E-02    0.459E-02
RMM:   7    -0.699348719202E+03   -0.14189E-04   -0.50600E-04 13741   0.286E-02    0.159E-02
RMM:   8    -0.699348730192E+03   -0.10990E-04   -0.13565E-04 10586   0.171E-02    0.647E-03
RMM:   9    -0.699348733771E+03   -0.35787E-05   -0.47029E-05  9293   0.929E-03
  58 F= -.69934873E+03 E0= -.69934631E+03  d E =-.102369E-01
       N       E                     dE             d eps       ncg     rms          rms(c)
DAV:   1    -0.699347508545E+03    0.12216E-02   -0.75594E-01 11832   0.128E+00    0.151E-01
RMM:   2    -0.699349606721E+03   -0.20982E-02   -0.23654E-02 12979   0.331E-01    0.494E-02
RMM:   3    -0.699350241604E+03   -0.63488E-03   -0.66346E-03 15156   0.135E-01    0.424E-02
RMM:   4    -0.699350305754E+03   -0.64151E-04   -0.77881E-04 14950   0.462E-02    0.339E-02
RMM:   5    -0.699350299872E+03    0.58826E-05   -0.17909E-04 11954   0.216E-02    0.100E-02
RMM:   6    -0.699350301496E+03   -0.16243E-05   -0.38204E-05  9120   0.108E-02
  59 F= -.69935030E+03 E0= -.69934793E+03  d E =-.156773E-02
       N       E                     dE             d eps       ncg     rms          rms(c)
DAV:   1    -0.699328911347E+03    0.21389E-01   -0.67959E+00 10919   0.385E+00    0.461E-01
RMM:   2    -0.699348815249E+03   -0.19904E-01   -0.22422E-01 13088   0.101E+00    0.150E-01
RMM:   3    -0.699354613031E+03   -0.57978E-02   -0.60214E-02 15195   0.410E-01    0.128E-01
RMM:   4    -0.699355202030E+03   -0.58900E-03   -0.71336E-03 15549   0.139E-01    0.101E-01
RMM:   5    -0.699355134611E+03    0.67419E-04   -0.14290E-03 14249   0.589E-02    0.294E-02
RMM:   6    -0.699355158234E+03   -0.23624E-04   -0.35170E-04 14015   0.289E-02    0.218E-02
RMM:   7    -0.699355159586E+03   -0.13515E-05   -0.98002E-05 10360   0.138E-02
  60 F= -.69935516E+03 E0= -.69935291E+03  d E =-.642582E-02
       N       E                     dE             d eps       ncg     rms          rms(c)
DAV:   1    -0.699258479285E+03    0.96679E-01   -0.27199E+01 11087   0.772E+00    0.928E-01
RMM:   2    -0.699343210716E+03   -0.84731E-01   -0.94919E-01 13422   0.205E+00    0.301E-01
RMM:   3    -0.699364851353E+03   -0.21641E-01   -0.22496E-01 15182   0.795E-01    0.251E-01
RMM:   4    -0.699366926350E+03   -0.20750E-02   -0.26750E-02 15569   0.271E-01    0.193E-01
RMM:   5    -0.699366681029E+03    0.24532E-03   -0.56026E-03 14160   0.117E-01    0.575E-02
RMM:   6    -0.699366772405E+03   -0.91376E-04   -0.14232E-03 15471   0.568E-02    0.378E-02
RMM:   7    -0.699366786758E+03   -0.14353E-04   -0.37349E-04 13083   0.243E-02    0.141E-02
RMM:   8    -0.699366794663E+03   -0.79053E-05   -0.10040E-04 10279   0.153E-02    0.459E-03
RMM:   9    -0.699366797698E+03   -0.30345E-05   -0.36762E-05  8794   0.829E-03
  61 F= -.69936680E+03 E0= -.69936470E+03  d E =-.180639E-01
       N       E                     dE             d eps       ncg     rms          rms(c)
DAV:   1    -0.698929349719E+03    0.43744E+00   -0.10931E+02 11053   0.156E+01    0.191E+00
RMM:   2    -0.699290022664E+03   -0.36067E+00   -0.40127E+00 13396   0.429E+00    0.620E-01
RMM:   3    -0.699385400666E+03   -0.95378E-01   -0.98835E-01 15271   0.168E+00    0.504E-01
RMM:   4    -0.699394988086E+03   -0.95874E-02   -0.12338E-01 15495   0.575E-01    0.375E-01
RMM:   5    -0.699394121548E+03    0.86654E-03   -0.22290E-02 14884   0.233E-01    0.883E-02
RMM:   6    -0.699394573919E+03   -0.45237E-03   -0.52499E-03 14853   0.112E-01    0.667E-02
RMM:   7    -0.699394668110E+03   -0.94192E-04   -0.15891E-03 14921   0.531E-02    0.241E-02
RMM:   8    -0.699394703927E+03   -0.35817E-04   -0.38963E-04 11886   0.258E-02    0.131E-02
RMM:   9    -0.699394713158E+03   -0.92308E-05   -0.12746E-04 10350   0.143E-02    0.565E-03
RMM:  10    -0.699394716710E+03   -0.35522E-05   -0.44195E-05  8910   0.834E-03
  62 F= -.69939472E+03 E0= -.69939260E+03  d E =-.459829E-01
       N       E                     dE             d eps       ncg     rms          rms(c)
DAV:   1    -0.697302944715E+03    0.20918E+01   -0.45030E+02 11557   0.324E+01    0.433E+00
RMM:   2    -0.698934505138E+03   -0.16316E+01   -0.17800E+01 13035   0.923E+00    0.132E+00
RMM:   3    -0.699371914223E+03   -0.43741E+00   -0.45118E+00 15409   0.368E+00    0.113E+00
RMM:   4    -0.699412798492E+03   -0.40884E-01   -0.58644E-01 15355   0.127E+00    0.786E-01
RMM:   5    -0.699411712145E+03    0.10863E-02   -0.99296E-02 15392   0.531E-01    0.280E-01
RMM:   6    -0.699413046773E+03   -0.13346E-02   -0.26524E-02 13890   0.278E-01    0.141E-01
RMM:   7    -0.699413724218E+03   -0.67745E-03   -0.92746E-03 15733   0.140E-01    0.495E-02
RMM:   8    -0.699413892837E+03   -0.16862E-03   -0.17774E-03 13826   0.602E-02    0.376E-02
RMM:   9    -0.699413923600E+03   -0.30763E-04   -0.56194E-04 13737   0.319E-02    0.105E-02
RMM:  10    -0.699413939114E+03   -0.15514E-04   -0.17202E-04 10259   0.151E-02    0.679E-03
RMM:  11    -0.699413943898E+03   -0.47841E-05   -0.56786E-05  9252   0.909E-03
  63 F= -.69941394E+03 E0= -.69941068E+03  d E =-.652101E-01
       N       E                     dE             d eps       ncg     rms          rms(c)
DAV:   1    -0.698847564064E+03    0.56638E+00   -0.13229E+02 11005   0.172E+01    0.208E+00
RMM:   2    -0.699282529659E+03   -0.43497E+00   -0.47003E+00 13140   0.466E+00    0.688E-01
RMM:   3    -0.699405340356E+03   -0.12281E+00   -0.12791E+00 15315   0.191E+00    0.628E-01
RMM:   4    -0.699417280271E+03   -0.11940E-01   -0.15260E-01 15437   0.644E-01    0.472E-01
RMM:   5    -0.699416599958E+03    0.68031E-03   -0.28631E-02 14968   0.278E-01    0.115E-01
RMM:   6    -0.699417203010E+03   -0.60305E-03   -0.70444E-03 14036   0.141E-01    0.107E-01
RMM:   7    -0.699417264111E+03   -0.61101E-04   -0.28026E-03 14809   0.734E-02    0.371E-02
RMM:   8    -0.699417311126E+03   -0.47015E-04   -0.51058E-04 13148   0.322E-02    0.270E-02
RMM:   9    -0.699417312542E+03   -0.14164E-05   -0.15072E-04 10803   0.170E-02    0.425E-03
RMM:  10    -0.699417317106E+03   -0.45642E-05   -0.52347E-05  9039   0.969E-03
  64 F= -.69941732E+03 E0= -.69941476E+03  d E =-.685833E-01
       N       E                     dE             d eps       ncg     rms          rms(c)
DAV:   1    -0.699287874431E+03    0.12944E+00   -0.32811E+01 10912   0.851E+00    0.103E+00
RMM:   2    -0.699394203977E+03   -0.10633E+00   -0.11490E+00 13465   0.225E+00    0.344E-01
RMM:   3    -0.699420138409E+03   -0.25934E-01   -0.27192E-01 15281   0.878E-01    0.268E-01
RMM:   4    -0.699422447238E+03   -0.23088E-02   -0.30939E-02 15543   0.295E-01    0.191E-01
RMM:   5    -0.699422306224E+03    0.14101E-03   -0.64969E-03 14296   0.127E-01    0.617E-02
RMM:   6    -0.699422413372E+03   -0.10715E-03   -0.16662E-03 15571   0.613E-02    0.358E-02
RMM:   7    -0.699422440376E+03   -0.27004E-04   -0.44348E-04 13354   0.267E-02    0.135E-02
RMM:   8    -0.699422449623E+03   -0.92469E-05   -0.10909E-04 10439   0.157E-02    0.408E-03
RMM:   9    -0.699422453089E+03   -0.34655E-05   -0.41476E-05  8917   0.862E-03
  65 F= -.69942245E+03 E0= -.69941952E+03  d E =-.737193E-01
       N       E                     dE             d eps       ncg     rms          rms(c)
DAV:   1    -0.699419128689E+03    0.33209E-02   -0.13288E+00 11824   0.171E+00    0.203E-01
RMM:   2    -0.699422950908E+03   -0.38222E-02   -0.41249E-02 12909   0.435E-01    0.698E-02
RMM:   3    -0.699424046416E+03   -0.10955E-02   -0.11557E-02 15185   0.181E-01    0.534E-02
RMM:   4    -0.699424152340E+03   -0.10592E-03   -0.13481E-03 15284   0.614E-02    0.384E-02
RMM:   5    -0.699424149575E+03    0.27650E-05   -0.28062E-04 13075   0.265E-02    0.119E-02
RMM:   6    -0.699424152757E+03   -0.31812E-05   -0.60412E-05 10108   0.129E-02
  66 F= -.69942415E+03 E0= -.69942114E+03  d E =-.169967E-02
       N       E                     dE             d eps       ncg     rms          rms(c)
DAV:   1    -0.699399223969E+03    0.24926E-01   -0.67507E+00 10944   0.385E+00    0.463E-01
RMM:   2    -0.699419708626E+03   -0.20485E-01   -0.22015E-01 13039   0.100E+00    0.160E-01
RMM:   3    -0.699425453717E+03   -0.57451E-02   -0.60469E-02 15215   0.414E-01    0.123E-01
RMM:   4    -0.699426013134E+03   -0.55942E-03   -0.70151E-03 15506   0.140E-01    0.889E-02
RMM:   5    -0.699425989657E+03    0.23477E-04   -0.13669E-03 14467   0.592E-02    0.274E-02
RMM:   6    -0.699426013700E+03   -0.24043E-04   -0.34722E-04 13972   0.286E-02    0.179E-02
RMM:   7    -0.699426018171E+03   -0.44716E-05   -0.96072E-05 10296   0.136E-02
  67 F= -.69942602E+03 E0= -.69942283E+03  d E =-.356508E-02
       N       E                     dE             d eps       ncg     rms          rms(c)
DAV:   1    -0.699429222224E+03   -0.32085E-02   -0.25109E-02 11472   0.237E-01    0.279E-02
RMM:   2    -0.699429317967E+03   -0.95743E-04   -0.10104E-03 13503   0.671E-02    0.972E-03
RMM:   3    -0.699429338866E+03   -0.20899E-04   -0.24066E-04 13562   0.260E-02    0.882E-03
RMM:   4    -0.699429340388E+03   -0.15219E-05   -0.34792E-05  7500   0.124E-02
  68 F= -.69942934E+03 E0= -.69942613E+03  d E =-.332222E-02
       N       E                     dE             d eps       ncg     rms          rms(c)
DAV:   1    -0.699437970588E+03   -0.86317E-02   -0.22379E-01 10658   0.705E-01    0.860E-02
RMM:   2    -0.699438790200E+03   -0.81961E-03   -0.86751E-03 13533   0.195E-01    0.300E-02
RMM:   3    -0.699438962978E+03   -0.17278E-03   -0.19318E-03 15154   0.732E-02    0.254E-02
RMM:   4    -0.699438974092E+03   -0.11114E-04   -0.23338E-04 13546   0.268E-02    0.155E-02
RMM:   5    -0.699438972751E+03    0.13414E-05   -0.56186E-05 10139   0.136E-02
  69 F= -.69943897E+03 E0= -.69943571E+03  d E =-.129546E-01
       N       E                     dE             d eps       ncg     rms          rms(c)
DAV:   1    -0.699452651443E+03   -0.13677E-01   -0.89604E-01 10696   0.141E+00    0.173E-01
RMM:   2    -0.699455949022E+03   -0.32976E-02   -0.34897E-02 13526   0.392E-01    0.601E-02
RMM:   3    -0.699456656389E+03   -0.70737E-03   -0.78503E-03 15344   0.148E-01    0.515E-02
RMM:   4    -0.699456699615E+03   -0.43226E-04   -0.92333E-04 15119   0.520E-02    0.312E-02
RMM:   5    -0.699456695201E+03    0.44139E-05   -0.21483E-04 12968   0.241E-02    0.741E-03
RMM:   6    -0.699456698545E+03   -0.33444E-05   -0.48531E-05  9701   0.121E-02
  70 F= -.69945670E+03 E0= -.69945332E+03  d E =-.306804E-01
       N       E                     dE             d eps       ncg     rms          rms(c)
DAV:   1    -0.699469633893E+03   -0.12939E-01   -0.35833E+00 10648   0.283E+00    0.348E-01
RMM:   2    -0.699482928603E+03   -0.13295E-01   -0.14056E-01 13523   0.790E-01    0.121E-01
RMM:   3    -0.699485813707E+03   -0.28851E-02   -0.32092E-02 15396   0.298E-01    0.104E-01
RMM:   4    -0.699485979955E+03   -0.16625E-03   -0.36965E-03 15370   0.104E-01    0.613E-02
RMM:   5    -0.699485964436E+03    0.15518E-04   -0.83472E-04 14761   0.475E-02    0.148E-02
RMM:   6    -0.699485981131E+03   -0.16694E-04   -0.20806E-04 13228   0.229E-02    0.109E-02
RMM:   7    -0.699485984506E+03   -0.33751E-05   -0.54711E-05  9603   0.114E-02
  71 F= -.69948598E+03 E0= -.69948238E+03  d E =-.599663E-01
       N       E                     dE             d eps       ncg     rms          rms(c)
DAV:   1    -0.699452503270E+03    0.33478E-01   -0.14315E+01 10608   0.565E+00    0.721E-01
RMM:   2    -0.699506799388E+03   -0.54296E-01   -0.57342E-01 13612   0.159E+00    0.247E-01
RMM:   3    -0.699518608640E+03   -0.11809E-01   -0.13144E-01 15409   0.601E-01    0.204E-01
RMM:   4    -0.699519296939E+03   -0.68830E-03   -0.15067E-02 15568   0.207E-01    0.118E-01
RMM:   5    -0.699519253480E+03    0.43459E-04   -0.32773E-03 15013   0.934E-02    0.287E-02
RMM:   6    -0.699519319731E+03   -0.66251E-04   -0.80842E-04 15030   0.444E-02    0.207E-02
RMM:   7    -0.699519335842E+03   -0.16111E-04   -0.21298E-04 12184   0.202E-02    0.102E-02
RMM:   8    -0.699519338863E+03   -0.30212E-05   -0.57680E-05  9507   0.118E-02
  72 F= -.69951934E+03 E0= -.69951535E+03  d E =-.933207E-01
       N       E                     dE             d eps       ncg     rms          rms(c)
DAV:   1    -0.699510341957E+03    0.89939E-02   -0.27610E+00 11128   0.248E+00    0.319E-01
RMM:   2    -0.699520557234E+03   -0.10215E-01   -0.10786E-01 13537   0.690E-01    0.110E-01
RMM:   3    -0.699522732581E+03   -0.21753E-02   -0.24292E-02 15396   0.260E-01    0.912E-02
RMM:   4    -0.699522856054E+03   -0.12347E-03   -0.28239E-03 15262   0.907E-02    0.521E-02
RMM:   5    -0.699522850189E+03    0.58651E-05   -0.63685E-04 14777   0.414E-02    0.125E-02
RMM:   6    -0.699522862486E+03   -0.12297E-04   -0.15552E-04 12658   0.199E-02    0.906E-03
RMM:   7    -0.699522865232E+03   -0.27452E-05   -0.41267E-05  9225   0.103E-02
  73 F= -.69952287E+03 E0= -.69951873E+03  d E =-.968471E-01
       N       E                     dE             d eps       ncg     rms          rms(c)
DAV:   1    -0.699533803404E+03   -0.10941E-01   -0.22719E+00 10536   0.218E+00    0.358E-01
RMM:   2    -0.699541870988E+03   -0.80676E-02   -0.84821E-02 13352   0.570E-01    0.111E-01
RMM:   3    -0.699543387430E+03   -0.15164E-02   -0.17476E-02 15413   0.215E-01    0.776E-02
RMM:   4    -0.699543444524E+03   -0.57095E-04   -0.19268E-03 15134   0.743E-02    0.364E-02
RMM:   5    -0.699543453357E+03   -0.88322E-05   -0.44429E-04 14056   0.329E-02    0.894E-03
RMM:   6    -0.699543461323E+03   -0.79669E-05   -0.97424E-05 10979   0.156E-02
  74 F= -.69954346E+03 E0= -.69953935E+03  d E =-.205961E-01
       N       E                     dE             d eps       ncg     rms          rms(c)
DAV:   1    -0.699534069345E+03    0.93840E-02   -0.90592E+00 10485   0.435E+00    0.713E-01
RMM:   2    -0.699566509379E+03   -0.32440E-01   -0.34115E-01 13368   0.115E+00    0.221E-01
RMM:   3    -0.699572747897E+03   -0.62385E-02   -0.71828E-02 15434   0.435E-01    0.156E-01
RMM:   4    -0.699572985855E+03   -0.23796E-03   -0.79149E-03 15385   0.150E-01    0.728E-02
RMM:   5    -0.699573022741E+03   -0.36886E-04   -0.18095E-03 15106   0.662E-02    0.181E-02
RMM:   6    -0.699573058866E+03   -0.36125E-04   -0.40914E-04 13864   0.305E-02    0.140E-02
RMM:   7    -0.699573069418E+03   -0.10552E-04   -0.11531E-04 10432   0.153E-02    0.638E-03
RMM:   8    -0.699573071006E+03   -0.15881E-05   -0.35160E-05  8920   0.947E-03
  75 F= -.69957307E+03 E0= -.69956904E+03  d E =-.502058E-01
       N       E                     dE             d eps       ncg     rms          rms(c)
DAV:   1    -0.699424000846E+03    0.14907E+00   -0.36207E+01 10468   0.870E+00    0.145E+00
RMM:   2    -0.699557738706E+03   -0.13374E+00   -0.14066E+00 13544   0.232E+00    0.442E-01
RMM:   3    -0.699582589543E+03   -0.24851E-01   -0.28742E-01 15437   0.867E-01    0.311E-01
RMM:   4    -0.699583550126E+03   -0.96058E-03   -0.31770E-02 15432   0.297E-01    0.146E-01
RMM:   5    -0.699583680384E+03   -0.13026E-03   -0.71240E-03 15435   0.130E-01    0.357E-02
RMM:   6    -0.699583821931E+03   -0.14155E-03   -0.15840E-03 15054   0.592E-02    0.272E-02
RMM:   7    -0.699583862849E+03   -0.40917E-04   -0.44164E-04 13047   0.291E-02    0.119E-02
RMM:   8    -0.699583871772E+03   -0.89233E-05   -0.13431E-04 10636   0.161E-02    0.271E-03
RMM:   9    -0.699583875443E+03   -0.36706E-05   -0.45449E-05  9031   0.965E-03
  76 F= -.69958388E+03 E0= -.69958003E+03  d E =-.610102E-01
       N       E                     dE             d eps       ncg     rms          rms(c)
DAV:   1    -0.699567453756E+03    0.16418E-01   -0.46697E+00 10453   0.312E+00    0.524E-01
RMM:   2    -0.699584244827E+03   -0.16791E-01   -0.17731E-01 13340   0.822E-01    0.163E-01
RMM:   3    -0.699587524312E+03   -0.32795E-02   -0.37759E-02 15414   0.313E-01    0.117E-01
RMM:   4    -0.699587653399E+03   -0.12909E-03   -0.40651E-03 15209   0.107E-01    0.613E-02
RMM:   5    -0.699587652572E+03    0.82719E-06   -0.91291E-04 14825   0.473E-02    0.130E-02
RMM:   6    -0.699587669725E+03   -0.17153E-04   -0.20528E-04 12722   0.221E-02    0.962E-03
RMM:   7    -0.699587674890E+03   -0.51650E-05   -0.57174E-05  9535   0.111E-02
  77 F= -.69958767E+03 E0= -.69958376E+03  d E =-.648097E-01
       N       E                     dE             d eps       ncg     rms          rms(c)
DAV:   1    -0.699589645667E+03   -0.19759E-02   -0.46789E+00 11008   0.326E+00    0.367E-01
RMM:   2    -0.699605465704E+03   -0.15820E-01   -0.16779E-01 13415   0.871E-01    0.122E-01
RMM:   3    -0.699608887983E+03   -0.34223E-02   -0.37942E-02 15363   0.332E-01    0.112E-01
RMM:   4    -0.699609033097E+03   -0.14511E-03   -0.42647E-03 15306   0.113E-01    0.589E-02
RMM:   5    -0.699609007023E+03    0.26074E-04   -0.98354E-04 14752   0.515E-02    0.169E-02
RMM:   6    -0.699609025311E+03   -0.18288E-04   -0.23115E-04 13340   0.238E-02    0.124E-02
RMM:   7    -0.699609028976E+03   -0.36645E-05   -0.62874E-05  9644   0.119E-02
  78 F= -.69960903E+03 E0= -.69960504E+03  d E =-.213541E-01
       N       E                     dE             d eps       ncg     rms          rms(c)
DAV:   1    -0.699590873029E+03    0.18152E-01   -0.73912E+00 11208   0.410E+00    0.462E-01
RMM:   2    -0.699615948078E+03   -0.25075E-01   -0.26609E-01 13416   0.110E+00    0.154E-01
RMM:   3    -0.699621481758E+03   -0.55337E-02   -0.61286E-02 15352   0.421E-01    0.141E-01
RMM:   4    -0.699621729370E+03   -0.24761E-03   -0.69214E-03 15370   0.144E-01    0.751E-02
RMM:   5    -0.699621688586E+03    0.40784E-04   -0.16045E-03 14841   0.657E-02    0.210E-02
RMM:   6    -0.699621719310E+03   -0.30725E-04   -0.37926E-04 14339   0.302E-02    0.157E-02
RMM:   7    -0.699621725704E+03   -0.63932E-05   -0.10413E-04 10459   0.147E-02    0.841E-03
RMM:   8    -0.699621726538E+03   -0.83484E-06   -0.29115E-05  8500   0.912E-03
  79 F= -.69962173E+03 E0= -.69961767E+03  d E =-.340516E-01
       N       E                     dE             d eps       ncg     rms          rms(c)
DAV:   1    -0.699620040145E+03    0.16856E-02   -0.59460E-01 11456   0.116E+00    0.132E-01
RMM:   2    -0.699622022051E+03   -0.19819E-02   -0.21042E-02 13403   0.306E-01    0.431E-02
RMM:   3    -0.699622444690E+03   -0.42264E-03   -0.46885E-03 15287   0.117E-01    0.398E-02
RMM:   4    -0.699622463889E+03   -0.19199E-04   -0.54090E-04 14845   0.404E-02    0.211E-02
RMM:   5    -0.699622460818E+03    0.30707E-05   -0.13075E-04 11851   0.190E-02    0.605E-03
RMM:   6    -0.699622462540E+03   -0.17219E-05   -0.27814E-05  8512   0.968E-03
  80 F= -.69962246E+03 E0= -.69961838E+03  d E =-.347877E-01
       N       E                     dE             d eps       ncg     rms          rms(c)
DAV:   1    -0.699616534362E+03    0.59265E-02   -0.53865E+00 11255   0.352E+00    0.339E-01
RMM:   2    -0.699634025116E+03   -0.17491E-01   -0.18274E-01 13314   0.939E-01    0.115E-01
RMM:   3    -0.699638147123E+03   -0.41220E-02   -0.43702E-02 15145   0.363E-01    0.109E-01
RMM:   4    -0.699638407763E+03   -0.26064E-03   -0.51141E-03 15276   0.124E-01    0.633E-02
RMM:   5    -0.699638376618E+03    0.31145E-04   -0.10817E-03 14771   0.545E-02    0.177E-02
RMM:   6    -0.699638396496E+03   -0.19878E-04   -0.24360E-04 13564   0.249E-02    0.135E-02
RMM:   7    -0.699638399793E+03   -0.32967E-05   -0.65208E-05  9799   0.125E-02
  81 F= -.69963840E+03 E0= -.69963427E+03  d E =-.159373E-01
       N       E                     dE             d eps       ncg     rms          rms(c)
DAV:   1    -0.699631159738E+03    0.72368E-02   -0.35070E+00 11480   0.284E+00    0.271E-01
RMM:   2    -0.699642396283E+03   -0.11237E-01   -0.11742E-01 13305   0.752E-01    0.922E-02
RMM:   3    -0.699645014350E+03   -0.26181E-02   -0.27812E-02 15133   0.290E-01    0.882E-02
RMM:   4    -0.699645176607E+03   -0.16226E-03   -0.32647E-03 15191   0.990E-02    0.508E-02
RMM:   5    -0.699645156580E+03    0.20027E-04   -0.69955E-04 14646   0.438E-02    0.146E-02
RMM:   6    -0.699645168566E+03   -0.11986E-04   -0.15336E-04 12602   0.201E-02    0.107E-02
RMM:   7    -0.699645170731E+03   -0.21650E-05   -0.42072E-05  9101   0.106E-02
  82 F= -.69964517E+03 E0= -.69964101E+03  d E =-.227082E-01
       N       E                     dE             d eps       ncg     rms          rms(c)
DAV:   1    -0.699584653580E+03    0.60515E-01   -0.14006E+01 11255   0.568E+00    0.546E-01
RMM:   2    -0.699630633924E+03   -0.45980E-01   -0.48051E-01 13311   0.153E+00    0.186E-01
RMM:   3    -0.699641996724E+03   -0.11363E-01   -0.12028E-01 15151   0.598E-01    0.177E-01
RMM:   4    -0.699642736630E+03   -0.73991E-03   -0.13960E-02 15353   0.203E-01    0.104E-01
RMM:   5    -0.699642648091E+03    0.88539E-04   -0.28728E-03 14925   0.889E-02    0.280E-02
RMM:   6    -0.699642703751E+03   -0.55661E-04   -0.65623E-04 15015   0.404E-02    0.225E-02
RMM:   7    -0.699642713324E+03   -0.95722E-05   -0.17934E-04 12306   0.194E-02    0.120E-02
RMM:   8    -0.699642715422E+03   -0.20983E-05   -0.45712E-05  8904   0.108E-02
  83 F= -.69964272E+03 E0= -.69963849E+03  d E =-.202529E-01
       N       E                     dE             d eps       ncg     rms          rms(c)
DAV:   1    -0.699622102149E+03    0.20611E-01   -0.60794E+00 11207   0.374E+00    0.365E-01
RMM:   2    -0.699641851995E+03   -0.19750E-01   -0.20659E-01 13353   0.993E-01    0.122E-01
RMM:   3    -0.699646462764E+03   -0.46108E-02   -0.48828E-02 15138   0.383E-01    0.115E-01
RMM:   4    -0.699646743911E+03   -0.28115E-03   -0.56325E-03 15275   0.129E-01    0.656E-02
RMM:   5    -0.699646710343E+03    0.33568E-04   -0.11578E-03 14782   0.559E-02    0.191E-02
RMM:   6    -0.699646729384E+03   -0.19042E-04   -0.24914E-04 13652   0.254E-02    0.137E-02
RMM:   7    -0.699646733012E+03   -0.36279E-05   -0.68915E-05  9920   0.127E-02
  84 F= -.69964673E+03 E0= -.69964255E+03  d E =-.242705E-01
       N       E                     dE             d eps       ncg     rms          rms(c)
DAV:   1    -0.699635861044E+03    0.10868E-01   -0.66182E+00 11271   0.392E+00    0.365E-01
RMM:   2    -0.699656026804E+03   -0.20166E-01   -0.21107E-01 13198   0.103E+00    0.125E-01
RMM:   3    -0.699661438915E+03   -0.54121E-02   -0.56202E-02 15084   0.412E-01    0.114E-01
RMM:   4    -0.699661868983E+03   -0.43007E-03   -0.66532E-03 15347   0.140E-01    0.720E-02
RMM:   5    -0.699661831846E+03    0.37138E-04   -0.12650E-03 14651   0.602E-02    0.193E-02
RMM:   6    -0.699661859309E+03   -0.27464E-04   -0.32355E-04 14019   0.283E-02    0.164E-02
RMM:   7    -0.699661862398E+03   -0.30883E-05   -0.78963E-05 10283   0.135E-02
  85 F= -.69966186E+03 E0= -.69965766E+03  d E =-.151294E-01
       N       E                     dE             d eps       ncg     rms          rms(c)
DAV:   1    -0.699633226297E+03    0.28633E-01   -0.96106E+00 11472   0.472E+00    0.433E-01
RMM:   2    -0.699662672531E+03   -0.29446E-01   -0.30810E-01 13200   0.125E+00    0.151E-01
RMM:   3    -0.699670737270E+03   -0.80647E-02   -0.83787E-02 15080   0.502E-01    0.140E-01
RMM:   4    -0.699671386106E+03   -0.64884E-03   -0.99558E-03 15368   0.171E-01    0.886E-02
RMM:   5    -0.699671329187E+03    0.56919E-04   -0.18943E-03 14712   0.735E-02    0.232E-02
RMM:   6    -0.699671371367E+03   -0.42180E-04   -0.48534E-04 14751   0.345E-02    0.204E-02
RMM:   7    -0.699671376430E+03   -0.50621E-05   -0.12141E-04 11385   0.161E-02    0.877E-03
RMM:   8    -0.699671378706E+03   -0.22762E-05   -0.33624E-05  8355   0.953E-03
  86 F= -.69967138E+03 E0= -.69966716E+03  d E =-.246457E-01
       N       E                     dE             d eps       ncg     rms          rms(c)
DAV:   1    -0.699665537216E+03    0.58392E-02   -0.18306E+00 11808   0.206E+00    0.189E-01
RMM:   2    -0.699670987167E+03   -0.54500E-02   -0.56992E-02 13179   0.535E-01    0.652E-02
RMM:   3    -0.699672411059E+03   -0.14239E-02   -0.14802E-02 15057   0.213E-01    0.597E-02
RMM:   4    -0.699672525088E+03   -0.11403E-03   -0.17675E-03 15238   0.726E-02    0.374E-02
RMM:   5    -0.699672516780E+03    0.83079E-05   -0.35644E-04 13753   0.315E-02    0.111E-02
RMM:   6    -0.699672522762E+03   -0.59818E-05   -0.81777E-05 10868   0.153E-02
  87 F= -.69967252E+03 E0= -.69966831E+03  d E =-.257897E-01
       N       E                     dE             d eps       ncg     rms          rms(c)
DAV:   1    -0.699646440798E+03    0.26076E-01   -0.10130E+01 11294   0.482E+00    0.458E-01
RMM:   2    -0.699677407604E+03   -0.30967E-01   -0.32505E-01 13140   0.127E+00    0.160E-01
RMM:   3    -0.699685629226E+03   -0.82216E-02   -0.86090E-02 15079   0.509E-01    0.149E-01
RMM:   4    -0.699686239120E+03   -0.60989E-03   -0.10440E-02 15338   0.175E-01    0.903E-02
RMM:   5    -0.699686199963E+03    0.39157E-04   -0.20857E-03 14904   0.757E-02    0.234E-02
RMM:   6    -0.699686245289E+03   -0.45326E-04   -0.50504E-04 14718   0.348E-02    0.194E-02
RMM:   7    -0.699686252095E+03   -0.68063E-05   -0.12905E-04 11280   0.166E-02    0.845E-03
RMM:   8    -0.699686254542E+03   -0.24463E-05   -0.35783E-05  8401   0.980E-03
  88 F= -.69968625E+03 E0= -.69968202E+03  d E =-.137318E-01
       N       E                     dE             d eps       ncg     rms          rms(c)
DAV:   1    -0.699680496186E+03    0.57559E-02   -0.22696E+00 11616   0.228E+00    0.216E-01
RMM:   2    -0.699687290509E+03   -0.67943E-02   -0.71278E-02 13168   0.589E-01    0.752E-02
RMM:   3    -0.699688966184E+03   -0.16757E-02   -0.17606E-02 15059   0.232E-01    0.692E-02
RMM:   4    -0.699689086063E+03   -0.11988E-03   -0.21527E-03 15190   0.801E-02    0.406E-02
RMM:   5    -0.699689081235E+03    0.48279E-05   -0.45350E-04 14179   0.353E-02    0.112E-02
RMM:   6    -0.699689089503E+03   -0.82675E-05   -0.10442E-04 11456   0.168E-02    0.825E-03
RMM:   7    -0.699689091099E+03   -0.15958E-05   -0.27553E-05  8565   0.921E-03
  89 F= -.69968909E+03 E0= -.69968485E+03  d E =-.165683E-01
       N       E                     dE             d eps       ncg     rms          rms(c)
DAV:   1    -0.699652263558E+03    0.36826E-01   -0.90739E+00 11262   0.456E+00    0.432E-01
RMM:   2    -0.699679938849E+03   -0.27675E-01   -0.29047E-01 13175   0.119E+00    0.152E-01
RMM:   3    -0.699687163302E+03   -0.72245E-02   -0.75754E-02 15081   0.477E-01    0.141E-01
RMM:   4    -0.699687689598E+03   -0.52630E-03   -0.91922E-03 15326   0.164E-01    0.834E-02
RMM:   5    -0.699687662091E+03    0.27507E-04   -0.18471E-03 14913   0.711E-02    0.219E-02
RMM:   6    -0.699687701407E+03   -0.39315E-04   -0.44172E-04 14534   0.325E-02    0.176E-02
RMM:   7    -0.699687707747E+03   -0.63398E-05   -0.11257E-04 10915   0.156E-02    0.775E-03
RMM:   8    -0.699687709824E+03   -0.20778E-05   -0.31569E-05  8300   0.939E-03
  90 F= -.69968771E+03 E0= -.69968346E+03  d E =-.151871E-01
       N       E                     dE             d eps       ncg     rms          rms(c)
DAV:   1    -0.699671909579E+03    0.15798E-01   -0.45873E+00 11215   0.324E+00    0.310E-01
RMM:   2    -0.699685950287E+03   -0.14041E-01   -0.14748E-01 13235   0.845E-01    0.107E-01
RMM:   3    -0.699689429794E+03   -0.34795E-02   -0.36524E-02 15048   0.333E-01    0.991E-02
RMM:   4    -0.699689675868E+03   -0.24607E-03   -0.44553E-03 15284   0.115E-01    0.573E-02
RMM:   5    -0.699689663125E+03    0.12744E-04   -0.86945E-04 14696   0.489E-02    0.155E-02
RMM:   6    -0.699689679834E+03   -0.16709E-04   -0.20240E-04 13041   0.227E-02    0.117E-02
RMM:   7    -0.699689682452E+03   -0.26182E-05   -0.50823E-05  9372   0.114E-02
  91 F= -.69968968E+03 E0= -.69968544E+03  d E =-.171597E-01
       N       E                     dE             d eps       ncg     rms          rms(c)
DAV:   1    -0.699674545185E+03    0.15135E-01   -0.60367E+00 11263   0.375E+00    0.343E-01
RMM:   2    -0.699693151408E+03   -0.18606E-01   -0.19442E-01 13204   0.101E+00    0.119E-01
RMM:   3    -0.699698231428E+03   -0.50800E-02   -0.52796E-02 15087   0.402E-01    0.111E-01
RMM:   4    -0.699698630415E+03   -0.39899E-03   -0.62318E-03 15303   0.136E-01    0.710E-02
RMM:   5    -0.699698586898E+03    0.43516E-04   -0.12348E-03 14876   0.597E-02    0.178E-02
RMM:   6    -0.699698614797E+03   -0.27898E-04   -0.32200E-04 13839   0.281E-02    0.167E-02
RMM:   7    -0.699698616579E+03   -0.17817E-05   -0.74084E-05 10311   0.138E-02
  92 F= -.69969862E+03 E0= -.69969442E+03  d E =-.893413E-02
       N       E                     dE             d eps       ncg     rms          rms(c)
DAV:   1    -0.699694488017E+03    0.41268E-02   -0.15710E+00 11616   0.191E+00    0.169E-01
RMM:   2    -0.699699249784E+03   -0.47618E-02   -0.49703E-02 13194   0.505E-01    0.600E-02
RMM:   3    -0.699700481073E+03   -0.12313E-02   -0.12861E-02 15049   0.200E-01    0.572E-02
RMM:   4    -0.699700576065E+03   -0.94992E-04   -0.15496E-03 15137   0.683E-02    0.361E-02
RMM:   5    -0.699700565315E+03    0.10750E-04   -0.32737E-04 13839   0.305E-02    0.968E-03
RMM:   6    -0.699700571464E+03   -0.61490E-05   -0.77561E-05 10703   0.148E-02
  93 F= -.69970057E+03 E0= -.69969640E+03  d E =-.108890E-01
[...]
  99 F= -.69971488E+03 E0= -.69971062E+03  d E =-.565597E-02
       N       E                     dE             d eps       ncg     rms          rms(c)
DAV:   1    -0.699714100467E+03    0.77410E-03   -0.31206E-01 11864   0.850E-01    0.762E-02
RMM:   2    -0.699715044141E+03   -0.94367E-03   -0.98505E-03 12957   0.220E-01    0.268E-02
RMM:   3    -0.699715284586E+03   -0.24044E-03   -0.25355E-03 14882   0.884E-02    0.271E-02
RMM:   4    -0.699715304751E+03   -0.20165E-04   -0.31159E-04 13987   0.305E-02    0.190E-02
RMM:   5    -0.699715302429E+03    0.23222E-05   -0.82909E-05 10669   0.161E-02
 100 F= -.69971530E+03 E0= -.69971106E+03  d E =-.608285E-02
       N       E                     dE             d eps       ncg     rms          rms(c)
DAV:   1    -0.699706863132E+03    0.84416E-02   -0.30727E+00 11269   0.266E+00    0.266E-01
RMM:   2    -0.699716437525E+03   -0.95744E-02   -0.10018E-01 12936   0.691E-01    0.885E-02
RMM:   3    -0.699718815940E+03   -0.23784E-02   -0.25033E-02 15064   0.277E-01    0.853E-02
RMM:   4    -0.699718997709E+03   -0.18177E-03   -0.29272E-03 15240   0.919E-02    0.579E-02
RMM:   5    -0.699718964072E+03    0.33637E-04   -0.66360E-04 14096   0.411E-02    0.213E-02
RMM:   6    -0.699718973320E+03   -0.92485E-05   -0.14582E-04 12355   0.195E-02    0.156E-02
RMM:   7    -0.699718973612E+03   -0.29145E-06   -0.48529E-05  9225   0.111E-02
 101 F= -.69971897E+03 E0= -.69971475E+03  d E =-.367118E-02
       N       E                     dE             d eps       ncg     rms          rms(c)
DAV:   1    -0.699718766494E+03    0.20683E-03   -0.11485E-01 12104   0.514E-01    0.484E-02
RMM:   2    -0.699719126025E+03   -0.35953E-03   -0.37593E-03 12945   0.133E-01    0.169E-02
RMM:   3    -0.699719214502E+03   -0.88477E-04   -0.94720E-04 14801   0.536E-02    0.171E-02
RMM:   4    -0.699719221946E+03   -0.74438E-05   -0.11913E-04 12307   0.192E-02    0.119E-02
RMM:   5    -0.699719220882E+03    0.10634E-05   -0.36865E-05  8897   0.119E-02
 102 F= -.69971922E+03 E0= -.69971500E+03  d E =-.391845E-02
       N       E                     dE             d eps       ncg     rms          rms(c)
DAV:   1    -0.699717456797E+03    0.17651E-02   -0.45770E-01 11288   0.103E+00    0.104E-01
RMM:   2    -0.699718885595E+03   -0.14288E-02   -0.14949E-02 12937   0.267E-01    0.342E-02
RMM:   3    -0.699719245892E+03   -0.36030E-03   -0.37763E-03 15013   0.107E-01    0.327E-02
RMM:   4    -0.699719274533E+03   -0.28641E-04   -0.44773E-04 14726   0.363E-02    0.225E-02
RMM:   5    -0.699719270440E+03    0.40931E-05   -0.11320E-04 11272   0.180E-02    0.882E-03
RMM:   6    -0.699719271480E+03   -0.10392E-05   -0.23973E-05  7810   0.892E-03
 103 F= -.69971927E+03 E0= -.69971505E+03  d E =-.396905E-02
       N       E                     dE             d eps       ncg     rms          rms(c)
DAV:   1    -0.699718811544E+03    0.45890E-03   -0.13055E-01 11224   0.548E-01    0.556E-02
RMM:   2    -0.699719212081E+03   -0.40054E-03   -0.41987E-03 12922   0.142E-01    0.184E-02
RMM:   3    -0.699719311176E+03   -0.99095E-04   -0.10511E-03 14845   0.570E-02    0.168E-02
RMM:   4    -0.699719319216E+03   -0.80402E-05   -0.12797E-04 12462   0.202E-02    0.114E-02
RMM:   5    -0.699719318106E+03    0.11103E-05   -0.34530E-05  8767   0.121E-02
 104 F= -.69971932E+03 E0= -.69971510E+03  d E =-.401568E-02
       N       E                     dE             d eps       ncg     rms          rms(c)
DAV:   1    -0.699709783793E+03    0.95354E-02   -0.31429E+00 11141   0.269E+00    0.263E-01
RMM:   2    -0.699719235335E+03   -0.94515E-02   -0.98472E-02 12853   0.688E-01    0.861E-02
RMM:   3    -0.699721661348E+03   -0.24260E-02   -0.25193E-02 14922   0.278E-01    0.826E-02
RMM:   4    -0.699721878736E+03   -0.21739E-03   -0.30971E-03 15409   0.942E-02    0.607E-02
RMM:   5    -0.699721846255E+03    0.32481E-04   -0.65210E-04 14049   0.397E-02    0.252E-02
RMM:   6    -0.699721852627E+03   -0.63719E-05   -0.13390E-04 12053   0.189E-02    0.173E-02
RMM:   7    -0.699721852389E+03    0.23718E-06   -0.50127E-05  9253   0.111E-02
 105 F= -.69972185E+03 E0= -.69971759E+03  d E =-.253428E-02
       N       E                     dE             d eps       ncg     rms          rms(c)
DAV:   1    -0.699721705605E+03    0.14702E-03   -0.73930E-02 11992   0.412E-01    0.367E-02
RMM:   2    -0.699721931489E+03   -0.22588E-03   -0.23531E-03 12853   0.106E-01    0.131E-02
RMM:   3    -0.699721988773E+03   -0.57284E-04   -0.61065E-04 14484   0.432E-02    0.136E-02
RMM:   4    -0.699721994147E+03   -0.53739E-05   -0.80433E-05 11197   0.165E-02
 106 F= -.69972199E+03 E0= -.69971773E+03  d E =-.267604E-02
       N       E                     dE             d eps       ncg     rms          rms(c)
DAV:   1    -0.699719393999E+03    0.25948E-02   -0.10091E+00 10887   0.152E+00    0.160E-01
RMM:   2    -0.699722709755E+03   -0.33158E-02   -0.34708E-02 13149   0.399E-01    0.511E-02
RMM:   3    -0.699723461580E+03   -0.75182E-03   -0.80391E-03 15209   0.155E-01    0.507E-02
RMM:   4    -0.699723507047E+03   -0.45467E-04   -0.91125E-04 15021   0.519E-02    0.310E-02
RMM:   5    -0.699723499589E+03    0.74581E-05   -0.23694E-04 12637   0.249E-02    0.113E-02
RMM:   6    -0.699723502005E+03   -0.24162E-05   -0.44676E-05  9380   0.117E-02
 107 F= -.69972350E+03 E0= -.69971925E+03  d E =-.150786E-02
       N       E                     dE             d eps       ncg     rms          rms(c)
DAV:   1    -0.699723488257E+03    0.11332E-04   -0.16511E-02 12048   0.196E-01    0.187E-02
RMM:   2    -0.699723549565E+03   -0.61308E-04   -0.64445E-04 13082   0.554E-02    0.691E-03
RMM:   3    -0.699723563036E+03   -0.13472E-04   -0.15587E-04 12766   0.222E-02    0.782E-03
RMM:   4    -0.699723564040E+03   -0.10041E-05   -0.25915E-05  6264   0.116E-02
 108 F= -.69972356E+03 E0= -.69971932E+03  d E =-.156989E-02
       N       E                     dE             d eps       ncg     rms          rms(c)
DAV:   1    -0.699722475731E+03    0.10873E-02   -0.48378E-01 11024   0.104E+00    0.106E-01
RMM:   2    -0.699723953897E+03   -0.14782E-02   -0.15473E-02 12838   0.267E-01    0.343E-02
RMM:   3    -0.699724321911E+03   -0.36801E-03   -0.38803E-03 14991   0.107E-01    0.341E-02
RMM:   4    -0.699724349686E+03   -0.27775E-04   -0.45691E-04 14621   0.362E-02    0.228E-02
RMM:   5    -0.699724346273E+03    0.34126E-05   -0.11524E-04 11136   0.178E-02    0.102E-02
RMM:   6    -0.699724347045E+03   -0.77207E-06   -0.24355E-05  7922   0.884E-03
 109 F= -.69972435E+03 E0= -.69972008E+03  d E =-.783005E-03
       N       E                     dE             d eps       ncg     rms          rms(c)
DAV:   1    -0.699724297764E+03    0.48509E-04   -0.41205E-02 11776   0.304E-01    0.288E-02
RMM:   2    -0.699724428953E+03   -0.13119E-03   -0.13726E-03 12869   0.764E-02    0.102E-02
RMM:   3    -0.699724455947E+03   -0.26994E-04   -0.30084E-04 13707   0.302E-02    0.111E-02
RMM:   4    -0.699724457538E+03   -0.15903E-05   -0.41012E-05  8635   0.127E-02
 110 F= -.69972446E+03 E0= -.69972019E+03  d E =-.893497E-03
       N       E                     dE             d eps       ncg     rms          rms(c)
DAV:   1    -0.699723887340E+03    0.56861E-03   -0.16189E-01 11184   0.601E-01    0.623E-02
RMM:   2    -0.699724380705E+03   -0.49337E-03   -0.51588E-03 12837   0.153E-01    0.199E-02
RMM:   3    -0.699724501579E+03   -0.12087E-03   -0.12753E-03 14861   0.616E-02    0.190E-02
RMM:   4    -0.699724510891E+03   -0.93125E-05   -0.15437E-04 12441   0.214E-02    0.122E-02
RMM:   5    -0.699724510794E+03    0.97047E-07   -0.46008E-05  9407   0.129E-02
 111 F= -.69972451E+03 E0= -.69972023E+03  d E =-.946754E-03
       N       E                     dE             d eps       ncg     rms          rms(c)
DAV:   1    -0.699724362730E+03    0.14816E-03   -0.40663E-02 10968   0.301E-01    0.288E-02
RMM:   2    -0.699724485392E+03   -0.12266E-03   -0.12854E-03 12864   0.752E-02    0.100E-02
RMM:   3    -0.699724510918E+03   -0.25526E-04   -0.28594E-04 13706   0.298E-02    0.104E-02
RMM:   4    -0.699724512357E+03   -0.14394E-05   -0.36387E-05  7738   0.123E-02
 112 F= -.69972451E+03 E0= -.69972023E+03  d E =-.948317E-03
       N       E                     dE             d eps       ncg     rms          rms(c)
DAV:   1    -0.699724468520E+03    0.42398E-04   -0.13273E-02 11044   0.173E-01    0.163E-02
RMM:   2    -0.699724511768E+03   -0.43248E-04   -0.45342E-04 12771   0.432E-02    0.581E-03
RMM:   3    -0.699724518838E+03   -0.70703E-05   -0.91611E-05 11664   0.173E-02
 113 F= -.69972452E+03 E0= -.69972024E+03  d E =-.954798E-03
       N       E                     dE             d eps       ncg     rms          rms(c)
DAV:   1    -0.699724504758E+03    0.70100E-05   -0.32297E-03 11160   0.853E-02    0.109E-02
RMM:   2    -0.699724516446E+03   -0.11688E-04   -0.12206E-04 11214   0.221E-02    0.288E-03
RMM:   3    -0.699724517933E+03   -0.14867E-05   -0.25870E-05  6645   0.102E-02
 114 F= -.69972452E+03 E0= -.69972024E+03  d E =-.953893E-03
       N       E                     dE             d eps       ncg     rms          rms(c)
DAV:   1    -0.699724516199E+03    0.24707E-06   -0.72505E-04 10855   0.405E-02    0.552E-03
RMM:   2    -0.699724518879E+03   -0.26795E-05   -0.28259E-05  7835   0.108E-02
 115 F= -.69972452E+03 E0= -.69972024E+03  d E =-.954839E-03
       N       E                     dE             d eps       ncg     rms          rms(c)
DAV:   1    -0.699724518771E+03   -0.25716E-05   -0.14806E-04 11150   0.181E-02    0.213E-03
RMM:   2    -0.699724519176E+03   -0.40539E-06   -0.44383E-06  5352   0.421E-03
 116 F= -.69972452E+03 E0= -.69972024E+03  d E =-.955136E-03
       N       E                     dE             d eps       ncg     rms          rms(c)
DAV:   1    -0.699723731690E+03    0.78708E-03   -0.32763E-01 11230   0.859E-01    0.862E-02
RMM:   2    -0.699724695478E+03   -0.96379E-03   -0.10058E-02 12754   0.216E-01    0.285E-02
RMM:   3    -0.699724944660E+03   -0.24918E-03   -0.25739E-03 14853   0.881E-02    0.266E-02
RMM:   4    -0.699724964893E+03   -0.20233E-04   -0.31130E-04 13691   0.305E-02    0.183E-02
RMM:   5    -0.699724963644E+03    0.12489E-05   -0.79311E-05 10400   0.160E-02
 117 F= -.69972496E+03 E0= -.69972069E+03  d E =-.444468E-03
       N       E                     dE             d eps       ncg     rms          rms(c)
DAV:   1    -0.699724652777E+03    0.31212E-03   -0.11437E-01 11536   0.508E-01    0.542E-02
RMM:   2    -0.699724997214E+03   -0.34444E-03   -0.35980E-03 12757   0.131E-01    0.173E-02
RMM:   3    -0.699725090501E+03   -0.93287E-04   -0.96033E-04 14804   0.536E-02    0.151E-02
RMM:   4    -0.699725099093E+03   -0.85923E-05   -0.12159E-04 12414   0.191E-02    0.108E-02
RMM:   5    -0.699725098693E+03    0.40048E-06   -0.31814E-05  8323   0.114E-02
 118 F= -.69972510E+03 E0= -.69972084E+03  d E =-.579517E-03
       N       E                     dE             d eps       ncg     rms          rms(c)
DAV:   1    -0.699723354338E+03    0.17448E-02   -0.45580E-01 11285   0.101E+00    0.104E-01
RMM:   2    -0.699724696654E+03   -0.13423E-02   -0.14011E-02 12749   0.256E-01    0.337E-02
RMM:   3    -0.699725050391E+03   -0.35374E-03   -0.36319E-03 14843   0.105E-01    0.308E-02
RMM:   4    -0.699725080703E+03   -0.30312E-04   -0.44999E-04 14602   0.363E-02    0.212E-02
RMM:   5    -0.699725079238E+03    0.14651E-05   -0.10490E-04 10788   0.171E-02    0.894E-03
RMM:   6    -0.699725080016E+03   -0.77790E-06   -0.22800E-05  7546   0.861E-03
 119 F= -.69972508E+03 E0= -.69972083E+03  d E =-.560840E-03
       N       E                     dE             d eps       ncg     rms          rms(c)
DAV:   1    -0.699724257396E+03    0.82184E-03   -0.23420E-01 11206   0.726E-01    0.747E-02
RMM:   2    -0.699724939993E+03   -0.68260E-03   -0.71334E-03 12740   0.184E-01    0.245E-02
RMM:   3    -0.699725118771E+03   -0.17878E-03   -0.18498E-03 14833   0.752E-02    0.215E-02
RMM:   4    -0.699725133516E+03   -0.14745E-04   -0.22413E-04 13011   0.261E-02    0.146E-02
RMM:   5    -0.699725133036E+03    0.48029E-06   -0.57092E-05  9868   0.147E-02
 120 F= -.69972513E+03 E0= -.69972087E+03  d E =-.613859E-03
       N       E                     dE             d eps       ncg     rms          rms(c)
DAV:   1    -0.699724922429E+03    0.21109E-03   -0.58547E-02 11240   0.363E-01    0.343E-02
RMM:   2    -0.699725091413E+03   -0.16898E-03   -0.17648E-03 12734   0.891E-02    0.121E-02
RMM:   3    -0.699725130014E+03   -0.38601E-04   -0.41670E-04 14420   0.359E-02    0.116E-02
RMM:   4    -0.699725132302E+03   -0.22875E-05   -0.50300E-05  9146   0.134E-02
 121 F= -.69972513E+03 E0= -.69972088E+03  d E =-.613125E-03
       N       E                     dE             d eps       ncg     rms          rms(c)
DAV:   1    -0.699725067551E+03    0.62463E-04   -0.18773E-02 11192   0.207E-01    0.196E-02
RMM:   2    -0.699725127042E+03   -0.59491E-04   -0.62184E-04 12840   0.519E-02    0.671E-03
RMM:   3    -0.699725139216E+03   -0.12175E-04   -0.13882E-04 12739   0.209E-02    0.724E-03
RMM:   4    -0.699725139832E+03   -0.61530E-06   -0.17988E-05  6191   0.933E-03
 122 F= -.69972514E+03 E0= -.69972088E+03  d E =-.620655E-03
       N       E                     dE             d eps       ncg     rms          rms(c)
DAV:   1    -0.699725118565E+03    0.20651E-04   -0.46887E-03 11272   0.103E-01    0.972E-03
RMM:   2    -0.699725134968E+03   -0.16403E-04   -0.17141E-04 12133   0.276E-02    0.358E-03
RMM:   3    -0.699725137316E+03   -0.23487E-05   -0.38257E-05  7096   0.118E-02
 123 F= -.69972514E+03 E0= -.69972088E+03  d E =-.618140E-03
       N       E                     dE             d eps       ncg     rms          rms(c)
DAV:   1    -0.699725132869E+03    0.20988E-05   -0.17763E-03 11072   0.638E-02    0.798E-03
RMM:   2    -0.699725139622E+03   -0.67530E-05   -0.71100E-05  9575   0.175E-02
 124 F= -.69972514E+03 E0= -.69972088E+03  d E =-.620446E-03
       N       E                     dE             d eps       ncg     rms          rms(c)
DAV:   1    -0.699725136457E+03   -0.35882E-05   -0.54490E-04 10488   0.366E-02    0.465E-03
RMM:   2    -0.699725138738E+03   -0.22810E-05   -0.26899E-05  6154   0.136E-02
 125 F= -.69972514E+03 E0= -.69972088E+03  d E =-.619562E-03
       N       E                     dE             d eps       ncg     rms          rms(c)
DAV:   1    -0.699725138262E+03   -0.18051E-05   -0.12018E-04 10528   0.205E-02    0.205E-03
RMM:   2    -0.699725139879E+03   -0.16162E-05   -0.17317E-05  5400   0.932E-03
 126 F= -.69972514E+03 E0= -.69972088E+03  d E =-.620702E-03
       N       E                     dE             d eps       ncg     rms          rms(c)
DAV:   1    -0.699725139177E+03   -0.91423E-06   -0.11777E-05  6200   0.124E-02    0.126E-03
RMM:   2    -0.699725139573E+03   -0.39631E-06   -0.44243E-06  5125   0.443E-03
 127 F= -.69972514E+03 E0= -.69972088E+03  d E =-.620397E-03
       N       E                     dE             d eps       ncg     rms          rms(c)
DAV:   1    -0.699725139603E+03   -0.42694E-06   -0.20872E-06  5444   0.642E-03    0.103E-03
RMM:   2    -0.699725139717E+03   -0.11305E-06   -0.14126E-06  4988   0.241E-03
 128 F= -.69972514E+03 E0= -.69972088E+03  d E =-.620540E-03
       N       E                     dE             d eps       ncg     rms          rms(c)
DAV:   1    -0.699724471567E+03    0.66804E-03   -0.26768E-01 11172   0.778E-01    0.815E-02
RMM:   2    -0.699725288445E+03   -0.81688E-03   -0.85422E-03 12919   0.197E-01    0.267E-02
RMM:   3    -0.699725480601E+03   -0.19216E-03   -0.20405E-03 14939   0.787E-02    0.246E-02
RMM:   4    -0.699725493476E+03   -0.12875E-04   -0.24772E-04 13264   0.273E-02    0.152E-02
RMM:   5    -0.699725492344E+03    0.11317E-05   -0.62176E-05 10085   0.147E-02
 129 F= -.69972549E+03 E0= -.69972123E+03  d E =-.352628E-03
       N       E                     dE             d eps       ncg     rms          rms(c)
DAV:   1    -0.699725433180E+03    0.60296E-04   -0.24365E-02 11856   0.235E-01    0.265E-02
RMM:   2    -0.699725511644E+03   -0.78464E-04   -0.82057E-04 12843   0.616E-02    0.824E-03
RMM:   3    -0.699725530447E+03   -0.18804E-04   -0.20721E-04 12946   0.252E-02    0.705E-03
RMM:   4    -0.699725532399E+03   -0.19519E-05   -0.32423E-05  6969   0.126E-02
 130 F= -.69972553E+03 E0= -.69972127E+03  d E =-.392683E-03
       N       E                     dE             d eps       ncg     rms          rms(c)
DAV:   1    -0.699725439532E+03    0.90915E-04   -0.67361E-02 11008   0.392E-01    0.400E-02
RMM:   2    -0.699725663789E+03   -0.22426E-03   -0.23531E-03 13115   0.105E-01    0.129E-02
RMM:   3    -0.699725714719E+03   -0.50930E-04   -0.55704E-04 14909   0.411E-02    0.134E-02
RMM:   4    -0.699725717992E+03   -0.32726E-05   -0.67546E-05 10926   0.152E-02
 131 F= -.69972572E+03 E0= -.69972145E+03  d E =-.185592E-03
       N       E                     dE             d eps       ncg     rms          rms(c)
DAV:   1    -0.699725707602E+03    0.71171E-05   -0.86238E-03 11824   0.142E-01    0.162E-02
RMM:   2    -0.699725739621E+03   -0.32019E-04   -0.34041E-04 13117   0.422E-02    0.527E-03
RMM:   3    -0.699725747093E+03   -0.74724E-05   -0.88061E-05 11705   0.169E-02
 132 F= -.69972575E+03 E0= -.69972148E+03  d E =-.214694E-03
       N       E                     dE             d eps       ncg     rms          rms(c)
DAV:   1    -0.699725651023E+03    0.88598E-04   -0.49536E-02 11232   0.337E-01    0.331E-02
RMM:   2    -0.699725816697E+03   -0.16567E-03   -0.17455E-03 13095   0.926E-02    0.117E-02
RMM:   3    -0.699725858371E+03   -0.41675E-04   -0.44945E-04 14292   0.371E-02    0.117E-02
RMM:   4    -0.699725861286E+03   -0.29149E-05   -0.58766E-05 10269   0.151E-02
 133 F= -.69972586E+03 E0= -.69972160E+03  d E =-.114193E-03
       N       E                     dE             d eps       ncg     rms          rms(c)
DAV:   1    -0.699725864170E+03   -0.57984E-05   -0.23279E-04 14104   0.262E-02    0.396E-03
RMM:   2    -0.699725864992E+03   -0.82176E-06   -0.96463E-06  5769   0.679E-03
 134 F= -.69972586E+03 E0= -.69972160E+03  d E =-.117898E-03
       N       E                     dE             d eps       ncg     rms          rms(c)
DAV:   1    -0.699725867808E+03   -0.36386E-05   -0.91499E-04 11022   0.469E-02    0.497E-03
RMM:   2    -0.699725871746E+03   -0.39376E-05   -0.41480E-05  7909   0.141E-02
 135 F= -.69972587E+03 E0= -.69972161E+03  d E =-.124652E-03
       N       E                     dE             d eps       ncg     rms          rms(c)
DAV:   1    -0.699725796541E+03    0.71267E-04   -0.37184E-02 11384   0.294E-01    0.281E-02
RMM:   2    -0.699725914684E+03   -0.11814E-03   -0.12311E-03 12997   0.780E-02    0.969E-03
RMM:   3    -0.699725943573E+03   -0.28888E-04   -0.30797E-04 13698   0.311E-02    0.933E-03
RMM:   4    -0.699725945973E+03   -0.23997E-05   -0.40428E-05  8182   0.133E-02
 136 F= -.69972595E+03 E0= -.69972168E+03  d E =-.742267E-04
       N       E                     dE             d eps       ncg     rms          rms(c)
DAV:   1    -0.699725944405E+03   -0.83254E-06   -0.38947E-03 11990   0.958E-02    0.103E-02
RMM:   2    -0.699725958348E+03   -0.13942E-04   -0.14662E-04 12611   0.281E-02    0.359E-03
RMM:   3    -0.699725961425E+03   -0.30768E-05   -0.38600E-05  6983   0.116E-02
 137 F= -.69972596E+03 E0= -.69972170E+03  d E =-.896787E-04
       N       E                     dE             d eps       ncg     rms          rms(c)
DAV:   1    -0.699725903225E+03    0.55123E-04   -0.30978E-02 11430   0.262E-01    0.273E-02
RMM:   2    -0.699726000009E+03   -0.96784E-04   -0.10198E-03 12665   0.684E-02    0.942E-03
RMM:   3    -0.699726021578E+03   -0.21569E-04   -0.24503E-04 13053   0.279E-02    0.911E-03
RMM:   4    -0.699726023366E+03   -0.17880E-05   -0.40198E-05  7671   0.140E-02
 138 F= -.69972602E+03 E0= -.69972176E+03  d E =-.619411E-04
