<?xml version="1.0" encoding="ISO-8859-1"?>
<modeling>
 <generator>
  <i name="program" type="string">vasp </i>
  <i name="version" type="string">6.4.2  </i>
  <i name="subversion" type="string">20Jul23 (build Nov 12 2023 22:16:35) complex                          parallel </i>
  <i name="platform" type="string">LinuxNV </i>
  <i name="date" type="string">2025 03 14 </i>
  <i name="time" type="string">04:51:53 </i>
 </generator>
 <incar>
  <i type="int" name="ISTART">     0</i>
  <i type="string" name="PREC">Normal</i>
  <i type="string" name="ALGO">Fast</i>
  <i type="int" name="ISPIN">     1</i>
  <i type="int" name="ICHARG">     2</i>
  <i type="int" name="IBRION">     2</i>
  <i name="EDIFF">      0.00001000</i>
  <i name="EDIFFG">     -0.00500000</i>
  <i type="int" name="NSW">   300</i>
  <i type="int" name="ISIF">     2</i>
  <i name="ENCUT">    450.00000000</i>
  <i name="NELECT">   1056.00000000</i>
  <i type="string" name="LREAL">Auto</i>
  <i type="logical" name="LPLANE"> T  </i>
  <i type="int" name="ISMEAR">     0</i>
  <i name="SIGMA">      0.05000000</i>
  <i type="logical" name="LWAVE"> F  </i>
  <i type="logical" name="LCHARG"> F  </i>
 </incar>
 <primitive_cell>
  <structure name="primitive_cell" >
   <crystal>
    <varray name="basis" >
     <v>       0.00000000      12.28047342       0.00000000 </v>
     <v>       9.14270205       0.00000000       0.00000000 </v>
     <v>       0.00000000      -2.76826177     -11.30069772 </v>
    </varray>
    <i name="volume">   1268.80515525 </i>
    <varray name="rec_basis" >
     <v>       0.00000000       0.08143009      -0.01994742 </v>
     <v>       0.10937686      -0.00000000       0.00000000 </v>
     <v>       0.00000000       0.00000000      -0.08849011 </v>
    </varray>
   </crystal>
   <varray name="positions" >
    <v>       0.65883830       0.00000000       0.15736517 </v>
    <v>       0.65883830       0.00000000       0.65736517 </v>
    <v>       0.65883830       0.33333333       0.15736517 </v>
    <v>       0.65883830       0.33333333       0.65736517 </v>
    <v>       0.65883830       0.66666667       0.15736517 </v>
    <v>       0.65883830       0.66666667       0.65736517 </v>
    <v>       0.84116170       0.16666667       0.34263483 </v>
    <v>       0.84116170       0.16666667       0.84263483 </v>
    <v>       0.84116170       0.50000000       0.34263483 </v>
    <v>       0.84116170       0.50000000       0.84263483 </v>
    <v>       0.84116170       0.83333333       0.34263483 </v>
    <v>       0.84116170       0.83333333       0.84263483 </v>
    <v>       0.59047440       0.16666667       0.39739300 </v>
    <v>       0.59047440       0.16666667       0.89739300 </v>
    <v>       0.59047440       0.50000000       0.39739300 </v>
    <v>       0.59047440       0.50000000       0.89739300 </v>
    <v>       0.59047440       0.83333333       0.39739300 </v>
    <v>       0.59047440       0.83333333       0.89739300 </v>
    <v>       0.90952560       0.00000000       0.10260700 </v>
    <v>       0.90952560       0.00000000       0.60260700 </v>
    <v>       0.90952560       0.33333333       0.10260700 </v>
    <v>       0.90952560       0.33333333       0.60260700 </v>
    <v>       0.90952560       0.66666667       0.10260700 </v>
    <v>       0.90952560       0.66666667       0.60260700 </v>
    <v>       0.15883830       0.16666667       0.15736517 </v>
    <v>       0.15883830       0.50000000       0.15736517 </v>
    <v>       0.15883830       0.50000000       0.65736517 </v>
    <v>       0.15883830       0.83333333       0.15736517 </v>
    <v>       0.15883830       0.83333333       0.65736517 </v>
    <v>       0.34116170       0.00000000       0.34263483 </v>
    <v>       0.34116170       0.00000000       0.84263483 </v>
    <v>       0.34116170       0.33333333       0.34263483 </v>
    <v>       0.34116170       0.33333333       0.84263483 </v>
    <v>       0.34116170       0.66666667       0.34263483 </v>
    <v>       0.34116170       0.66666667       0.84263483 </v>
    <v>       0.09047440       0.00000000       0.39739300 </v>
    <v>       0.09047440       0.00000000       0.89739300 </v>
    <v>       0.09047440       0.33333333       0.39739300 </v>
    <v>       0.09047440       0.33333333       0.89739300 </v>
    <v>       0.09047440       0.66666667       0.39739300 </v>
    <v>       0.09047440       0.66666667       0.89739300 </v>
    <v>       0.40952560       0.16666667       0.10260700 </v>
    <v>       0.40952560       0.16666667       0.60260700 </v>
    <v>       0.40952560       0.50000000       0.10260700 </v>
    <v>       0.40952560       0.50000000       0.60260700 </v>
    <v>       0.40952560       0.83333333       0.10260700 </v>
    <v>       0.40952560       0.83333333       0.60260700 </v>
    <v>       0.99646913       0.16666667       0.12833205 </v>
    <v>       0.99646913       0.16666667       0.62833205 </v>
    <v>       0.99646913       0.50000000       0.12833205 </v>
    <v>       0.99646913       0.50000000       0.62833205 </v>
    <v>       0.99646913       0.83333333       0.12833205 </v>
    <v>       0.99646913       0.83333333       0.62833205 </v>
    <v>       0.50353087       0.00000000       0.37166795 </v>
    <v>       0.50353087       0.00000000       0.87166795 </v>
    <v>       0.50353087       0.33333333       0.37166795 </v>
    <v>       0.50353087       0.33333333       0.87166795 </v>
    <v>       0.50353087       0.66666667       0.37166795 </v>
    <v>       0.50353087       0.66666667       0.87166795 </v>
    <v>       0.67337106       0.16666667       0.28161508 </v>
    <v>       0.67337106       0.16666667       0.78161508 </v>
    <v>       0.67337106       0.50000000       0.28161508 </v>
    <v>       0.67337106       0.50000000       0.78161508 </v>
    <v>       0.67337106       0.83333333       0.28161508 </v>
    <v>       0.67337106       0.83333333       0.78161508 </v>
    <v>       0.82662894       0.00000000       0.21838492 </v>
    <v>       0.82662894       0.00000000       0.71838492 </v>
    <v>       0.82662894       0.33333333       0.21838492 </v>
    <v>       0.82662894       0.33333333       0.71838492 </v>
    <v>       0.82662894       0.66666667       0.21838492 </v>
    <v>       0.82662894       0.66666667       0.71838492 </v>
    <v>       0.83549502       0.00000000       0.44542296 </v>
    <v>       0.83549502       0.00000000       0.94542296 </v>
    <v>       0.83549502       0.33333333       0.44542296 </v>
    <v>       0.83549502       0.33333333       0.94542296 </v>
    <v>       0.83549502       0.66666667       0.44542296 </v>
    <v>       0.83549502       0.66666667       0.94542296 </v>
    <v>       0.66450498       0.16666667       0.05457704 </v>
    <v>       0.66450498       0.16666667       0.55457704 </v>
    <v>       0.66450498       0.50000000       0.05457704 </v>
    <v>       0.66450498       0.50000000       0.55457704 </v>
    <v>       0.66450498       0.83333333       0.05457704 </v>
    <v>       0.66450498       0.83333333       0.55457704 </v>
    <v>       0.49646913       0.00000000       0.12833205 </v>
    <v>       0.49646913       0.00000000       0.62833205 </v>
    <v>       0.49646913       0.33333333       0.12833205 </v>
    <v>       0.49646913       0.33333333       0.62833205 </v>
    <v>       0.49646913       0.66666667       0.12833205 </v>
    <v>       0.49646913       0.66666667       0.62833205 </v>
    <v>       0.00353087       0.16666667       0.37166795 </v>
    <v>       0.00353087       0.16666667       0.87166795 </v>
    <v>       0.00353087       0.50000000       0.37166795 </v>
    <v>       0.00353087       0.50000000       0.87166795 </v>
    <v>       0.00353087       0.83333333       0.37166795 </v>
    <v>       0.00353087       0.83333333       0.87166795 </v>
    <v>       0.17337106       0.00000000       0.28161508 </v>
    <v>       0.17337106       0.00000000       0.78161508 </v>
    <v>       0.17337106       0.33333333       0.28161508 </v>
    <v>       0.17337106       0.33333333       0.78161508 </v>
    <v>       0.17337106       0.66666667       0.28161508 </v>
    <v>       0.17337106       0.66666667       0.78161508 </v>
    <v>       0.32662894       0.16666667       0.21838492 </v>
    <v>       0.32662894       0.16666667       0.71838492 </v>
    <v>       0.32662894       0.50000000       0.21838492 </v>
    <v>       0.32662894       0.50000000       0.71838492 </v>
    <v>       0.32662894       0.83333333       0.21838492 </v>
    <v>       0.32662894       0.83333333       0.71838492 </v>
    <v>       0.33549502       0.16666667       0.44542296 </v>
    <v>       0.33549502       0.16666667       0.94542296 </v>
    <v>       0.33549502       0.50000000       0.44542296 </v>
    <v>       0.33549502       0.50000000       0.94542296 </v>
    <v>       0.33549502       0.83333333       0.44542296 </v>
    <v>       0.33549502       0.83333333       0.94542296 </v>
    <v>       0.16450498       0.00000000       0.05457704 </v>
    <v>       0.16450498       0.33333333       0.05457704 </v>
    <v>       0.16450498       0.33333333       0.55457704 </v>
    <v>       0.16450498       0.66666667       0.05457704 </v>
    <v>       0.16450498       0.66666667       0.55457704 </v>
    <v>       0.16450498       0.00000000       0.55457704 </v>
   </varray>
  </structure>
  <varray name="primitive_index" >
   <v type="int" >        1 </v>
   <v type="int" >        2 </v>
   <v type="int" >        3 </v>
   <v type="int" >        4 </v>
   <v type="int" >        5 </v>
   <v type="int" >        6 </v>
   <v type="int" >        7 </v>
   <v type="int" >        8 </v>
   <v type="int" >        9 </v>
   <v type="int" >       10 </v>
   <v type="int" >       11 </v>
   <v type="int" >       12 </v>
   <v type="int" >       13 </v>
   <v type="int" >       14 </v>
   <v type="int" >       15 </v>
   <v type="int" >       16 </v>
   <v type="int" >       17 </v>
   <v type="int" >       18 </v>
   <v type="int" >       19 </v>
   <v type="int" >       20 </v>
   <v type="int" >       21 </v>
   <v type="int" >       22 </v>
   <v type="int" >       23 </v>
   <v type="int" >       24 </v>
   <v type="int" >       25 </v>
   <v type="int" >       26 </v>
   <v type="int" >       27 </v>
   <v type="int" >       28 </v>
   <v type="int" >       29 </v>
   <v type="int" >       30 </v>
   <v type="int" >       31 </v>
   <v type="int" >       32 </v>
   <v type="int" >       33 </v>
   <v type="int" >       34 </v>
   <v type="int" >       35 </v>
   <v type="int" >       36 </v>
   <v type="int" >       37 </v>
   <v type="int" >       38 </v>
   <v type="int" >       39 </v>
   <v type="int" >       40 </v>
   <v type="int" >       41 </v>
   <v type="int" >       42 </v>
   <v type="int" >       43 </v>
   <v type="int" >       44 </v>
   <v type="int" >       45 </v>
   <v type="int" >       46 </v>
   <v type="int" >       47 </v>
   <v type="int" >       48 </v>
   <v type="int" >       49 </v>
   <v type="int" >       50 </v>
   <v type="int" >       51 </v>
   <v type="int" >       52 </v>
   <v type="int" >       53 </v>
   <v type="int" >       54 </v>
   <v type="int" >       55 </v>
   <v type="int" >       56 </v>
   <v type="int" >       57 </v>
   <v type="int" >       58 </v>
   <v type="int" >       59 </v>
   <v type="int" >       60 </v>
   <v type="int" >       61 </v>
   <v type="int" >       62 </v>
   <v type="int" >       63 </v>
   <v type="int" >       64 </v>
   <v type="int" >       65 </v>
   <v type="int" >       66 </v>
   <v type="int" >       67 </v>
   <v type="int" >       68 </v>
   <v type="int" >       69 </v>
   <v type="int" >       70 </v>
   <v type="int" >       71 </v>
   <v type="int" >       72 </v>
   <v type="int" >       73 </v>
   <v type="int" >       74 </v>
   <v type="int" >       75 </v>
   <v type="int" >       76 </v>
   <v type="int" >       77 </v>
   <v type="int" >       78 </v>
   <v type="int" >       79 </v>
   <v type="int" >       80 </v>
   <v type="int" >       81 </v>
   <v type="int" >       82 </v>
   <v type="int" >       83 </v>
   <v type="int" >       84 </v>
   <v type="int" >       85 </v>
   <v type="int" >       86 </v>
   <v type="int" >       87 </v>
   <v type="int" >       88 </v>
   <v type="int" >       89 </v>
   <v type="int" >       90 </v>
   <v type="int" >       91 </v>
   <v type="int" >       92 </v>
   <v type="int" >       93 </v>
   <v type="int" >       94 </v>
   <v type="int" >       95 </v>
   <v type="int" >       96 </v>
   <v type="int" >       97 </v>
   <v type="int" >       98 </v>
   <v type="int" >       99 </v>
   <v type="int" >      100 </v>
   <v type="int" >      101 </v>
   <v type="int" >      102 </v>
   <v type="int" >      103 </v>
   <v type="int" >      104 </v>
   <v type="int" >      105 </v>
   <v type="int" >      106 </v>
   <v type="int" >      107 </v>
   <v type="int" >      108 </v>
   <v type="int" >      109 </v>
   <v type="int" >      110 </v>
   <v type="int" >      111 </v>
   <v type="int" >      112 </v>
   <v type="int" >      113 </v>
   <v type="int" >      114 </v>
   <v type="int" >      115 </v>
   <v type="int" >      116 </v>
   <v type="int" >      117 </v>
   <v type="int" >      118 </v>
   <v type="int" >      119 </v>
  </varray>
 </primitive_cell>
 <kpoints>
  <generation param="Gamma">
   <v type="int" name="divisions">       2        2        2 </v>
   <v name="usershift">      0.00000000       0.00000000       0.00000000 </v>
   <v name="genvec1">      0.50000000       0.00000000       0.00000000 </v>
   <v name="genvec2">      0.00000000       0.50000000       0.00000000 </v>
   <v name="genvec3">      0.00000000       0.00000000       0.50000000 </v>
   <v name="shift">      0.00000000       0.00000000       0.00000000 </v>
  </generation>
  <varray name="kpointlist" >
   <v>       0.00000000       0.00000000       0.00000000 </v>
   <v>       0.50000000       0.00000000       0.00000000 </v>
   <v>       0.00000000       0.50000000       0.00000000 </v>
   <v>       0.50000000       0.50000000       0.00000000 </v>
   <v>       0.00000000       0.00000000       0.50000000 </v>
   <v>       0.50000000       0.00000000       0.50000000 </v>
   <v>       0.00000000       0.50000000       0.50000000 </v>
   <v>       0.50000000       0.50000000       0.50000000 </v>
  </varray>
  <varray name="weights" >
   <v>       0.12500000 </v>
   <v>       0.12500000 </v>
   <v>       0.12500000 </v>
   <v>       0.12500000 </v>
   <v>       0.12500000 </v>
   <v>       0.12500000 </v>
   <v>       0.12500000 </v>
   <v>       0.12500000 </v>
  </varray>
 </kpoints>
 <parameters>
  <separator name="general" >
   <i type="string" name="SYSTEM">unknown system</i>
   <i type="logical" name="LCOMPAT"> F  </i>
  </separator>
  <separator name="electronic" >
   <i type="string" name="PREC">normal</i>
   <i name="ENMAX">    450.00000000</i>
   <i name="ENAUG">    605.39200000</i>
   <i name="EDIFF">      0.00001000</i>
   <i type="int" name="IALGO">    68</i>
   <i type="int" name="IWAVPR">    11</i>
   <i type="int" name="NBANDS">   633</i>
   <i type="int" name="NBANDSLOW">    -1</i>
   <i type="int" name="NBANDSHIGH">    -1</i>
   <i name="NELECT">   1056.00000000</i>
   <i type="int" name="TURBO">     0</i>
   <i type="int" name="IRESTART">     0</i>
   <i type="int" name="NREBOOT">     0</i>
   <i type="int" name="NMIN">     0</i>
   <i name="EREF">      0.00000000</i>
   <separator name="electronic smearing" >
    <i type="int" name="ISMEAR">     0</i>
    <i name="SIGMA">      0.05000000</i>
    <i name="KSPACING">      0.50000000</i>
    <i type="logical" name="KGAMMA"> T  </i>
    <i type="logical" name="KBLOWUP"> T  </i>
   </separator>
   <separator name="electronic projectors" >
    <i type="logical" name="LREAL"> T  </i>
    <v name="ROPT">     -0.00050000     -0.00050000     -0.00050000</v>
    <i type="int" name="LMAXPAW">  -100</i>
    <i type="int" name="LMAXMIX">     2</i>
    <i type="logical" name="NLSPLINE"> F  </i>
   </separator>
   <separator name="electronic startup" >
    <i type="int" name="ISTART">     0</i>
    <i type="int" name="ICHARG">     2</i>
    <i type="int" name="INIWAV">     1</i>
   </separator>
   <separator name="electronic spin" >
    <i type="int" name="ISPIN">     1</i>
    <i type="logical" name="LNONCOLLINEAR"> F  </i>
    <v name="MAGMOM">      1.00000000      1.00000000      1.00000000      1.00000000      1.00000000      1.00000000      1.00000000      1.00000000      1.00000000      1.00000000      1.00000000      1.00000000      1.00000000      1.00000000      1.00000000      1.00000000      1.00000000      1.00000000      1.00000000      1.00000000
      1.00000000      1.00000000      1.00000000      1.00000000      1.00000000      1.00000000      1.00000000      1.00000000      1.00000000      1.00000000      1.00000000      1.00000000      1.00000000      1.00000000      1.00000000      1.00000000      1.00000000      1.00000000      1.00000000      1.00000000
      1.00000000      1.00000000      1.00000000      1.00000000      1.00000000      1.00000000      1.00000000      1.00000000      1.00000000      1.00000000      1.00000000      1.00000000      1.00000000      1.00000000      1.00000000      1.00000000      1.00000000      1.00000000      1.00000000      1.00000000
      1.00000000      1.00000000      1.00000000      1.00000000      1.00000000      1.00000000      1.00000000      1.00000000      1.00000000      1.00000000      1.00000000      1.00000000      1.00000000      1.00000000      1.00000000      1.00000000      1.00000000      1.00000000      1.00000000      1.00000000
      1.00000000      1.00000000      1.00000000      1.00000000      1.00000000      1.00000000      1.00000000      1.00000000      1.00000000      1.00000000      1.00000000      1.00000000      1.00000000      1.00000000      1.00000000      1.00000000      1.00000000      1.00000000      1.00000000      1.00000000
      1.00000000      1.00000000      1.00000000      1.00000000      1.00000000      1.00000000      1.00000000      1.00000000      1.00000000      1.00000000      1.00000000      1.00000000      1.00000000      1.00000000      1.00000000      1.00000000      1.00000000      1.00000000      1.00000000</v>
    <i name="NUPDOWN">     -1.00000000</i>
    <i type="logical" name="LSORBIT"> F  </i>
    <v name="SAXIS">      0.00000000      0.00000000      1.00000000</v>
    <i type="logical" name="LSPIRAL"> F  </i>
    <v name="QSPIRAL">      0.00000000      0.00000000      0.00000000</v>
    <i type="logical" name="LZEROZ"> F  </i>
   </separator>
   <separator name="electronic exchange-correlation" >
    <i type="logical" name="LASPH"> F  </i>
    <i type="logical" name="LMETAGGA"> F  </i>
   </separator>
   <separator name="electronic convergence" >
    <i type="int" name="NELM">    60</i>
    <i type="int" name="NELMDL">    -5</i>
    <i type="int" name="NELMIN">     2</i>
    <i name="ENINI">    450.00000000</i>
    <separator name="electronic convergence detail" >
     <i type="logical" name="LDIAG"> T  </i>
     <i type="logical" name="LSUBROT"> F  </i>
     <i name="WEIMIN">      0.00100000</i>
     <i name="EBREAK">      0.00000000</i>
     <i name="DEPER">      0.30000000</i>
     <i type="int" name="NRMM">     4</i>
     <i name="TIME">      0.40000000</i>
    </separator>
   </separator>
   <separator name="electronic mixer" >
    <i name="AMIX">      0.40000000</i>
    <i name="BMIX">      1.00000000</i>
    <i name="AMIN">      0.10000000</i>
    <i name="AMIX_MAG">      1.60000000</i>
    <i name="BMIX_MAG">      1.00000000</i>
    <separator name="electronic mixer details" >
     <i type="int" name="IMIX">     4</i>
     <i type="logical" name="MIXFIRST"> F  </i>
     <i type="int" name="MAXMIX">   -45</i>
     <i name="WC">    100.00000000</i>
     <i type="int" name="INIMIX">     1</i>
     <i type="int" name="MIXPRE">     1</i>
     <i type="int" name="MREMOVE">     5</i>
    </separator>
   </separator>
   <separator name="electronic dipolcorrection" >
    <i type="logical" name="LDIPOL"> F  </i>
    <i type="logical" name="LMONO"> F  </i>
    <i type="int" name="IDIPOL">     0</i>
    <i name="EPSILON">      1.00000000</i>
    <v name="DIPOL">   -100.00000000   -100.00000000   -100.00000000</v>
    <i name="EFIELD">      0.00000000</i>
   </separator>
  </separator>
  <separator name="grids" >
   <i type="int" name="NGX">    64</i>
   <i type="int" name="NGY">    48</i>
   <i type="int" name="NGZ">    60</i>
   <i type="int" name="NGXF">   128</i>
   <i type="int" name="NGYF">    96</i>
   <i type="int" name="NGZF">   120</i>
   <i type="logical" name="ADDGRID"> F  </i>
  </separator>
  <separator name="ionic" >
   <i type="int" name="NSW">   300</i>
   <i type="int" name="IBRION">     2</i>
   <i type="int" name="MDALGO">     0</i>
   <i type="int" name="ISIF">     2</i>
   <i name="PSTRESS">      0.00000000</i>
   <i name="EDIFFG">     -0.00500000</i>
   <i type="int" name="NFREE">     1</i>
   <i name="POTIM">      0.50000000</i>
   <i name="SMASS">     -3.00000000</i>
   <i name="SCALEE">      1.00000000</i>
  </separator>
  <separator name="ionic md" >
   <i name="TEBEG">      0.00010000</i>
   <i name="TEEND">      0.00010000</i>
   <i type="int" name="NBLOCK">     1</i>
   <i type="int" name="KBLOCK">   300</i>
   <i type="int" name="NPACO">   256</i>
   <i name="APACO">     10.00000000</i>
  </separator>
  <separator name="symmetry" >
   <i type="int" name="ISYM">     2</i>
   <i name="SYMPREC">      0.00001000</i>
  </separator>
  <separator name="dos" >
   <i type="int" name="LORBIT">     0</i>
   <v name="RWIGS">     -1.00000000     -1.00000000     -1.00000000</v>
   <i type="int" name="NEDOS">   301</i>
   <i name="EMIN">     10.00000000</i>
   <i name="EMAX">    -10.00000000</i>
   <i name="EFERMI">      0.00000000</i>
  </separator>
  <separator name="writing" >
   <i type="int" name="NWRITE">     2</i>
   <i type="logical" name="LWAVE"> F  </i>
   <i type="logical" name="LDOWNSAMPLE"> F  </i>
   <i type="logical" name="LCHARG"> F  </i>
   <i type="logical" name="LPARD"> F  </i>
   <i type="logical" name="LVTOT"> F  </i>
   <i type="logical" name="LVHAR"> F  </i>
   <i type="logical" name="LELF"> F  </i>
   <i type="logical" name="LOPTICS"> F  </i>
   <v name="STM">      0.00000000      0.00000000      0.00000000      0.00000000      0.00000000      0.00000000      0.00000000</v>
  </separator>
  <separator name="performance" >
   <i type="int" name="NPAR">     1</i>
   <i type="int" name="NSIM">     4</i>
   <i type="int" name="NBLK">    -1</i>
   <i type="logical" name="LPLANE"> T  </i>
   <i type="logical" name="LSCALAPACK"> T  </i>
   <i type="logical" name="LSCAAWARE"> F  </i>
   <i type="logical" name="LSCALU"> F  </i>
   <i type="logical" name="LASYNC"> F  </i>
   <i type="logical" name="LORBITALREAL"> F  </i>
  </separator>
  <separator name="miscellaneous" >
   <i type="int" name="IDIOT">     3</i>
   <i type="int" name="PHON_NSTRUCT">    -1</i>
   <i type="logical" name="LMUSIC"> F  </i>
   <v name="POMASS">     69.72300000     16.00000000     30.97400000</v>
   <v name="DARWINR">      0.00000000      0.00000000      0.00000000</v>
   <v name="DARWINV">      1.00000000      1.00000000      1.00000000</v>
   <i type="logical" name="LCORR"> T  </i>
  </separator>
  <i type="logical" name="GGA_COMPAT"> T  </i>
  <i type="logical" name="LBERRY"> F  </i>
  <i type="int" name="ICORELEVEL">     0</i>
  <i type="logical" name="LDAU"> F  </i>
  <i type="int" name="I_CONSTRAINED_M">     0</i>
  <separator name="electronic exchange-correlation" >
   <i type="string" name="GGA">--</i>
   <i type="int" name="VOSKOWN">     0</i>
   <i type="logical" name="LHFCALC"> F  </i>
   <i type="string" name="PRECFOCK"></i>
   <i type="logical" name="LSYMGRAD"> F  </i>
   <i type="logical" name="LHFONE"> F  </i>
   <i type="logical" name="LRHFCALC"> F  </i>
   <i type="logical" name="LTHOMAS"> F  </i>
   <i type="logical" name="LMODELHF"> F  </i>
   <i type="logical" name="LFOCKACE"> F  </i>
   <i name="ENCUT4O">     -1.00000000</i>
   <i type="int" name="EXXOEP">     0</i>
   <i type="int" name="FOURORBIT">     0</i>
   <i name="AEXX">      0.00000000</i>
   <i name="HFALPHA">      0.00000000</i>
   <i name="MCALPHA">      0.00000000</i>
   <i name="ALDAX">      1.00000000</i>
   <i name="AGGAX">      1.00000000</i>
   <i name="ALDAC">      1.00000000</i>
   <i name="AGGAC">      1.00000000</i>
   <i type="int" name="NKREDX">     1</i>
   <i type="int" name="NKREDY">     1</i>
   <i type="int" name="NKREDZ">     1</i>
   <i type="logical" name="SHIFTRED"> F  </i>
   <i type="logical" name="ODDONLY"> F  </i>
   <i type="logical" name="EVENONLY"> F  </i>
   <i type="int" name="LMAXFOCK">     0</i>
   <i type="int" name="NMAXFOCKAE">     0</i>
   <i type="logical" name="LFOCKAEDFT"> F  </i>
   <i name="HFSCREEN">      0.00000000</i>
   <i name="HFSCREENC">      0.00000000</i>
   <i type="int" name="NBANDSGWLOW">     0</i>
  </separator>
  <separator name="vdW DFT" >
   <i type="logical" name="LUSE_VDW"> F  </i>
   <i type="int" name="IVDW_NL">     1</i>
   <i type="logical" name="LSPIN_VDW"> F  </i>
   <i name="Zab_VDW">     -0.84910000</i>
   <i name="PARAM1">      0.12340000</i>
   <i name="PARAM2">      1.00000000</i>
   <i name="PARAM3">      0.00000000</i>
  </separator>
  <separator name="model GW" >
   <i type="int" name="MODEL_GW">     0</i>
   <i name="MODEL_EPS0">      6.39733692</i>
   <i name="MODEL_ALPHA">      1.00000000</i>
  </separator>
  <separator name="linear response parameters" >
   <i type="logical" name="LEPSILON"> F  </i>
   <i type="logical" name="LRPA"> F  </i>
   <i type="logical" name="LNABLA"> F  </i>
   <i type="logical" name="LVEL"> F  </i>
   <i name="CSHIFT">      0.10000000</i>
   <i name="OMEGAMAX">     -1.00000000</i>
   <i name="DEG_THRESHOLD">      0.00200000</i>
   <i name="RTIME">     -0.10000000</i>
   <i name="WPLASMAI">      0.00000000</i>
   <v name="DFIELD">      0.00000000      0.00000000      0.00000000</v>
   <v name="WPLASMA">      0.00000000      0.00000000      0.00000000      0.00000000      0.00000000      0.00000000      0.00000000      0.00000000      0.00000000</v>
  </separator>
  <separator name="orbital magnetization" >
   <i type="logical" name="NUCIND"> F  </i>
   <v name="MAGPOS">      0.00000000      0.00000000      0.00000000</v>
   <i type="logical" name="LNICSALL"> T  </i>
   <i type="logical" name="ORBITALMAG"> F  </i>
   <i type="logical" name="LMAGBLOCH"> F  </i>
   <i type="logical" name="LCHIMAG"> F  </i>
   <i type="logical" name="LGAUGE"> T  </i>
   <i type="int" name="MAGATOM">     0</i>
   <v name="MAGDIPOL">      0.00000000      0.00000000      0.00000000</v>
   <v name="AVECCONST">      0.00000000      0.00000000      0.00000000</v>
  </separator>
  <separator name="response functions" >
   <i type="logical" name="LALL_IN_ONE"> F  </i>
   <i type="int" name="IALL_IN_ONE">    -1</i>
   <i type="int" name="NBANDS_WAVE">    -1</i>
   <i type="logical" name="LFINITE_TEMPERATURE"> F  </i>
   <i type="logical" name="LADDER"> F  </i>
   <i type="logical" name="LRPAFORCE"> F  </i>
   <i type="logical" name="LFXC"> F  </i>
   <i type="logical" name="LHARTREE"> T  </i>
   <i type="int" name="IBSE">     0</i>
   <v type="int" name="KPOINT">    -1     0     0     0</v>
   <i type="logical" name="LTCTC"> F  </i>
   <i type="logical" name="LTCTE"> F  </i>
   <i type="logical" name="LTETE"> F  </i>
   <i type="logical" name="LTRIPLET"> F  </i>
   <i type="logical" name="LFXCEPS"> F  </i>
   <i type="logical" name="LFXHEG"> F  </i>
   <i type="int" name="NATURALO">     2</i>
   <i type="logical" name="LHOLEGF"> F  </i>
   <i type="logical" name="L2ORDER"> F  </i>
   <i type="logical" name="LDMP1"> F  </i>
   <i type="logical" name="LMP2LT"> F  </i>
   <i type="logical" name="LSMP2LT"> F  </i>
   <i type="logical" name="LGWLF"> F  </i>
   <i name="ENCUTGW">     -1.60000002</i>
   <i name="ENCUTGWSOFT">     -1.60000002</i>
   <i name="ENCUTLF">     -1.00000000</i>
   <i type="logical" name="LESF_SPLINES"> F  </i>
   <i type="int" name="LMAXMP2">    -1</i>
   <i name="SCISSOR">      0.00000000</i>
   <i type="int" name="NOMEGA">     0</i>
   <i type="int" name="NOMEGAR">     0</i>
   <i type="int" name="NBANDSGW">    -1</i>
   <i type="int" name="NBANDSO">    -1</i>
   <i type="int" name="NBANDSV">    -1</i>
   <i type="int" name="NELMGW">     1</i>
   <i type="int" name="NELMHF">     1</i>
   <i type="int" name="DIM">     3</i>
   <i type="int" name="IESPILON">     4</i>
   <i type="int" name="ANTIRES">     0</i>
   <i name="OMEGAMAX">    -30.00000000</i>
   <i name="OMEGAMIN">    -30.00000000</i>
   <i name="OMEGATL">   -200.00000000</i>
   <i type="int" name="OMEGAGRID">     0</i>
   <i name="CSHIFT">     -0.10000000</i>
   <i type="logical" name="LSELFENERGY"> F  </i>
   <i type="logical" name="LSPECTRAL"> F  </i>
   <i type="logical" name="LSPECTRALGW"> F  </i>
   <i type="logical" name="LSINGLES"> F  </i>
   <i type="logical" name="LFERMIGW"> F  </i>
   <i type="logical" name="ODDONLYGW"> F  </i>
   <i type="logical" name="EVENONLYGW"> F  </i>
   <i type="int" name="NKREDLFX">     1</i>
   <i type="int" name="NKREDLFY">     1</i>
   <i type="int" name="NKREDLFZ">     1</i>
   <i type="int" name="MAXMEM">  2800</i>
   <i type="int" name="TELESCOPE">     0</i>
   <i type="int" name="NTAUPAR">    -1</i>
   <i type="int" name="NOMEGAPAR">    -1</i>
   <i name="DAMP_NEWTON">      0.80000001</i>
   <i name="LAMBDA">      1.00000000</i>
  </separator>
  <separator name="External order field" >
   <i name="OFIELD_KAPPA">      0.00000000</i>
   <v name="OFIELD_K">      0.00000000      0.00000000      0.00000000</v>
   <i name="OFIELD_Q6_NEAR">      0.00000000</i>
   <i name="OFIELD_Q6_FAR">      0.00000000</i>
   <i name="OFIELD_A">      0.00000000</i>
  </separator>
  <separator name="optional k-points parameters" >
   <i type="int" name="KPOINTS_OPT_MODE">     1</i>
   <i type="logical" name="LKPOINTS_OPT"> F  </i>
  </separator>
 </parameters>
 <atominfo>
  <atoms>     119 </atoms>
  <types>       3 </types>
  <array name="atoms" >
   <dimension dim="1">ion</dimension>
   <field type="string">element</field>
   <field type="int">atomtype</field>
   <set>
    <rc><c>Ga</c><c>   1</c></rc>
    <rc><c>Ga</c><c>   1</c></rc>
    <rc><c>Ga</c><c>   1</c></rc>
    <rc><c>Ga</c><c>   1</c></rc>
    <rc><c>Ga</c><c>   1</c></rc>
    <rc><c>Ga</c><c>   1</c></rc>
    <rc><c>Ga</c><c>   1</c></rc>
    <rc><c>Ga</c><c>   1</c></rc>
    <rc><c>Ga</c><c>   1</c></rc>
    <rc><c>Ga</c><c>   1</c></rc>
    <rc><c>Ga</c><c>   1</c></rc>
    <rc><c>Ga</c><c>   1</c></rc>
    <rc><c>Ga</c><c>   1</c></rc>
    <rc><c>Ga</c><c>   1</c></rc>
    <rc><c>Ga</c><c>   1</c></rc>
    <rc><c>Ga</c><c>   1</c></rc>
    <rc><c>Ga</c><c>   1</c></rc>
    <rc><c>Ga</c><c>   1</c></rc>
    <rc><c>Ga</c><c>   1</c></rc>
    <rc><c>Ga</c><c>   1</c></rc>
    <rc><c>Ga</c><c>   1</c></rc>
    <rc><c>Ga</c><c>   1</c></rc>
    <rc><c>Ga</c><c>   1</c></rc>
    <rc><c>Ga</c><c>   1</c></rc>
    <rc><c>Ga</c><c>   1</c></rc>
    <rc><c>Ga</c><c>   1</c></rc>
    <rc><c>Ga</c><c>   1</c></rc>
    <rc><c>Ga</c><c>   1</c></rc>
    <rc><c>Ga</c><c>   1</c></rc>
    <rc><c>Ga</c><c>   1</c></rc>
    <rc><c>Ga</c><c>   1</c></rc>
    <rc><c>Ga</c><c>   1</c></rc>
    <rc><c>Ga</c><c>   1</c></rc>
    <rc><c>Ga</c><c>   1</c></rc>
    <rc><c>Ga</c><c>   1</c></rc>
    <rc><c>Ga</c><c>   1</c></rc>
    <rc><c>Ga</c><c>   1</c></rc>
    <rc><c>Ga</c><c>   1</c></rc>
    <rc><c>Ga</c><c>   1</c></rc>
    <rc><c>Ga</c><c>   1</c></rc>
    <rc><c>Ga</c><c>   1</c></rc>
    <rc><c>Ga</c><c>   1</c></rc>
    <rc><c>Ga</c><c>   1</c></rc>
    <rc><c>Ga</c><c>   1</c></rc>
    <rc><c>Ga</c><c>   1</c></rc>
    <rc><c>Ga</c><c>   1</c></rc>
    <rc><c>Ga</c><c>   1</c></rc>
    <rc><c>O </c><c>   2</c></rc>
    <rc><c>O </c><c>   2</c></rc>
    <rc><c>O </c><c>   2</c></rc>
    <rc><c>O </c><c>   2</c></rc>
    <rc><c>O </c><c>   2</c></rc>
    <rc><c>O </c><c>   2</c></rc>
    <rc><c>O </c><c>   2</c></rc>
    <rc><c>O </c><c>   2</c></rc>
    <rc><c>O </c><c>   2</c></rc>
    <rc><c>O </c><c>   2</c></rc>
    <rc><c>O </c><c>   2</c></rc>
    <rc><c>O </c><c>   2</c></rc>
    <rc><c>O </c><c>   2</c></rc>
    <rc><c>O </c><c>   2</c></rc>
    <rc><c>O </c><c>   2</c></rc>
    <rc><c>O </c><c>   2</c></rc>
    <rc><c>O </c><c>   2</c></rc>
    <rc><c>O </c><c>   2</c></rc>
    <rc><c>O </c><c>   2</c></rc>
    <rc><c>O </c><c>   2</c></rc>
    <rc><c>O </c><c>   2</c></rc>
    <rc><c>O </c><c>   2</c></rc>
    <rc><c>O </c><c>   2</c></rc>
    <rc><c>O </c><c>   2</c></rc>
    <rc><c>O </c><c>   2</c></rc>
    <rc><c>O </c><c>   2</c></rc>
    <rc><c>O </c><c>   2</c></rc>
    <rc><c>O </c><c>   2</c></rc>
    <rc><c>O </c><c>   2</c></rc>
    <rc><c>O </c><c>   2</c></rc>
    <rc><c>O </c><c>   2</c></rc>
    <rc><c>O </c><c>   2</c></rc>
    <rc><c>O </c><c>   2</c></rc>
    <rc><c>O </c><c>   2</c></rc>
    <rc><c>O </c><c>   2</c></rc>
    <rc><c>O </c><c>   2</c></rc>
    <rc><c>O </c><c>   2</c></rc>
    <rc><c>O </c><c>   2</c></rc>
    <rc><c>O </c><c>   2</c></rc>
    <rc><c>O </c><c>   2</c></rc>
    <rc><c>O </c><c>   2</c></rc>
    <rc><c>O </c><c>   2</c></rc>
    <rc><c>O </c><c>   2</c></rc>
    <rc><c>O </c><c>   2</c></rc>
    <rc><c>O </c><c>   2</c></rc>
    <rc><c>O </c><c>   2</c></rc>
    <rc><c>O </c><c>   2</c></rc>
    <rc><c>O </c><c>   2</c></rc>
    <rc><c>O </c><c>   2</c></rc>
    <rc><c>O </c><c>   2</c></rc>
    <rc><c>O </c><c>   2</c></rc>
    <rc><c>O </c><c>   2</c></rc>
    <rc><c>O </c><c>   2</c></rc>
    <rc><c>O </c><c>   2</c></rc>
    <rc><c>O </c><c>   2</c></rc>
    <rc><c>O </c><c>   2</c></rc>
    <rc><c>O </c><c>   2</c></rc>
    <rc><c>O </c><c>   2</c></rc>
    <rc><c>O </c><c>   2</c></rc>
    <rc><c>O </c><c>   2</c></rc>
    <rc><c>O </c><c>   2</c></rc>
    <rc><c>O </c><c>   2</c></rc>
    <rc><c>O </c><c>   2</c></rc>
    <rc><c>O </c><c>   2</c></rc>
    <rc><c>O </c><c>   2</c></rc>
    <rc><c>O </c><c>   2</c></rc>
    <rc><c>O </c><c>   2</c></rc>
    <rc><c>O </c><c>   2</c></rc>
    <rc><c>O </c><c>   2</c></rc>
    <rc><c>O </c><c>   2</c></rc>
    <rc><c>O </c><c>   2</c></rc>
    <rc><c>P </c><c>   3</c></rc>
   </set>
  </array>
  <array name="atomtypes" >
   <dimension dim="1">type</dimension>
   <field type="int">atomspertype</field>
   <field type="string">element</field>
   <field>mass</field>
   <field>valence</field>
   <field type="string">pseudopotential</field>
   <set>
    <rc><c>  47</c><c>Ga</c><c>     69.72300000</c><c>     13.00000000</c><c>  PAW_PBE Ga_d 06Jul2010                </c></rc>
    <rc><c>  71</c><c>O </c><c>     16.00000000</c><c>      6.00000000</c><c>   PAW_PBE O 08Apr2002                  </c></rc>
    <rc><c>   1</c><c>P </c><c>     30.97400000</c><c>      5.00000000</c><c>  PAW_PBE P 06Sep2000                   </c></rc>
   </set>
  </array>
 </atominfo>
 <structure name="initialpos" >
  <crystal>
   <varray name="basis" >
    <v>       0.00000000      12.28047342       0.00000000 </v>
    <v>       9.14270205       0.00000000       0.00000000 </v>
    <v>       0.00000000      -2.76826177     -11.30069772 </v>
   </varray>
   <i name="volume">   1268.80515525 </i>
   <varray name="rec_basis" >
    <v>       0.00000000       0.08143009      -0.01994742 </v>
    <v>       0.10937686      -0.00000000       0.00000000 </v>
    <v>       0.00000000       0.00000000      -0.08849011 </v>
   </varray>
  </crystal>
  <varray name="positions" >
   <v>       0.65883830       0.00000000       0.15736517 </v>
   <v>       0.65883830       0.00000000       0.65736517 </v>
   <v>       0.65883830       0.33333333       0.15736517 </v>
   <v>       0.65883830       0.33333333       0.65736517 </v>
   <v>       0.65883830       0.66666667       0.15736517 </v>
   <v>       0.65883830       0.66666667       0.65736517 </v>
   <v>       0.84116170       0.16666667       0.34263483 </v>
   <v>       0.84116170       0.16666667       0.84263483 </v>
   <v>       0.84116170       0.50000000       0.34263483 </v>
   <v>       0.84116170       0.50000000       0.84263483 </v>
   <v>       0.84116170       0.83333333       0.34263483 </v>
   <v>       0.84116170       0.83333333       0.84263483 </v>
   <v>       0.59047440       0.16666667       0.39739300 </v>
   <v>       0.59047440       0.16666667       0.89739300 </v>
   <v>       0.59047440       0.50000000       0.39739300 </v>
   <v>       0.59047440       0.50000000       0.89739300 </v>
   <v>       0.59047440       0.83333333       0.39739300 </v>
   <v>       0.59047440       0.83333333       0.89739300 </v>
   <v>       0.90952560       0.00000000       0.10260700 </v>
   <v>       0.90952560       0.00000000       0.60260700 </v>
   <v>       0.90952560       0.33333333       0.10260700 </v>
   <v>       0.90952560       0.33333333       0.60260700 </v>
   <v>       0.90952560       0.66666667       0.10260700 </v>
   <v>       0.90952560       0.66666667       0.60260700 </v>
   <v>       0.15883830       0.16666667       0.15736517 </v>
   <v>       0.15883830       0.50000000       0.15736517 </v>
   <v>       0.15883830       0.50000000       0.65736517 </v>
   <v>       0.15883830       0.83333333       0.15736517 </v>
   <v>       0.15883830       0.83333333       0.65736517 </v>
   <v>       0.34116170       0.00000000       0.34263483 </v>
   <v>       0.34116170       0.00000000       0.84263483 </v>
   <v>       0.34116170       0.33333333       0.34263483 </v>
   <v>       0.34116170       0.33333333       0.84263483 </v>
   <v>       0.34116170       0.66666667       0.34263483 </v>
   <v>       0.34116170       0.66666667       0.84263483 </v>
   <v>       0.09047440       0.00000000       0.39739300 </v>
   <v>       0.09047440       0.00000000       0.89739300 </v>
   <v>       0.09047440       0.33333333       0.39739300 </v>
   <v>       0.09047440       0.33333333       0.89739300 </v>
   <v>       0.09047440       0.66666667       0.39739300 </v>
   <v>       0.09047440       0.66666667       0.89739300 </v>
   <v>       0.40952560       0.16666667       0.10260700 </v>
   <v>       0.40952560       0.16666667       0.60260700 </v>
   <v>       0.40952560       0.50000000       0.10260700 </v>
   <v>       0.40952560       0.50000000       0.60260700 </v>
   <v>       0.40952560       0.83333333       0.10260700 </v>
   <v>       0.40952560       0.83333333       0.60260700 </v>
   <v>       0.99646913       0.16666667       0.12833205 </v>
   <v>       0.99646913       0.16666667       0.62833205 </v>
   <v>       0.99646913       0.50000000       0.12833205 </v>
   <v>       0.99646913       0.50000000       0.62833205 </v>
   <v>       0.99646913       0.83333333       0.12833205 </v>
   <v>       0.99646913       0.83333333       0.62833205 </v>
   <v>       0.50353087       0.00000000       0.37166795 </v>
   <v>       0.50353087       0.00000000       0.87166795 </v>
   <v>       0.50353087       0.33333333       0.37166795 </v>
   <v>       0.50353087       0.33333333       0.87166795 </v>
   <v>       0.50353087       0.66666667       0.37166795 </v>
   <v>       0.50353087       0.66666667       0.87166795 </v>
   <v>       0.67337106       0.16666667       0.28161508 </v>
   <v>       0.67337106       0.16666667       0.78161508 </v>
   <v>       0.67337106       0.50000000       0.28161508 </v>
   <v>       0.67337106       0.50000000       0.78161508 </v>
   <v>       0.67337106       0.83333333       0.28161508 </v>
   <v>       0.67337106       0.83333333       0.78161508 </v>
   <v>       0.82662894       0.00000000       0.21838492 </v>
   <v>       0.82662894       0.00000000       0.71838492 </v>
   <v>       0.82662894       0.33333333       0.21838492 </v>
   <v>       0.82662894       0.33333333       0.71838492 </v>
   <v>       0.82662894       0.66666667       0.21838492 </v>
   <v>       0.82662894       0.66666667       0.71838492 </v>
   <v>       0.83549502       0.00000000       0.44542296 </v>
   <v>       0.83549502       0.00000000       0.94542296 </v>
   <v>       0.83549502       0.33333333       0.44542296 </v>
   <v>       0.83549502       0.33333333       0.94542296 </v>
   <v>       0.83549502       0.66666667       0.44542296 </v>
   <v>       0.83549502       0.66666667       0.94542296 </v>
   <v>       0.66450498       0.16666667       0.05457704 </v>
   <v>       0.66450498       0.16666667       0.55457704 </v>
   <v>       0.66450498       0.50000000       0.05457704 </v>
   <v>       0.66450498       0.50000000       0.55457704 </v>
   <v>       0.66450498       0.83333333       0.05457704 </v>
   <v>       0.66450498       0.83333333       0.55457704 </v>
   <v>       0.49646913       0.00000000       0.12833205 </v>
   <v>       0.49646913       0.00000000       0.62833205 </v>
   <v>       0.49646913       0.33333333       0.12833205 </v>
   <v>       0.49646913       0.33333333       0.62833205 </v>
   <v>       0.49646913       0.66666667       0.12833205 </v>
   <v>       0.49646913       0.66666667       0.62833205 </v>
   <v>       0.00353087       0.16666667       0.37166795 </v>
   <v>       0.00353087       0.16666667       0.87166795 </v>
   <v>       0.00353087       0.50000000       0.37166795 </v>
   <v>       0.00353087       0.50000000       0.87166795 </v>
   <v>       0.00353087       0.83333333       0.37166795 </v>
   <v>       0.00353087       0.83333333       0.87166795 </v>
   <v>       0.17337106       0.00000000       0.28161508 </v>
   <v>       0.17337106       0.00000000       0.78161508 </v>
   <v>       0.17337106       0.33333333       0.28161508 </v>
   <v>       0.17337106       0.33333333       0.78161508 </v>
   <v>       0.17337106       0.66666667       0.28161508 </v>
   <v>       0.17337106       0.66666667       0.78161508 </v>
   <v>       0.32662894       0.16666667       0.21838492 </v>
   <v>       0.32662894       0.16666667       0.71838492 </v>
   <v>       0.32662894       0.50000000       0.21838492 </v>
   <v>       0.32662894       0.50000000       0.71838492 </v>
   <v>       0.32662894       0.83333333       0.21838492 </v>
   <v>       0.32662894       0.83333333       0.71838492 </v>
   <v>       0.33549502       0.16666667       0.44542296 </v>
   <v>       0.33549502       0.16666667       0.94542296 </v>
   <v>       0.33549502       0.50000000       0.44542296 </v>
   <v>       0.33549502       0.50000000       0.94542296 </v>
   <v>       0.33549502       0.83333333       0.44542296 </v>
   <v>       0.33549502       0.83333333       0.94542296 </v>
   <v>       0.16450498       0.00000000       0.05457704 </v>
   <v>       0.16450498       0.33333333       0.05457704 </v>
   <v>       0.16450498       0.33333333       0.55457704 </v>
   <v>       0.16450498       0.66666667       0.05457704 </v>
   <v>       0.16450498       0.66666667       0.55457704 </v>
   <v>       0.16450498       0.00000000       0.55457704 </v>
  </varray>
 </structure>
 <calculation>
  <scstep>
   <time name="dav">    1.77    1.77</time>
   <time name="total">    1.89    1.89</time>
   <energy>
    <i name="alphaZ">   5376.25786726 </i>
    <i name="ewald"> -86356.72883845 </i>
    <i name="hartreedc"> -33542.05847329 </i>
    <i name="XCdc">   4078.27140510 </i>
    <i name="pawpsdc"> 100093.09196360 </i>
    <i name="pawaedc">-115889.62880893 </i>
    <i name="eentropy">     -0.00241971 </i>
    <i name="bandstr">  16699.22796064 </i>
    <i name="atom"> 131866.99277783 </i>
    <i name="e_fr_energy">  22325.42343404 </i>
    <i name="e_wo_entrp">  22325.42585376 </i>
    <i name="e_0_energy">  22325.42464390 </i>
   </energy>
  </scstep>
  <scstep>
   <time name="dav">    1.71    1.71</time>
   <time name="total">    1.71    1.71</time>
   <energy>
    <i name="e_fr_energy">   5003.22057635 </i>
    <i name="e_wo_entrp">   5003.24299928 </i>
    <i name="e_0_energy">   5003.23178782 </i>
   </energy>
  </scstep>
  <scstep>
   <time name="dav">    2.33    2.33</time>
   <time name="total">    2.33    2.33</time>
   <energy>
    <i name="e_fr_energy">    -40.74050925 </i>
    <i name="e_wo_entrp">    -40.72571116 </i>
    <i name="e_0_energy">    -40.73311021 </i>
   </energy>
  </scstep>
  <scstep>
   <time name="dav">    2.05    2.05</time>
   <time name="total">    2.05    2.05</time>
   <energy>
    <i name="e_fr_energy">   -674.78581237 </i>
    <i name="e_wo_entrp">   -674.77389631 </i>
    <i name="e_0_energy">   -674.77985434 </i>
   </energy>
  </scstep>
  <scstep>
   <time name="dav">    2.32    2.32</time>
   <time name="total">    2.58    2.58</time>
   <energy>
    <i name="e_fr_energy">   -719.63583835 </i>
    <i name="e_wo_entrp">   -719.62164955 </i>
    <i name="e_0_energy">   -719.62874395 </i>
   </energy>
  </scstep>
  <scstep>
   <time name="diag">    0.24    0.24</time>
   <time name="diis">    2.52    2.52</time>
   <time name="orth">    0.03    0.03</time>
   <time name="total">    3.16    3.16</time>
   <energy>
    <i name="e_fr_energy">   -590.58408515 </i>
    <i name="e_wo_entrp">   -590.56474887 </i>
    <i name="e_0_energy">   -590.57441701 </i>
   </energy>
  </scstep>
  <scstep>
   <time name="diag">    0.24    0.24</time>
   <time name="diis">    2.65    2.91</time>
   <time name="orth">    0.03    0.03</time>
   <time name="total">    3.30    3.56</time>
   <energy>
    <i name="e_fr_energy">   -594.38613840 </i>
    <i name="e_wo_entrp">   -594.36734958 </i>
    <i name="e_0_energy">   -594.37674399 </i>
   </energy>
  </scstep>
  <scstep>
   <time name="diag">    0.24    0.24</time>
   <time name="diis">    2.48    2.48</time>
   <time name="orth">    0.03    0.03</time>
   <time name="total">    3.13    3.13</time>
   <energy>
    <i name="e_fr_energy">   -593.93590998 </i>
    <i name="e_wo_entrp">   -593.91877142 </i>
    <i name="e_0_energy">   -593.92734070 </i>
   </energy>
  </scstep>
  <scstep>
   <time name="diag">    0.24    0.24</time>
   <time name="diis">    2.95    2.95</time>
   <time name="orth">    0.03    0.03</time>
   <time name="total">    3.61    3.61</time>
   <energy>
    <i name="e_fr_energy">   -593.75547071 </i>
    <i name="e_wo_entrp">   -593.73754365 </i>
    <i name="e_0_energy">   -593.74650718 </i>
   </energy>
  </scstep>
  <scstep>
   <time name="diag">    0.24    0.24</time>
   <time name="diis">    2.57    2.57</time>
   <time name="orth">    0.03    0.03</time>
   <time name="total">    3.22    3.22</time>
   <energy>
    <i name="e_fr_energy">   -593.81291781 </i>
    <i name="e_wo_entrp">   -593.79471842 </i>
    <i name="e_0_energy">   -593.80381812 </i>
   </energy>
  </scstep>
  <scstep>
   <time name="diag">    0.24    0.24</time>
   <time name="diis">    2.66    2.66</time>
   <time name="orth">    0.03    0.03</time>
   <time name="total">    3.31    3.31</time>
   <energy>
    <i name="e_fr_energy">   -593.81857300 </i>
    <i name="e_wo_entrp">   -593.80067052 </i>
    <i name="e_0_energy">   -593.80962176 </i>
   </energy>
  </scstep>
  <scstep>
   <time name="diag">    0.24    0.24</time>
   <time name="diis">    2.98    2.98</time>
   <time name="orth">    0.03    0.03</time>
   <time name="total">    3.64    3.64</time>
   <energy>
    <i name="e_fr_energy">   -593.82185447 </i>
    <i name="e_wo_entrp">   -593.80388429 </i>
    <i name="e_0_energy">   -593.81286938 </i>
   </energy>
  </scstep>
  <scstep>
   <time name="diag">    0.24    0.24</time>
   <time name="diis">    2.98    2.98</time>
   <time name="orth">    0.03    0.03</time>
   <time name="total">    3.64    3.64</time>
   <energy>
    <i name="e_fr_energy">   -593.82319848 </i>
    <i name="e_wo_entrp">   -593.80519670 </i>
    <i name="e_0_energy">   -593.81419759 </i>
   </energy>
  </scstep>
  <scstep>
   <time name="diag">    0.24    0.24</time>
   <time name="diis">    2.59    2.59</time>
   <time name="orth">    0.03    0.03</time>
   <time name="total">    3.25    3.25</time>
   <energy>
    <i name="e_fr_energy">   -593.82406153 </i>
    <i name="e_wo_entrp">   -593.80603475 </i>
    <i name="e_0_energy">   -593.81504814 </i>
   </energy>
  </scstep>
  <scstep>
   <time name="diag">    0.24    0.24</time>
   <time name="diis">    2.47    2.47</time>
   <time name="orth">    0.03    0.03</time>
   <time name="total">    3.13    3.13</time>
   <energy>
    <i name="e_fr_energy">   -593.82430313 </i>
    <i name="e_wo_entrp">   -593.80628432 </i>
    <i name="e_0_energy">   -593.81529373 </i>
   </energy>
  </scstep>
  <scstep>
   <time name="diag">    0.24    0.24</time>
   <time name="diis">    2.16    2.16</time>
   <time name="orth">    0.03    0.03</time>
   <time name="total">    2.82    2.82</time>
   <energy>
    <i name="e_fr_energy">   -593.82444633 </i>
    <i name="e_wo_entrp">   -593.80642900 </i>
    <i name="e_0_energy">   -593.81543766 </i>
   </energy>
  </scstep>
  <scstep>
   <time name="diag">    0.24    0.24</time>
   <time name="diis">    1.98    1.98</time>
   <time name="orth">    0.03    0.03</time>
   <time name="total">    2.65    2.65</time>
   <energy>
    <i name="e_fr_energy">   -593.82450524 </i>
    <i name="e_wo_entrp">   -593.80648629 </i>
    <i name="e_0_energy">   -593.81549577 </i>
   </energy>
  </scstep>
  <scstep>
   <time name="diag">    0.24    0.24</time>
   <time name="diis">    1.88    1.88</time>
   <time name="orth">    0.03    0.03</time>
   <time name="total">    2.55    2.55</time>
   <energy>
    <i name="e_fr_energy">   -593.82453660 </i>
    <i name="e_wo_entrp">   -593.80651488 </i>
    <i name="e_0_energy">   -593.81552574 </i>
   </energy>
  </scstep>
  <scstep>
   <time name="diag">    0.24    0.24</time>
   <time name="diis">    1.71    1.71</time>
   <time name="orth">    0.03    0.03</time>
   <time name="total">    2.38    2.38</time>
   <energy>
    <i name="e_fr_energy">   -593.82455113 </i>
    <i name="e_wo_entrp">   -593.80652920 </i>
    <i name="e_0_energy">   -593.81554016 </i>
   </energy>
  </scstep>
  <scstep>
   <time name="diag">    0.24    0.24</time>
   <time name="diis">    1.39    1.39</time>
   <time name="orth">    0.03    0.03</time>
   <time name="total">    1.78    1.78</time>
   <energy>
    <i name="alphaZ">   5376.25786726 </i>
    <i name="ewald"> -86356.72883845 </i>
    <i name="hartreedc"> -34042.44791418 </i>
    <i name="XCdc">   4194.29392987 </i>
    <i name="pawpsdc"> 121014.27074975 </i>
    <i name="pawaedc">-137097.64881555 </i>
    <i name="eentropy">     -0.01802275 </i>
    <i name="bandstr">  -5548.79629342 </i>
    <i name="atom"> 131866.99277783 </i>
    <i name="e_fr_energy">   -593.82455964 </i>
    <i name="e_wo_entrp">   -593.80653688 </i>
    <i name="e_0_energy">   -593.81554826 </i>
   </energy>
  </scstep>
  <structure>
   <crystal>
    <varray name="basis" >
     <v>       0.00000000      12.28047342       0.00000000 </v>
     <v>       9.14270205       0.00000000       0.00000000 </v>
     <v>       0.00000000      -2.76826177     -11.30069772 </v>
    </varray>
    <i name="volume">   1268.80515525 </i>
    <varray name="rec_basis" >
     <v>       0.00000000       0.08143009      -0.01994742 </v>
     <v>       0.10937686      -0.00000000       0.00000000 </v>
     <v>       0.00000000       0.00000000      -0.08849011 </v>
    </varray>
   </crystal>
   <varray name="positions" >
    <v>       0.65883830       0.00000000       0.15736517 </v>
    <v>       0.65883830       0.00000000       0.65736517 </v>
    <v>       0.65883830       0.33333333       0.15736517 </v>
    <v>       0.65883830       0.33333333       0.65736517 </v>
    <v>       0.65883830       0.66666667       0.15736517 </v>
    <v>       0.65883830       0.66666667       0.65736517 </v>
    <v>       0.84116170       0.16666667       0.34263483 </v>
    <v>       0.84116170       0.16666667       0.84263483 </v>
    <v>       0.84116170       0.50000000       0.34263483 </v>
    <v>       0.84116170       0.50000000       0.84263483 </v>
    <v>       0.84116170       0.83333333       0.34263483 </v>
    <v>       0.84116170       0.83333333       0.84263483 </v>
    <v>       0.59047440       0.16666667       0.39739300 </v>
    <v>       0.59047440       0.16666667       0.89739300 </v>
    <v>       0.59047440       0.50000000       0.39739300 </v>
    <v>       0.59047440       0.50000000       0.89739300 </v>
    <v>       0.59047440       0.83333333       0.39739300 </v>
    <v>       0.59047440       0.83333333       0.89739300 </v>
    <v>       0.90952560       0.00000000       0.10260700 </v>
    <v>       0.90952560       0.00000000       0.60260700 </v>
    <v>       0.90952560       0.33333333       0.10260700 </v>
    <v>       0.90952560       0.33333333       0.60260700 </v>
    <v>       0.90952560       0.66666667       0.10260700 </v>
    <v>       0.90952560       0.66666667       0.60260700 </v>
    <v>       0.15883830       0.16666667       0.15736517 </v>
    <v>       0.15883830       0.50000000       0.15736517 </v>
    <v>       0.15883830       0.50000000       0.65736517 </v>
    <v>       0.15883830       0.83333333       0.15736517 </v>
    <v>       0.15883830       0.83333333       0.65736517 </v>
    <v>       0.34116170       0.00000000       0.34263483 </v>
    <v>       0.34116170       0.00000000       0.84263483 </v>
    <v>       0.34116170       0.33333333       0.34263483 </v>
    <v>       0.34116170       0.33333333       0.84263483 </v>
    <v>       0.34116170       0.66666667       0.34263483 </v>
    <v>       0.34116170       0.66666667       0.84263483 </v>
    <v>       0.09047440       0.00000000       0.39739300 </v>
    <v>       0.09047440       0.00000000       0.89739300 </v>
    <v>       0.09047440       0.33333333       0.39739300 </v>
    <v>       0.09047440       0.33333333       0.89739300 </v>
    <v>       0.09047440       0.66666667       0.39739300 </v>
    <v>       0.09047440       0.66666667       0.89739300 </v>
    <v>       0.40952560       0.16666667       0.10260700 </v>
    <v>       0.40952560       0.16666667       0.60260700 </v>
    <v>       0.40952560       0.50000000       0.10260700 </v>
    <v>       0.40952560       0.50000000       0.60260700 </v>
    <v>       0.40952560       0.83333333       0.10260700 </v>
    <v>       0.40952560       0.83333333       0.60260700 </v>
    <v>       0.99646913       0.16666667       0.12833205 </v>
    <v>       0.99646913       0.16666667       0.62833205 </v>
    <v>       0.99646913       0.50000000       0.12833205 </v>
    <v>       0.99646913       0.50000000       0.62833205 </v>
    <v>       0.99646913       0.83333333       0.12833205 </v>
    <v>       0.99646913       0.83333333       0.62833205 </v>
    <v>       0.50353087       0.00000000       0.37166795 </v>
    <v>       0.50353087       0.00000000       0.87166795 </v>
    <v>       0.50353087       0.33333333       0.37166795 </v>
    <v>       0.50353087       0.33333333       0.87166795 </v>
    <v>       0.50353087       0.66666667       0.37166795 </v>
    <v>       0.50353087       0.66666667       0.87166795 </v>
    <v>       0.67337106       0.16666667       0.28161508 </v>
    <v>       0.67337106       0.16666667       0.78161508 </v>
    <v>       0.67337106       0.50000000       0.28161508 </v>
    <v>       0.67337106       0.50000000       0.78161508 </v>
    <v>       0.67337106       0.83333333       0.28161508 </v>
    <v>       0.67337106       0.83333333       0.78161508 </v>
    <v>       0.82662894       0.00000000       0.21838492 </v>
    <v>       0.82662894       0.00000000       0.71838492 </v>
    <v>       0.82662894       0.33333333       0.21838492 </v>
    <v>       0.82662894       0.33333333       0.71838492 </v>
    <v>       0.82662894       0.66666667       0.21838492 </v>
    <v>       0.82662894       0.66666667       0.71838492 </v>
    <v>       0.83549502       0.00000000       0.44542296 </v>
    <v>       0.83549502       0.00000000       0.94542296 </v>
    <v>       0.83549502       0.33333333       0.44542296 </v>
    <v>       0.83549502       0.33333333       0.94542296 </v>
    <v>       0.83549502       0.66666667       0.44542296 </v>
    <v>       0.83549502       0.66666667       0.94542296 </v>
    <v>       0.66450498       0.16666667       0.05457704 </v>
    <v>       0.66450498       0.16666667       0.55457704 </v>
    <v>       0.66450498       0.50000000       0.05457704 </v>
    <v>       0.66450498       0.50000000       0.55457704 </v>
    <v>       0.66450498       0.83333333       0.05457704 </v>
    <v>       0.66450498       0.83333333       0.55457704 </v>
    <v>       0.49646913       0.00000000       0.12833205 </v>
    <v>       0.49646913       0.00000000       0.62833205 </v>
    <v>       0.49646913       0.33333333       0.12833205 </v>
    <v>       0.49646913       0.33333333       0.62833205 </v>
    <v>       0.49646913       0.66666667       0.12833205 </v>
    <v>       0.49646913       0.66666667       0.62833205 </v>
    <v>       0.00353087       0.16666667       0.37166795 </v>
    <v>       0.00353087       0.16666667       0.87166795 </v>
    <v>       0.00353087       0.50000000       0.37166795 </v>
    <v>       0.00353087       0.50000000       0.87166795 </v>
    <v>       0.00353087       0.83333333       0.37166795 </v>
    <v>       0.00353087       0.83333333       0.87166795 </v>
    <v>       0.17337106       0.00000000       0.28161508 </v>
    <v>       0.17337106       0.00000000       0.78161508 </v>
    <v>       0.17337106       0.33333333       0.28161508 </v>
    <v>       0.17337106       0.33333333       0.78161508 </v>
    <v>       0.17337106       0.66666667       0.28161508 </v>
    <v>       0.17337106       0.66666667       0.78161508 </v>
    <v>       0.32662894       0.16666667       0.21838492 </v>
    <v>       0.32662894       0.16666667       0.71838492 </v>
    <v>       0.32662894       0.50000000       0.21838492 </v>
    <v>       0.32662894       0.50000000       0.71838492 </v>
    <v>       0.32662894       0.83333333       0.21838492 </v>
    <v>       0.32662894       0.83333333       0.71838492 </v>
    <v>       0.33549502       0.16666667       0.44542296 </v>
    <v>       0.33549502       0.16666667       0.94542296 </v>
    <v>       0.33549502       0.50000000       0.44542296 </v>
    <v>       0.33549502       0.50000000       0.94542296 </v>
    <v>       0.33549502       0.83333333       0.44542296 </v>
    <v>       0.33549502       0.83333333       0.94542296 </v>
    <v>       0.16450498       0.00000000       0.05457704 </v>
    <v>       0.16450498       0.33333333       0.05457704 </v>
    <v>       0.16450498       0.33333333       0.55457704 </v>
    <v>       0.16450498       0.66666667       0.05457704 </v>
    <v>       0.16450498       0.66666667       0.55457704 </v>
    <v>       0.16450498       0.00000000       0.55457704 </v>
   </varray>
  </structure>
  <varray name="forces" >
   <v>       0.00159592       0.12010706       0.01607432 </v>
   <v>       0.00200280       0.01257425      -0.00413110 </v>
   <v>       0.00332507       0.10803380       0.02862778 </v>
   <v>       0.00571856       0.07522263      -0.02488208 </v>
   <v>      -0.00517782       0.11497859       0.03477794 </v>
   <v>      -0.00774875       0.09630333      -0.01817248 </v>
   <v>      -0.02564180       0.59833167      -0.37907246 </v>
   <v>       0.00681053       0.28873414       0.09394478 </v>
   <v>      -0.07961578       0.12403151      -0.14584931 </v>
   <v>      -0.05842399       0.05370526       0.03588109 </v>
   <v>       0.09937196       0.49806620      -0.21320053 </v>
   <v>       0.05229968       0.07578200       0.02616098 </v>
   <v>      -0.02323329       0.28633094      -0.09755071 </v>
   <v>       0.00718789       0.04220686       0.09721794 </v>
   <v>      -0.00556408       0.29383874      -0.08357144 </v>
   <v>      -0.05968565       0.19079826      -0.01377306 </v>
   <v>       0.02936954       0.28460458      -0.09117316 </v>
   <v>       0.05258687       0.17922747      -0.01102927 </v>
   <v>       0.00616208      -0.24115945       0.01293787 </v>
   <v>       1.32848783       1.60903817      -0.15690579 </v>
   <v>      -0.04013679      -0.25256722       0.03568226 </v>
   <v>      -1.48188139       1.27054464      -0.31502401 </v>
   <v>       0.03490754      -0.27251801       0.03799340 </v>
   <v>       0.16313705       0.24037623      -0.11445886 </v>
   <v>      -0.21068685       0.01403632      -0.15373765 </v>
   <v>      -0.07011735       0.06006331       0.00055661 </v>
   <v>      -2.37921860       0.25060107       0.57555562 </v>
   <v>       0.27345965       0.02296956      -0.14155591 </v>
   <v>      -2.88653927      -0.89122203      -2.78734138 </v>
   <v>       0.03451656      -0.63098607      -0.37935672 </v>
   <v>       1.10877067      -1.49798634       1.79370997 </v>
   <v>      -0.18510714      -0.27952306      -0.25563467 </v>
   <v>      -1.24602124      -1.46339231       1.75493089 </v>
   <v>       0.14734171      -0.18003605      -0.21401259 </v>
   <v>       0.15072845      -0.22751355       0.43013882 </v>
   <v>      -0.31683429      -1.56786844       6.82386322 </v>
   <v>       0.20507013       1.55932903       1.36594405 </v>
   <v>      -0.48925723       0.48334207      -2.33481845 </v>
   <v>      -0.18013173       1.46425037       1.37678115 </v>
   <v>       0.61653501       0.19128779      -0.75288818 </v>
   <v>       0.00788159       0.41703782       0.22032065 </v>
   <v>       0.01369425      -0.44466611       0.41447639 </v>
   <v>      -0.29009487      -2.44481609      -0.92181895 </v>
   <v>       0.00733279      -0.39902330       0.25571962 </v>
   <v>      -0.15453033      -0.77294775      -0.11460356 </v>
   <v>      -0.02058719      -0.40330943       0.25107446 </v>
   <v>       0.48220098      -1.29355276       0.03093418 </v>
   <v>       0.01132030       0.56042479      -0.10238987 </v>
   <v>       0.30541193      -1.71008141       0.19782009 </v>
   <v>       0.01249840       0.54291906      -0.15795565 </v>
   <v>       0.41873405      -0.17175500      -0.06058214 </v>
   <v>      -0.02159911       0.56491370      -0.11047289 </v>
   <v>      -1.10908370      -1.45515566      -0.32128992 </v>
   <v>      -0.00077766      -0.50550774       0.18113623 </v>
   <v>      -0.16472650      -0.26288509      -0.06841731 </v>
   <v>       0.02896864      -0.44887527       0.16676284 </v>
   <v>       0.17167358      -0.23702532      -0.07284599 </v>
   <v>      -0.03421710      -0.43986940       0.16599312 </v>
   <v>      -0.01252227      -0.44269234       0.08181104 </v>
   <v>       0.00480696       0.11478664       0.36669348 </v>
   <v>      -0.03301503       0.03839962       0.32998569 </v>
   <v>       0.00645052       0.05734489       0.34062441 </v>
   <v>      -0.01441326       0.05906573       0.35672591 </v>
   <v>      -0.01203139       0.10863237       0.36520710 </v>
   <v>       0.04664404       0.03819870       0.34088042 </v>
   <v>       0.01683357      -0.25308977      -0.44171799 </v>
   <v>      -0.15892061      -0.26448665      -0.29166638 </v>
   <v>       0.02050992      -0.22644099      -0.42599741 </v>
   <v>       0.18246627      -0.31095712      -0.36318227 </v>
   <v>      -0.04416146      -0.23210515      -0.38119817 </v>
   <v>      -0.03229003      -0.10441189      -0.31679595 </v>
   <v>      -0.19063729      -0.53799003       0.46116461 </v>
   <v>       0.01149091      -0.26329256       0.38255624 </v>
   <v>       0.19892190      -0.42808551       0.45833405 </v>
   <v>      -0.00494181      -0.26006862       0.37319507 </v>
   <v>      -0.02617662      -0.31623401       0.26825822 </v>
   <v>      -0.00730102      -0.24311232       0.34351015 </v>
   <v>      -0.01030186       0.21228841      -0.29937660 </v>
   <v>      -0.01125447       0.25053758      -0.25474249 </v>
   <v>      -0.00304602       0.20717456      -0.31964986 </v>
   <v>      -0.01197992       0.23487922      -0.21635038 </v>
   <v>       0.01243448       0.20157681      -0.30133116 </v>
   <v>       0.02413449       0.24846530      -0.24914105 </v>
   <v>       0.01053121       0.57647248      -0.18933117 </v>
   <v>      -0.16185627       0.72668926      -0.01743914 </v>
   <v>      -0.01746056       0.59524188      -0.19937227 </v>
   <v>       0.11657291       0.57189660       0.02994281 </v>
   <v>       0.00598213       0.62179662      -0.19565951 </v>
   <v>       0.04880060       0.47991232      -0.10484848 </v>
   <v>       0.88892123      -1.25581343       1.52380409 </v>
   <v>      -0.01582466      -0.66983339      -0.28960573 </v>
   <v>       0.25938298      -0.59709426       0.44713131 </v>
   <v>       0.06744110      -0.66203119       0.02438158 </v>
   <v>      -1.24518175      -1.76862244       1.46754664 </v>
   <v>      -0.05403146      -0.65778955      -0.00887753 </v>
   <v>       0.20361057       0.37654573       1.49906365 </v>
   <v>      -0.94061196      -0.40556245      -2.32015747 </v>
   <v>      -0.01290098       0.04706816       0.34093947 </v>
   <v>       1.29882311      -0.21121799      -1.18426059 </v>
   <v>      -0.05819724      -0.02401197       0.09931022 </v>
   <v>       0.06029324       0.03230343       0.31698552 </v>
   <v>       0.00922067      -0.05279539      -0.27063434 </v>
   <v>       0.39231679       1.80709856      -1.11478005 </v>
   <v>      -0.00387163      -0.08852459      -0.38034838 </v>
   <v>       0.37800702       0.38295309      -0.34814810 </v>
   <v>       0.01073740      -0.08021465      -0.31950956 </v>
   <v>      -1.05994772       1.18113478      -1.32119256 </v>
   <v>       0.40277997       0.53331446       0.59789213 </v>
   <v>      -0.01111959      -0.03415217      -0.52145612 </v>
   <v>       0.06381612      -0.04431165       0.28111900 </v>
   <v>       0.14379713      -0.01508224       0.01220292 </v>
   <v>      -0.53402188       0.61186269       0.54583606 </v>
   <v>      -0.12922447      -0.02602089      -0.06560193 </v>
   <v>       0.03467444       0.17118233      -0.18772865 </v>
   <v>      -0.06308123       0.18776482      -0.22854383 </v>
   <v>       1.52437769       0.13845845       1.10120422 </v>
   <v>       0.01191867       0.25827471      -0.17919653 </v>
   <v>      -1.40014589       0.11109752      -0.05753018 </v>
   <v>       5.58130980       5.09385908      -5.19743440 </v>
  </varray>
  <varray name="stress" >
   <v>     356.33112961       3.09828355       6.81636582 </v>
   <v>       3.09828338     357.88123231      -6.52410988 </v>
   <v>       6.81636564      -6.52410967     388.20325994 </v>
  </varray>
  <energy>
   <i name="e_fr_energy">   -593.82455964 </i>
   <i name="e_wo_entrp">   -593.80653688 </i>
   <i name="e_0_energy">   -593.81554826 </i>
  </energy>
  <time name="totalsc">   65.52   65.79</time>
 </calculation>
 <calculation>
  <scstep>
   <time name="dav">    2.09    2.09</time>
   <time name="total">    2.46    2.46</time>
   <energy>
    <i name="alphaZ">   5376.25786726 </i>
    <i name="ewald"> -86209.41879383 </i>
    <i name="hartreedc"> -34183.95002063 </i>
    <i name="XCdc">   4193.80046353 </i>
    <i name="pawpsdc"> 121014.24731941 </i>
    <i name="pawaedc">-137097.62217243 </i>
    <i name="eentropy">     -0.01794364 </i>
    <i name="bandstr">  -5532.31357905 </i>
    <i name="atom"> 131866.99277783 </i>
    <i name="e_fr_energy">   -572.02408155 </i>
    <i name="e_wo_entrp">   -572.00613791 </i>
    <i name="e_0_energy">   -572.01510973 </i>
   </energy>
  </scstep>
  <scstep>
   <time name="diag">    0.24    0.24</time>
   <time name="diis">    2.62    2.62</time>
   <time name="orth">    0.03    0.03</time>
   <time name="total">    3.27    3.27</time>
   <energy>
    <i name="e_fr_energy">   -590.82660176 </i>
    <i name="e_wo_entrp">   -590.80848557 </i>
    <i name="e_0_energy">   -590.81754367 </i>
   </energy>
  </scstep>
  <scstep>
   <time name="diag">    0.24    0.24</time>
   <time name="diis">    2.93    2.93</time>
   <time name="orth">    0.03    0.03</time>
   <time name="total">    3.58    3.58</time>
   <energy>
    <i name="e_fr_energy">   -595.93697646 </i>
    <i name="e_wo_entrp">   -595.91893164 </i>
    <i name="e_0_energy">   -595.92795405 </i>
   </energy>
  </scstep>
  <scstep>
   <time name="diag">    0.35    0.35</time>
   <time name="diis">    2.72    2.72</time>
   <time name="orth">    0.03    0.03</time>
   <time name="total">    3.48    3.49</time>
   <energy>
    <i name="e_fr_energy">   -595.98315330 </i>
    <i name="e_wo_entrp">   -595.96592371 </i>
    <i name="e_0_energy">   -595.97453851 </i>
   </energy>
  </scstep>
  <scstep>
   <time name="diag">    0.24    0.24</time>
   <time name="diis">    3.04    3.04</time>
   <time name="orth">    0.03    0.03</time>
   <time name="total">    3.69    3.69</time>
   <energy>
    <i name="e_fr_energy">   -596.04880409 </i>
    <i name="e_wo_entrp">   -596.03219752 </i>
    <i name="e_0_energy">   -596.04050080 </i>
   </energy>
  </scstep>
  <scstep>
   <time name="diag">    0.24    0.24</time>
   <time name="diis">    2.72    2.72</time>
   <time name="orth">    0.03    0.03</time>
   <time name="total">    3.79    3.79</time>
   <energy>
    <i name="e_fr_energy">   -596.03667660 </i>
    <i name="e_wo_entrp">   -596.02113945 </i>
    <i name="e_0_energy">   -596.02890803 </i>
   </energy>
  </scstep>
  <scstep>
   <time name="diag">    0.24    0.24</time>
   <time name="diis">    3.01    3.01</time>
   <time name="orth">    0.03    0.03</time>
   <time name="total">    3.66    3.66</time>
   <energy>
    <i name="e_fr_energy">   -596.04072024 </i>
    <i name="e_wo_entrp">   -596.02519413 </i>
    <i name="e_0_energy">   -596.03295718 </i>
   </energy>
  </scstep>
  <scstep>
   <time name="diag">    0.24    0.24</time>
   <time name="diis">    2.61    2.60</time>
   <time name="orth">    0.03    0.03</time>
   <time name="total">    3.26    3.26</time>
   <energy>
    <i name="e_fr_energy">   -596.03864839 </i>
    <i name="e_wo_entrp">   -596.02306892 </i>
    <i name="e_0_energy">   -596.03085865 </i>
   </energy>
  </scstep>
  <scstep>
   <time name="diag">    0.24    0.24</time>
   <time name="diis">    2.71    2.71</time>
   <time name="orth">    0.03    0.03</time>
   <time name="total">    3.37    3.37</time>
   <energy>
    <i name="e_fr_energy">   -596.03921391 </i>
    <i name="e_wo_entrp">   -596.02363205 </i>
    <i name="e_0_energy">   -596.03142298 </i>
   </energy>
  </scstep>
  <scstep>
   <time name="diag">    0.24    0.24</time>
   <time name="diis">    2.87    2.87</time>
   <time name="orth">    0.03    0.03</time>
   <time name="total">    3.52    3.52</time>
   <energy>
    <i name="e_fr_energy">   -596.03937248 </i>
    <i name="e_wo_entrp">   -596.02379232 </i>
    <i name="e_0_energy">   -596.03158240 </i>
   </energy>
  </scstep>
  <scstep>
   <time name="diag">    0.24    0.24</time>
   <time name="diis">    2.41    2.41</time>
   <time name="orth">    0.03    0.03</time>
   <time name="total">    3.07    3.07</time>
   <energy>
    <i name="e_fr_energy">   -596.03945247 </i>
    <i name="e_wo_entrp">   -596.02387009 </i>
    <i name="e_0_energy">   -596.03166128 </i>
   </energy>
  </scstep>
  <scstep>
   <time name="diag">    0.24    0.24</time>
   <time name="diis">    2.07    2.07</time>
   <time name="orth">    0.03    0.03</time>
   <time name="total">    2.73    2.73</time>
   <energy>
    <i name="e_fr_energy">   -596.03947753 </i>
    <i name="e_wo_entrp">   -596.02389374 </i>
    <i name="e_0_energy">   -596.03168563 </i>
   </energy>
  </scstep>
  <scstep>
   <time name="diag">    0.24    0.24</time>
   <time name="diis">    1.71    1.71</time>
   <time name="orth">    0.03    0.03</time>
   <time name="total">    2.37    2.37</time>
   <energy>
    <i name="e_fr_energy">   -596.03949157 </i>
    <i name="e_wo_entrp">   -596.02390574 </i>
    <i name="e_0_energy">   -596.03169865 </i>
   </energy>
  </scstep>
  <scstep>
   <time name="diag">    0.24    0.24</time>
   <time name="diis">    1.36    1.36</time>
   <time name="orth">    0.03    0.03</time>
   <time name="total">    1.75    1.75</time>
   <energy>
    <i name="alphaZ">   5376.25786726 </i>
    <i name="ewald"> -86209.41879383 </i>
    <i name="hartreedc"> -34209.66016957 </i>
    <i name="XCdc">   4194.64850931 </i>
    <i name="pawpsdc"> 120441.23393512 </i>
    <i name="pawaedc">-136525.24555445 </i>
    <i name="eentropy">     -0.01558646 </i>
    <i name="bandstr">  -5530.83248270 </i>
    <i name="atom"> 131866.99277783 </i>
    <i name="e_fr_energy">   -596.03949749 </i>
    <i name="e_wo_entrp">   -596.02391103 </i>
    <i name="e_0_energy">   -596.03170426 </i>
   </energy>
  </scstep>
  <structure>
   <crystal>
    <varray name="basis" >
     <v>       0.00000000      12.28047342       0.00000000 </v>
     <v>       9.14270205       0.00000000       0.00000000 </v>
     <v>       0.00000000      -2.76826177     -11.30069772 </v>
    </varray>
    <i name="volume">   1268.80515525 </i>
    <varray name="rec_basis" >
     <v>       0.00000000       0.08143009      -0.01994742 </v>
     <v>       0.10937686      -0.00000000       0.00000000 </v>
     <v>       0.00000000       0.00000000      -0.08849011 </v>
    </varray>
   </crystal>
   <varray name="positions" >
    <v>       0.65929466       0.00000842       0.15729655 </v>
    <v>       0.65889167       0.00001057       0.65738281 </v>
    <v>       0.65923515       0.33335088       0.15724296 </v>
    <v>       0.65915775       0.33336351       0.65747139 </v>
    <v>       0.65925651       0.66663935       0.15721670 </v>
    <v>       0.65923411       0.66662578       0.65744275 </v>
    <v>       0.84387698       0.16653136       0.34425309 </v>
    <v>       0.84220556       0.16670260       0.84223378 </v>
    <v>       0.84178930       0.49957990       0.34325746 </v>
    <v>       0.84133815       0.49969172       0.84248165 </v>
    <v>       0.84332347       0.83385768       0.34354498 </v>
    <v>       0.84143423       0.83360930       0.84252315 </v>
    <v>       0.59169310       0.16654407       0.39780944 </v>
    <v>       0.59054665       0.16670459       0.89697798 </v>
    <v>       0.59170914       0.49997064       0.39774977 </v>
    <v>       0.59123719       0.49968506       0.89745180 </v>
    <v>       0.59168018       0.83348831       0.39778222 </v>
    <v>       0.59118909       0.83361081       0.89744008 </v>
    <v>       0.90856578       0.00003251       0.10255177 </v>
    <v>       0.91599754       0.00700994       0.60327683 </v>
    <v>       0.90849908       0.33312155       0.10245467 </v>
    <v>       0.91481996       0.32551399       0.60395184 </v>
    <v>       0.90841848       0.66685086       0.10244481 </v>
    <v>       0.91058004       0.66752748       0.60309562 </v>
    <v>       0.15904138       0.16555495       0.15802148 </v>
    <v>       0.15907372       0.49963002       0.15736279 </v>
    <v>       0.15926890       0.48744574       0.65490812 </v>
    <v>       0.15906476       0.83477628       0.15796947 </v>
    <v>       0.15801953       0.81810213       0.66926432 </v>
    <v>       0.33904799       0.00018213       0.34425430 </v>
    <v>       0.33355089       0.00585057       0.83497749 </v>
    <v>       0.34030962       0.33235659       0.34372613 </v>
    <v>       0.33372411       0.32675854       0.83514303 </v>
    <v>       0.34066039       0.66744413       0.34354845 </v>
    <v>       0.33985401       0.66746200       0.84079857 </v>
    <v>       0.07774846      -0.00167182       0.36826194 </v>
    <v>       0.09528560       0.00108208       0.89156179 </v>
    <v>       0.09462000       0.33075170       0.40736033 </v>
    <v>       0.09490167       0.33238284       0.89151552 </v>
    <v>       0.09195037       0.66991989       0.40060708 </v>
    <v>       0.09190067       0.66670825       0.89645245 </v>
    <v>       0.40737991       0.16673893       0.10083760 </v>
    <v>       0.40080846       0.16513594       0.60654224 </v>
    <v>       0.40771199       0.50003869       0.10151533 </v>
    <v>       0.40659943       0.49918460       0.60309624 </v>
    <v>       0.40769962       0.83322470       0.10153516 </v>
    <v>       0.40441423       0.83587773       0.60247494 </v>
    <v>       0.99876924       0.16672640       0.12876915 </v>
    <v>       0.98956087       0.16827821       0.62748755 </v>
    <v>       0.99875394       0.50006595       0.12900636 </v>
    <v>       0.99585271       0.50220950       0.62859067 </v>
    <v>       0.99879465       0.83321936       0.12880365 </v>
    <v>       0.99106187       0.82748111       0.62970363 </v>
    <v>       0.50137072      -0.00000410       0.37089468 </v>
    <v>       0.50256399      -0.00086920       0.87196003 </v>
    <v>       0.50160703       0.33348619       0.37095604 </v>
    <v>       0.50266984       0.33423919       0.87197893 </v>
    <v>       0.50164315       0.66648612       0.37095933 </v>
    <v>       0.50171307       0.66660059       0.87131870 </v>
    <v>       0.67346912       0.16669203       0.28004967 </v>
    <v>       0.67320436       0.16649246       0.78020637 </v>
    <v>       0.67326855       0.50003404       0.28016096 </v>
    <v>       0.67325982       0.49992395       0.78009222 </v>
    <v>       0.67344637       0.83326985       0.28005601 </v>
    <v>       0.67319309       0.83357946       0.78015986 </v>
    <v>       0.82605977       0.00008882       0.22027061 </v>
    <v>       0.82587060      -0.00083857       0.71963004 </v>
    <v>       0.82614933       0.33344156       0.22020350 </v>
    <v>       0.82575687       0.33429614       0.71993534 </v>
    <v>       0.82608397       0.66643364       0.22001225 </v>
    <v>       0.82652362       0.66649628       0.71973732 </v>
    <v>       0.83293779      -0.00100592       0.44345425 </v>
    <v>       0.83409256       0.00006063       0.94378983 </v>
    <v>       0.83337226       0.33438297       0.44346633 </v>
    <v>       0.83411423       0.33330726       0.94382979 </v>
    <v>       0.83399458       0.66652854       0.44427777 </v>
    <v>       0.83420941       0.66662814       0.94395652 </v>
    <v>       0.66562703       0.16661231       0.05585508 </v>
    <v>       0.66573434       0.16660728       0.55566454 </v>
    <v>       0.66562645       0.49998393       0.05594162 </v>
    <v>       0.66563588       0.49993679       0.55550064 </v>
    <v>       0.66558683       0.83339895       0.05586342 </v>
    <v>       0.66572080       0.83346068       0.55564062 </v>
    <v>       0.49891594       0.00005557       0.12914030 </v>
    <v>       0.49934064      -0.00085406       0.62840649 </v>
    <v>       0.49899934       0.33324120       0.12918316 </v>
    <v>       0.49868696       0.33394845       0.62820422 </v>
    <v>       0.49910008       0.66669823       0.12916732 </v>
    <v>       0.49845532       0.66692417       0.62877964 </v>
    <v>      -0.00286885       0.17135717       0.36516284 </v>
    <v>       0.00117819       0.16658317       0.87290428 </v>
    <v>       0.00075496       0.50136867       0.36975915 </v>
    <v>       0.00090668       0.50035586       0.87156387 </v>
    <v>      -0.00482924       0.82676297       0.36540300 </v>
    <v>       0.00095535       0.83304823       0.87170585 </v>
    <v>       0.17340771       0.00107438       0.27521558 </v>
[...]
       <r>   -10.0175     0.0000   142.0000 </r>
       <r>    -9.9071     0.0000   142.0000 </r>
       <r>    -9.7968     0.0000   142.0000 </r>
       <r>    -9.6864     0.0000   142.0000 </r>
       <r>    -9.5761     0.0246   142.0027 </r>
       <r>    -9.4658    16.5686   143.8310 </r>
       <r>    -9.3554    92.5547   154.0439 </r>
       <r>    -9.2451   224.1832   178.7814 </r>
       <r>    -9.1347   366.1268   219.1816 </r>
       <r>    -9.0244   466.1161   270.6151 </r>
       <r>    -8.9140   487.0920   324.3632 </r>
       <r>    -8.8037   498.2311   379.3405 </r>
       <r>    -8.6933   461.6466   430.2808 </r>
       <r>    -8.5830   401.1788   474.5488 </r>
       <r>    -8.4726   283.6844   505.8520 </r>
       <r>    -8.3623   228.6643   531.0839 </r>
       <r>    -8.2520   183.0373   551.2811 </r>
       <r>    -8.1416   119.5399   564.4717 </r>
       <r>    -8.0313   123.6493   578.1158 </r>
       <r>    -7.9209    91.0172   588.1591 </r>
       <r>    -7.8106    51.9429   593.8907 </r>
       <r>    -7.7002    37.6296   598.0430 </r>
       <r>    -7.5899    33.8387   601.7769 </r>
       <r>    -7.4795    26.9965   604.7558 </r>
       <r>    -7.3692    54.2612   610.7433 </r>
       <r>    -7.2589    11.3634   611.9972 </r>
       <r>    -7.1485     0.0258   612.0000 </r>
       <r>    -7.0382     0.0000   612.0000 </r>
       <r>    -6.9278     0.0000   612.0000 </r>
       <r>    -6.8175     0.0000   612.0000 </r>
       <r>    -6.7071     0.0000   612.0000 </r>
       <r>    -6.5968     0.0000   612.0000 </r>
       <r>    -6.4864     0.0000   612.0000 </r>
       <r>    -6.3761     0.0000   612.0000 </r>
       <r>    -6.2658     0.0000   612.0000 </r>
       <r>    -6.1554     0.0000   612.0000 </r>
       <r>    -6.0451     0.0000   612.0000 </r>
       <r>    -5.9347     0.0000   612.0000 </r>
       <r>    -5.8244     0.0000   612.0000 </r>
       <r>    -5.7140     0.0000   612.0000 </r>
       <r>    -5.6037     0.0000   612.0000 </r>
       <r>    -5.4933     0.0000   612.0000 </r>
       <r>    -5.3830     0.0000   612.0000 </r>
       <r>    -5.2726     0.0000   612.0000 </r>
       <r>    -5.1623     0.0000   612.0000 </r>
       <r>    -5.0520     0.0000   612.0000 </r>
       <r>    -4.9416     0.0000   612.0000 </r>
       <r>    -4.8313     0.0000   612.0000 </r>
       <r>    -4.7209     0.0000   612.0000 </r>
       <r>    -4.6106     0.0000   612.0000 </r>
       <r>    -4.5002     0.1701   612.0188 </r>
       <r>    -4.3899    13.9270   613.5555 </r>
       <r>    -4.2795     4.0269   613.9999 </r>
       <r>    -4.1692     0.0009   614.0000 </r>
       <r>    -4.0589     0.0000   614.0000 </r>
       <r>    -3.9485     0.0000   614.0000 </r>
       <r>    -3.8382     0.0000   614.0000 </r>
       <r>    -3.7278     0.0000   614.0000 </r>
       <r>    -3.6175     0.0000   614.0000 </r>
       <r>    -3.5071     0.0000   614.0000 </r>
       <r>    -3.3968     0.0000   614.0000 </r>
       <r>    -3.2864     0.2427   614.0268 </r>
       <r>    -3.1761     8.2031   614.9320 </r>
       <r>    -3.0657    24.3222   617.6158 </r>
       <r>    -2.9554    32.2352   621.1728 </r>
       <r>    -2.8451    38.5872   625.4307 </r>
       <r>    -2.7347    41.3017   629.9881 </r>
       <r>    -2.6244    37.1306   634.0853 </r>
       <r>    -2.5140    44.9970   639.0505 </r>
       <r>    -2.4037    38.7715   643.3287 </r>
       <r>    -2.2933    44.1011   648.1950 </r>
       <r>    -2.1830    43.8349   653.0320 </r>
       <r>    -2.0726    39.6290   657.4048 </r>
       <r>    -1.9623    37.2941   661.5200 </r>
       <r>    -1.8520    38.8810   665.8104 </r>
       <r>    -1.7416    40.2009   670.2463 </r>
       <r>    -1.6313    32.3713   673.8183 </r>
       <r>    -1.5209    34.5711   677.6331 </r>
       <r>    -1.4106    28.5096   680.7790 </r>
       <r>    -1.3002    33.7925   684.5078 </r>
       <r>    -1.1899    28.2670   687.6269 </r>
       <r>    -1.0795    30.1486   690.9537 </r>
       <r>    -0.9692    43.6304   695.7681 </r>
       <r>    -0.8589    43.2452   700.5399 </r>
       <r>    -0.7485    43.9343   705.3879 </r>
       <r>    -0.6382    43.4565   710.1831 </r>
       <r>    -0.5278    41.5596   714.7689 </r>
       <r>    -0.4175    45.3018   719.7678 </r>
       <r>    -0.3071    43.4152   724.5584 </r>
       <r>    -0.1968    46.1365   729.6493 </r>
       <r>    -0.0864    58.7065   736.1273 </r>
       <r>     0.0239    56.0428   742.3113 </r>
       <r>     0.1343    57.2043   748.6235 </r>
       <r>     0.2446    56.4298   754.8503 </r>
       <r>     0.3549    62.4128   761.7372 </r>
       <r>     0.4653    63.6947   768.7656 </r>
       <r>     0.5756    69.5222   776.4370 </r>
       <r>     0.6860    65.0706   783.6172 </r>
       <r>     0.7963    65.4429   790.8385 </r>
       <r>     0.9067    64.3508   797.9393 </r>
       <r>     1.0170    59.6042   804.5163 </r>
       <r>     1.1274    58.4907   810.9704 </r>
       <r>     1.2377    65.2893   818.1748 </r>
       <r>     1.3480    67.4765   825.6205 </r>
       <r>     1.4584    67.0865   833.0231 </r>
       <r>     1.5687    66.0360   840.3099 </r>
       <r>     1.6791    75.3195   848.6210 </r>
       <r>     1.7894    62.1697   855.4811 </r>
       <r>     1.8998    67.3636   862.9143 </r>
       <r>     2.0101    78.0973   871.5319 </r>
       <r>     2.1205    75.6820   879.8831 </r>
       <r>     2.2308    73.5536   887.9993 </r>
       <r>     2.3412    80.9364   896.9303 </r>
       <r>     2.4515    81.0040   905.8686 </r>
       <r>     2.5618    84.9606   915.2436 </r>
       <r>     2.6722    86.0044   924.7337 </r>
       <r>     2.7825    96.3552   935.3660 </r>
       <r>     2.8929   110.7976   947.5920 </r>
       <r>     3.0032   102.7278   958.9275 </r>
       <r>     3.1136    97.9288   969.7334 </r>
       <r>     3.2239    98.6048   980.6140 </r>
       <r>     3.3343    91.9615   990.7614 </r>
       <r>     3.4446    85.6952  1000.2175 </r>
       <r>     3.5549    74.7747  1008.4685 </r>
       <r>     3.6653    56.4262  1014.6948 </r>
       <r>     3.7756    60.6239  1021.3844 </r>
       <r>     3.8860    50.3149  1026.9363 </r>
       <r>     3.9963    31.0199  1030.3592 </r>
       <r>     4.1067    34.1634  1034.1290 </r>
       <r>     4.2170    32.6646  1037.7334 </r>
       <r>     4.3274    19.5940  1039.8955 </r>
       <r>     4.4377     0.9486  1040.0001 </r>
       <r>     4.5480     2.7001  1040.2981 </r>
       <r>     4.6584    15.5442  1042.0133 </r>
       <r>     4.7687    15.4211  1043.7149 </r>
       <r>     4.8791     2.7792  1044.0216 </r>
       <r>     4.9894     1.9816  1044.2403 </r>
       <r>     5.0998     0.3901  1044.2833 </r>
       <r>     5.2101     8.1465  1045.1822 </r>
       <r>     5.3205    13.1499  1046.6333 </r>
       <r>     5.4308    12.2200  1047.9817 </r>
       <r>     5.5412     0.1739  1048.0009 </r>
       <r>     5.6515     1.6419  1048.1820 </r>
       <r>     5.7618     4.4111  1048.6688 </r>
       <r>     5.8722     9.3702  1049.7027 </r>
       <r>     5.9825     2.6894  1049.9995 </r>
       <r>     6.0929     0.0044  1050.0000 </r>
       <r>     6.2032     0.1811  1050.0200 </r>
       <r>     6.3136     5.3943  1050.6152 </r>
       <r>     6.4239     3.8954  1051.0450 </r>
       <r>     6.5343     4.6994  1051.5636 </r>
       <r>     6.6446     3.8838  1051.9922 </r>
       <r>     6.7549     0.1166  1052.0050 </r>
       <r>     6.8653     9.3410  1053.0358 </r>
       <r>     6.9756     8.6730  1053.9928 </r>
       <r>     7.0860     0.0654  1054.0000 </r>
       <r>     7.1963     0.0000  1054.0000 </r>
       <r>     7.3067     0.0003  1054.0000 </r>
       <r>     7.4170     0.9917  1054.1095 </r>
       <r>     7.5274     5.3203  1054.6965 </r>
       <r>     7.6377     0.9360  1054.7998 </r>
       <r>     7.7480     2.9276  1055.1229 </r>
       <r>     7.8584     4.6438  1055.6353 </r>
       <r>     7.9687     6.6098  1056.3646 </r>
       <r>     8.0791     4.5062  1056.8619 </r>
       <r>     8.1894     7.8662  1057.7299 </r>
       <r>     8.2998     5.3459  1058.3198 </r>
       <r>     8.4101     6.8245  1059.0728 </r>
       <r>     8.5205    11.2278  1060.3117 </r>
       <r>     8.6308     7.9567  1061.1897 </r>
       <r>     8.7412     5.1746  1061.7607 </r>
       <r>     8.8515    14.3708  1063.3465 </r>
       <r>     8.9618    18.1792  1065.3524 </r>
       <r>     9.0722    16.6839  1067.1934 </r>
       <r>     9.1825    19.8509  1069.3839 </r>
       <r>     9.2929    25.5508  1072.2033 </r>
       <r>     9.4032    22.1254  1074.6447 </r>
       <r>     9.5136    25.9970  1077.5133 </r>
       <r>     9.6239    23.2528  1080.0791 </r>
       <r>     9.7343    27.8658  1083.1540 </r>
       <r>     9.8446    30.3972  1086.5082 </r>
       <r>     9.9549    32.1317  1090.0537 </r>
       <r>    10.0653    35.4949  1093.9704 </r>
       <r>    10.1756    31.3791  1097.4329 </r>
       <r>    10.2860    29.6033  1100.6995 </r>
       <r>    10.3963    34.7804  1104.5374 </r>
       <r>    10.5067    41.2034  1109.0839 </r>
       <r>    10.6170    39.2291  1113.4127 </r>
       <r>    10.7274    36.2890  1117.4170 </r>
       <r>    10.8377    39.6394  1121.7910 </r>
       <r>    10.9481    34.9506  1125.6476 </r>
       <r>    11.0584    39.4571  1130.0015 </r>
       <r>    11.1687    34.8076  1133.8423 </r>
       <r>    11.2791    39.2526  1138.1737 </r>
       <r>    11.3894    33.6650  1141.8884 </r>
       <r>    11.4998    38.7754  1146.1671 </r>
       <r>    11.6101    32.7811  1149.7843 </r>
       <r>    11.7205    32.4627  1153.3664 </r>
       <r>    11.8308    31.1409  1156.8027 </r>
       <r>    11.9412    36.2285  1160.8003 </r>
       <r>    12.0515    28.3448  1163.9280 </r>
       <r>    12.1618    33.4975  1167.6243 </r>
       <r>    12.2722    35.8299  1171.5779 </r>
       <r>    12.3825    31.6205  1175.0671 </r>
       <r>    12.4929    31.2003  1178.5099 </r>
       <r>    12.6032    43.5853  1183.3193 </r>
       <r>    12.7136    39.9892  1187.7319 </r>
       <r>    12.8239    42.6202  1192.4348 </r>
       <r>    12.9343    34.4742  1196.2389 </r>
       <r>    13.0446    36.1896  1200.2322 </r>
       <r>    13.1549    35.0857  1204.1037 </r>
       <r>    13.2653    36.7504  1208.1589 </r>
       <r>    13.3756    34.4570  1211.9611 </r>
       <r>    13.4860    33.3208  1215.6379 </r>
       <r>    13.5963    34.3944  1219.4331 </r>
       <r>    13.7067    35.0948  1223.3056 </r>
       <r>    13.8170    38.1471  1227.5150 </r>
       <r>    13.9274    41.5840  1232.1036 </r>
       <r>    14.0377    40.5389  1236.5768 </r>
       <r>    14.1481    31.0276  1240.0006 </r>
       <r>    14.2584    35.3532  1243.9016 </r>
       <r>    14.3687    37.6854  1248.0600 </r>
       <r>    14.4791    37.6853  1252.2184 </r>
       <r>    14.5894    42.2583  1256.8814 </r>
       <r>    14.6998    41.5692  1261.4683 </r>
       <r>    14.8101    31.3204  1264.9244 </r>
       <r>    14.9205     9.6651  1265.9909 </r>
       <r>    15.0308     0.0828  1266.0000 </r>
       <r>    15.1412     0.0000  1266.0000 </r>
       <r>    15.2515     0.0000  1266.0000 </r>
       <r>    15.3618     0.0000  1266.0000 </r>
       <r>    15.4722     0.0000  1266.0000 </r>
       <r>    15.5825     0.0000  1266.0000 </r>
       <r>    15.6929     0.0000  1266.0000 </r>
       <r>    15.8032     0.0000  1266.0000 </r>
       <r>    15.9136     0.0000  1266.0000 </r>
       <r>    16.0239     0.0000  1266.0000 </r>
       <r>    16.1343     0.0000  1266.0000 </r>
       <r>    16.2446     0.0000  1266.0000 </r>
       <r>    16.3550     0.0000  1266.0000 </r>
      </set>
     </set>
    </array>
   </total>
  </dos>
 </calculation>
 <structure name="finalpos" >
  <crystal>
   <varray name="basis" >
    <v>       0.00000000      12.28047342       0.00000000 </v>
    <v>       9.14270205       0.00000000       0.00000000 </v>
    <v>       0.00000000      -2.76826177     -11.30069772 </v>
   </varray>
   <i name="volume">   1268.80515525 </i>
   <varray name="rec_basis" >
    <v>       0.00000000       0.08143009      -0.01994742 </v>
    <v>       0.10937686      -0.00000000       0.00000000 </v>
    <v>       0.00000000       0.00000000      -0.08849011 </v>
   </varray>
  </crystal>
  <varray name="positions" >
   <v>       0.67205140      -0.00280084       0.15209277 </v>
   <v>       0.64348254       0.00356456       0.65362779 </v>
   <v>       0.66671193       0.32795040       0.15742241 </v>
   <v>       0.64895119       0.33169736       0.65282488 </v>
   <v>       0.66399727       0.66524847       0.16149848 </v>
   <v>       0.64135127       0.67075779       0.65349832 </v>
   <v>       0.84379181       0.15667965       0.34336112 </v>
   <v>       0.83208096       0.16754165       0.84004577 </v>
   <v>       0.84160750       0.49701055       0.34489862 </v>
   <v>       0.82851133       0.50033473       0.83505349 </v>
   <v>       0.84032200       0.82506994       0.34691642 </v>
   <v>       0.82738990       0.83379530       0.83815923 </v>
   <v>       0.58762627       0.13627206       0.39525004 </v>
   <v>       0.58442141       0.16137839       0.89936124 </v>
   <v>       0.58515383       0.50058142       0.39279236 </v>
   <v>       0.59240506       0.49879089       0.90372305 </v>
   <v>       0.58761860       0.86892755       0.39683827 </v>
   <v>       0.58755730       0.83152770       0.90295247 </v>
   <v>       0.91679680      -0.03616134       0.09970835 </v>
   <v>       0.90937054      -0.00337152       0.60404488 </v>
   <v>       0.91233555       0.33271036       0.10061453 </v>
   <v>       0.90504583       0.35623445       0.59873056 </v>
   <v>       0.90137445       0.69776427       0.09245824 </v>
   <v>       0.89789487       0.62511505       0.60133366 </v>
   <v>       0.15664598       0.18693100       0.15290036 </v>
   <v>       0.14643686       0.50854440       0.16912310 </v>
   <v>       0.18666873       0.45898060       0.65245456 </v>
   <v>       0.16505876       0.84852204       0.15104524 </v>
   <v>       0.15184873       0.82385965       0.66645721 </v>
   <v>       0.34588678       0.00850804       0.34630906 </v>
   <v>       0.33364819      -0.00019204       0.84972782 </v>
   <v>       0.34107286       0.34129092       0.33381614 </v>
   <v>       0.34043644       0.32620520       0.85821611 </v>
   <v>       0.35011887       0.66833193       0.33521277 </v>
   <v>       0.33838536       0.66839753       0.85795713 </v>
   <v>       0.08769269      -0.02705016       0.36621873 </v>
   <v>       0.08168930       0.00669190       0.89260323 </v>
   <v>       0.09273149       0.29956510       0.44319709 </v>
   <v>       0.08277799       0.34236445       0.88474614 </v>
   <v>       0.09253591       0.64816376       0.41454609 </v>
   <v>       0.07952681       0.67224724       0.89557832 </v>
   <v>       0.42229862       0.15543971       0.11700224 </v>
   <v>       0.37369639       0.17904319       0.60241522 </v>
   <v>       0.41751594       0.49684536       0.11087790 </v>
   <v>       0.40217206       0.49531182       0.60513546 </v>
   <v>       0.42454419       0.84728148       0.11777391 </v>
   <v>       0.38159786       0.85064632       0.59851910 </v>
   <v>       0.99088337       0.15704684       0.11476035 </v>
   <v>       0.97606463       0.17347763       0.61960515 </v>
   <v>       0.98240231       0.51476675       0.12451081 </v>
   <v>       0.03647329       0.48998329       0.62931164 </v>
   <v>       0.04216461       0.87150728       0.21558428 </v>
   <v>       0.98504271       0.81535170       0.63742673 </v>
   <v>       0.44166809       0.01050076       0.24652805 </v>
   <v>       0.50227643      -0.00624526       0.86331616 </v>
   <v>       0.51445912       0.32125450       0.35903257 </v>
   <v>       0.50553958       0.33387251       0.89024767 </v>
   <v>       0.51711230       0.68228606       0.35834413 </v>
   <v>       0.50488069       0.66365392       0.88810605 </v>
   <v>       0.67572752       0.15937667       0.27386733 </v>
   <v>       0.66383230       0.16349656       0.78067380 </v>
   <v>       0.67351370       0.49525851       0.27860447 </v>
   <v>       0.65913709       0.50105570       0.77606829 </v>
   <v>       0.67143271       0.83626757       0.27422819 </v>
   <v>       0.65973581       0.83622363       0.77897383 </v>
   <v>       0.83185824      -0.01019088       0.21932392 </v>
   <v>       0.81803084      -0.00284686       0.71597966 </v>
   <v>       0.83051807       0.32885458       0.21685876 </v>
   <v>       0.81440541       0.32990705       0.72361475 </v>
   <v>       0.82759209       0.66369838       0.22227414 </v>
   <v>       0.81155535       0.67360860       0.71917544 </v>
   <v>       0.82630909      -0.00870760       0.44664625 </v>
   <v>       0.82565114       0.00378342       0.94031007 </v>
   <v>       0.82667868       0.32297183       0.43582585 </v>
   <v>       0.82908501       0.33657485       0.94511977 </v>
   <v>       0.81498406       0.66505542       0.44192702 </v>
   <v>       0.81448920       0.65914226       0.93578105 </v>
   <v>       0.68149426       0.16772485       0.04884631 </v>
   <v>       0.66598731       0.16960948       0.55577703 </v>
   <v>       0.67486531       0.49889158       0.05777025 </v>
   <v>       0.65066374       0.50288024       0.55267217 </v>
   <v>       0.68019379       0.82450379       0.05178906 </v>
   <v>       0.65847283       0.83345318       0.55758246 </v>
   <v>       0.51757961      -0.00041858       0.08182833 </v>
   <v>       0.48331353       0.01013405       0.61996138 </v>
   <v>       0.50631962       0.32932276       0.12415600 </v>
   <v>       0.49422064       0.32941984       0.63641606 </v>
   <v>       0.50311446       0.66872956       0.12546345 </v>
   <v>       0.47912880       0.67696868       0.62876493 </v>
   <v>      -0.00323278       0.13862761       0.35164385 </v>
   <v>      -0.00491649       0.17335692       0.86492905 </v>
   <v>      -0.00250847       0.49411403       0.36997710 </v>
   <v>      -0.00955092       0.50722402       0.85911000 </v>
   <v>      -0.00039084       0.81217050       0.40865760 </v>
   <v>      -0.00863448       0.83954554       0.87876166 </v>
   <v>       0.19845747       0.03261524       0.27243296 </v>
   <v>       0.17075516      -0.01903087       0.79281070 </v>
   <v>       0.16854417       0.34220833       0.28166202 </v>
   <v>       0.18215672       0.33526430       0.79252090 </v>
   <v>       0.18057691       0.65411350       0.30278026 </v>
   <v>       0.17311891       0.67518490       0.79536237 </v>
   <v>       0.31583361       0.23006134       0.18948465 </v>
   <v>       0.35054803       0.16579010       0.75372481 </v>
   <v>       0.32449344       0.51076049       0.21341829 </v>
   <v>       0.34109752       0.50984166       0.74689724 </v>
   <v>       0.31542636       0.79861247       0.20030342 </v>
   <v>       0.33501725       0.82648167       0.74268635 </v>
   <v>       0.36821849       0.17523390       0.43632515 </v>
   <v>       0.33230057       0.15970305       0.96300947 </v>
   <v>       0.37767623       0.50666832       0.43766172 </v>
   <v>       0.33006270       0.49890906       0.96077672 </v>
   <v>       0.37256393       0.83738146       0.43219820 </v>
   <v>       0.33650273       0.83529424       0.96306513 </v>
   <v>       0.16049628       0.01123017       0.04802248 </v>
   <v>       0.13723469       0.35343193       0.04612562 </v>
   <v>       0.27951800       0.35680010       0.56975342 </v>
   <v>       0.13932242       0.67419706       0.05655192 </v>
   <v>       0.19210324       0.65326743       0.56275133 </v>
   <v>       0.20667706      -0.00047854       0.54713697 </v>
  </varray>
 </structure>
</modeling>
