<?xml version="1.0" encoding="ISO-8859-1"?>
<modeling>
 <generator>
  <i name="program" type="string">vasp </i>
  <i name="version" type="string">6.4.2  </i>
  <i name="subversion" type="string">20Jul23 (build Nov 12 2023 22:16:35) complex                          parallel </i>
  <i name="platform" type="string">LinuxNV </i>
  <i name="date" type="string">2025 03 29 </i>
  <i name="time" type="string">17:17:37 </i>
 </generator>
 <incar>
  <i type="int" name="ISTART">     0</i>
  <i type="string" name="PREC">Normal</i>
  <i type="string" name="ALGO">Fast</i>
  <i type="int" name="ISPIN">     1</i>
  <i type="int" name="ICHARG">     2</i>
  <i type="int" name="IBRION">     2</i>
  <i name="EDIFF">      0.00001000</i>
  <i name="EDIFFG">     -0.00500000</i>
  <i type="int" name="NSW">   300</i>
  <i type="int" name="ISIF">     2</i>
  <i name="ENCUT">    450.00000000</i>
  <i name="NELECT">   1043.00000000</i>
  <i type="string" name="LREAL">Auto</i>
  <i type="logical" name="LPLANE"> T  </i>
  <i type="int" name="ISMEAR">     0</i>
  <i name="SIGMA">      0.05000000</i>
  <i type="logical" name="LWAVE"> F  </i>
  <i type="logical" name="LCHARG"> F  </i>
 </incar>
 <primitive_cell>
  <structure name="primitive_cell" >
   <crystal>
    <varray name="basis" >
     <v>       0.00000000      12.28047342       0.00000000 </v>
     <v>       9.14270205       0.00000000       0.00000000 </v>
     <v>       0.00000000      -2.76826177     -11.30069772 </v>
    </varray>
    <i name="volume">   1268.80515525 </i>
    <varray name="rec_basis" >
     <v>       0.00000000       0.08143009      -0.01994742 </v>
     <v>       0.10937686      -0.00000000       0.00000000 </v>
     <v>       0.00000000       0.00000000      -0.08849011 </v>
    </varray>
   </crystal>
   <varray name="positions" >
    <v>       0.65883830       0.00000000       0.15736517 </v>
    <v>       0.65883830       0.00000000       0.65736517 </v>
    <v>       0.65883830       0.33333333       0.15736517 </v>
    <v>       0.65883830       0.33333333       0.65736517 </v>
    <v>       0.65883830       0.66666667       0.15736517 </v>
    <v>       0.65883830       0.66666667       0.65736517 </v>
    <v>       0.84116170       0.16666667       0.34263483 </v>
    <v>       0.84116170       0.16666667       0.84263483 </v>
    <v>       0.84116170       0.50000000       0.34263483 </v>
    <v>       0.84116170       0.50000000       0.84263483 </v>
    <v>       0.84116170       0.83333333       0.34263483 </v>
    <v>       0.84116170       0.83333333       0.84263483 </v>
    <v>       0.59047440       0.16666667       0.39739300 </v>
    <v>       0.59047440       0.16666667       0.89739300 </v>
    <v>       0.59047440       0.50000000       0.39739300 </v>
    <v>       0.59047440       0.50000000       0.89739300 </v>
    <v>       0.59047440       0.83333333       0.39739300 </v>
    <v>       0.59047440       0.83333333       0.89739300 </v>
    <v>       0.90952560       0.00000000       0.10260700 </v>
    <v>       0.90952560       0.00000000       0.60260700 </v>
    <v>       0.90952560       0.33333333       0.10260700 </v>
    <v>       0.90952560       0.33333333       0.60260700 </v>
    <v>       0.90952560       0.66666667       0.10260700 </v>
    <v>       0.90952560       0.66666667       0.60260700 </v>
    <v>       0.15883830       0.16666667       0.15736517 </v>
    <v>       0.15883830       0.50000000       0.15736517 </v>
    <v>       0.15883830       0.50000000       0.65736517 </v>
    <v>       0.15883830       0.83333333       0.15736517 </v>
    <v>       0.15883830       0.83333333       0.65736517 </v>
    <v>       0.34116170       0.00000000       0.34263483 </v>
    <v>       0.34116170       0.00000000       0.84263483 </v>
    <v>       0.34116170       0.33333333       0.34263483 </v>
    <v>       0.34116170       0.33333333       0.84263483 </v>
    <v>       0.34116170       0.66666667       0.34263483 </v>
    <v>       0.34116170       0.66666667       0.84263483 </v>
    <v>       0.09047440       0.00000000       0.39739300 </v>
    <v>       0.09047440       0.00000000       0.89739300 </v>
    <v>       0.09047440       0.33333333       0.39739300 </v>
    <v>       0.09047440       0.33333333       0.89739300 </v>
    <v>       0.09047440       0.66666667       0.39739300 </v>
    <v>       0.09047440       0.66666667       0.89739300 </v>
    <v>       0.40952560       0.16666667       0.10260700 </v>
    <v>       0.40952560       0.16666667       0.60260700 </v>
    <v>       0.40952560       0.50000000       0.10260700 </v>
    <v>       0.40952560       0.50000000       0.60260700 </v>
    <v>       0.40952560       0.83333333       0.10260700 </v>
    <v>       0.40952560       0.83333333       0.60260700 </v>
    <v>       0.99646913       0.16666667       0.12833205 </v>
    <v>       0.99646913       0.16666667       0.62833205 </v>
    <v>       0.99646913       0.50000000       0.12833205 </v>
    <v>       0.99646913       0.50000000       0.62833205 </v>
    <v>       0.99646913       0.83333333       0.12833205 </v>
    <v>       0.99646913       0.83333333       0.62833205 </v>
    <v>       0.50353087       0.00000000       0.37166795 </v>
    <v>       0.50353087       0.00000000       0.87166795 </v>
    <v>       0.50353087       0.33333333       0.37166795 </v>
    <v>       0.50353087       0.33333333       0.87166795 </v>
    <v>       0.50353087       0.66666667       0.37166795 </v>
    <v>       0.50353087       0.66666667       0.87166795 </v>
    <v>       0.67337106       0.16666667       0.28161508 </v>
    <v>       0.67337106       0.16666667       0.78161508 </v>
    <v>       0.67337106       0.50000000       0.28161508 </v>
    <v>       0.67337106       0.50000000       0.78161508 </v>
    <v>       0.67337106       0.83333333       0.28161508 </v>
    <v>       0.67337106       0.83333333       0.78161508 </v>
    <v>       0.82662894       0.00000000       0.21838492 </v>
    <v>       0.82662894       0.00000000       0.71838492 </v>
    <v>       0.82662894       0.33333333       0.21838492 </v>
    <v>       0.82662894       0.33333333       0.71838492 </v>
    <v>       0.82662894       0.66666667       0.21838492 </v>
    <v>       0.82662894       0.66666667       0.71838492 </v>
    <v>       0.83549502       0.00000000       0.44542296 </v>
    <v>       0.83549502       0.00000000       0.94542296 </v>
    <v>       0.83549502       0.33333333       0.44542296 </v>
    <v>       0.83549502       0.33333333       0.94542296 </v>
    <v>       0.83549502       0.66666667       0.44542296 </v>
    <v>       0.83549502       0.66666667       0.94542296 </v>
    <v>       0.66450498       0.16666667       0.05457704 </v>
    <v>       0.66450498       0.16666667       0.55457704 </v>
    <v>       0.66450498       0.50000000       0.05457704 </v>
    <v>       0.66450498       0.50000000       0.55457704 </v>
    <v>       0.66450498       0.83333333       0.05457704 </v>
    <v>       0.66450498       0.83333333       0.55457704 </v>
    <v>       0.49646913       0.00000000       0.12833205 </v>
    <v>       0.49646913       0.00000000       0.62833205 </v>
    <v>       0.49646913       0.33333333       0.12833205 </v>
    <v>       0.49646913       0.33333333       0.62833205 </v>
    <v>       0.49646913       0.66666667       0.12833205 </v>
    <v>       0.49646913       0.66666667       0.62833205 </v>
    <v>       0.00353087       0.16666667       0.37166795 </v>
    <v>       0.00353087       0.16666667       0.87166795 </v>
    <v>       0.00353087       0.50000000       0.37166795 </v>
    <v>       0.00353087       0.50000000       0.87166795 </v>
    <v>       0.00353087       0.83333333       0.37166795 </v>
    <v>       0.00353087       0.83333333       0.87166795 </v>
    <v>       0.17337106       0.00000000       0.28161508 </v>
    <v>       0.17337106       0.00000000       0.78161508 </v>
    <v>       0.17337106       0.33333333       0.28161508 </v>
    <v>       0.17337106       0.33333333       0.78161508 </v>
    <v>       0.17337106       0.66666667       0.28161508 </v>
    <v>       0.17337106       0.66666667       0.78161508 </v>
    <v>       0.32662894       0.16666667       0.21838492 </v>
    <v>       0.32662894       0.16666667       0.71838492 </v>
    <v>       0.32662894       0.50000000       0.21838492 </v>
    <v>       0.32662894       0.50000000       0.71838492 </v>
    <v>       0.32662894       0.83333333       0.21838492 </v>
    <v>       0.32662894       0.83333333       0.71838492 </v>
    <v>       0.33549502       0.16666667       0.44542296 </v>
    <v>       0.33549502       0.16666667       0.94542296 </v>
    <v>       0.33549502       0.50000000       0.44542296 </v>
    <v>       0.33549502       0.50000000       0.94542296 </v>
    <v>       0.33549502       0.83333333       0.44542296 </v>
    <v>       0.33549502       0.83333333       0.94542296 </v>
    <v>       0.16450498       0.00000000       0.05457704 </v>
    <v>       0.16450498       0.33333333       0.05457704 </v>
    <v>       0.16450498       0.33333333       0.55457704 </v>
    <v>       0.16450498       0.66666667       0.05457704 </v>
    <v>       0.16450498       0.66666667       0.55457704 </v>
    <v>       0.16450498       0.00000000       0.55457704 </v>
   </varray>
  </structure>
  <varray name="primitive_index" >
   <v type="int" >        1 </v>
   <v type="int" >        2 </v>
   <v type="int" >        3 </v>
   <v type="int" >        4 </v>
   <v type="int" >        5 </v>
   <v type="int" >        6 </v>
   <v type="int" >        7 </v>
   <v type="int" >        8 </v>
   <v type="int" >        9 </v>
   <v type="int" >       10 </v>
   <v type="int" >       11 </v>
   <v type="int" >       12 </v>
   <v type="int" >       13 </v>
   <v type="int" >       14 </v>
   <v type="int" >       15 </v>
   <v type="int" >       16 </v>
   <v type="int" >       17 </v>
   <v type="int" >       18 </v>
   <v type="int" >       19 </v>
   <v type="int" >       20 </v>
   <v type="int" >       21 </v>
   <v type="int" >       22 </v>
   <v type="int" >       23 </v>
   <v type="int" >       24 </v>
   <v type="int" >       25 </v>
   <v type="int" >       26 </v>
   <v type="int" >       27 </v>
   <v type="int" >       28 </v>
   <v type="int" >       29 </v>
   <v type="int" >       30 </v>
   <v type="int" >       31 </v>
   <v type="int" >       32 </v>
   <v type="int" >       33 </v>
   <v type="int" >       34 </v>
   <v type="int" >       35 </v>
   <v type="int" >       36 </v>
   <v type="int" >       37 </v>
   <v type="int" >       38 </v>
   <v type="int" >       39 </v>
   <v type="int" >       40 </v>
   <v type="int" >       41 </v>
   <v type="int" >       42 </v>
   <v type="int" >       43 </v>
   <v type="int" >       44 </v>
   <v type="int" >       45 </v>
   <v type="int" >       46 </v>
   <v type="int" >       47 </v>
   <v type="int" >       48 </v>
   <v type="int" >       49 </v>
   <v type="int" >       50 </v>
   <v type="int" >       51 </v>
   <v type="int" >       52 </v>
   <v type="int" >       53 </v>
   <v type="int" >       54 </v>
   <v type="int" >       55 </v>
   <v type="int" >       56 </v>
   <v type="int" >       57 </v>
   <v type="int" >       58 </v>
   <v type="int" >       59 </v>
   <v type="int" >       60 </v>
   <v type="int" >       61 </v>
   <v type="int" >       62 </v>
   <v type="int" >       63 </v>
   <v type="int" >       64 </v>
   <v type="int" >       65 </v>
   <v type="int" >       66 </v>
   <v type="int" >       67 </v>
   <v type="int" >       68 </v>
   <v type="int" >       69 </v>
   <v type="int" >       70 </v>
   <v type="int" >       71 </v>
   <v type="int" >       72 </v>
   <v type="int" >       73 </v>
   <v type="int" >       74 </v>
   <v type="int" >       75 </v>
   <v type="int" >       76 </v>
   <v type="int" >       77 </v>
   <v type="int" >       78 </v>
   <v type="int" >       79 </v>
   <v type="int" >       80 </v>
   <v type="int" >       81 </v>
   <v type="int" >       82 </v>
   <v type="int" >       83 </v>
   <v type="int" >       84 </v>
   <v type="int" >       85 </v>
   <v type="int" >       86 </v>
   <v type="int" >       87 </v>
   <v type="int" >       88 </v>
   <v type="int" >       89 </v>
   <v type="int" >       90 </v>
   <v type="int" >       91 </v>
   <v type="int" >       92 </v>
   <v type="int" >       93 </v>
   <v type="int" >       94 </v>
   <v type="int" >       95 </v>
   <v type="int" >       96 </v>
   <v type="int" >       97 </v>
   <v type="int" >       98 </v>
   <v type="int" >       99 </v>
   <v type="int" >      100 </v>
   <v type="int" >      101 </v>
   <v type="int" >      102 </v>
   <v type="int" >      103 </v>
   <v type="int" >      104 </v>
   <v type="int" >      105 </v>
   <v type="int" >      106 </v>
   <v type="int" >      107 </v>
   <v type="int" >      108 </v>
   <v type="int" >      109 </v>
   <v type="int" >      110 </v>
   <v type="int" >      111 </v>
   <v type="int" >      112 </v>
   <v type="int" >      113 </v>
   <v type="int" >      114 </v>
   <v type="int" >      115 </v>
   <v type="int" >      116 </v>
   <v type="int" >      117 </v>
   <v type="int" >      118 </v>
   <v type="int" >      119 </v>
  </varray>
 </primitive_cell>
 <kpoints>
  <generation param="Gamma">
   <v type="int" name="divisions">       2        2        2 </v>
   <v name="usershift">      0.00000000       0.00000000       0.00000000 </v>
   <v name="genvec1">      0.50000000       0.00000000       0.00000000 </v>
   <v name="genvec2">      0.00000000       0.50000000       0.00000000 </v>
   <v name="genvec3">      0.00000000       0.00000000       0.50000000 </v>
   <v name="shift">      0.00000000       0.00000000       0.00000000 </v>
  </generation>
  <varray name="kpointlist" >
   <v>       0.00000000       0.00000000       0.00000000 </v>
   <v>       0.50000000       0.00000000       0.00000000 </v>
   <v>       0.00000000       0.50000000       0.00000000 </v>
   <v>       0.50000000       0.50000000       0.00000000 </v>
   <v>       0.00000000       0.00000000       0.50000000 </v>
   <v>       0.50000000       0.00000000       0.50000000 </v>
   <v>       0.00000000       0.50000000       0.50000000 </v>
   <v>       0.50000000       0.50000000       0.50000000 </v>
  </varray>
  <varray name="weights" >
   <v>       0.12500000 </v>
   <v>       0.12500000 </v>
   <v>       0.12500000 </v>
   <v>       0.12500000 </v>
   <v>       0.12500000 </v>
   <v>       0.12500000 </v>
   <v>       0.12500000 </v>
   <v>       0.12500000 </v>
  </varray>
 </kpoints>
 <parameters>
  <separator name="general" >
   <i type="string" name="SYSTEM">unknown system</i>
   <i type="logical" name="LCOMPAT"> F  </i>
  </separator>
  <separator name="electronic" >
   <i type="string" name="PREC">normal</i>
   <i name="ENMAX">    450.00000000</i>
   <i name="ENAUG">    605.39200000</i>
   <i name="EDIFF">      0.00001000</i>
   <i type="int" name="IALGO">    68</i>
   <i type="int" name="IWAVPR">    11</i>
   <i type="int" name="NBANDS">   625</i>
   <i type="int" name="NBANDSLOW">    -1</i>
   <i type="int" name="NBANDSHIGH">    -1</i>
   <i name="NELECT">   1043.00000000</i>
   <i type="int" name="TURBO">     0</i>
   <i type="int" name="IRESTART">     0</i>
   <i type="int" name="NREBOOT">     0</i>
   <i type="int" name="NMIN">     0</i>
   <i name="EREF">      0.00000000</i>
   <separator name="electronic smearing" >
    <i type="int" name="ISMEAR">     0</i>
    <i name="SIGMA">      0.05000000</i>
    <i name="KSPACING">      0.50000000</i>
    <i type="logical" name="KGAMMA"> T  </i>
    <i type="logical" name="KBLOWUP"> T  </i>
   </separator>
   <separator name="electronic projectors" >
    <i type="logical" name="LREAL"> T  </i>
    <v name="ROPT">     -0.00050000     -0.00050000     -0.00050000</v>
    <i type="int" name="LMAXPAW">  -100</i>
    <i type="int" name="LMAXMIX">     2</i>
    <i type="logical" name="NLSPLINE"> F  </i>
   </separator>
   <separator name="electronic startup" >
    <i type="int" name="ISTART">     0</i>
    <i type="int" name="ICHARG">     2</i>
    <i type="int" name="INIWAV">     1</i>
   </separator>
   <separator name="electronic spin" >
    <i type="int" name="ISPIN">     1</i>
    <i type="logical" name="LNONCOLLINEAR"> F  </i>
    <v name="MAGMOM">      1.00000000      1.00000000      1.00000000      1.00000000      1.00000000      1.00000000      1.00000000      1.00000000      1.00000000      1.00000000      1.00000000      1.00000000      1.00000000      1.00000000      1.00000000      1.00000000      1.00000000      1.00000000      1.00000000      1.00000000
      1.00000000      1.00000000      1.00000000      1.00000000      1.00000000      1.00000000      1.00000000      1.00000000      1.00000000      1.00000000      1.00000000      1.00000000      1.00000000      1.00000000      1.00000000      1.00000000      1.00000000      1.00000000      1.00000000      1.00000000
      1.00000000      1.00000000      1.00000000      1.00000000      1.00000000      1.00000000      1.00000000      1.00000000      1.00000000      1.00000000      1.00000000      1.00000000      1.00000000      1.00000000      1.00000000      1.00000000      1.00000000      1.00000000      1.00000000      1.00000000
      1.00000000      1.00000000      1.00000000      1.00000000      1.00000000      1.00000000      1.00000000      1.00000000      1.00000000      1.00000000      1.00000000      1.00000000      1.00000000      1.00000000      1.00000000      1.00000000      1.00000000      1.00000000      1.00000000      1.00000000
      1.00000000      1.00000000      1.00000000      1.00000000      1.00000000      1.00000000      1.00000000      1.00000000      1.00000000      1.00000000      1.00000000      1.00000000      1.00000000      1.00000000      1.00000000      1.00000000      1.00000000      1.00000000      1.00000000      1.00000000
      1.00000000      1.00000000      1.00000000      1.00000000      1.00000000      1.00000000      1.00000000      1.00000000      1.00000000      1.00000000      1.00000000      1.00000000      1.00000000      1.00000000      1.00000000      1.00000000      1.00000000      1.00000000      1.00000000</v>
    <i name="NUPDOWN">     -1.00000000</i>
    <i type="logical" name="LSORBIT"> F  </i>
    <v name="SAXIS">      0.00000000      0.00000000      1.00000000</v>
    <i type="logical" name="LSPIRAL"> F  </i>
    <v name="QSPIRAL">      0.00000000      0.00000000      0.00000000</v>
    <i type="logical" name="LZEROZ"> F  </i>
   </separator>
   <separator name="electronic exchange-correlation" >
    <i type="logical" name="LASPH"> F  </i>
    <i type="logical" name="LMETAGGA"> F  </i>
   </separator>
   <separator name="electronic convergence" >
    <i type="int" name="NELM">    60</i>
    <i type="int" name="NELMDL">    -5</i>
    <i type="int" name="NELMIN">     2</i>
    <i name="ENINI">    450.00000000</i>
    <separator name="electronic convergence detail" >
     <i type="logical" name="LDIAG"> T  </i>
     <i type="logical" name="LSUBROT"> F  </i>
     <i name="WEIMIN">      0.00100000</i>
     <i name="EBREAK">      0.00000000</i>
     <i name="DEPER">      0.30000000</i>
     <i type="int" name="NRMM">     4</i>
     <i name="TIME">      0.40000000</i>
    </separator>
   </separator>
   <separator name="electronic mixer" >
    <i name="AMIX">      0.40000000</i>
    <i name="BMIX">      1.00000000</i>
    <i name="AMIN">      0.10000000</i>
    <i name="AMIX_MAG">      1.60000000</i>
    <i name="BMIX_MAG">      1.00000000</i>
    <separator name="electronic mixer details" >
     <i type="int" name="IMIX">     4</i>
     <i type="logical" name="MIXFIRST"> F  </i>
     <i type="int" name="MAXMIX">   -45</i>
     <i name="WC">    100.00000000</i>
     <i type="int" name="INIMIX">     1</i>
     <i type="int" name="MIXPRE">     1</i>
     <i type="int" name="MREMOVE">     5</i>
    </separator>
   </separator>
   <separator name="electronic dipolcorrection" >
    <i type="logical" name="LDIPOL"> F  </i>
    <i type="logical" name="LMONO"> F  </i>
    <i type="int" name="IDIPOL">     0</i>
    <i name="EPSILON">      1.00000000</i>
    <v name="DIPOL">   -100.00000000   -100.00000000   -100.00000000</v>
    <i name="EFIELD">      0.00000000</i>
   </separator>
  </separator>
  <separator name="grids" >
   <i type="int" name="NGX">    64</i>
   <i type="int" name="NGY">    48</i>
   <i type="int" name="NGZ">    60</i>
   <i type="int" name="NGXF">   128</i>
   <i type="int" name="NGYF">    96</i>
   <i type="int" name="NGZF">   120</i>
   <i type="logical" name="ADDGRID"> F  </i>
  </separator>
  <separator name="ionic" >
   <i type="int" name="NSW">   300</i>
   <i type="int" name="IBRION">     2</i>
   <i type="int" name="MDALGO">     0</i>
   <i type="int" name="ISIF">     2</i>
   <i name="PSTRESS">      0.00000000</i>
   <i name="EDIFFG">     -0.00500000</i>
   <i type="int" name="NFREE">     1</i>
   <i name="POTIM">      0.50000000</i>
   <i name="SMASS">     -3.00000000</i>
   <i name="SCALEE">      1.00000000</i>
  </separator>
  <separator name="ionic md" >
   <i name="TEBEG">      0.00010000</i>
   <i name="TEEND">      0.00010000</i>
   <i type="int" name="NBLOCK">     1</i>
   <i type="int" name="KBLOCK">   300</i>
   <i type="int" name="NPACO">   256</i>
   <i name="APACO">     10.00000000</i>
  </separator>
  <separator name="symmetry" >
   <i type="int" name="ISYM">     2</i>
   <i name="SYMPREC">      0.00001000</i>
  </separator>
  <separator name="dos" >
   <i type="int" name="LORBIT">     0</i>
   <v name="RWIGS">     -1.00000000     -1.00000000     -1.00000000</v>
   <i type="int" name="NEDOS">   301</i>
   <i name="EMIN">     10.00000000</i>
   <i name="EMAX">    -10.00000000</i>
   <i name="EFERMI">      0.00000000</i>
  </separator>
  <separator name="writing" >
   <i type="int" name="NWRITE">     2</i>
   <i type="logical" name="LWAVE"> F  </i>
   <i type="logical" name="LDOWNSAMPLE"> F  </i>
   <i type="logical" name="LCHARG"> F  </i>
   <i type="logical" name="LPARD"> F  </i>
   <i type="logical" name="LVTOT"> F  </i>
   <i type="logical" name="LVHAR"> F  </i>
   <i type="logical" name="LELF"> F  </i>
   <i type="logical" name="LOPTICS"> F  </i>
   <v name="STM">      0.00000000      0.00000000      0.00000000      0.00000000      0.00000000      0.00000000      0.00000000</v>
  </separator>
  <separator name="performance" >
   <i type="int" name="NPAR">     1</i>
   <i type="int" name="NSIM">     4</i>
   <i type="int" name="NBLK">    -1</i>
   <i type="logical" name="LPLANE"> T  </i>
   <i type="logical" name="LSCALAPACK"> T  </i>
   <i type="logical" name="LSCAAWARE"> F  </i>
   <i type="logical" name="LSCALU"> F  </i>
   <i type="logical" name="LASYNC"> F  </i>
   <i type="logical" name="LORBITALREAL"> F  </i>
  </separator>
  <separator name="miscellaneous" >
   <i type="int" name="IDIOT">     3</i>
   <i type="int" name="PHON_NSTRUCT">    -1</i>
   <i type="logical" name="LMUSIC"> F  </i>
   <v name="POMASS">     69.72300000     16.00000000     30.97400000</v>
   <v name="DARWINR">      0.00000000      0.00000000      0.00000000</v>
   <v name="DARWINV">      1.00000000      1.00000000      1.00000000</v>
   <i type="logical" name="LCORR"> T  </i>
  </separator>
  <i type="logical" name="GGA_COMPAT"> T  </i>
  <i type="logical" name="LBERRY"> F  </i>
  <i type="int" name="ICORELEVEL">     0</i>
  <i type="logical" name="LDAU"> F  </i>
  <i type="int" name="I_CONSTRAINED_M">     0</i>
  <separator name="electronic exchange-correlation" >
   <i type="string" name="GGA">--</i>
   <i type="int" name="VOSKOWN">     0</i>
   <i type="logical" name="LHFCALC"> F  </i>
   <i type="string" name="PRECFOCK"></i>
   <i type="logical" name="LSYMGRAD"> F  </i>
   <i type="logical" name="LHFONE"> F  </i>
   <i type="logical" name="LRHFCALC"> F  </i>
   <i type="logical" name="LTHOMAS"> F  </i>
   <i type="logical" name="LMODELHF"> F  </i>
   <i type="logical" name="LFOCKACE"> F  </i>
   <i name="ENCUT4O">     -1.00000000</i>
   <i type="int" name="EXXOEP">     0</i>
   <i type="int" name="FOURORBIT">     0</i>
   <i name="AEXX">      0.00000000</i>
   <i name="HFALPHA">      0.00000000</i>
   <i name="MCALPHA">      0.00000000</i>
   <i name="ALDAX">      1.00000000</i>
   <i name="AGGAX">      1.00000000</i>
   <i name="ALDAC">      1.00000000</i>
   <i name="AGGAC">      1.00000000</i>
   <i type="int" name="NKREDX">     1</i>
   <i type="int" name="NKREDY">     1</i>
   <i type="int" name="NKREDZ">     1</i>
   <i type="logical" name="SHIFTRED"> F  </i>
   <i type="logical" name="ODDONLY"> F  </i>
   <i type="logical" name="EVENONLY"> F  </i>
   <i type="int" name="LMAXFOCK">     0</i>
   <i type="int" name="NMAXFOCKAE">     0</i>
   <i type="logical" name="LFOCKAEDFT"> F  </i>
   <i name="HFSCREEN">      0.00000000</i>
   <i name="HFSCREENC">      0.00000000</i>
   <i type="int" name="NBANDSGWLOW">     0</i>
  </separator>
  <separator name="vdW DFT" >
   <i type="logical" name="LUSE_VDW"> F  </i>
   <i type="int" name="IVDW_NL">     1</i>
   <i type="logical" name="LSPIN_VDW"> F  </i>
   <i name="Zab_VDW">     -0.84910000</i>
   <i name="PARAM1">      0.12340000</i>
   <i name="PARAM2">      1.00000000</i>
   <i name="PARAM3">      0.00000000</i>
  </separator>
  <separator name="model GW" >
   <i type="int" name="MODEL_GW">     0</i>
   <i name="MODEL_EPS0">      6.39733692</i>
   <i name="MODEL_ALPHA">      1.00000000</i>
  </separator>
  <separator name="linear response parameters" >
   <i type="logical" name="LEPSILON"> F  </i>
   <i type="logical" name="LRPA"> F  </i>
   <i type="logical" name="LNABLA"> F  </i>
   <i type="logical" name="LVEL"> F  </i>
   <i name="CSHIFT">      0.10000000</i>
   <i name="OMEGAMAX">     -1.00000000</i>
   <i name="DEG_THRESHOLD">      0.00200000</i>
   <i name="RTIME">     -0.10000000</i>
   <i name="WPLASMAI">      0.00000000</i>
   <v name="DFIELD">      0.00000000      0.00000000      0.00000000</v>
   <v name="WPLASMA">      0.00000000      0.00000000      0.00000000      0.00000000      0.00000000      0.00000000      0.00000000      0.00000000      0.00000000</v>
  </separator>
  <separator name="orbital magnetization" >
   <i type="logical" name="NUCIND"> F  </i>
   <v name="MAGPOS">      0.00000000      0.00000000      0.00000000</v>
   <i type="logical" name="LNICSALL"> T  </i>
   <i type="logical" name="ORBITALMAG"> F  </i>
   <i type="logical" name="LMAGBLOCH"> F  </i>
   <i type="logical" name="LCHIMAG"> F  </i>
   <i type="logical" name="LGAUGE"> T  </i>
   <i type="int" name="MAGATOM">     0</i>
   <v name="MAGDIPOL">      0.00000000      0.00000000      0.00000000</v>
   <v name="AVECCONST">      0.00000000      0.00000000      0.00000000</v>
  </separator>
  <separator name="response functions" >
   <i type="logical" name="LALL_IN_ONE"> F  </i>
   <i type="int" name="IALL_IN_ONE">    -1</i>
   <i type="int" name="NBANDS_WAVE">    -1</i>
   <i type="logical" name="LFINITE_TEMPERATURE"> F  </i>
   <i type="logical" name="LADDER"> F  </i>
   <i type="logical" name="LRPAFORCE"> F  </i>
   <i type="logical" name="LFXC"> F  </i>
   <i type="logical" name="LHARTREE"> T  </i>
   <i type="int" name="IBSE">     0</i>
   <v type="int" name="KPOINT">    -1     0     0     0</v>
   <i type="logical" name="LTCTC"> F  </i>
   <i type="logical" name="LTCTE"> F  </i>
   <i type="logical" name="LTETE"> F  </i>
   <i type="logical" name="LTRIPLET"> F  </i>
   <i type="logical" name="LFXCEPS"> F  </i>
   <i type="logical" name="LFXHEG"> F  </i>
   <i type="int" name="NATURALO">     2</i>
   <i type="logical" name="LHOLEGF"> F  </i>
   <i type="logical" name="L2ORDER"> F  </i>
   <i type="logical" name="LDMP1"> F  </i>
   <i type="logical" name="LMP2LT"> F  </i>
   <i type="logical" name="LSMP2LT"> F  </i>
   <i type="logical" name="LGWLF"> F  </i>
   <i name="ENCUTGW">     -1.60000002</i>
   <i name="ENCUTGWSOFT">     -1.60000002</i>
   <i name="ENCUTLF">     -1.00000000</i>
   <i type="logical" name="LESF_SPLINES"> F  </i>
   <i type="int" name="LMAXMP2">    -1</i>
   <i name="SCISSOR">      0.00000000</i>
   <i type="int" name="NOMEGA">     0</i>
   <i type="int" name="NOMEGAR">     0</i>
   <i type="int" name="NBANDSGW">    -1</i>
   <i type="int" name="NBANDSO">    -1</i>
   <i type="int" name="NBANDSV">    -1</i>
   <i type="int" name="NELMGW">     1</i>
   <i type="int" name="NELMHF">     1</i>
   <i type="int" name="DIM">     3</i>
   <i type="int" name="IESPILON">     4</i>
   <i type="int" name="ANTIRES">     0</i>
   <i name="OMEGAMAX">    -30.00000000</i>
   <i name="OMEGAMIN">    -30.00000000</i>
   <i name="OMEGATL">   -200.00000000</i>
   <i type="int" name="OMEGAGRID">     0</i>
   <i name="CSHIFT">     -0.10000000</i>
   <i type="logical" name="LSELFENERGY"> F  </i>
   <i type="logical" name="LSPECTRAL"> F  </i>
   <i type="logical" name="LSPECTRALGW"> F  </i>
   <i type="logical" name="LSINGLES"> F  </i>
   <i type="logical" name="LFERMIGW"> F  </i>
   <i type="logical" name="ODDONLYGW"> F  </i>
   <i type="logical" name="EVENONLYGW"> F  </i>
   <i type="int" name="NKREDLFX">     1</i>
   <i type="int" name="NKREDLFY">     1</i>
   <i type="int" name="NKREDLFZ">     1</i>
   <i type="int" name="MAXMEM">  2800</i>
   <i type="int" name="TELESCOPE">     0</i>
   <i type="int" name="NTAUPAR">    -1</i>
   <i type="int" name="NOMEGAPAR">    -1</i>
   <i name="DAMP_NEWTON">      0.80000001</i>
   <i name="LAMBDA">      1.00000000</i>
  </separator>
  <separator name="External order field" >
   <i name="OFIELD_KAPPA">      0.00000000</i>
   <v name="OFIELD_K">      0.00000000      0.00000000      0.00000000</v>
   <i name="OFIELD_Q6_NEAR">      0.00000000</i>
   <i name="OFIELD_Q6_FAR">      0.00000000</i>
   <i name="OFIELD_A">      0.00000000</i>
  </separator>
  <separator name="optional k-points parameters" >
   <i type="int" name="KPOINTS_OPT_MODE">     1</i>
   <i type="logical" name="LKPOINTS_OPT"> F  </i>
  </separator>
 </parameters>
 <atominfo>
  <atoms>     119 </atoms>
  <types>       3 </types>
  <array name="atoms" >
   <dimension dim="1">ion</dimension>
   <field type="string">element</field>
   <field type="int">atomtype</field>
   <set>
    <rc><c>Ga</c><c>   1</c></rc>
    <rc><c>Ga</c><c>   1</c></rc>
    <rc><c>Ga</c><c>   1</c></rc>
    <rc><c>Ga</c><c>   1</c></rc>
    <rc><c>Ga</c><c>   1</c></rc>
    <rc><c>Ga</c><c>   1</c></rc>
    <rc><c>Ga</c><c>   1</c></rc>
    <rc><c>Ga</c><c>   1</c></rc>
    <rc><c>Ga</c><c>   1</c></rc>
    <rc><c>Ga</c><c>   1</c></rc>
    <rc><c>Ga</c><c>   1</c></rc>
    <rc><c>Ga</c><c>   1</c></rc>
    <rc><c>Ga</c><c>   1</c></rc>
    <rc><c>Ga</c><c>   1</c></rc>
    <rc><c>Ga</c><c>   1</c></rc>
    <rc><c>Ga</c><c>   1</c></rc>
    <rc><c>Ga</c><c>   1</c></rc>
    <rc><c>Ga</c><c>   1</c></rc>
    <rc><c>Ga</c><c>   1</c></rc>
    <rc><c>Ga</c><c>   1</c></rc>
    <rc><c>Ga</c><c>   1</c></rc>
    <rc><c>Ga</c><c>   1</c></rc>
    <rc><c>Ga</c><c>   1</c></rc>
    <rc><c>Ga</c><c>   1</c></rc>
    <rc><c>Ga</c><c>   1</c></rc>
    <rc><c>Ga</c><c>   1</c></rc>
    <rc><c>Ga</c><c>   1</c></rc>
    <rc><c>Ga</c><c>   1</c></rc>
    <rc><c>Ga</c><c>   1</c></rc>
    <rc><c>Ga</c><c>   1</c></rc>
    <rc><c>Ga</c><c>   1</c></rc>
    <rc><c>Ga</c><c>   1</c></rc>
    <rc><c>Ga</c><c>   1</c></rc>
    <rc><c>Ga</c><c>   1</c></rc>
    <rc><c>Ga</c><c>   1</c></rc>
    <rc><c>Ga</c><c>   1</c></rc>
    <rc><c>Ga</c><c>   1</c></rc>
    <rc><c>Ga</c><c>   1</c></rc>
    <rc><c>Ga</c><c>   1</c></rc>
    <rc><c>Ga</c><c>   1</c></rc>
    <rc><c>Ga</c><c>   1</c></rc>
    <rc><c>Ga</c><c>   1</c></rc>
    <rc><c>Ga</c><c>   1</c></rc>
    <rc><c>Ga</c><c>   1</c></rc>
    <rc><c>Ga</c><c>   1</c></rc>
    <rc><c>Ga</c><c>   1</c></rc>
    <rc><c>Ga</c><c>   1</c></rc>
    <rc><c>O </c><c>   2</c></rc>
    <rc><c>O </c><c>   2</c></rc>
    <rc><c>O </c><c>   2</c></rc>
    <rc><c>O </c><c>   2</c></rc>
    <rc><c>O </c><c>   2</c></rc>
    <rc><c>O </c><c>   2</c></rc>
    <rc><c>O </c><c>   2</c></rc>
    <rc><c>O </c><c>   2</c></rc>
    <rc><c>O </c><c>   2</c></rc>
    <rc><c>O </c><c>   2</c></rc>
    <rc><c>O </c><c>   2</c></rc>
    <rc><c>O </c><c>   2</c></rc>
    <rc><c>O </c><c>   2</c></rc>
    <rc><c>O </c><c>   2</c></rc>
    <rc><c>O </c><c>   2</c></rc>
    <rc><c>O </c><c>   2</c></rc>
    <rc><c>O </c><c>   2</c></rc>
    <rc><c>O </c><c>   2</c></rc>
    <rc><c>O </c><c>   2</c></rc>
    <rc><c>O </c><c>   2</c></rc>
    <rc><c>O </c><c>   2</c></rc>
    <rc><c>O </c><c>   2</c></rc>
    <rc><c>O </c><c>   2</c></rc>
    <rc><c>O </c><c>   2</c></rc>
    <rc><c>O </c><c>   2</c></rc>
    <rc><c>O </c><c>   2</c></rc>
    <rc><c>O </c><c>   2</c></rc>
    <rc><c>O </c><c>   2</c></rc>
    <rc><c>O </c><c>   2</c></rc>
    <rc><c>O </c><c>   2</c></rc>
    <rc><c>O </c><c>   2</c></rc>
    <rc><c>O </c><c>   2</c></rc>
    <rc><c>O </c><c>   2</c></rc>
    <rc><c>O </c><c>   2</c></rc>
    <rc><c>O </c><c>   2</c></rc>
    <rc><c>O </c><c>   2</c></rc>
    <rc><c>O </c><c>   2</c></rc>
    <rc><c>O </c><c>   2</c></rc>
    <rc><c>O </c><c>   2</c></rc>
    <rc><c>O </c><c>   2</c></rc>
    <rc><c>O </c><c>   2</c></rc>
    <rc><c>O </c><c>   2</c></rc>
    <rc><c>O </c><c>   2</c></rc>
    <rc><c>O </c><c>   2</c></rc>
    <rc><c>O </c><c>   2</c></rc>
    <rc><c>O </c><c>   2</c></rc>
    <rc><c>O </c><c>   2</c></rc>
    <rc><c>O </c><c>   2</c></rc>
    <rc><c>O </c><c>   2</c></rc>
    <rc><c>O </c><c>   2</c></rc>
    <rc><c>O </c><c>   2</c></rc>
    <rc><c>O </c><c>   2</c></rc>
    <rc><c>O </c><c>   2</c></rc>
    <rc><c>O </c><c>   2</c></rc>
    <rc><c>O </c><c>   2</c></rc>
    <rc><c>O </c><c>   2</c></rc>
    <rc><c>O </c><c>   2</c></rc>
    <rc><c>O </c><c>   2</c></rc>
    <rc><c>O </c><c>   2</c></rc>
    <rc><c>O </c><c>   2</c></rc>
    <rc><c>O </c><c>   2</c></rc>
    <rc><c>O </c><c>   2</c></rc>
    <rc><c>O </c><c>   2</c></rc>
    <rc><c>O </c><c>   2</c></rc>
    <rc><c>O </c><c>   2</c></rc>
    <rc><c>O </c><c>   2</c></rc>
    <rc><c>O </c><c>   2</c></rc>
    <rc><c>O </c><c>   2</c></rc>
    <rc><c>O </c><c>   2</c></rc>
    <rc><c>O </c><c>   2</c></rc>
    <rc><c>O </c><c>   2</c></rc>
    <rc><c>P </c><c>   3</c></rc>
   </set>
  </array>
  <array name="atomtypes" >
   <dimension dim="1">type</dimension>
   <field type="int">atomspertype</field>
   <field type="string">element</field>
   <field>mass</field>
   <field>valence</field>
   <field type="string">pseudopotential</field>
   <set>
    <rc><c>  47</c><c>Ga</c><c>     69.72300000</c><c>     13.00000000</c><c>  PAW_PBE Ga_d 06Jul2010                </c></rc>
    <rc><c>  71</c><c>O </c><c>     16.00000000</c><c>      6.00000000</c><c>   PAW_PBE O 08Apr2002                  </c></rc>
    <rc><c>   1</c><c>P </c><c>     30.97400000</c><c>      5.00000000</c><c>  PAW_PBE P 06Sep2000                   </c></rc>
   </set>
  </array>
 </atominfo>
 <structure name="initialpos" >
  <crystal>
   <varray name="basis" >
    <v>       0.00000000      12.28047342       0.00000000 </v>
    <v>       9.14270205       0.00000000       0.00000000 </v>
    <v>       0.00000000      -2.76826177     -11.30069772 </v>
   </varray>
   <i name="volume">   1268.80515525 </i>
   <varray name="rec_basis" >
    <v>       0.00000000       0.08143009      -0.01994742 </v>
    <v>       0.10937686      -0.00000000       0.00000000 </v>
    <v>       0.00000000       0.00000000      -0.08849011 </v>
   </varray>
  </crystal>
  <varray name="positions" >
   <v>       0.65883830       0.00000000       0.15736517 </v>
   <v>       0.65883830       0.00000000       0.65736517 </v>
   <v>       0.65883830       0.33333333       0.15736517 </v>
   <v>       0.65883830       0.33333333       0.65736517 </v>
   <v>       0.65883830       0.66666667       0.15736517 </v>
   <v>       0.65883830       0.66666667       0.65736517 </v>
   <v>       0.84116170       0.16666667       0.34263483 </v>
   <v>       0.84116170       0.16666667       0.84263483 </v>
   <v>       0.84116170       0.50000000       0.34263483 </v>
   <v>       0.84116170       0.50000000       0.84263483 </v>
   <v>       0.84116170       0.83333333       0.34263483 </v>
   <v>       0.84116170       0.83333333       0.84263483 </v>
   <v>       0.59047440       0.16666667       0.39739300 </v>
   <v>       0.59047440       0.16666667       0.89739300 </v>
   <v>       0.59047440       0.50000000       0.39739300 </v>
   <v>       0.59047440       0.50000000       0.89739300 </v>
   <v>       0.59047440       0.83333333       0.39739300 </v>
   <v>       0.59047440       0.83333333       0.89739300 </v>
   <v>       0.90952560       0.00000000       0.10260700 </v>
   <v>       0.90952560       0.00000000       0.60260700 </v>
   <v>       0.90952560       0.33333333       0.10260700 </v>
   <v>       0.90952560       0.33333333       0.60260700 </v>
   <v>       0.90952560       0.66666667       0.10260700 </v>
   <v>       0.90952560       0.66666667       0.60260700 </v>
   <v>       0.15883830       0.16666667       0.15736517 </v>
   <v>       0.15883830       0.50000000       0.15736517 </v>
   <v>       0.15883830       0.50000000       0.65736517 </v>
   <v>       0.15883830       0.83333333       0.15736517 </v>
   <v>       0.15883830       0.83333333       0.65736517 </v>
   <v>       0.34116170       0.00000000       0.34263483 </v>
   <v>       0.34116170       0.00000000       0.84263483 </v>
   <v>       0.34116170       0.33333333       0.34263483 </v>
   <v>       0.34116170       0.33333333       0.84263483 </v>
   <v>       0.34116170       0.66666667       0.34263483 </v>
   <v>       0.34116170       0.66666667       0.84263483 </v>
   <v>       0.09047440       0.00000000       0.39739300 </v>
   <v>       0.09047440       0.00000000       0.89739300 </v>
   <v>       0.09047440       0.33333333       0.39739300 </v>
   <v>       0.09047440       0.33333333       0.89739300 </v>
   <v>       0.09047440       0.66666667       0.39739300 </v>
   <v>       0.09047440       0.66666667       0.89739300 </v>
   <v>       0.40952560       0.16666667       0.10260700 </v>
   <v>       0.40952560       0.16666667       0.60260700 </v>
   <v>       0.40952560       0.50000000       0.10260700 </v>
   <v>       0.40952560       0.50000000       0.60260700 </v>
   <v>       0.40952560       0.83333333       0.10260700 </v>
   <v>       0.40952560       0.83333333       0.60260700 </v>
   <v>       0.99646913       0.16666667       0.12833205 </v>
   <v>       0.99646913       0.16666667       0.62833205 </v>
   <v>       0.99646913       0.50000000       0.12833205 </v>
   <v>       0.99646913       0.50000000       0.62833205 </v>
   <v>       0.99646913       0.83333333       0.12833205 </v>
   <v>       0.99646913       0.83333333       0.62833205 </v>
   <v>       0.50353087       0.00000000       0.37166795 </v>
   <v>       0.50353087       0.00000000       0.87166795 </v>
   <v>       0.50353087       0.33333333       0.37166795 </v>
   <v>       0.50353087       0.33333333       0.87166795 </v>
   <v>       0.50353087       0.66666667       0.37166795 </v>
   <v>       0.50353087       0.66666667       0.87166795 </v>
   <v>       0.67337106       0.16666667       0.28161508 </v>
   <v>       0.67337106       0.16666667       0.78161508 </v>
   <v>       0.67337106       0.50000000       0.28161508 </v>
   <v>       0.67337106       0.50000000       0.78161508 </v>
   <v>       0.67337106       0.83333333       0.28161508 </v>
   <v>       0.67337106       0.83333333       0.78161508 </v>
   <v>       0.82662894       0.00000000       0.21838492 </v>
   <v>       0.82662894       0.00000000       0.71838492 </v>
   <v>       0.82662894       0.33333333       0.21838492 </v>
   <v>       0.82662894       0.33333333       0.71838492 </v>
   <v>       0.82662894       0.66666667       0.21838492 </v>
   <v>       0.82662894       0.66666667       0.71838492 </v>
   <v>       0.83549502       0.00000000       0.44542296 </v>
   <v>       0.83549502       0.00000000       0.94542296 </v>
   <v>       0.83549502       0.33333333       0.44542296 </v>
   <v>       0.83549502       0.33333333       0.94542296 </v>
   <v>       0.83549502       0.66666667       0.44542296 </v>
   <v>       0.83549502       0.66666667       0.94542296 </v>
   <v>       0.66450498       0.16666667       0.05457704 </v>
   <v>       0.66450498       0.16666667       0.55457704 </v>
   <v>       0.66450498       0.50000000       0.05457704 </v>
   <v>       0.66450498       0.50000000       0.55457704 </v>
   <v>       0.66450498       0.83333333       0.05457704 </v>
   <v>       0.66450498       0.83333333       0.55457704 </v>
   <v>       0.49646913       0.00000000       0.12833205 </v>
   <v>       0.49646913       0.00000000       0.62833205 </v>
   <v>       0.49646913       0.33333333       0.12833205 </v>
   <v>       0.49646913       0.33333333       0.62833205 </v>
   <v>       0.49646913       0.66666667       0.12833205 </v>
   <v>       0.49646913       0.66666667       0.62833205 </v>
   <v>       0.00353087       0.16666667       0.37166795 </v>
   <v>       0.00353087       0.16666667       0.87166795 </v>
   <v>       0.00353087       0.50000000       0.37166795 </v>
   <v>       0.00353087       0.50000000       0.87166795 </v>
   <v>       0.00353087       0.83333333       0.37166795 </v>
   <v>       0.00353087       0.83333333       0.87166795 </v>
   <v>       0.17337106       0.00000000       0.28161508 </v>
   <v>       0.17337106       0.00000000       0.78161508 </v>
   <v>       0.17337106       0.33333333       0.28161508 </v>
   <v>       0.17337106       0.33333333       0.78161508 </v>
   <v>       0.17337106       0.66666667       0.28161508 </v>
   <v>       0.17337106       0.66666667       0.78161508 </v>
   <v>       0.32662894       0.16666667       0.21838492 </v>
   <v>       0.32662894       0.16666667       0.71838492 </v>
   <v>       0.32662894       0.50000000       0.21838492 </v>
   <v>       0.32662894       0.50000000       0.71838492 </v>
   <v>       0.32662894       0.83333333       0.21838492 </v>
   <v>       0.32662894       0.83333333       0.71838492 </v>
   <v>       0.33549502       0.16666667       0.44542296 </v>
   <v>       0.33549502       0.16666667       0.94542296 </v>
   <v>       0.33549502       0.50000000       0.44542296 </v>
   <v>       0.33549502       0.50000000       0.94542296 </v>
   <v>       0.33549502       0.83333333       0.44542296 </v>
   <v>       0.33549502       0.83333333       0.94542296 </v>
   <v>       0.16450498       0.00000000       0.05457704 </v>
   <v>       0.16450498       0.33333333       0.05457704 </v>
   <v>       0.16450498       0.33333333       0.55457704 </v>
   <v>       0.16450498       0.66666667       0.05457704 </v>
   <v>       0.16450498       0.66666667       0.55457704 </v>
   <v>       0.16450498       0.00000000       0.55457704 </v>
  </varray>
 </structure>
 <calculation>
  <scstep>
   <time name="dav">    1.77    1.77</time>
   <time name="total">    1.90    1.90</time>
   <energy>
    <i name="alphaZ">   5376.25786726 </i>
    <i name="ewald"> -86356.72883845 </i>
    <i name="hartreedc"> -33542.05847329 </i>
    <i name="XCdc">   4078.27140510 </i>
    <i name="pawpsdc"> 100093.09196360 </i>
    <i name="pawaedc">-115889.62880893 </i>
    <i name="eentropy">     -0.00954825 </i>
    <i name="bandstr">  16112.77093936 </i>
    <i name="atom"> 131866.99277783 </i>
    <i name="e_fr_energy">  21738.95928423 </i>
    <i name="e_wo_entrp">  21738.96883248 </i>
    <i name="e_0_energy">  21738.96405836 </i>
   </energy>
  </scstep>
  <scstep>
   <time name="dav">    1.68    1.68</time>
   <time name="total">    1.69    1.69</time>
   <energy>
    <i name="e_fr_energy">   4821.35704933 </i>
    <i name="e_wo_entrp">   4821.37694659 </i>
    <i name="e_0_energy">   4821.36699796 </i>
   </energy>
  </scstep>
  <scstep>
   <time name="dav">    2.07    2.07</time>
   <time name="total">    2.07    2.07</time>
   <energy>
    <i name="e_fr_energy">   -137.54831112 </i>
    <i name="e_wo_entrp">   -137.53469001 </i>
    <i name="e_0_energy">   -137.54150057 </i>
   </energy>
  </scstep>
  <scstep>
   <time name="dav">    2.02    2.02</time>
   <time name="total">    2.02    2.02</time>
   <energy>
    <i name="e_fr_energy">   -758.92306617 </i>
    <i name="e_wo_entrp">   -758.90000330 </i>
    <i name="e_0_energy">   -758.91153473 </i>
   </energy>
  </scstep>
  <scstep>
   <time name="dav">    2.28    2.29</time>
   <time name="total">    2.54    2.55</time>
   <energy>
    <i name="e_fr_energy">   -802.50445112 </i>
    <i name="e_wo_entrp">   -802.48032458 </i>
    <i name="e_0_energy">   -802.49238785 </i>
   </energy>
  </scstep>
  <scstep>
   <time name="diag">    0.24    0.24</time>
   <time name="diis">    2.50    2.50</time>
   <time name="orth">    0.03    0.03</time>
   <time name="total">    3.14    3.14</time>
   <energy>
    <i name="e_fr_energy">   -690.34245379 </i>
    <i name="e_wo_entrp">   -690.33871609 </i>
    <i name="e_0_energy">   -690.34058494 </i>
   </energy>
  </scstep>
  <scstep>
   <time name="diag">    0.24    0.24</time>
   <time name="diis">    2.63    2.63</time>
   <time name="orth">    0.03    0.03</time>
   <time name="total">    3.27    3.27</time>
   <energy>
    <i name="e_fr_energy">   -696.85351555 </i>
    <i name="e_wo_entrp">   -696.82857976 </i>
    <i name="e_0_energy">   -696.84104765 </i>
   </energy>
  </scstep>
  <scstep>
   <time name="diag">    0.24    0.24</time>
   <time name="diis">    2.92    2.92</time>
   <time name="orth">    0.03    0.03</time>
   <time name="total">    3.57    3.57</time>
   <energy>
    <i name="e_fr_energy">   -693.17603129 </i>
    <i name="e_wo_entrp">   -693.15075517 </i>
    <i name="e_0_energy">   -693.16339323 </i>
   </energy>
  </scstep>
  <scstep>
   <time name="diag">    0.24    0.24</time>
   <time name="diis">    2.42    2.42</time>
   <time name="orth">    0.03    0.03</time>
   <time name="total">    3.07    3.07</time>
   <energy>
    <i name="e_fr_energy">   -700.09373755 </i>
    <i name="e_wo_entrp">   -700.08261803 </i>
    <i name="e_0_energy">   -700.08817779 </i>
   </energy>
  </scstep>
  <scstep>
   <time name="diag">    0.24    0.24</time>
   <time name="diis">    2.75    2.75</time>
   <time name="orth">    0.03    0.03</time>
   <time name="total">    3.40    3.40</time>
   <energy>
    <i name="e_fr_energy">   -692.45904969 </i>
    <i name="e_wo_entrp">   -692.43232824 </i>
    <i name="e_0_energy">   -692.44568896 </i>
   </energy>
  </scstep>
  <scstep>
   <time name="diag">    0.24    0.24</time>
   <time name="diis">    2.44    2.44</time>
   <time name="orth">    0.03    0.03</time>
   <time name="total">    3.09    3.09</time>
   <energy>
    <i name="e_fr_energy">   -692.39899197 </i>
    <i name="e_wo_entrp">   -692.37347422 </i>
    <i name="e_0_energy">   -692.38623310 </i>
   </energy>
  </scstep>
  <scstep>
   <time name="diag">    0.24    0.24</time>
   <time name="diis">    2.49    2.49</time>
   <time name="orth">    0.03    0.03</time>
   <time name="total">    3.14    3.14</time>
   <energy>
    <i name="e_fr_energy">   -692.35679387 </i>
    <i name="e_wo_entrp">   -692.33132791 </i>
    <i name="e_0_energy">   -692.34406089 </i>
   </energy>
  </scstep>
  <scstep>
   <time name="diag">    0.24    0.24</time>
   <time name="diis">    2.89    2.89</time>
   <time name="orth">    0.03    0.03</time>
   <time name="total">    3.54    3.54</time>
   <energy>
    <i name="e_fr_energy">   -692.05609518 </i>
    <i name="e_wo_entrp">   -692.03062462 </i>
    <i name="e_0_energy">   -692.04335990 </i>
   </energy>
  </scstep>
  <scstep>
   <time name="diag">    0.24    0.24</time>
   <time name="diis">    2.69    2.69</time>
   <time name="orth">    0.03    0.03</time>
   <time name="total">    3.34    3.34</time>
   <energy>
    <i name="e_fr_energy">   -691.96391079 </i>
    <i name="e_wo_entrp">   -691.93847336 </i>
    <i name="e_0_energy">   -691.95119208 </i>
   </energy>
  </scstep>
  <scstep>
   <time name="diag">    0.24    0.24</time>
   <time name="diis">    2.58    2.58</time>
   <time name="orth">    0.03    0.03</time>
   <time name="total">    3.23    3.23</time>
   <energy>
    <i name="e_fr_energy">   -691.89315934 </i>
    <i name="e_wo_entrp">   -691.86748597 </i>
    <i name="e_0_energy">   -691.88032265 </i>
   </energy>
  </scstep>
  <scstep>
   <time name="diag">    0.24    0.24</time>
   <time name="diis">    2.53    2.53</time>
   <time name="orth">    0.03    0.03</time>
   <time name="total">    3.18    3.18</time>
   <energy>
    <i name="e_fr_energy">   -691.84335414 </i>
    <i name="e_wo_entrp">   -691.81739404 </i>
    <i name="e_0_energy">   -691.83037409 </i>
   </energy>
  </scstep>
  <scstep>
   <time name="diag">    0.24    0.24</time>
   <time name="diis">    2.89    2.89</time>
   <time name="orth">    0.03    0.03</time>
   <time name="total">    3.55    3.55</time>
   <energy>
    <i name="e_fr_energy">   -691.83536571 </i>
    <i name="e_wo_entrp">   -691.80913959 </i>
    <i name="e_0_energy">   -691.82225265 </i>
   </energy>
  </scstep>
  <scstep>
   <time name="diag">    0.24    0.24</time>
   <time name="diis">    2.52    2.52</time>
   <time name="orth">    0.03    0.03</time>
   <time name="total">    3.18    3.18</time>
   <energy>
    <i name="e_fr_energy">   -691.82157880 </i>
    <i name="e_wo_entrp">   -691.79512726 </i>
    <i name="e_0_energy">   -691.80835303 </i>
   </energy>
  </scstep>
  <scstep>
   <time name="diag">    0.24    0.24</time>
   <time name="diis">    2.49    2.49</time>
   <time name="orth">    0.03    0.03</time>
   <time name="total">    3.15    3.15</time>
   <energy>
    <i name="e_fr_energy">   -691.82016714 </i>
    <i name="e_wo_entrp">   -691.79337019 </i>
    <i name="e_0_energy">   -691.80676866 </i>
   </energy>
  </scstep>
  <scstep>
   <time name="diag">    0.24    0.24</time>
   <time name="diis">    2.59    2.59</time>
   <time name="orth">    0.03    0.03</time>
   <time name="total">    3.25    3.25</time>
   <energy>
    <i name="e_fr_energy">   -691.81986440 </i>
    <i name="e_wo_entrp">   -691.79289961 </i>
    <i name="e_0_energy">   -691.80638200 </i>
   </energy>
  </scstep>
  <scstep>
   <time name="diag">    0.24    0.24</time>
   <time name="diis">    2.15    2.15</time>
   <time name="orth">    0.03    0.03</time>
   <time name="total">    2.82    2.82</time>
   <energy>
    <i name="e_fr_energy">   -691.81980099 </i>
    <i name="e_wo_entrp">   -691.79294554 </i>
    <i name="e_0_energy">   -691.80637327 </i>
   </energy>
  </scstep>
  <scstep>
   <time name="diag">    0.24    0.24</time>
   <time name="diis">    2.21    2.21</time>
   <time name="orth">    0.03    0.03</time>
   <time name="total">    2.88    2.88</time>
   <energy>
    <i name="e_fr_energy">   -691.81977437 </i>
    <i name="e_wo_entrp">   -691.79280221 </i>
    <i name="e_0_energy">   -691.80628829 </i>
   </energy>
  </scstep>
  <scstep>
   <time name="diag">    0.24    0.24</time>
   <time name="diis">    1.95    1.95</time>
   <time name="orth">    0.03    0.03</time>
   <time name="total">    2.62    2.62</time>
   <energy>
    <i name="e_fr_energy">   -691.81975030 </i>
    <i name="e_wo_entrp">   -691.79287311 </i>
    <i name="e_0_energy">   -691.80631171 </i>
   </energy>
  </scstep>
  <scstep>
   <time name="diag">    0.24    0.24</time>
   <time name="diis">    1.46    1.46</time>
   <time name="orth">    0.03    0.03</time>
   <time name="total">    2.13    2.13</time>
   <energy>
    <i name="e_fr_energy">   -691.81973249 </i>
    <i name="e_wo_entrp">   -691.79285163 </i>
    <i name="e_0_energy">   -691.80629206 </i>
   </energy>
  </scstep>
  <scstep>
   <time name="diag">    0.24    0.24</time>
   <time name="diis">    1.18    1.19</time>
   <time name="orth">    0.03    0.03</time>
   <time name="total">    1.86    1.88</time>
   <energy>
    <i name="e_fr_energy">   -691.81972107 </i>
    <i name="e_wo_entrp">   -691.79282635 </i>
    <i name="e_0_energy">   -691.80627371 </i>
   </energy>
  </scstep>
  <scstep>
   <time name="diag">    0.24    0.24</time>
   <time name="diis">    1.14    1.14</time>
   <time name="orth">    0.03    0.03</time>
   <time name="total">    1.53    1.53</time>
   <energy>
    <i name="alphaZ">   5376.25786726 </i>
    <i name="ewald"> -86356.72883845 </i>
    <i name="hartreedc"> -33998.78080188 </i>
    <i name="XCdc">   4141.40517321 </i>
    <i name="pawpsdc"> 118521.73206661 </i>
    <i name="pawaedc">-134573.71598082 </i>
    <i name="eentropy">     -0.02690722 </i>
    <i name="bandstr">  -5668.95507492 </i>
    <i name="atom"> 131866.99277783 </i>
    <i name="e_fr_energy">   -691.81971838 </i>
    <i name="e_wo_entrp">   -691.79281116 </i>
    <i name="e_0_energy">   -691.80626477 </i>
   </energy>
  </scstep>
  <structure>
   <crystal>
    <varray name="basis" >
     <v>       0.00000000      12.28047342       0.00000000 </v>
     <v>       9.14270205       0.00000000       0.00000000 </v>
     <v>       0.00000000      -2.76826177     -11.30069772 </v>
    </varray>
    <i name="volume">   1268.80515525 </i>
    <varray name="rec_basis" >
     <v>       0.00000000       0.08143009      -0.01994742 </v>
     <v>       0.10937686      -0.00000000       0.00000000 </v>
     <v>       0.00000000       0.00000000      -0.08849011 </v>
    </varray>
   </crystal>
   <varray name="positions" >
    <v>       0.65883830       0.00000000       0.15736517 </v>
    <v>       0.65883830       0.00000000       0.65736517 </v>
    <v>       0.65883830       0.33333333       0.15736517 </v>
    <v>       0.65883830       0.33333333       0.65736517 </v>
    <v>       0.65883830       0.66666667       0.15736517 </v>
    <v>       0.65883830       0.66666667       0.65736517 </v>
    <v>       0.84116170       0.16666667       0.34263483 </v>
    <v>       0.84116170       0.16666667       0.84263483 </v>
    <v>       0.84116170       0.50000000       0.34263483 </v>
    <v>       0.84116170       0.50000000       0.84263483 </v>
    <v>       0.84116170       0.83333333       0.34263483 </v>
    <v>       0.84116170       0.83333333       0.84263483 </v>
    <v>       0.59047440       0.16666667       0.39739300 </v>
    <v>       0.59047440       0.16666667       0.89739300 </v>
    <v>       0.59047440       0.50000000       0.39739300 </v>
    <v>       0.59047440       0.50000000       0.89739300 </v>
    <v>       0.59047440       0.83333333       0.39739300 </v>
    <v>       0.59047440       0.83333333       0.89739300 </v>
    <v>       0.90952560       0.00000000       0.10260700 </v>
    <v>       0.90952560       0.00000000       0.60260700 </v>
    <v>       0.90952560       0.33333333       0.10260700 </v>
    <v>       0.90952560       0.33333333       0.60260700 </v>
    <v>       0.90952560       0.66666667       0.10260700 </v>
    <v>       0.90952560       0.66666667       0.60260700 </v>
    <v>       0.15883830       0.16666667       0.15736517 </v>
    <v>       0.15883830       0.50000000       0.15736517 </v>
    <v>       0.15883830       0.50000000       0.65736517 </v>
    <v>       0.15883830       0.83333333       0.15736517 </v>
    <v>       0.15883830       0.83333333       0.65736517 </v>
    <v>       0.34116170       0.00000000       0.34263483 </v>
    <v>       0.34116170       0.00000000       0.84263483 </v>
    <v>       0.34116170       0.33333333       0.34263483 </v>
    <v>       0.34116170       0.33333333       0.84263483 </v>
    <v>       0.34116170       0.66666667       0.34263483 </v>
    <v>       0.34116170       0.66666667       0.84263483 </v>
    <v>       0.09047440       0.00000000       0.39739300 </v>
    <v>       0.09047440       0.00000000       0.89739300 </v>
    <v>       0.09047440       0.33333333       0.39739300 </v>
    <v>       0.09047440       0.33333333       0.89739300 </v>
    <v>       0.09047440       0.66666667       0.39739300 </v>
    <v>       0.09047440       0.66666667       0.89739300 </v>
    <v>       0.40952560       0.16666667       0.10260700 </v>
    <v>       0.40952560       0.16666667       0.60260700 </v>
    <v>       0.40952560       0.50000000       0.10260700 </v>
    <v>       0.40952560       0.50000000       0.60260700 </v>
    <v>       0.40952560       0.83333333       0.10260700 </v>
    <v>       0.40952560       0.83333333       0.60260700 </v>
    <v>       0.99646913       0.16666667       0.12833205 </v>
    <v>       0.99646913       0.16666667       0.62833205 </v>
    <v>       0.99646913       0.50000000       0.12833205 </v>
    <v>       0.99646913       0.50000000       0.62833205 </v>
    <v>       0.99646913       0.83333333       0.12833205 </v>
    <v>       0.99646913       0.83333333       0.62833205 </v>
    <v>       0.50353087       0.00000000       0.37166795 </v>
    <v>       0.50353087       0.00000000       0.87166795 </v>
    <v>       0.50353087       0.33333333       0.37166795 </v>
    <v>       0.50353087       0.33333333       0.87166795 </v>
    <v>       0.50353087       0.66666667       0.37166795 </v>
    <v>       0.50353087       0.66666667       0.87166795 </v>
    <v>       0.67337106       0.16666667       0.28161508 </v>
    <v>       0.67337106       0.16666667       0.78161508 </v>
    <v>       0.67337106       0.50000000       0.28161508 </v>
    <v>       0.67337106       0.50000000       0.78161508 </v>
    <v>       0.67337106       0.83333333       0.28161508 </v>
    <v>       0.67337106       0.83333333       0.78161508 </v>
    <v>       0.82662894       0.00000000       0.21838492 </v>
    <v>       0.82662894       0.00000000       0.71838492 </v>
    <v>       0.82662894       0.33333333       0.21838492 </v>
    <v>       0.82662894       0.33333333       0.71838492 </v>
    <v>       0.82662894       0.66666667       0.21838492 </v>
    <v>       0.82662894       0.66666667       0.71838492 </v>
    <v>       0.83549502       0.00000000       0.44542296 </v>
    <v>       0.83549502       0.00000000       0.94542296 </v>
    <v>       0.83549502       0.33333333       0.44542296 </v>
    <v>       0.83549502       0.33333333       0.94542296 </v>
    <v>       0.83549502       0.66666667       0.44542296 </v>
    <v>       0.83549502       0.66666667       0.94542296 </v>
    <v>       0.66450498       0.16666667       0.05457704 </v>
    <v>       0.66450498       0.16666667       0.55457704 </v>
    <v>       0.66450498       0.50000000       0.05457704 </v>
    <v>       0.66450498       0.50000000       0.55457704 </v>
    <v>       0.66450498       0.83333333       0.05457704 </v>
    <v>       0.66450498       0.83333333       0.55457704 </v>
    <v>       0.49646913       0.00000000       0.12833205 </v>
    <v>       0.49646913       0.00000000       0.62833205 </v>
    <v>       0.49646913       0.33333333       0.12833205 </v>
    <v>       0.49646913       0.33333333       0.62833205 </v>
    <v>       0.49646913       0.66666667       0.12833205 </v>
    <v>       0.49646913       0.66666667       0.62833205 </v>
    <v>       0.00353087       0.16666667       0.37166795 </v>
    <v>       0.00353087       0.16666667       0.87166795 </v>
    <v>       0.00353087       0.50000000       0.37166795 </v>
    <v>       0.00353087       0.50000000       0.87166795 </v>
    <v>       0.00353087       0.83333333       0.37166795 </v>
    <v>       0.00353087       0.83333333       0.87166795 </v>
    <v>       0.17337106       0.00000000       0.28161508 </v>
    <v>       0.17337106       0.00000000       0.78161508 </v>
    <v>       0.17337106       0.33333333       0.28161508 </v>
    <v>       0.17337106       0.33333333       0.78161508 </v>
    <v>       0.17337106       0.66666667       0.28161508 </v>
    <v>       0.17337106       0.66666667       0.78161508 </v>
    <v>       0.32662894       0.16666667       0.21838492 </v>
    <v>       0.32662894       0.16666667       0.71838492 </v>
    <v>       0.32662894       0.50000000       0.21838492 </v>
    <v>       0.32662894       0.50000000       0.71838492 </v>
    <v>       0.32662894       0.83333333       0.21838492 </v>
    <v>       0.32662894       0.83333333       0.71838492 </v>
    <v>       0.33549502       0.16666667       0.44542296 </v>
    <v>       0.33549502       0.16666667       0.94542296 </v>
    <v>       0.33549502       0.50000000       0.44542296 </v>
    <v>       0.33549502       0.50000000       0.94542296 </v>
    <v>       0.33549502       0.83333333       0.44542296 </v>
    <v>       0.33549502       0.83333333       0.94542296 </v>
    <v>       0.16450498       0.00000000       0.05457704 </v>
    <v>       0.16450498       0.33333333       0.05457704 </v>
    <v>       0.16450498       0.33333333       0.55457704 </v>
    <v>       0.16450498       0.66666667       0.05457704 </v>
    <v>       0.16450498       0.66666667       0.55457704 </v>
    <v>       0.16450498       0.00000000       0.55457704 </v>
   </varray>
  </structure>
  <varray name="forces" >
   <v>       0.01949966      -0.05919026       0.08054510 </v>
   <v>       0.04283018      -0.00781005      -0.02195523 </v>
   <v>      -0.01819640      -0.05132522       0.06908281 </v>
   <v>      -0.04495353      -0.08170650       0.00960347 </v>
   <v>      -0.00012365      -0.05733786       0.07587155 </v>
   <v>      -0.00014930      -0.01030964      -0.01301627 </v>
   <v>       0.06008418       0.26813221      -0.37604499 </v>
   <v>      -0.00739780       0.44391646       0.06838651 </v>
   <v>      -0.13713307       0.22722474      -0.27595645 </v>
   <v>      -0.06168642       0.33231988       0.00842865 </v>
   <v>       0.08345216      -0.04001297      -0.20347942 </v>
   <v>       0.07680676       0.24002939       0.04136693 </v>
   <v>       0.03248776       0.06250967      -0.11962793 </v>
   <v>      -0.00780498      -0.24054807       0.15295472 </v>
   <v>      -0.05982335       0.04091197      -0.09746789 </v>
   <v>      -0.07020358      -0.15030513       0.07071896 </v>
   <v>       0.02649199       0.09515882      -0.08193889 </v>
   <v>       0.08140062      -0.13075730       0.06408633 </v>
   <v>       0.06869436       0.05193660       0.10229765 </v>
   <v>       0.95596920       0.41873601      -0.28119636 </v>
   <v>      -0.02063424       0.07923275       0.06434939 </v>
   <v>      -0.64259425       0.99476671      -0.06405572 </v>
   <v>      -0.04831395       0.05919912       0.08801634 </v>
   <v>      -0.23750018       0.24778870      -0.06792633 </v>
   <v>       0.17539930      -0.00874890       0.20923820 </v>
   <v>      -0.23570984      -0.02137574       0.16557213 </v>
   <v>      -2.22776624      -0.13541218      -0.40230183 </v>
   <v>       0.06816167      -0.03455296       0.21609918 </v>
   <v>      -5.17422308      -1.54974857      -5.27641651 </v>
   <v>       0.28781319       0.05806221       0.14672099 </v>
   <v>       1.02525090      -0.93516409       0.98793216 </v>
   <v>       0.03016322      -0.20823498      -0.06519363 </v>
   <v>      -0.73704652      -1.47390943       1.22257010 </v>
   <v>      -0.32652940      -0.01903131       0.10285500 </v>
   <v>      -0.21194455      -0.15959545       0.14559522 </v>
   <v>       0.76234987      -2.96173399      10.69862376 </v>
   <v>       0.37495589       0.68417365       0.98700837 </v>
   <v>      -0.04670585       0.25404084      -1.41531237 </v>
   <v>      -0.19290971       1.14545903       1.23093434 </v>
   <v>      -0.39040247      -0.10511745      -0.13842198 </v>
   <v>      -0.11276209       0.05018984       0.25932370 </v>
   <v>       0.01926945      -0.13623202       0.42391127 </v>
   <v>       0.20742970      -1.03872304      -0.94132963 </v>
   <v>      -0.04321144      -0.09034444       0.29703974 </v>
   <v>      -0.26484750      -0.39032499      -0.24462384 </v>
   <v>       0.02189510      -0.00205180       0.24999271 </v>
   <v>       0.04516532       0.15146028      -0.54387771 </v>
   <v>      -0.03621632      -0.09295278      -0.04749477 </v>
   <v>      -0.93405855      -0.13933615       0.22830859 </v>
   <v>       0.05270034      -0.07969862      -0.03851985 </v>
   <v>       0.43660481      -0.48637252       0.11096908 </v>
   <v>      -0.01823834      -0.05666230      -0.08225738 </v>
   <v>      -0.35810958      -0.67787509       0.01411765 </v>
   <v>      -0.06615150      -0.02630819       0.04297644 </v>
   <v>      -0.15759180       0.32583803      -0.13941385 </v>
   <v>      -0.00246026       0.02773525       0.05006328 </v>
   <v>       0.08965618       0.29324614      -0.11848116 </v>
   <v>       0.07958609      -0.04224050       0.03431276 </v>
   <v>       0.02263884       0.18481628      -0.03989262 </v>
   <v>      -0.01768235      -0.08235603       0.05216516 </v>
   <v>      -0.00353403      -0.01778231      -0.00984664 </v>
   <v>       0.04210777      -0.08996014       0.04534988 </v>
   <v>       0.04641370      -0.02107001       0.00487321 </v>
   <v>      -0.02375261      -0.07957672       0.04007771 </v>
   <v>      -0.04950220      -0.04233905       0.00421794 </v>
   <v>      -0.05012278      -0.01207541       0.05480525 </v>
   <v>      -0.19045989      -0.33959793      -0.16500394 </v>
   <v>       0.02034139      -0.04653435       0.09384767 </v>
   <v>       0.09940916      -0.26033100      -0.12320458 </v>
   <v>       0.03656906      -0.02484109       0.03105367 </v>
   <v>       0.03319255      -0.15423335      -0.02396129 </v>
   <v>      -0.27155722      -0.32124584       0.38508645 </v>
   <v>      -0.05174198      -0.26512601      -0.14368135 </v>
   <v>       0.19232192      -0.37259556       0.38637879 </v>
   <v>       0.03180314      -0.27508112      -0.12610175 </v>
   <v>       0.07200043      -0.24991295       0.12584622 </v>
   <v>       0.02170122      -0.26245454      -0.11457883 </v>
   <v>      -0.00550729       0.19171258      -0.05100273 </v>
   <v>      -0.01477564       0.11807257       0.12524152 </v>
   <v>       0.02733311       0.18938159      -0.03892793 </v>
   <v>       0.05822076       0.15630103       0.11122377 </v>
   <v>      -0.02515288       0.19166260      -0.05171071 </v>
   <v>      -0.04339117       0.15047416       0.12374835 </v>
   <v>      -0.06643573       0.08983204      -0.14517291 </v>
   <v>      -0.27461957       0.30360344       0.10919610 </v>
   <v>       0.03519843       0.10824512      -0.14529094 </v>
   <v>       0.17389881       0.35064832       0.07188207 </v>
   <v>       0.03118583       0.07744348      -0.12700787 </v>
   <v>       0.09271855       0.10740981       0.05081663 </v>
   <v>       0.03941403      -0.56607180       0.82057864 </v>
   <v>      -0.08280809      -0.56847441      -0.15316524 </v>
   <v>       0.34928624      -0.28959859       0.33236928 </v>
   <v>       0.28479908      -0.44827976      -0.07513425 </v>
   <v>      -0.31670999      -0.31609642       0.50094223 </v>
   <v>      -0.18028126      -0.30827359      -0.03831958 </v>
   <v>      -0.11759724       0.04626442       0.40634253 </v>
   <v>      -1.04447228      -0.07231950      -0.75913242 </v>
   <v>      -0.01459188       0.13975842       0.29421640 </v>
   <v>       1.21390143      -0.01349664      -0.99821068 </v>
   <v>       0.08733874       0.03662325       0.00259053 </v>
   <v>       0.23345334       0.00265345       0.10073640 </v>
   <v>      -0.05185070       0.09436899      -0.12112875 </v>
   <v>      -0.48241861       1.21954539      -0.04318703 </v>
   <v>       0.06190377       0.09342399      -0.07917088 </v>
   <v>       0.46477833       0.49790946       0.02776958 </v>
   <v>      -0.01941686       0.05727221      -0.17430203 </v>
   <v>      -0.46940958       0.75069534      -0.18798739 </v>
   <v>      -0.17253416       0.02287763       0.28154252 </v>
   <v>      -0.08483801       0.04098886      -0.65313325 </v>
   <v>       0.16930944      -0.00006430       0.14211442 </v>
   <v>       0.25811164       0.04352499      -0.40831121 </v>
   <v>       0.16528888      -0.41495243      -0.08881011 </v>
   <v>      -0.14028775      -0.04898868      -0.27136372 </v>
   <v>      -0.06047805       0.12570866      -0.32100345 </v>
   <v>       0.01186907       0.08257954      -0.41566854 </v>
   <v>       0.49149994       0.39094460       1.08877673 </v>
   <v>       0.04400422       0.16501459      -0.14256478 </v>
   <v>      -0.04413382       0.28802435       0.35769806 </v>
   <v>       7.22733270       4.79493057      -7.59907338 </v>
  </varray>
  <varray name="stress" >
   <v>      87.73075907       4.34168744      12.05234506 </v>
   <v>       4.34168437      76.90304428      -9.35944427 </v>
   <v>      12.05234391      -9.35944398     106.49306916 </v>
  </varray>
  <energy>
   <i name="e_fr_energy">   -691.81971838 </i>
   <i name="e_wo_entrp">   -691.79281116 </i>
   <i name="e_0_energy">   -691.80626477 </i>
  </energy>
  <time name="totalsc">   82.50   82.55</time>
 </calculation>
 <calculation>
  <scstep>
   <time name="dav">    1.89    1.89</time>
   <time name="total">    2.26    2.26</time>
   <energy>
    <i name="alphaZ">   5376.25786726 </i>
    <i name="ewald"> -86085.28012659 </i>
    <i name="hartreedc"> -34266.78005336 </i>
    <i name="XCdc">   4141.44793785 </i>
    <i name="pawpsdc"> 118521.62887154 </i>
    <i name="pawaedc">-134573.61090443 </i>
    <i name="eentropy">     -0.01434509 </i>
    <i name="bandstr">  -5632.36406245 </i>
    <i name="atom"> 131866.99277783 </i>
    <i name="e_fr_energy">   -651.72203744 </i>
    <i name="e_wo_entrp">   -651.70769236 </i>
    <i name="e_0_energy">   -651.71486490 </i>
   </energy>
  </scstep>
  <scstep>
   <time name="diag">    0.24    0.24</time>
   <time name="diis">    2.66    2.66</time>
   <time name="orth">    0.03    0.03</time>
   <time name="total">    3.30    3.30</time>
   <energy>
    <i name="e_fr_energy">   -685.45370942 </i>
    <i name="e_wo_entrp">   -685.43906709 </i>
    <i name="e_0_energy">   -685.44638826 </i>
   </energy>
  </scstep>
  <scstep>
   <time name="diag">    0.24    0.24</time>
   <time name="diis">    2.73    2.73</time>
   <time name="orth">    0.03    0.03</time>
   <time name="total">    3.38    3.38</time>
   <energy>
    <i name="e_fr_energy">   -693.25829527 </i>
    <i name="e_wo_entrp">   -693.23836160 </i>
    <i name="e_0_energy">   -693.24832844 </i>
   </energy>
  </scstep>
  <scstep>
   <time name="diag">    0.24    0.24</time>
   <time name="diis">    3.01    3.01</time>
   <time name="orth">    0.03    0.03</time>
   <time name="total">    3.66    3.66</time>
   <energy>
    <i name="e_fr_energy">   -694.28623779 </i>
    <i name="e_wo_entrp">   -694.26529748 </i>
    <i name="e_0_energy">   -694.27576764 </i>
   </energy>
  </scstep>
  <scstep>
   <time name="diag">    0.24    0.24</time>
   <time name="diis">    2.75    2.75</time>
   <time name="orth">    0.03    0.03</time>
   <time name="total">    3.39    3.39</time>
   <energy>
    <i name="e_fr_energy">   -694.11120051 </i>
    <i name="e_wo_entrp">   -694.08597805 </i>
    <i name="e_0_energy">   -694.09858928 </i>
   </energy>
  </scstep>
  <scstep>
   <time name="diag">    0.24    0.24</time>
   <time name="diis">    2.62    2.61</time>
   <time name="orth">    0.03    0.03</time>
   <time name="total">    3.26    3.26</time>
   <energy>
    <i name="e_fr_energy">   -694.11026614 </i>
    <i name="e_wo_entrp">   -694.08216115 </i>
    <i name="e_0_energy">   -694.09621364 </i>
   </energy>
  </scstep>
  <scstep>
   <time name="diag">    0.24    0.24</time>
   <time name="diis">    3.00    3.00</time>
   <time name="orth">    0.03    0.03</time>
   <time name="total">    3.65    3.65</time>
   <energy>
    <i name="e_fr_energy">   -694.14754068 </i>
    <i name="e_wo_entrp">   -694.12044307 </i>
    <i name="e_0_energy">   -694.13399187 </i>
   </energy>
  </scstep>
  <scstep>
   <time name="diag">    0.24    0.24</time>
   <time name="diis">    2.54    2.54</time>
   <time name="orth">    0.03    0.03</time>
   <time name="total">    3.19    3.19</time>
   <energy>
    <i name="e_fr_energy">   -694.13090283 </i>
    <i name="e_wo_entrp">   -694.10192590 </i>
    <i name="e_0_energy">   -694.11641437 </i>
   </energy>
  </scstep>
  <scstep>
   <time name="diag">    0.24    0.24</time>
   <time name="diis">    2.67    2.67</time>
   <time name="orth">    0.03    0.03</time>
   <time name="total">    3.32    3.32</time>
   <energy>
    <i name="e_fr_energy">   -694.13096425 </i>
    <i name="e_wo_entrp">   -694.10253894 </i>
    <i name="e_0_energy">   -694.11675160 </i>
   </energy>
  </scstep>
  <scstep>
   <time name="diag">    0.24    0.24</time>
   <time name="diis">    2.89    2.89</time>
   <time name="orth">    0.03    0.03</time>
   <time name="total">    3.54    3.54</time>
   <energy>
    <i name="e_fr_energy">   -694.13041452 </i>
    <i name="e_wo_entrp">   -694.10260880 </i>
    <i name="e_0_energy">   -694.11651166 </i>
   </energy>
  </scstep>
  <scstep>
   <time name="diag">    0.24    0.24</time>
   <time name="diis">    2.64    2.63</time>
   <time name="orth">    0.03    0.03</time>
   <time name="total">    3.29    3.29</time>
   <energy>
    <i name="e_fr_energy">   -694.13035370 </i>
    <i name="e_wo_entrp">   -694.10339696 </i>
    <i name="e_0_energy">   -694.11687533 </i>
   </energy>
  </scstep>
  <scstep>
   <time name="diag">    0.24    0.24</time>
   <time name="diis">    2.88    2.88</time>
   <time name="orth">    0.03    0.03</time>
   <time name="total">    3.54    3.54</time>
   <energy>
    <i name="e_fr_energy">   -694.13032490 </i>
    <i name="e_wo_entrp">   -694.10301090 </i>
    <i name="e_0_energy">   -694.11666790 </i>
   </energy>
  </scstep>
  <scstep>
   <time name="diag">    0.24    0.24</time>
   <time name="diis">    2.30    2.30</time>
   <time name="orth">    0.03    0.03</time>
   <time name="total">    2.96    2.96</time>
   <energy>
    <i name="e_fr_energy">   -694.13038623 </i>
    <i name="e_wo_entrp">   -694.10306883 </i>
    <i name="e_0_energy">   -694.11672753 </i>
   </energy>
  </scstep>
  <scstep>
   <time name="diag">    0.24    0.24</time>
   <time name="diis">    1.87    1.87</time>
   <time name="orth">    0.03    0.03</time>
   <time name="total">    2.53    2.53</time>
   <energy>
    <i name="e_fr_energy">   -694.13040317 </i>
    <i name="e_wo_entrp">   -694.10318286 </i>
    <i name="e_0_energy">   -694.11679302 </i>
   </energy>
  </scstep>
  <scstep>
   <time name="diag">    0.24    0.24</time>
   <time name="diis">    1.60    1.60</time>
   <time name="orth">    0.03    0.03</time>
   <time name="total">    2.27    2.27</time>
   <energy>
    <i name="e_fr_energy">   -694.13041665 </i>
    <i name="e_wo_entrp">   -694.10320908 </i>
    <i name="e_0_energy">   -694.11681286 </i>
   </energy>
  </scstep>
  <scstep>
   <time name="diag">    0.24    0.24</time>
   <time name="diis">    1.23    1.22</time>
   <time name="orth">    0.03    0.03</time>
   <time name="total">    1.61    1.61</time>
   <energy>
    <i name="alphaZ">   5376.25786726 </i>
    <i name="ewald"> -86085.28012659 </i>
    <i name="hartreedc"> -34285.18454413 </i>
    <i name="XCdc">   4142.24581445 </i>
    <i name="pawpsdc"> 118178.84913395 </i>
    <i name="pawaedc">-134233.49026335 </i>
    <i name="eentropy">     -0.02721098 </i>
    <i name="bandstr">  -5654.49386858 </i>
    <i name="atom"> 131866.99277783 </i>
    <i name="e_fr_energy">   -694.13042015 </i>
    <i name="e_wo_entrp">   -694.10320917 </i>
    <i name="e_0_energy">   -694.11681466 </i>
   </energy>
  </scstep>
  <structure>
   <crystal>
    <varray name="basis" >
     <v>       0.00000000      12.28047342       0.00000000 </v>
     <v>       9.14270205       0.00000000       0.00000000 </v>
     <v>       0.00000000      -2.76826177     -11.30069772 </v>
    </varray>
    <i name="volume">   1268.80515525 </i>
    <varray name="rec_basis" >
     <v>       0.00000000       0.08143009      -0.01994742 </v>
     <v>       0.10937686      -0.00000000       0.00000000 </v>
     <v>       0.00000000       0.00000000      -0.08849011 </v>
    </varray>
   </crystal>
   <varray name="positions" >
    <v>       0.65852827       0.00010289       0.15702132 </v>
    <v>       0.65882875       0.00022600       0.65745890 </v>
    <v>       0.65857019       0.33323732       0.15707026 </v>
    <v>       0.65850808       0.33309613       0.65732417 </v>
    <v>       0.65854004       0.66666601       0.15704127 </v>
    <v>       0.65881033       0.66666588       0.65742074 </v>
    <v>       0.84257691       0.16698371       0.34424017 </v>
    <v>       0.84283977       0.16662763       0.84234289 </v>
    <v>       0.84231989       0.49927640       0.34381289 </v>
    <v>       0.84245908       0.49967450       0.84259885 </v>
    <v>       0.84120032       0.83377368       0.34350348 </v>
    <v>       0.84206482       0.83373861       0.84245823 </v>
    <v>       0.59083508       0.16683809       0.39790369 </v>
    <v>       0.58938224       0.16662548       0.89674004 </v>
    <v>       0.59072891       0.49968433       0.39780909 </v>
    <v>       0.58981589       0.49962956       0.89709110 </v>
    <v>       0.59092707       0.83347312       0.39774280 </v>
    <v>       0.58989906       0.83376285       0.89711942 </v>
    <v>       0.90963119       0.00036247       0.10217029 </v>
    <v>       0.91144116       0.00504430       0.60380743 </v>
    <v>       0.90977493       0.33322445       0.10233229 </v>
    <v>       0.91349509       0.32994260       0.60288045 </v>
    <v>       0.90967346       0.66641173       0.10223126 </v>
    <v>       0.91056438       0.66541347       0.60289698 </v>
    <v>       0.15860258       0.16759218       0.15647193 </v>
    <v>       0.15859499       0.49875625       0.15665834 </v>
    <v>       0.15869349       0.48824490       0.65908260 </v>
    <v>       0.15849461       0.83369300       0.15644264 </v>
    <v>       0.15782785       0.80603087       0.67989018 </v>
    <v>       0.34124860       0.00151868       0.34200848 </v>
    <v>       0.33653729       0.00540987       0.83841735 </v>
    <v>       0.34040641       0.33349249       0.34291314 </v>
    <v>       0.33419509       0.32944421       0.83741568 </v>
    <v>       0.34098796       0.66494369       0.34219574 </v>
    <v>       0.34039464       0.66554831       0.84201328 </v>
    <v>       0.06854405       0.00402264       0.35172060 </v>
    <v>       0.09221230       0.00197850       0.89317946 </v>
    <v>       0.09283435       0.33308688       0.40343497 </v>
    <v>       0.09378968       0.33231542       0.89213814 </v>
    <v>       0.09019466       0.66460666       0.39798392 </v>
    <v>       0.09042201       0.66607166       0.89628595 </v>
    <v>       0.40858249       0.16676834       0.10079732 </v>
    <v>       0.40635093       0.16776120       0.60662553 </v>
    <v>       0.40888484       0.49977199       0.10133894 </v>
    <v>       0.40822765       0.49860250       0.60365130 </v>
    <v>       0.40927697       0.83344887       0.10153978 </v>
    <v>       0.41064398       0.83357165       0.60492881 </v>
    <v>       0.99614968       0.16647557       0.12853480 </v>
    <v>       0.99570206       0.16173799       0.62735740 </v>
    <v>       0.99619311       0.50027808       0.12849649 </v>
[...]
       <r>   -10.8877     0.0000   142.0000 </r>
       <r>   -10.7744     0.0000   142.0000 </r>
       <r>   -10.6611     0.0000   142.0000 </r>
       <r>   -10.5479     0.0000   142.0000 </r>
       <r>   -10.4346     0.0000   142.0000 </r>
       <r>   -10.3213     0.0000   142.0000 </r>
       <r>   -10.2080     0.0000   142.0000 </r>
       <r>   -10.0948     0.0000   142.0000 </r>
       <r>    -9.9815     0.0000   142.0000 </r>
       <r>    -9.8682     0.0000   142.0000 </r>
       <r>    -9.7549     0.0000   142.0000 </r>
       <r>    -9.6416     0.0000   142.0000 </r>
       <r>    -9.5284     0.0000   142.0000 </r>
       <r>    -9.4151     0.3402   142.0385 </r>
       <r>    -9.3018    28.7111   145.2909 </r>
       <r>    -9.1885   112.8672   158.0762 </r>
       <r>    -9.0753   240.1602   185.2809 </r>
       <r>    -8.9620   358.2362   225.8610 </r>
       <r>    -8.8487   638.7617   298.2183 </r>
       <r>    -8.7354   716.6299   379.3964 </r>
       <r>    -8.6221   674.5639   455.8093 </r>
       <r>    -8.5089   509.6517   513.5413 </r>
       <r>    -8.3956   222.5556   538.7519 </r>
       <r>    -8.2823   160.3056   556.9109 </r>
       <r>    -8.1690   120.4506   570.5553 </r>
       <r>    -8.0558   100.7692   581.9701 </r>
       <r>    -7.9425   116.8950   595.2117 </r>
       <r>    -7.8292   108.0394   607.4501 </r>
       <r>    -7.7159    37.6880   611.7193 </r>
       <r>    -7.6026     2.4769   611.9999 </r>
       <r>    -7.4894     0.0007   612.0000 </r>
       <r>    -7.3761     0.0000   612.0000 </r>
       <r>    -7.2628     0.0000   612.0000 </r>
       <r>    -7.1495     0.0000   612.0000 </r>
       <r>    -7.0363     0.0000   612.0000 </r>
       <r>    -6.9230     0.0000   612.0000 </r>
       <r>    -6.8097     0.0000   612.0000 </r>
       <r>    -6.6964     0.0000   612.0000 </r>
       <r>    -6.5831     0.0000   612.0000 </r>
       <r>    -6.4699     0.0000   612.0000 </r>
       <r>    -6.3566     0.0000   612.0000 </r>
       <r>    -6.2433     0.0000   612.0000 </r>
       <r>    -6.1300     0.0000   612.0000 </r>
       <r>    -6.0168     0.0000   612.0000 </r>
       <r>    -5.9035     0.0000   612.0000 </r>
       <r>    -5.7902     0.0000   612.0000 </r>
       <r>    -5.6769     0.0000   612.0000 </r>
       <r>    -5.5637     0.0000   612.0000 </r>
       <r>    -5.4504     0.0000   612.0000 </r>
       <r>    -5.3371     0.0222   612.0025 </r>
       <r>    -5.2238     9.8737   613.1210 </r>
       <r>    -5.1105     7.7521   613.9991 </r>
       <r>    -4.9973     0.0078   614.0000 </r>
       <r>    -4.8840     0.0000   614.0000 </r>
       <r>    -4.7707     0.0000   614.0000 </r>
       <r>    -4.6574     0.0000   614.0000 </r>
       <r>    -4.5442     0.0000   614.0000 </r>
       <r>    -4.4309     0.0000   614.0000 </r>
       <r>    -4.3176     0.0000   614.0000 </r>
       <r>    -4.2043     0.0000   614.0000 </r>
       <r>    -4.0910     0.0000   614.0000 </r>
       <r>    -3.9778     0.0000   614.0000 </r>
       <r>    -3.8645     0.0000   614.0000 </r>
       <r>    -3.7512     0.0000   614.0000 </r>
       <r>    -3.6379     0.0000   614.0000 </r>
       <r>    -3.5247     0.0000   614.0000 </r>
       <r>    -3.4114     0.0000   614.0000 </r>
       <r>    -3.2981     0.0790   614.0090 </r>
       <r>    -3.1848     8.8581   615.0124 </r>
       <r>    -3.0715    18.2362   617.0781 </r>
       <r>    -2.9583    26.7629   620.1098 </r>
       <r>    -2.8450    23.9946   622.8278 </r>
       <r>    -2.7317    34.7447   626.7636 </r>
       <r>    -2.6184    38.8188   631.1609 </r>
       <r>    -2.5052    40.8981   635.7937 </r>
       <r>    -2.3919    44.8042   640.8690 </r>
       <r>    -2.2786    51.9300   646.7515 </r>
       <r>    -2.1653    52.5579   652.7052 </r>
       <r>    -2.0520    49.5715   658.3205 </r>
       <r>    -1.9388    44.3854   663.3484 </r>
       <r>    -1.8255    58.8673   670.0167 </r>
       <r>    -1.7122    40.4275   674.5963 </r>
       <r>    -1.5989    28.8659   677.8661 </r>
       <r>    -1.4857    30.6263   681.3354 </r>
       <r>    -1.3724    37.2725   685.5575 </r>
       <r>    -1.2591    38.8295   689.9560 </r>
       <r>    -1.1458    34.1405   693.8234 </r>
       <r>    -1.0326    37.0022   698.0149 </r>
       <r>    -0.9193    40.1997   702.5686 </r>
       <r>    -0.8060    34.9971   706.5330 </r>
       <r>    -0.6927    30.2333   709.9577 </r>
       <r>    -0.5794    39.4012   714.4210 </r>
       <r>    -0.4662    40.6056   719.0207 </r>
       <r>    -0.3529    46.0294   724.2348 </r>
       <r>    -0.2396    42.8368   729.0873 </r>
       <r>    -0.1263    47.1836   734.4321 </r>
       <r>    -0.0131    54.7546   740.6346 </r>
       <r>     0.1002    65.8861   748.0980 </r>
       <r>     0.2135    72.6185   756.3240 </r>
       <r>     0.3268    68.5745   764.0920 </r>
       <r>     0.4401    63.8257   771.3220 </r>
       <r>     0.5533    61.2148   778.2562 </r>
       <r>     0.6666    58.3399   784.8648 </r>
       <r>     0.7799    60.9675   791.7711 </r>
       <r>     0.8932    75.4822   800.3215 </r>
       <r>     1.0064    73.3668   808.6323 </r>
       <r>     1.1197    76.7685   817.3284 </r>
       <r>     1.2330    77.5593   826.1142 </r>
       <r>     1.3463    70.5311   834.1038 </r>
       <r>     1.4596    68.6389   841.8790 </r>
       <r>     1.5728    71.4882   849.9770 </r>
       <r>     1.6861    72.3459   858.1722 </r>
       <r>     1.7994    90.1476   868.3839 </r>
       <r>     1.9127    80.2460   877.4739 </r>
       <r>     2.0259    67.3020   885.0977 </r>
       <r>     2.1392    64.1494   892.3644 </r>
       <r>     2.2525    63.1281   899.5154 </r>
       <r>     2.3658    88.3296   909.5212 </r>
       <r>     2.4791    95.1436   920.2988 </r>
       <r>     2.5923    93.3123   930.8690 </r>
       <r>     2.7056    98.2891   942.0029 </r>
       <r>     2.8189   100.2929   953.3638 </r>
       <r>     2.9322   109.6207   965.7814 </r>
       <r>     3.0454   110.9848   978.3535 </r>
       <r>     3.1587   125.7015   992.5926 </r>
       <r>     3.2720   115.7032  1005.6992 </r>
       <r>     3.3853    84.3180  1015.2505 </r>
       <r>     3.4985    67.4833  1022.8949 </r>
       <r>     3.6118    46.6851  1028.1832 </r>
       <r>     3.7251    58.3923  1034.7978 </r>
       <r>     3.8384    25.3121  1037.6650 </r>
       <r>     3.9517     3.0368  1038.0090 </r>
       <r>     4.0649     1.9774  1038.2330 </r>
       <r>     4.1782     3.8343  1038.6674 </r>
       <r>     4.2915     9.5817  1039.7528 </r>
       <r>     4.4048     2.1801  1039.9997 </r>
       <r>     4.5180     0.0024  1040.0000 </r>
       <r>     4.6313     0.0000  1040.0000 </r>
       <r>     4.7446     0.0000  1040.0000 </r>
       <r>     4.8579     0.0000  1040.0000 </r>
       <r>     4.9712     0.0000  1040.0000 </r>
       <r>     5.0844     0.0000  1040.0000 </r>
       <r>     5.1977     0.1425  1040.0161 </r>
       <r>     5.3110     7.4917  1040.8648 </r>
       <r>     5.4243     7.8444  1041.7534 </r>
       <r>     5.5375     2.1764  1041.9999 </r>
       <r>     5.6508     0.0008  1042.0000 </r>
       <r>     5.7641     0.0000  1042.0000 </r>
       <r>     5.8774     0.0000  1042.0000 </r>
       <r>     5.9907     0.0000  1042.0000 </r>
       <r>     6.1039     0.0000  1042.0000 </r>
       <r>     6.2172     0.2115  1042.0240 </r>
       <r>     6.3305     1.9318  1042.2428 </r>
       <r>     6.4438     0.0636  1042.2500 </r>
       <r>     6.5570     0.0000  1042.2500 </r>
       <r>     6.6703     0.0001  1042.2500 </r>
       <r>     6.7836     0.5228  1042.3092 </r>
       <r>     6.8969     2.4422  1042.5859 </r>
       <r>     7.0102     1.4438  1042.7494 </r>
       <r>     7.1234     1.1790  1042.8830 </r>
       <r>     7.2367     5.4561  1043.5010 </r>
       <r>     7.3500     2.2393  1043.7547 </r>
       <r>     7.4633     2.3823  1044.0246 </r>
       <r>     7.5765     3.3953  1044.4092 </r>
       <r>     7.6898     8.2792  1045.3470 </r>
       <r>     7.8031     3.6090  1045.7558 </r>
       <r>     7.9164     2.1725  1046.0019 </r>
       <r>     8.0296     5.4332  1046.6174 </r>
       <r>     8.1429    13.1481  1048.1068 </r>
       <r>     8.2562     6.2264  1048.8121 </r>
       <r>     8.3695     8.0379  1049.7226 </r>
       <r>     8.4828     7.8543  1050.6123 </r>
       <r>     8.5960    13.4073  1052.1311 </r>
       <r>     8.7093    10.1588  1053.2818 </r>
       <r>     8.8226    11.8523  1054.6244 </r>
       <r>     8.9359     7.6092  1055.4864 </r>
       <r>     9.0491    15.2732  1057.2165 </r>
       <r>     9.1624    18.9697  1059.3653 </r>
       <r>     9.2757    24.7251  1062.1661 </r>
       <r>     9.3890    20.1546  1064.4492 </r>
       <r>     9.5023    28.2683  1067.6513 </r>
       <r>     9.6155    26.3417  1070.6353 </r>
       <r>     9.7288    37.9077  1074.9294 </r>
       <r>     9.8421    46.6976  1080.2191 </r>
       <r>     9.9554    33.2524  1083.9859 </r>
       <r>    10.0686    31.7920  1087.5872 </r>
       <r>    10.1819    38.4310  1091.9406 </r>
       <r>    10.2952    36.3203  1096.0548 </r>
       <r>    10.4085    33.7058  1099.8730 </r>
       <r>    10.5218    37.7909  1104.1538 </r>
       <r>    10.6350    38.4375  1108.5079 </r>
       <r>    10.7483    32.7469  1112.2174 </r>
       <r>    10.8616    37.9728  1116.5189 </r>
       <r>    10.9749    34.0016  1120.3705 </r>
       <r>    11.0881    36.3281  1124.4856 </r>
       <r>    11.2014    36.9451  1128.6707 </r>
       <r>    11.3147    40.0424  1133.2066 </r>
       <r>    11.4280    31.2039  1136.7413 </r>
       <r>    11.5412    41.8222  1141.4788 </r>
       <r>    11.6545    34.2353  1145.3569 </r>
       <r>    11.7678    24.3505  1148.1153 </r>
       <r>    11.8811    18.8635  1150.2521 </r>
       <r>    11.9944    24.2449  1152.9985 </r>
       <r>    12.1076    28.6908  1156.2485 </r>
       <r>    12.2209    35.7318  1160.2961 </r>
       <r>    12.3342    35.7876  1164.3500 </r>
       <r>    12.4475    46.1667  1169.5797 </r>
       <r>    12.5607    41.5564  1174.2871 </r>
       <r>    12.6740    37.0675  1178.4860 </r>
       <r>    12.7873    42.2898  1183.2765 </r>
       <r>    12.9006    37.7871  1187.5569 </r>
       <r>    13.0139    33.4788  1191.3493 </r>
       <r>    13.1271    32.6078  1195.0430 </r>
       <r>    13.2404    38.1035  1199.3593 </r>
       <r>    13.3537    43.4542  1204.2817 </r>
       <r>    13.4670    49.9146  1209.9359 </r>
       <r>    13.5802    42.6898  1214.7717 </r>
       <r>    13.6935    35.8645  1218.8343 </r>
       <r>    13.8068    36.7473  1222.9969 </r>
       <r>    13.9201    35.7905  1227.0512 </r>
       <r>    14.0334    28.2847  1230.2552 </r>
       <r>    14.1466    33.8244  1234.0868 </r>
       <r>    14.2599    35.1479  1238.0682 </r>
       <r>    14.3732    27.4917  1241.1824 </r>
       <r>    14.4865    33.8570  1245.0176 </r>
       <r>    14.5997    31.3349  1248.5672 </r>
       <r>    14.7130    12.5272  1249.9862 </r>
       <r>    14.8263     0.1215  1250.0000 </r>
       <r>    14.9396     0.0000  1250.0000 </r>
       <r>    15.0529     0.0000  1250.0000 </r>
       <r>    15.1661     0.0000  1250.0000 </r>
       <r>    15.2794     0.0000  1250.0000 </r>
       <r>    15.3927     0.0000  1250.0000 </r>
       <r>    15.5060     0.0000  1250.0000 </r>
       <r>    15.6192     0.0000  1250.0000 </r>
       <r>    15.7325     0.0000  1250.0000 </r>
       <r>    15.8458     0.0000  1250.0000 </r>
       <r>    15.9591     0.0000  1250.0000 </r>
       <r>    16.0723     0.0000  1250.0000 </r>
       <r>    16.1856     0.0000  1250.0000 </r>
      </set>
     </set>
    </array>
   </total>
  </dos>
 </calculation>
 <structure name="finalpos" >
  <crystal>
   <varray name="basis" >
    <v>       0.00000000      12.28047342       0.00000000 </v>
    <v>       9.14270205       0.00000000       0.00000000 </v>
    <v>       0.00000000      -2.76826177     -11.30069772 </v>
   </varray>
   <i name="volume">   1268.80515525 </i>
   <varray name="rec_basis" >
    <v>       0.00000000       0.08143009      -0.01994742 </v>
    <v>       0.10937686      -0.00000000       0.00000000 </v>
    <v>       0.00000000       0.00000000      -0.08849011 </v>
   </varray>
  </crystal>
  <varray name="positions" >
   <v>       0.65795665      -0.00185124       0.15540788 </v>
   <v>       0.66188150      -0.00146767       0.65630554 </v>
   <v>       0.65839079       0.33039190       0.15577828 </v>
   <v>       0.65986250       0.33169516       0.65756249 </v>
   <v>       0.65794879       0.66486596       0.15574685 </v>
   <v>       0.66193883       0.66482188       0.65645376 </v>
   <v>       0.84378368       0.16375991       0.34144617 </v>
   <v>       0.84204920       0.16234895       0.84532481 </v>
   <v>       0.83953190       0.50074167       0.34106327 </v>
   <v>       0.84244320       0.49745773       0.84389293 </v>
   <v>       0.84192800       0.83385141       0.34258657 </v>
   <v>       0.84156781       0.83005832       0.84562221 </v>
   <v>       0.59271572       0.16407316       0.39732829 </v>
   <v>       0.59116884       0.16393081       0.89674746 </v>
   <v>       0.59199604       0.49695514       0.39806796 </v>
   <v>       0.59292162       0.50156486       0.89753288 </v>
   <v>       0.59101260       0.83121111       0.39710713 </v>
   <v>       0.58896560       0.83229578       0.89605719 </v>
   <v>       0.91099788      -0.00368454       0.10444770 </v>
   <v>       0.90912673       0.00862948       0.60212762 </v>
   <v>       0.90933107       0.33059968       0.10183656 </v>
   <v>       0.89977632       0.35082015       0.59909822 </v>
   <v>       0.90926642       0.66318018       0.10252659 </v>
   <v>       0.90926969       0.67985904       0.60153389 </v>
   <v>       0.15929991       0.15994768       0.15910766 </v>
   <v>       0.16029073       0.49651930       0.15521638 </v>
   <v>       0.15563105       0.52009645       0.65660617 </v>
   <v>       0.15969319       0.83029389       0.15897847 </v>
   <v>       0.16089800       0.86692491       0.62784638 </v>
   <v>       0.34031508      -0.00300245       0.34284813 </v>
   <v>       0.33660450       0.00128663       0.83737458 </v>
   <v>       0.34162609       0.32927690       0.34386296 </v>
   <v>       0.34669632       0.32946124       0.83918246 </v>
   <v>       0.34127649       0.66286436       0.34225136 </v>
   <v>       0.33729326       0.66657614       0.84072319 </v>
   <v>       0.10752505      -0.01398600       0.42368594 </v>
   <v>       0.09436607      -0.01125265       0.89632724 </v>
   <v>       0.08534870       0.32580807       0.39008356 </v>
   <v>       0.09049659       0.32306631       0.89815219 </v>
   <v>       0.08744201       0.66495860       0.39302727 </v>
   <v>       0.09208666       0.66016663       0.89795952 </v>
   <v>       0.40637719       0.16424161       0.09974368 </v>
   <v>       0.41300761       0.16492127       0.60392785 </v>
   <v>       0.40714929       0.49605963       0.09877459 </v>
   <v>       0.40953283       0.49851267       0.60155264 </v>
   <v>       0.40810209       0.83079273       0.10005526 </v>
   <v>       0.41394046       0.83080938       0.60126708 </v>
   <v>       0.99702750       0.16424312       0.12903440 </v>
   <v>      -0.00340149       0.18574516       0.62748187 </v>
   <v>       0.99752459       0.49677100       0.12694021 </v>
   <v>      -0.00644721       0.51052422       0.62683720 </v>
   <v>       0.99700341       0.82903089       0.12461402 </v>
   <v>      -0.00148036       0.84476703       0.62587687 </v>
   <v>       0.50369871      -0.00151475       0.37344362 </v>
   <v>       0.50203024      -0.00119220       0.87206872 </v>
   <v>       0.50406657       0.33031295       0.37418750 </v>
   <v>       0.50767341       0.33385004       0.87362738 </v>
   <v>       0.50427636       0.66333642       0.37333438 </v>
   <v>       0.50112219       0.66499803       0.86877896 </v>
   <v>       0.67317514       0.16502343       0.27962546 </v>
   <v>       0.67371621       0.16473967       0.78030749 </v>
   <v>       0.67195373       0.49766634       0.27949909 </v>
   <v>       0.67416792       0.49955513       0.78011083 </v>
   <v>       0.67240129       0.83193136       0.27974110 </v>
   <v>       0.67365549       0.83248731       0.78057011 </v>
   <v>       0.82665521      -0.00181204       0.21888253 </v>
   <v>       0.82980347       0.00157272       0.71974479 </v>
   <v>       0.82879847       0.32983186       0.21952532 </v>
   <v>       0.82779164       0.33285361       0.72086225 </v>
   <v>       0.82651733       0.66370932       0.21832608 </v>
   <v>       0.82912754       0.66775491       0.71985666 </v>
   <v>       0.83192480       0.00234127       0.44654445 </v>
   <v>       0.83278114      -0.00337533       0.94734371 </v>
   <v>       0.83205853       0.33311182       0.44265166 </v>
   <v>       0.83328646       0.32985892       0.94545880 </v>
   <v>       0.83198186       0.66795636       0.44505263 </v>
   <v>       0.83181764       0.66196299       0.94609033 </v>
   <v>       0.66823121       0.16441091       0.05340845 </v>
   <v>       0.67050676       0.16602409       0.55412453 </v>
   <v>       0.66871102       0.49814474       0.05428823 </v>
   <v>       0.67261099       0.49735158       0.55402359 </v>
   <v>       0.66635133       0.83090637       0.05291074 </v>
   <v>       0.66987993       0.83149714       0.55365193 </v>
   <v>       0.49519354      -0.00159879       0.12636162 </v>
   <v>       0.50023638      -0.00199621       0.62569483 </v>
   <v>       0.49564672       0.33000419       0.12604229 </v>
   <v>       0.49867784       0.33355311       0.62556845 </v>
   <v>       0.49509902       0.66286998       0.12491744 </v>
   <v>       0.49922488       0.66294489       0.62669818 </v>
   <v>       0.00866605       0.15336370       0.38067826 </v>
   <v>       0.00470726       0.15652283       0.87111305 </v>
   <v>       0.00245217       0.49542987       0.37150781 </v>
   <v>       0.00534907       0.49170583       0.87190399 </v>
   <v>       0.00120622       0.83135646       0.36498938 </v>
   <v>       0.00278765       0.82543554       0.87318800 </v>
   <v>       0.17299328      -0.00456605       0.28422139 </v>
   <v>       0.17363892      -0.01500997       0.78030695 </v>
   <v>       0.17289084       0.32993864       0.28060725 </v>
   <v>       0.16192995       0.31837638       0.76474667 </v>
   <v>       0.17312631       0.66215559       0.27977028 </v>
   <v>       0.17384089       0.65870276       0.78348534 </v>
   <v>       0.32799876       0.16381360       0.22066667 </v>
   <v>       0.33856578       0.16992342       0.72382258 </v>
   <v>       0.32813265       0.49527403       0.21891676 </v>
   <v>       0.32378351       0.49587307       0.71507011 </v>
   <v>       0.32863704       0.82928396       0.21924010 </v>
   <v>       0.32478237       0.83594390       0.71051625 </v>
   <v>       0.32939123       0.16350462       0.44892727 </v>
   <v>       0.32782393       0.16757520       0.94324656 </v>
   <v>       0.33068323       0.49608109       0.44569423 </v>
   <v>       0.33017849       0.49307731       0.94106165 </v>
   <v>       0.33514293       0.82981669       0.44559963 </v>
   <v>       0.33397941       0.83223088       0.94291667 </v>
   <v>       0.16838727      -0.00451595       0.05490354 </v>
   <v>       0.16858412       0.32740830       0.05391282 </v>
   <v>       0.15050993       0.33928393       0.55701123 </v>
   <v>       0.16982739       0.66330251       0.05437477 </v>
   <v>       0.16550696       0.67104012       0.54942791 </v>
   <v>       0.13975013       0.19839934       0.64654225 </v>
  </varray>
 </structure>
</modeling>
