 running    4 mpi-ranks, on    1 nodes
 distrk:  each k-point on    1 cores,    4 groups
 distr:  one band on    1 cores,    1 groups
 OpenACC runtime initialized ...    4 GPUs detected
 vasp.6.4.2 20Jul23 (build Nov 12 2023 22:16:35) complex                         
 POSCAR found type information on POSCAR Ga
 POSCAR found :  1 types and       8 ions
 scaLAPACK will be used selectively (only on CPU)
 -----------------------------------------------------------------------------
|                                                                             |
|               ----> ADVICE to this user running VASP <----                  |
|                                                                             |
|     You have a (more or less) 'small supercell' and for smaller cells       |
|     it is recommended to use the reciprocal-space projection scheme!        |
|     The real-space optimization is not efficient for small cells and it     |
|     is also less accurate ...                                               |
|     Therefore, set LREAL=.FALSE. in the INCAR file.                         |
|                                                                             |
 -----------------------------------------------------------------------------

 LDA part: xc-table for Pade appr. of Perdew
 POSCAR, INCAR and KPOINTS ok, starting setup
 FFT: planning ... GRIDC
 FFT: planning ... GRID_SOFT
 FFT: planning ... GRID
 WAVECAR not read
 initial charge from wavefunction
 entering main loop
       N       E                     dE             d eps       ncg     rms          ort
DAV:   1    -0.854641157782E+04   -0.85464E+04   -0.10758E+05   496   0.878E+03
DAV:   2    -0.105417969474E+05   -0.19954E+04   -0.19823E+04   496   0.152E+03
DAV:   3    -0.107775882185E+05   -0.23579E+03   -0.23181E+03   496   0.273E+02
DAV:   4    -0.107961836292E+05   -0.18595E+02   -0.16870E+02   496   0.660E+01
DAV:   5    -0.570534323676E+04    0.50908E+04   -0.78530E+01   496   0.334E+01
 gam= 0.000 g(H,U,f)=  0.983E+04 0.138E+03-0.665E-01 ort(H,U,f) = 0.000E+00 0.000E+00 0.000E+00
SDA:   6     0.163904024765E+04    0.73444E+04   -0.78530E+01   496   0.997E+04 0.000E+00
 gam= 0.000 trial= 0.400  step= 0.309 mean= 0.400
 gam= 0.077 g(H,U,f)=  0.685E+03 0.817E+02-0.204E+00 ort(H,U,f) = 0.116E+04 0.807E+02 0.669E+01
CGA:   7     0.200354794753E+03   -0.14387E+04   -0.15423E+04   496   0.766E+03 0.125E+04
 gam= 0.077 trial= 0.395  step= 0.355 mean= 0.395
 gam= 0.314 g(H,U,f)=  0.223E+03 0.164E+02 0.522E+00 ort(H,U,f) =-0.247E+02 0.845E+01-0.141E+01
CGA:   8     0.465489277200E+02   -0.15381E+03   -0.15292E+03   496   0.240E+03-0.176E+02
 gam= 0.314 trial= 0.393  step= 0.383 mean= 0.393
 gam= 0.241 g(H,U,f)=  0.518E+02 0.602E+01 0.139E+00 ort(H,U,f) =-0.648E+01 0.123E+02 0.392E+00
CGA:   9     0.167882461031E+01   -0.44870E+02   -0.44938E+02   496   0.580E+02 0.620E+01
 gam= 0.241 trial= 0.393  step= 0.394 mean= 0.393
 gam= 0.434 g(H,U,f)=  0.202E+02 0.448E+01 0.432E+00 ort(H,U,f) =-0.680E+01 0.836E+01 0.768E+00
CGA:  10    -0.100249282364E+02   -0.11704E+02   -0.11702E+02   496   0.251E+02 0.233E+01
 gam= 0.434 trial= 0.393  step= 0.647 mean= 0.393
 gam= 0.597 g(H,U,f)=  0.123E+02 0.249E+01 0.194E+00 ort(H,U,f) =-0.870E+01 0.783E+01 0.543E+00
CGA:  11    -0.182914677102E+02   -0.82665E+01   -0.84589E+01   496   0.150E+02-0.332E+00
 gam= 0.597 trial= 0.406  step= 0.787 mean= 0.406
 gam= 0.893 g(H,U,f)=  0.129E+02 0.399E+00 0.844E-01 ort(H,U,f) =-0.714E+01 0.445E+01 0.151E+01
CGA:  12    -0.233376746799E+02   -0.50462E+01   -0.58254E+01   496   0.134E+02-0.117E+01
 gam= 0.893 trial= 0.425  step= 0.246 mean= 0.425
 gam= 0.504 g(H,U,f)=  0.627E+01 0.434E+00 0.552E-01 ort(H,U,f) = 0.247E+01-0.253E+01-0.487E-01
CGA:  13    -0.248764801411E+02   -0.15388E+01   -0.15173E+01   496   0.675E+01-0.112E+00
 gam= 0.504 trial= 0.416  step= 0.206 mean= 0.416
 gam= 0.414 g(H,U,f)=  0.226E+01 0.541E+00-0.507E-02 ort(H,U,f) = 0.245E+01-0.230E+01 0.357E-01
CGA:  14    -0.255790348403E+02   -0.70255E+00   -0.68961E+00   496   0.279E+01 0.192E+00
 gam= 0.414 trial= 0.405  step= 0.287 mean= 0.405
 gam= 0.809 g(H,U,f)=  0.153E+01 0.722E+00 0.658E-02 ort(H,U,f) = 0.602E+00-0.596E+00 0.847E-02
CGA:  15    -0.259902033999E+02   -0.41117E+00   -0.41213E+00   496   0.226E+01 0.147E-01
 gam= 0.809 trial= 0.399  step= 0.318 mean= 0.399
 gam= 0.813 g(H,U,f)=  0.123E+01 0.605E+00 0.209E-03 ort(H,U,f) =-0.161E+00 0.155E+00 0.121E-01
CGA:  16    -0.263512203970E+02   -0.36102E+00   -0.36136E+00   496   0.184E+01 0.603E-02
 gam= 0.813 trial= 0.395  step= 0.271 mean= 0.395
 gam= 0.642 g(H,U,f)=  0.771E+00 0.416E+00-0.836E-02 ort(H,U,f) =-0.494E+00 0.501E+00-0.772E-02
CGA:  17    -0.265997182115E+02   -0.24850E+00   -0.24937E+00   496   0.118E+01-0.448E-03
 gam= 0.642 trial= 0.389  step= 0.297 mean= 0.389
 gam= 0.770 g(H,U,f)=  0.641E+00 0.267E+00-0.470E-04 ort(H,U,f) =-0.491E+00 0.499E+00-0.698E-02
CGA:  18    -0.267743755779E+02   -0.17466E+00   -0.17527E+00   496   0.908E+00 0.157E-02
 gam= 0.770 trial= 0.384  step= 0.345 mean= 0.384
 gam= 0.821 g(H,U,f)=  0.625E+00 0.120E+00 0.375E-04 ort(H,U,f) =-0.357E+00 0.362E+00-0.106E-03
CGA:  19    -0.269309415895E+02   -0.15657E+00   -0.15679E+00   496   0.746E+00 0.464E-02
 gam= 0.821 trial= 0.382  step= 0.359 mean= 0.382
 gam= 0.754 g(H,U,f)=  0.511E+00 0.498E-01 0.129E-02 ort(H,U,f) =-0.143E+00 0.151E+00-0.736E-03
CGA:  20    -0.270654843213E+02   -0.13454E+00   -0.13468E+00   496   0.562E+00 0.736E-02
 gam= 0.754 trial= 0.381  step= 0.358 mean= 0.381
 gam= 0.678 g(H,U,f)=  0.361E+00 0.196E-01 0.254E-03 ort(H,U,f) = 0.144E-01-0.966E-02 0.164E-02
CGA:  21    -0.271669166384E+02   -0.10143E+00   -0.10151E+00   496   0.381E+00 0.642E-02
 gam= 0.678 trial= 0.380  step= 0.328 mean= 0.380
 gam= 0.600 g(H,U,f)=  0.203E+00 0.252E-01 0.261E-04 ort(H,U,f) = 0.633E-01-0.595E-01 0.105E-02
CGA:  22    -0.272300520108E+02   -0.63135E-01   -0.63253E-01   496   0.229E+00 0.483E-02
 gam= 0.600 trial= 0.378  step= 0.315 mean= 0.378
 gam= 0.627 g(H,U,f)=  0.115E+00 0.285E-01 0.341E-04 ort(H,U,f) = 0.293E-01-0.274E-01 0.914E-03
CGA:  23    -0.272664114949E+02   -0.36359E-01   -0.36456E-01   496   0.143E+00 0.281E-02
 gam= 0.627 trial= 0.374  step= 0.358 mean= 0.374
 gam= 0.739 g(H,U,f)=  0.805E-01 0.252E-01 0.115E-03 ort(H,U,f) =-0.229E-02 0.305E-02 0.862E-03
CGA:  24    -0.272923321453E+02   -0.25921E-01   -0.25937E-01   496   0.106E+00 0.162E-02
 gam= 0.739 trial= 0.374  step= 0.374 mean= 0.374
 gam= 0.694 g(H,U,f)=  0.530E-01 0.201E-01 0.354E-03 ort(H,U,f) =-0.197E-01 0.193E-01 0.119E-02
CGA:  25    -0.273123618381E+02   -0.20030E-01   -0.20029E-01   496   0.734E-01 0.769E-03
 gam= 0.694 trial= 0.374  step= 0.377 mean= 0.374
 gam= 0.732 g(H,U,f)=  0.415E-01 0.118E-01 0.372E-03 ort(H,U,f) =-0.237E-01 0.227E-01 0.131E-02
CGA:  26    -0.273263039019E+02   -0.13942E-01   -0.13941E-01   496   0.537E-01 0.310E-03
 gam= 0.732 trial= 0.374  step= 0.416 mean= 0.374
 gam= 0.863 g(H,U,f)=  0.401E-01 0.585E-02 0.476E-03 ort(H,U,f) =-0.158E-01 0.145E-01 0.136E-02
CGA:  27    -0.273375236687E+02   -0.11220E-01   -0.11218E-01   496   0.464E-01 0.129E-03
 gam= 0.863 trial= 0.376  step= 0.381 mean= 0.376
 gam= 0.703 g(H,U,f)=  0.286E-01 0.347E-02 0.523E-03 ort(H,U,f) =-0.659E-02 0.501E-02 0.160E-02
CGA:  28    -0.273463822547E+02   -0.88586E-02   -0.88588E-02   496   0.326E-01 0.245E-04
 gam= 0.703 trial= 0.376  step= 0.350 mean= 0.376
 gam= 0.658 g(H,U,f)=  0.186E-01 0.232E-02 0.492E-03 ort(H,U,f) =-0.800E-03-0.605E-03 0.146E-02
CGA:  29    -0.273520906942E+02   -0.57084E-02   -0.57082E-02   496   0.215E-01 0.559E-04
 gam= 0.658 trial= 0.375  step= 0.378 mean= 0.375
 gam= 0.709 g(H,U,f)=  0.126E-01 0.225E-02 0.364E-03 ort(H,U,f) = 0.108E-02-0.215E-02 0.114E-02
CGA:  30    -0.273561495605E+02   -0.40589E-02   -0.40588E-02   496   0.152E-01 0.665E-04
 gam= 0.709 trial= 0.375  step= 0.393 mean= 0.375
 gam= 0.695 g(H,U,f)=  0.789E-02 0.249E-02 0.200E-03 ort(H,U,f) = 0.306E-03-0.102E-02 0.782E-03
CGA:  31    -0.273591482145E+02   -0.29987E-02   -0.29980E-02   496   0.106E-01 0.711E-04
 gam= 0.695 trial= 0.376  step= 0.409 mean= 0.376
 gam= 0.766 g(H,U,f)=  0.607E-02 0.195E-02 0.851E-04 ort(H,U,f) =-0.120E-02 0.862E-03 0.403E-03
CGA:  32    -0.273613235054E+02   -0.21753E-02   -0.21741E-02   496   0.810E-02 0.605E-04
 gam= 0.766 trial= 0.378  step= 0.421 mean= 0.378
 gam= 0.814 g(H,U,f)=  0.526E-02 0.131E-02 0.214E-04 ort(H,U,f) =-0.157E-02 0.146E-02 0.151E-03
CGA:  33    -0.273630401352E+02   -0.17166E-02   -0.17153E-02   496   0.659E-02 0.455E-04
 gam= 0.814 trial= 0.380  step= 0.396 mean= 0.380
 gam= 0.749 g(H,U,f)=  0.409E-02 0.847E-03 0.342E-05 ort(H,U,f) =-0.130E-02 0.130E-02 0.263E-04
CGA:  34    -0.273643520387E+02   -0.13119E-02   -0.13117E-02   496   0.494E-02 0.184E-04
 gam= 0.749 trial= 0.380  step= 0.389 mean= 0.380
 gam= 0.743 g(H,U,f)=  0.321E-02 0.453E-03 0.299E-05 ort(H,U,f) =-0.707E-03 0.706E-03 0.270E-05
CGA:  35    -0.273653171173E+02   -0.96508E-03   -0.96504E-03   496   0.367E-02 0.185E-05
 gam= 0.743 trial= 0.381  step= 0.396 mean= 0.381
 gam= 0.693 g(H,U,f)=  0.221E-02 0.342E-03-0.499E-05 ort(H,U,f) =-0.128E-03 0.104E-03 0.201E-04
CGA:  36    -0.273660433934E+02   -0.72628E-03   -0.72627E-03   496   0.254E-02-0.468E-05
 gam= 0.693 trial= 0.382  step= 0.388 mean= 0.382
 gam= 0.000 g(H,U,f)=  0.137E-02 0.304E-03-0.189E-04 ort(H,U,f) = 0.190E-04-0.452E-04 0.181E-04
SDA:  37    -0.273665363414E+02   -0.49295E-03   -0.49297E-03   496   0.166E-02-0.804E-05
 gam= 0.000 trial= 0.382  step= 0.875 mean= 0.382
 gam= 0.468 g(H,U,f)=  0.598E-03 0.172E-03 0.598E-05 ort(H,U,f) =-0.702E-04 0.703E-04-0.209E-05
CGA:  38    -0.273672616991E+02   -0.72536E-03   -0.72578E-03   496   0.775E-03-0.196E-05
 gam= 0.468 trial= 0.407  step= 0.804 mean= 0.407
 gam= 0.427 g(H,U,f)=  0.299E-03 0.318E-04 0.683E-06 ort(H,U,f) =-0.844E-04 0.772E-04 0.208E-05
CGA:  39    -0.273675720499E+02   -0.31035E-03   -0.31136E-03   496   0.331E-03-0.505E-05
 gam= 0.427 trial= 0.427  step= 0.630 mean= 0.427
 gam= 0.410 g(H,U,f)=  0.122E-03 0.134E-04 0.347E-06 ort(H,U,f) =-0.375E-04 0.308E-04 0.141E-05
CGA:  40    -0.273676751465E+02   -0.10310E-03   -0.10365E-03   496   0.136E-03-0.532E-05
 gam= 0.410 trial= 0.437  step= 0.530 mean= 0.437
 gam= 0.323 g(H,U,f)=  0.401E-04 0.352E-05 0.259E-06 ort(H,U,f) =-0.119E-04 0.882E-05 0.751E-06
CGA:  41    -0.273677105416E+02   -0.35395E-04   -0.35506E-04   496   0.439E-04-0.231E-05
 gam= 0.323 trial= 0.441  step= 0.700 mean= 0.441
 gam= 0.481 g(H,U,f)=  0.179E-04 0.315E-05 0.831E-07 ort(H,U,f) =-0.449E-05 0.350E-05 0.278E-06
CGA:  42    -0.273677255432E+02   -0.15002E-04   -0.15098E-04   496   0.211E-04-0.717E-06
 gam= 0.481 trial= 0.454  step= 0.674 mean= 0.454
 gam= 0.577 g(H,U,f)=  0.102E-04 0.192E-05 0.125E-07 ort(H,U,f) =-0.318E-05 0.294E-05 0.703E-07
CGA:  43    -0.273677325233E+02   -0.69802E-05   -0.70020E-05   496   0.122E-04-0.177E-06
 gam= 0.577 trial= 0.465  step= 0.680 mean= 0.465
 final diagonalization
   1 F= -.27367733E+02 E0= -.27372219E+02  d E =0.134588E-01
 writing wavefunctions
Warning: ieee_invalid is signaling
Warning: ieee_divide_by_zero is signaling
Warning: ieee_underflow is signaling
Warning: ieee_inexact is signaling
FORTRAN STOP
Warning: ieee_invalid is signaling
Warning: ieee_divide_by_zero is signaling
Warning: ieee_underflow is signaling
Warning: ieee_inexact is signaling
FORTRAN STOP
Warning: ieee_invalid is signaling
Warning: ieee_divide_by_zero is signaling
Warning: ieee_underflow is signaling
Warning: ieee_inexact is signaling
FORTRAN STOP
Warning: ieee_invalid is signaling
Warning: ieee_divide_by_zero is signaling
Warning: ieee_underflow is signaling
Warning: ieee_inexact is signaling
FORTRAN STOP
