       N       E                     dE             d eps       ncg     rms          ort
DAV:   1    -0.854641157782E+04   -0.85464E+04   -0.10758E+05   496   0.878E+03
DAV:   2    -0.105417969474E+05   -0.19954E+04   -0.19823E+04   496   0.152E+03
DAV:   3    -0.107775882185E+05   -0.23579E+03   -0.23181E+03   496   0.273E+02
DAV:   4    -0.107961836292E+05   -0.18595E+02   -0.16870E+02   496   0.660E+01
DAV:   5    -0.570534323676E+04    0.50908E+04   -0.78530E+01   496   0.334E+01
SDA:   6     0.163904024765E+04    0.73444E+04   -0.78530E+01   496   0.997E+04 0.000E+00
CGA:   7     0.200354794753E+03   -0.14387E+04   -0.15423E+04   496   0.766E+03 0.125E+04
CGA:   8     0.465489277200E+02   -0.15381E+03   -0.15292E+03   496   0.240E+03-0.176E+02
CGA:   9     0.167882461031E+01   -0.44870E+02   -0.44938E+02   496   0.580E+02 0.620E+01
CGA:  10    -0.100249282364E+02   -0.11704E+02   -0.11702E+02   496   0.251E+02 0.233E+01
CGA:  11    -0.182914677102E+02   -0.82665E+01   -0.84589E+01   496   0.150E+02-0.332E+00
CGA:  12    -0.233376746799E+02   -0.50462E+01   -0.58254E+01   496   0.134E+02-0.117E+01
CGA:  13    -0.248764801411E+02   -0.15388E+01   -0.15173E+01   496   0.675E+01-0.112E+00
CGA:  14    -0.255790348403E+02   -0.70255E+00   -0.68961E+00   496   0.279E+01 0.192E+00
CGA:  15    -0.259902033999E+02   -0.41117E+00   -0.41213E+00   496   0.226E+01 0.147E-01
CGA:  16    -0.263512203970E+02   -0.36102E+00   -0.36136E+00   496   0.184E+01 0.603E-02
CGA:  17    -0.265997182115E+02   -0.24850E+00   -0.24937E+00   496   0.118E+01-0.448E-03
CGA:  18    -0.267743755779E+02   -0.17466E+00   -0.17527E+00   496   0.908E+00 0.157E-02
CGA:  19    -0.269309415895E+02   -0.15657E+00   -0.15679E+00   496   0.746E+00 0.464E-02
CGA:  20    -0.270654843213E+02   -0.13454E+00   -0.13468E+00   496   0.562E+00 0.736E-02
CGA:  21    -0.271669166384E+02   -0.10143E+00   -0.10151E+00   496   0.381E+00 0.642E-02
CGA:  22    -0.272300520108E+02   -0.63135E-01   -0.63253E-01   496   0.229E+00 0.483E-02
CGA:  23    -0.272664114949E+02   -0.36359E-01   -0.36456E-01   496   0.143E+00 0.281E-02
CGA:  24    -0.272923321453E+02   -0.25921E-01   -0.25937E-01   496   0.106E+00 0.162E-02
CGA:  25    -0.273123618381E+02   -0.20030E-01   -0.20029E-01   496   0.734E-01 0.769E-03
CGA:  26    -0.273263039019E+02   -0.13942E-01   -0.13941E-01   496   0.537E-01 0.310E-03
CGA:  27    -0.273375236687E+02   -0.11220E-01   -0.11218E-01   496   0.464E-01 0.129E-03
CGA:  28    -0.273463822547E+02   -0.88586E-02   -0.88588E-02   496   0.326E-01 0.245E-04
CGA:  29    -0.273520906942E+02   -0.57084E-02   -0.57082E-02   496   0.215E-01 0.559E-04
CGA:  30    -0.273561495605E+02   -0.40589E-02   -0.40588E-02   496   0.152E-01 0.665E-04
CGA:  31    -0.273591482145E+02   -0.29987E-02   -0.29980E-02   496   0.106E-01 0.711E-04
CGA:  32    -0.273613235054E+02   -0.21753E-02   -0.21741E-02   496   0.810E-02 0.605E-04
CGA:  33    -0.273630401352E+02   -0.17166E-02   -0.17153E-02   496   0.659E-02 0.455E-04
CGA:  34    -0.273643520387E+02   -0.13119E-02   -0.13117E-02   496   0.494E-02 0.184E-04
CGA:  35    -0.273653171173E+02   -0.96508E-03   -0.96504E-03   496   0.367E-02 0.185E-05
CGA:  36    -0.273660433934E+02   -0.72628E-03   -0.72627E-03   496   0.254E-02-0.468E-05
SDA:  37    -0.273665363414E+02   -0.49295E-03   -0.49297E-03   496   0.166E-02-0.804E-05
CGA:  38    -0.273672616991E+02   -0.72536E-03   -0.72578E-03   496   0.775E-03-0.196E-05
CGA:  39    -0.273675720499E+02   -0.31035E-03   -0.31136E-03   496   0.331E-03-0.505E-05
CGA:  40    -0.273676751465E+02   -0.10310E-03   -0.10365E-03   496   0.136E-03-0.532E-05
CGA:  41    -0.273677105416E+02   -0.35395E-04   -0.35506E-04   496   0.439E-04-0.231E-05
CGA:  42    -0.273677255432E+02   -0.15002E-04   -0.15098E-04   496   0.211E-04-0.717E-06
CGA:  43    -0.273677325233E+02   -0.69802E-05   -0.70020E-05   496   0.122E-04-0.177E-06
   1 F= -.27367733E+02 E0= -.27372219E+02  d E =0.134588E-01
