 vasp.6.4.2 20Jul23 (build Nov 12 2023 22:16:35) complex                         
 executed on              LinuxNV date 2025.03.09  14:07:37
 running    4 mpi-ranks, on    1 nodes
 distrk:  each k-point on    1 cores,    4 groups
 distr:  one band on NCORE=   1 cores,    1 groups
 OpenACC runtime initialized ...    4 GPUs detected


--------------------------------------------------------------------------------------------------------


 INCAR:
   PREC = Normal
   ENCUT = 450
   NELM = 500
   IBRION = -1
   ISPIN = 1
   NSW = 0
   ISIF = 2
   EDIFF = 1E-5
   EDIFFG = -5E-3
   ISTART = 0
   ICHARG = 0
   ISMEAR = 1
   SIGMA = 0.2
   LWAVE = .T.
   LCHARG = .T.
   LREAL = Auto
   LPLANE = .TRUE.
   NPAR = 1
   KPAR = 4
   NCORE = 1
   ALGO = All
   LHFCALC = .TRUE.
   HSE06 = .TRUE.
   HFSCREEN = 0.18
   TIME = 0.4
   AEXX = 0.35
   LMAXFOCK = 4
   PRECFOCK = Fast

 POTCAR:    PAW_PBE Ga_d 06Jul2010                
 POTCAR:    PAW_PBE Ga_d 06Jul2010                
   SHA256 =  a60ddf36e14f00ea098d9e3914b3745f1b7105e68786148f49ae384e44b4226c Ga_d/POTCAR           
   COPYR  = (c) Copyright 06Jul2010 Georg Kresse                                                    
   COPYR  = This file is part of the software VASP. Any use, copying, and all other rights are regul
   COPYR  = If you do not have a valid VASP license, you may not use, copy or distribute this file. 
   VRHFIN =Ga: s2p1                                                                                 
   LEXCH  = PE                                                                                      
   EATOM  =  2148.8298 eV,  157.9345 Ry                                                             
                                                                                                    
   TITEL  = PAW_PBE Ga_d 06Jul2010                                                                  
   LULTRA =        F    use ultrasoft PP ?                                                          
   IUNSCR =        1    unscreen: 0-lin 1-nonlin 2-no                                               
   RPACOR =    1.700    partial core radius                                                         
   POMASS =   69.723; ZVAL   =   13.000    mass and valenz                                          
   RCORE  =    2.300    outmost cutoff radius                                                       
   RWIGS  =    2.300; RWIGS  =    1.217    wigner-seitz radius (au A)                               
   ENMAX  =  282.691; ENMIN  =  212.018 eV                                                          
   ICORE  =        3    local potential                                                             
   LCOR   =        T    correct aug charges                                                         
   LPAW   =        T    paw PP                                                                      
   EAUG   =  490.690                                                                                
   DEXC   =    0.000                                                                                
   RMAX   =    2.341    core radius for proj-oper                                                   
   RAUG   =    1.300    factor for augmentation sphere                                              
   RDEP   =    2.413    radius for radial grids                                                     
   RDEPT  =    1.856    core radius for aug-charge                                                  
                                                                                                    
   Atomic configuration                                                                             
    9 entries                                                                                       
     n  l   j            E        occ.                                                              
     1  0  0.50    -10228.7831   2.0000                                                             
     2  0  0.50     -1262.1604   2.0000                                                             
     2  1  1.50     -1098.6333   6.0000                                                             
     3  0  0.50      -148.1110   2.0000                                                             
     3  1  1.50       -98.8436   6.0000                                                             
     3  2  2.50       -19.1549  10.0000                                                             
     4  0  0.50        -8.9483   2.0000                                                             
     4  1  0.50        -2.5791   1.0000                                                             
     4  3  2.50        -2.7416   0.0000                                                             
   Description                                                                                      
     l       E           TYP  RCUT    TYP  RCUT                                                     
     2    -19.1549037     23  2.300                                                                 
     2     -5.4423304     23  2.300                                                                 
     0     -8.9483111     23  2.300                                                                 
     0     68.0291300     23  2.300                                                                 
     1     -2.5790802     23  2.100                                                                 
     1     81.6349560     23  2.300                                                                 
     3      6.8029130     23  2.300                                                                 
  local pseudopotential read in
  partial core-charges read in
  partial kinetic energy density read in
  atomic valenz-charges read in
  non local Contribution for L=            2  read in
    real space projection operators read in
  non local Contribution for L=            2  read in
    real space projection operators read in
  non local Contribution for L=            0  read in
    real space projection operators read in
  non local Contribution for L=            0  read in
    real space projection operators read in
  non local Contribution for L=            1  read in
    real space projection operators read in
  non local Contribution for L=            1  read in
    real space projection operators read in
    PAW grid and wavefunctions read in
 
   number of l-projection  operators is LMAX  =            6
   number of lm-projection operators is LMMAX =           18
 
 -----------------------------------------------------------------------------
|                                                                             |
|               ----> ADVICE to this user running VASP <----                  |
|                                                                             |
|     You have a (more or less) 'small supercell' and for smaller cells       |
|     it is recommended to use the reciprocal-space projection scheme!        |
|     The real-space optimization is not efficient for small cells and it     |
|     is also less accurate ...                                               |
|     Therefore, set LREAL=.FALSE. in the INCAR file.                         |
|                                                                             |
 -----------------------------------------------------------------------------

 Optimization of the real space projectors (new method)

 maximal supplied QI-value         = 16.25
 optimisation between [QCUT,QGAM] = [ 10.73, 21.61] = [ 32.22,130.83] Ry 
 Optimized for a Real-space Cutoff    1.42 Angstroem

   l    n(q)    QCUT    max X(q) W(low)/X(q) W(high)/X(q)  e(spline) 
   2      8    10.726     7.143    0.22E-03    0.16E-03    0.73E-07
   2      8    10.726     5.586    0.40E-03    0.26E-03    0.10E-06
   0      9    10.726    12.382    0.25E-04    0.21E-05    0.37E-07
   0      9    10.726     6.622    0.42E-04    0.48E-05    0.77E-07
   1      9    10.726     7.935    0.27E-03    0.13E-04    0.16E-06
   1      9    10.726     2.425    0.23E-03    0.15E-04    0.14E-06
  PAW_PBE Ga_d 06Jul2010                :
 energy of atom  1       EATOM=-2148.8298
 kinetic energy error for atom=    0.0038 (will be added to EATOM!!)
 
 
 POSCAR: Ga8
  positions in direct lattice
  velocities in cartesian coordinates
 exchange correlation table for  LEXCH =        8
   RHO(1)=    0.500       N(1)  =     2000
   RHO(2)=  100.500       N(2)  =     4000
 


--------------------------------------------------------------------------------------------------------


 ion  position               nearest neighbor table
   1  0.000  0.337  0.401-   8 2.61   8 2.61   3 2.63   2 2.64   2 2.64   7 2.73   7 2.73
   2  0.000  0.163  0.901-   7 2.61   7 2.61   4 2.63   1 2.64   1 2.64   8 2.73   8 2.73
   3  0.000  0.663  0.599-   6 2.61   6 2.61   1 2.63   4 2.64   4 2.64   5 2.73   5 2.73
   4  0.000  0.837  0.099-   5 2.61   5 2.61   2 2.63   3 2.64   3 2.64   6 2.73   6 2.73
   5  0.500  0.837  0.401-   4 2.61   4 2.61   7 2.63   6 2.64   6 2.64   3 2.73   3 2.73
   6  0.500  0.663  0.901-   3 2.61   3 2.61   8 2.63   5 2.64   5 2.64   4 2.73   4 2.73
   7  0.500  0.163  0.599-   2 2.61   2 2.61   5 2.63   8 2.64   8 2.64   1 2.73   1 2.73
   8  0.500  0.337  0.099-   1 2.61   1 2.61   6 2.63   7 2.64   7 2.64   2 2.73   2 2.73
 
  LATTYP: Found a simple orthorhombic cell.
 ALAT       =     4.4320466607
 B/A-ratio  =     1.0278554985
 C/A-ratio  =     1.7143284496
  
  Lattice vectors:
  
 A1 = (  -4.4320466607,   0.0000000000,  -0.0000000000)
 A2 = (   0.0000000000,   0.0000000000,   4.5555035300)
 A3 = (  -0.0000000000,   7.5979836803,   0.0000000000)


Analysis of symmetry for initial positions (statically):
=====================================================================
 Subroutine PRICEL returns following result:
 
  LATTYP: Found a base centered orthorhombic cell.
 ALAT       =     4.4320466607
 B/A-ratio  =     1.7143284496
 C/A-ratio  =     1.0278554985
  
  Lattice vectors:
  
 A1 = (   2.2160233304,  -3.7989918401,   0.0000000000)
 A2 = (   2.2160233304,   3.7989918401,   0.0000000000)
 A3 = (   0.0000000000,   0.0000000000,   4.5555035300)
 
   2 primitive cells build up your supercell.
 

 Routine SETGRP: Setting up the symmetry group for a 
 simple orthorhombic supercell.


 Subroutine GETGRP returns: Found  8 space group operations
 (whereof  4 operations were pure point group operations)
 out of a pool of  8 trial point group operations.


The static configuration has the point symmetry C_2h.
 The point group associated with its full space group is D_2h.


Analysis of symmetry for dynamics (positions and initial velocities):
=====================================================================
 Subroutine PRICEL returns following result:
 
  LATTYP: Found a base centered orthorhombic cell.
 ALAT       =     4.4320466607
 B/A-ratio  =     1.7143284496
 C/A-ratio  =     1.0278554985
  
  Lattice vectors:
  
 A1 = (   2.2160233304,  -3.7989918401,   0.0000000000)
 A2 = (   2.2160233304,   3.7989918401,   0.0000000000)
 A3 = (   0.0000000000,   0.0000000000,   4.5555035300)
 
   2 primitive cells build up your supercell.
 

 Routine SETGRP: Setting up the symmetry group for a 
 simple orthorhombic supercell.


 Subroutine GETGRP returns: Found  8 space group operations
 (whereof  4 operations were pure point group operations)
 out of a pool of  8 trial point group operations.


The dynamic configuration has the point symmetry C_2h.
 The point group associated with its full space group is D_2h.


 Subroutine INISYM returns: Found  8 space group operations
 (whereof  4 operations are pure point group operations),
 and found     2 'primitive' translations


----------------------------------------------------------------------------------------

                                     Primitive cell                                     

  volume of cell :      76.7024

  direct lattice vectors                    reciprocal lattice vectors
     2.216023330 -3.798991840  0.000000000     0.225629393 -0.131613865  0.000000000
     2.216023330  3.798991840  0.000000000     0.225629393  0.131613865 -0.000000000
     0.000000000  0.000000000  4.555503530    -0.000000000 -0.000000000  0.219514702

  length of vectors
     4.398078945  4.398078945  4.555503530     0.261210323  0.261210323  0.219514702

  position of ions in fractional coordinates (direct lattice)
     0.662795013  0.337204987  0.401079531
     0.837204987  0.162795013  0.901079531
     0.337204987  0.662795013  0.598920469
     0.162795013  0.837204987  0.098920469

  ion indices of the primitive-cell ions
   primitive index   ion index
                 1           1
                 2           2
                 3           3
                 4           4

----------------------------------------------------------------------------------------

 
 
 KPOINTS: Automatic mesh                          

Automatic generation of k-mesh.
 Grid dimensions read from file:
 generate k-points for:    2    2    2

 Generating k-lattice:

  Cartesian coordinates                     Fractional coordinates (reciprocal lattice)
     0.112814697  0.000000000 -0.000000000     0.500000000 -0.000000000  0.000000000
     0.000000000  0.065806933  0.000000000     0.000000000  0.500000000  0.000000000
    -0.000000000 -0.000000000  0.109757351     0.000000000 -0.000000000  0.500000000

  Length of vectors
     0.112814697  0.065806933  0.109757351

  Shift w.r.t. Gamma in fractional coordinates (k-lattice)
     0.000000000  0.000000000  0.000000000

 
 Subroutine IBZKPT returns following result:
 ===========================================
 
 Found      8 irreducible k-points:
 
 Following reciprocal coordinates:
            Coordinates               Weight
  0.000000  0.000000  0.000000      1.000000
  0.500000  0.000000  0.000000      1.000000
  0.000000  0.500000  0.000000      1.000000
  0.500000  0.500000  0.000000      1.000000
  0.000000  0.000000  0.500000      1.000000
  0.500000  0.000000  0.500000      1.000000
  0.000000  0.500000  0.500000      1.000000
  0.500000  0.500000  0.500000      1.000000
 
 Following cartesian coordinates:
            Coordinates               Weight
  0.000000  0.000000  0.000000      1.000000
  0.112815  0.000000  0.000000      1.000000
  0.000000  0.065807  0.000000      1.000000
  0.112815  0.065807  0.000000      1.000000
  0.000000  0.000000  0.109757      1.000000
  0.112815  0.000000  0.109757      1.000000
  0.000000  0.065807  0.109757      1.000000
  0.112815  0.065807  0.109757      1.000000
 
 
 Subroutine IBZKPT_HF returns following result:
 ==============================================
 
 Found      8 k-points in 1st BZ
 the following      8 k-points will be used (e.g. in the exchange kernel)
 Following reciprocal coordinates:   # in IRBZ
  0.000000  0.000000  0.000000    0.12500000   1 t-inv F
  0.500000  0.000000  0.000000    0.12500000   2 t-inv F
  0.000000  0.500000  0.000000    0.12500000   3 t-inv F
  0.500000  0.500000  0.000000    0.12500000   4 t-inv F
  0.000000  0.000000  0.500000    0.12500000   5 t-inv F
  0.500000  0.000000  0.500000    0.12500000   6 t-inv F
  0.000000  0.500000  0.500000    0.12500000   7 t-inv F
  0.500000  0.500000  0.500000    0.12500000   8 t-inv F


--------------------------------------------------------------------------------------------------------




 Dimension of arrays:
   k-points           NKPTS =      8   k-points in BZ     NKDIM =      8   number of bands    NBANDS=     62
   number of dos      NEDOS =    301   number of ions     NIONS =      8
   non local maximal  LDIM  =      6   non local SUM 2l+1 LMDIM =     18
   total plane-waves  NPLWV =  23040
   max r-space proj   IRMAX =   1860   max aug-charges    IRDMAX=   5891
   dimension x,y,z NGX =    24 NGY =   40 NGZ =   24
   dimension x,y,z NGXF=    48 NGYF=   80 NGZF=   48
   support grid    NGXF=    48 NGYF=   80 NGZF=   48
   ions per type =               8
   NGX,Y,Z   is equivalent  to a cutoff of   9.00,  8.75,  8.76 a.u.
   NGXF,Y,Z  is equivalent  to a cutoff of  18.00, 17.50, 17.52 a.u.

 SYSTEM =  unknown system                          
 POSCAR =  Ga8                                     

 Startparameter for this run:
   NWRITE =      2    write-flag & timer
   PREC   = normal    normal or accurate (medium, high low for compatibility)
   ISTART =      0    job   : 0-new  1-cont  2-samecut
   ICHARG =      0    charge: 1-file 2-atom 10-const
   ISPIN  =      1    spin polarized calculation?
   LNONCOLLINEAR =      F non collinear calculations
   LSORBIT =      F    spin-orbit coupling
   INIWAV =      1    electr: 0-lowe 1-rand  2-diag
   LASPH  =      F    aspherical Exc in radial PAW
 Electronic Relaxation 1
   ENCUT  =  450.0 eV  33.07 Ry    5.75 a.u.   7.67 13.14  7.88*2*pi/ulx,y,z
   ENINI  =  450.0     initial cutoff
   ENAUG  =  490.7 eV  augmentation charge cutoff
   NELM   =    500;   NELMIN=  2; NELMDL= -5     # of ELM steps 
   EDIFF  = 0.1E-04   stopping-criterion for ELM
   LREAL  =      T    real-space projection
   NLSPLINE    = F    spline interpolate recip. space projectors
   LCOMPAT=      F    compatible to vasp.4.4
   GGA_COMPAT  = T    GGA compatible to vasp.4.4-vasp.4.6
   LMAXPAW     = -100 max onsite density
   LMAXMIX     =    2 max onsite mixed and CHGCAR
   VOSKOWN=      0    Vosko Wilk Nusair interpolation
   ROPT   =   -0.00050
 Ionic relaxation
   EDIFFG = -.5E-02   stopping-criterion for IOM
   NSW    =      0    number of steps for IOM
   NBLOCK =      1;   KBLOCK =      1    inner block; outer block 
   IBRION =     -1    ionic relax: 0-MD 1-quasi-New 2-CG
   NFREE  =      0    steps in history (QN), initial steepest desc. (CG)
   ISIF   =      2    stress and relaxation
   IWAVPR =     10    prediction:  0-non 1-charg 2-wave 3-comb
   ISYM   =      3    0-nonsym 1-usesym 2-fastsym
   LCORR  =      T    Harris-Foulkes like correction to forces

   POTIM  = 0.5000    time-step for ionic-motion
   TEIN   =    0.0    initial temperature
   TEBEG  =    0.0;   TEEND  =   0.0 temperature during run
   SMASS  =  -3.00    Nose mass-parameter (am)
   estimated Nose-frequenzy (Omega)   =  0.10E-29 period in steps = 0.13E+47 mass=  -0.449E-27a.u.
   SCALEE = 1.0000    scale energy and forces
   NPACO  =    256;   APACO  = 10.0  distance and # of slots for P.C.
   PSTRESS=    0.0 pullay stress

  Mass of Ions in am
   POMASS =  69.72
  Ionic Valenz
   ZVAL   =  13.00
  Atomic Wigner-Seitz radii
   RWIGS  =  -1.00
  virtual crystal weights 
   VCA    =   1.00
   NELECT =     104.0000    total number of electrons
   NUPDOWN=      -1.0000    fix difference up-down

 DOS related values:
   EMIN   =  10.00;   EMAX   =-10.00  energy-range for DOS
   EFERMI =   0.00;   METHOD = LEGACY      
   ISMEAR =     1;   SIGMA  =   0.20  broadening in eV -4-tet -1-fermi 0-gaus

 Electronic relaxation 2 (details)
   IALGO  =     58    algorithm
   LDIAG  =      T    sub-space diagonalisation (order eigenvalues)
   LSUBROT=      F    optimize rotation matrix (better conditioning)
   TURBO    =      0    0=normal 1=particle mesh
   IRESTART =      0    0=no restart 2=restart with 2 vectors
   NREBOOT  =      0    no. of reboots
   NMIN     =      0    reboot dimension
   EREF     =   0.00    reference energy to select bands
   IMIX   =      4    mixing-type and parameters
     AMIX     =   0.40;   BMIX     =  1.00
     AMIX_MAG =   1.60;   BMIX_MAG =  1.00
     AMIN     =   0.10
     WC   =   100.;   INIMIX=   1;  MIXPRE=   1;  MAXMIX= -45

 Intra band minimization:
   WEIMIN = 0.0000     energy-eigenvalue tresh-hold
   EBREAK =  0.40E-07  absolut break condition
   DEPER  =   0.30     relativ break condition  

   TIME   =   0.40     timestep for ELM

  volume/ion in A,a.u.               =      19.18       129.40
  Fermi-wavevector in a.u.,A,eV,Ry     =   1.438157  2.717722 28.140864  2.068295
  Thomas-Fermi vector in A             =   2.557155
 
 Write flags
   LWAVE        =      T    write WAVECAR
   LDOWNSAMPLE  =      F    k-point downsampling of WAVECAR
   LCHARG       =      T    write CHGCAR
   LVTOT        =      F    write LOCPOT, total local potential
   LVHAR        =      F    write LOCPOT, Hartree potential only
   LELF         =      F    write electronic localiz. function (ELF)
   LORBIT       =      0    0 simple, 1 ext, 2 COOP (PROOUT), +10 PAW based schemes


 Dipole corrections
   LMONO  =      F    monopole corrections only (constant potential shift)
   LDIPOL =      F    correct potential (dipole corrections)
   IDIPOL =      0    1-x, 2-y, 3-z, 4-all directions 
   EPSILON=  1.0000000 bulk dielectric constant

 Exchange correlation treatment:
   GGA     =    --    GGA type
   LEXCH   =     8    internal setting for exchange type
   LIBXC   =     F    Libxc                    
   VOSKOWN =     0    Vosko Wilk Nusair interpolation
   EXXOEP  =     0    0=HF, 1=EXX-LHF (local Hartree Fock) 2=EXX OEP
   LHFCALC =     T    Hartree Fock is set to
   LSYMGRAD=     F    symmetrize gradient (conserves proper symmetry)
   PRECFOCK=fast      Normal, Fast or Accurate (Low or Medium for compatibility)
   LRHFCALC=     F    long range Hartree Fock
   LRSCOR  =     F    long range correlation only (use DFT for short range part)
   LTHOMAS =     F    Thomas Fermi screening in HF
   LMODELHF=     F    short range full HF, long range fraction AEXX
   FOCKCORR=     1    mode to apply convergence corrections
   LFOCKACE=     T    use Adeptively-Compressed-Exchange operator
   ENCUT4O =  -1.0   cutoff for four orbital integrals eV
   LMAXFOCK=     4    L truncation for augmentation on plane wave grid
   LMAXFOCKAE=  -1    L truncation for all-electron charge restoration on plane wave grid
   NMAXFOCKAE=   1    number of basis functions for all-electron charge restoration
   LFOCKAEDFT=     F  apply the AE augmentation even for DFT
   NKREDX  =     1    reduce k-point grid by
   NKREDY  =     1    reduce k-point grid by
   NKREDZ  =     1    reduce k-point grid by
   SHIFTRED=     F    shift reduced grid of Gamma
   HFKIDENT=     F    idential grid for each k-point
   ODDONLY =     F    use only odd q-grid points
   EVENONLY=     F    use only even q-grid points
   HFALPHA =   -1.0000 decay constant for conv. correction
   MCALPHA =    0.0000 extent of test-charge in conv. correction in multipole expansion
   AEXX    =    0.3500 exact exchange contribution
   HFSCREEN=    0.1800 screening length (either q_TF or 0.3 A-1)
   HFSCREENC=   0.1800 screening length for correlation (either q_TF or 0.3 A-1)
   HFRCUT  =    0.0000 spherical cutoff for potential kernel
   ALDAX   =    0.6500 LDA exchange part
   AGGAX   =    0.6500 GGA exchange part
   ALDAC   =    1.0000 LDA correlation
   AGGAC   =    1.0000 GGA correlation
   ENCUTFOCK=  -1.0 apply spherical cutoff to Coloumb kernel
   NBANDSGWLOW=     1    first orbital included in HF term
   NBLOCK_FOCK=    64    blocking factor in FOCK_ACC

 Linear response parameters
   LEPSILON=     F    determine dielectric tensor
   LRPA    =     F    only Hartree local field effects (RPA)
   LNABLA  =     F    use nabla operator in PAW spheres
   LVEL    =     F    velocity operator in full k-point grid
   CSHIFT  =0.1000    complex shift for real part using Kramers Kronig
   OMEGAMAX=  -1.0    maximum frequency
   DEG_THRESHOLD= 0.2000000E-02 threshold for treating states as degnerate
   RTIME   =   -0.100 relaxation time in fs
  (WPLASMAI=    0.000 imaginary part of plasma frequency in eV, 0.658/RTIME)
   DFIELD  = 0.0000000 0.0000000 0.0000000 field for delta impulse in time
 
  Optional k-point grid parameters
   LKPOINTS_OPT  =     F    use optional k-point grid
   KPOINTS_OPT_MODE=     1    mode for optional k-point grid
 
 Orbital magnetization related:
   ORBITALMAG=     F  switch on orbital magnetization
   LCHIMAG   =     F  perturbation theory with respect to B field
   DQ        =  0.001000  dq finite difference perturbation B field
   LLRAUG    =     F  two centre corrections for induced B field
   LBONE     =     F  B-component reconstruction in AE one-centre
   LVGVCALC  =     T  calculate vGv susceptibility
   LVGVAPPL  =     F  apply vGv susceptibility instead of pGv for G=0

 Random number generation:
   RANDOM_GENERATOR = DEFAULT
   PCG_SEED         = not used


--------------------------------------------------------------------------------------------------------


 Static calculation
 charge density and potential will be updated during run
 non-spin polarized calculation
 Conjugate gradient for all bands (Freysoldt, et al. PRB 79, 241103 (2009))
 preconditioned conjugated gradient                                        
 perform sub-space diagonalisation
    before iterative eigenvector-optimisation
 modified Broyden-mixing scheme, WC =      100.0
 initial mixing is a Kerker type mixing with AMIX =  0.4000 and BMIX =      1.0000
 Hartree-type preconditioning will be used
 using additional bands            10
 real space projection scheme for non local part
 use partial core corrections
 no Harris-corrections to forces 
 use gradient corrections 
 use of overlap-Matrix (Vanderbilt PP)
 Methfessel and Paxton  Order N= 1 SIGMA  =   0.20


--------------------------------------------------------------------------------------------------------


  energy-cutoff  :      450.00
  volume of cell :      153.40
      direct lattice vectors                 reciprocal lattice vectors
     4.432046661  0.000000000  0.000000000     0.225629393  0.000000000 -0.000000000
    -0.000000000  7.597983680  0.000000000     0.000000000  0.131613865  0.000000000
     0.000000000  0.000000000  4.555503530    -0.000000000 -0.000000000  0.219514702

  length of vectors
     4.432046661  7.597983680  4.555503530     0.225629393  0.131613865  0.219514702


 
 k-points in units of 2pi/SCALE and weight: Automatic mesh                          
   0.00000000  0.00000000  0.00000000       0.125
   0.11281470  0.00000000  0.00000000       0.125
   0.00000000  0.06580693  0.00000000       0.125
   0.11281470  0.06580693  0.00000000       0.125
   0.00000000  0.00000000  0.10975735       0.125
   0.11281470  0.00000000  0.10975735       0.125
   0.00000000  0.06580693  0.10975735       0.125
   0.11281470  0.06580693  0.10975735       0.125
 
 k-points in reciprocal lattice and weights: Automatic mesh                          
   0.00000000  0.00000000  0.00000000       0.125
   0.50000000  0.00000000  0.00000000       0.125
   0.00000000  0.50000000  0.00000000       0.125
   0.50000000  0.50000000  0.00000000       0.125
   0.00000000  0.00000000  0.50000000       0.125
   0.50000000  0.00000000  0.50000000       0.125
   0.00000000  0.50000000  0.50000000       0.125
   0.50000000  0.50000000  0.50000000       0.125
 
 position of ions in fractional coordinates (direct lattice) 
   0.00000000  0.33720499  0.40107953
   0.00000000  0.16279501  0.90107953
   0.00000000  0.66279501  0.59892047
   0.00000000  0.83720499  0.09892047
   0.50000000  0.83720499  0.40107953
   0.50000000  0.66279501  0.90107953
   0.50000000  0.16279501  0.59892047
   0.50000000  0.33720499  0.09892047
 
 position of ions in cartesian coordinates  (Angst):
  -0.00000000  2.56207799  1.82711922
  -0.00000000  1.23691385  4.10487099
  -0.00000000  5.03590569  2.72838431
  -0.00000000  6.36106983  0.45063254
   2.21602333  6.36106983  1.82711922
   2.21602333  5.03590569  4.10487099
   2.21602333  1.23691385  2.72838431
   2.21602333  2.56207799  0.45063254
 


--------------------------------------------------------------------------------------------------------


 k-point   1 :   0.0000 0.0000 0.0000  plane waves:    3339
 k-point   2 :   0.5000 0.0000 0.0000  plane waves:    3348
 k-point   3 :   0.0000 0.5000 0.0000  plane waves:    3314
 k-point   4 :   0.5000 0.5000 0.0000  plane waves:    3320
 k-point   5 :   0.0000 0.0000 0.5000  plane waves:    3352
 k-point   6 :   0.5000 0.0000 0.5000  plane waves:    3308
 k-point   7 :   0.0000 0.5000 0.5000  plane waves:    3340
 k-point   8 :   0.5000 0.5000 0.5000  plane waves:    3304

 maximum and minimum number of plane-waves per node :      3352     3304

 maximum number of plane-waves:      3352
 maximum index in each direction: 
   IXMAX=    7   IYMAX=   13   IZMAX=    7
   IXMIN=   -8   IYMIN=  -13   IZMIN=   -8


 serial   3D FFT for wavefunctions
 parallel 3D FFT for charge:
    minimum data exchange during FFTs selected (reduces bandwidth)


 FFT grid for exact exchange (Hartree Fock) 
  NGX = 18; NGY = 30; NGZ = 18

 
 Radii for the augmentation spheres in the non-local exchange
 for species   1 augmentation radius   1.392 (default was   1.031)
       energy cutoff for augmentation   1800.0
 Maximum index for augmentation-charges in exchange           717
  SETUP_FOCK is finished

 total amount of memory used by VASP MPI-rank0   133812. kBytes
=======================================================================

   base      :      30000. kBytes
   nonlr-proj:       3822. kBytes
   fftplans  :       6540. kBytes
   grid      :      10030. kBytes
   one-center:        124. kBytes
   HF        :         64. kBytes
   wavefun   :      83232. kBytes
 
     INWAV:  cpu time      0.0000: real time      0.0001
 Broyden mixing: mesh for mixing (old mesh)
   NGX = 15   NGY = 27   NGZ = 15
  (NGX  = 48   NGY  = 80   NGZ  = 48)
  gives a total of   6075 points

 charge density for first step will be calculated from the start-wavefunctions


--------------------------------------------------------------------------------------------------------


 Maximum index for non-local projection operator          1748
 Maximum index for augmentation-charges          5521 (set IRDMAX)


--------------------------------------------------------------------------------------------------------


 initial charge from wavefunction
 First call to EWALD:  gamma=   0.331
 Maximum number of real-space cells 3x 2x 3
 Maximum number of reciprocal cells 2x 4x 2

    FEWALD:  cpu time      0.0012: real time      0.0012


--------------------------------------- Ionic step        1  -------------------------------------------




--------------------------------------- Iteration      1(   1)  ---------------------------------------


    POTLOK:  cpu time      0.0295: real time      0.0295
    SETDIJ:  cpu time      0.0243: real time      0.0242
    TRIAL :  cpu time      0.3343: real time      0.3381
    CORREC:  cpu time      0.0005: real time      0.0005
    --------------------------------------------
      LOOP:  cpu time      0.4078: real time      0.4116

 eigenvalue-minimisations  :  1276
 total energy-change (2. order) :-0.8546412E+04  (-0.1075824E+05)
 number of electron     103.9999993 magnetization 
 augmentation part       15.2602294 magnetization 

 Free energy of the ion-electron system (eV)
  ---------------------------------------------------
  alpha Z        PSCENC =       563.37210189
  Ewald energy   TEWEN  =    -10075.62109696
  -Hartree energ DENC   =      -213.26787051
  -exchange      EXHF   =         0.00000000
  -V(xc)+E(xc)   XCENC  =       192.64815077
  PAW double counting   =      5085.59337777    -9690.31509403
  entropy T*S    EENTRO =         0.00178345
  eigenvalues    EBANDS =    -11580.49616460
  atomic energy  EATOM  =     17171.67323441
  ---------------------------------------------------
  free energy    TOTEN  =     -8546.41157782 eV

  energy without entropy =    -8546.41336127  energy(sigma->0) =    -8546.41217231
  exchange ACFDT corr.  =         0.00000000  see jH, gK, PRB 81, 115126


--------------------------------------------------------------------------------------------------------




--------------------------------------- Iteration      1(   2)  ---------------------------------------


    TRIAL :  cpu time      0.2181: real time      0.2180
    CORREC:  cpu time      0.0005: real time      0.0005
    --------------------------------------------
      LOOP:  cpu time      0.2187: real time      0.2195

 eigenvalue-minimisations  :  1288
 total energy-change (2. order) :-0.1995385E+04  (-0.1982340E+04)
 number of electron     103.9999993 magnetization 
 augmentation part       15.2602294 magnetization 

 Free energy of the ion-electron system (eV)
  ---------------------------------------------------
  alpha Z        PSCENC =       563.37210189
  Ewald energy   TEWEN  =    -10075.62109696
  -Hartree energ DENC   =      -213.26787051
  -exchange      EXHF   =         0.00000000
  -V(xc)+E(xc)   XCENC  =       192.64815077
  PAW double counting   =      5085.59337777    -9690.31509403
  entropy T*S    EENTRO =        -0.00989710
  eigenvalues    EBANDS =    -13575.86985359
  atomic energy  EATOM  =     17171.67323441
  ---------------------------------------------------
  free energy    TOTEN  =    -10541.79694736 eV

  energy without entropy =   -10541.78705026  energy(sigma->0) =   -10541.79364833
  exchange ACFDT corr.  =         0.00000000  see jH, gK, PRB 81, 115126


--------------------------------------------------------------------------------------------------------




--------------------------------------- Iteration      1(   3)  ---------------------------------------


    TRIAL :  cpu time      0.2476: real time      0.2476
    CORREC:  cpu time      0.0005: real time      0.0005
    --------------------------------------------
      LOOP:  cpu time      0.2483: real time      0.2487

 eigenvalue-minimisations  :  1744
 total energy-change (2. order) :-0.2357913E+03  (-0.2318089E+03)
 number of electron     103.9999993 magnetization 
 augmentation part       15.2602294 magnetization 

 Free energy of the ion-electron system (eV)
  ---------------------------------------------------
  alpha Z        PSCENC =       563.37210189
  Ewald energy   TEWEN  =    -10075.62109696
  -Hartree energ DENC   =      -213.26787051
  -exchange      EXHF   =         0.00000000
  -V(xc)+E(xc)   XCENC  =       192.64815077
  PAW double counting   =      5085.59337777    -9690.31509403
  entropy T*S    EENTRO =         0.00402242
  eigenvalues    EBANDS =    -13811.67504428
  atomic energy  EATOM  =     17171.67323441
  ---------------------------------------------------
  free energy    TOTEN  =    -10777.58821853 eV

  energy without entropy =   -10777.59224095  energy(sigma->0) =   -10777.58955933
  exchange ACFDT corr.  =         0.00000000  see jH, gK, PRB 81, 115126


--------------------------------------------------------------------------------------------------------




--------------------------------------- Iteration      1(   4)  ---------------------------------------


    TRIAL :  cpu time      0.2554: real time      0.2553
    CORREC:  cpu time      0.0005: real time      0.0005
    --------------------------------------------
      LOOP:  cpu time      0.2560: real time      0.2564

 eigenvalue-minimisations  :  1828
 total energy-change (2. order) :-0.1859541E+02  (-0.1687039E+02)
 number of electron     103.9999993 magnetization 
 augmentation part       15.2602294 magnetization 

 Free energy of the ion-electron system (eV)
  ---------------------------------------------------
  alpha Z        PSCENC =       563.37210189
  Ewald energy   TEWEN  =    -10075.62109696
  -Hartree energ DENC   =      -213.26787051
  -exchange      EXHF   =         0.00000000
  -V(xc)+E(xc)   XCENC  =       192.64815077
  PAW double counting   =      5085.59337777    -9690.31509403
  entropy T*S    EENTRO =         0.02116751
  eigenvalues    EBANDS =    -13830.28760002
  atomic energy  EATOM  =     17171.67323441
  ---------------------------------------------------
  free energy    TOTEN  =    -10796.18362918 eV

  energy without entropy =   -10796.20479669  energy(sigma->0) =   -10796.19068502
  exchange ACFDT corr.  =         0.00000000  see jH, gK, PRB 81, 115126


--------------------------------------------------------------------------------------------------------




--------------------------------------- Iteration      1(   5)  ---------------------------------------


    POTLOK:  cpu time      0.1899: real time      0.1899
    SETDIJ:  cpu time      0.2059: real time      0.2059
    TRIAL :  cpu time      1.1220: real time      1.1218
    CORREC:  cpu time      0.0005: real time      0.0005
    CHARGE:  cpu time      0.0243: real time      0.0243
    --------------------------------------------
      LOOP:  cpu time      1.5429: real time      1.5430

 eigenvalue-minimisations  :  1640
 total energy-change (2. order) : 0.5090840E+04  (-0.7852950E+01)
 number of electron     103.9999907 magnetization 
 augmentation part       72.5521829 magnetization 

 Free energy of the ion-electron system (eV)
  ---------------------------------------------------
  alpha Z        PSCENC =       563.37210189
  Ewald energy   TEWEN  =    -10075.62109696
  -Hartree energ DENC   =      -213.26787051
  -exchange      EXHF   =       452.80080051
  -V(xc)+E(xc)   XCENC  =       125.67412053
  PAW double counting   =      5121.03805309    -5304.58633194
  entropy T*S    EENTRO =         0.00382346
  eigenvalues    EBANDS =    -13546.43007123
  atomic energy  EATOM  =     17171.67323441
  ---------------------------------------------------
  free energy    TOTEN  =     -5705.34323676 eV

  energy without entropy =    -5705.34706022  energy(sigma->0) =    -5705.34451125
  exchange ACFDT corr.  =         0.01817965  see jH, gK, PRB 81, 115126


--------------------------------------------------------------------------------------------------------




--------------------------------------- Iteration      1(   6)  ---------------------------------------


    POTLOK:  cpu time      0.1805: real time      0.1805
    SETDIJ:  cpu time      0.1944: real time      0.1943
    TRIAL :  cpu time      1.0255: real time      1.0254
    CORREC:  cpu time      1.3786: real time      1.3784
    CHARGE:  cpu time      0.0246: real time      0.0246
    --------------------------------------------
      LOOP:  cpu time      2.8039: real time      2.8039

 eigenvalue-minimisations  :     0
 total energy-change (2. order) : 0.7344383E+04  (-0.1542343E+04)
 number of electron     103.9999946 magnetization 
 augmentation part       69.6515185 magnetization 

 Free energy of the ion-electron system (eV)
  ---------------------------------------------------
  alpha Z        PSCENC =       563.37210189
  Ewald energy   TEWEN  =    -10075.62109696
  -Hartree energ DENC   =     -7654.78862594
  -exchange      EXHF   =       460.41133391
  -V(xc)+E(xc)   XCENC  =       311.28418753
  PAW double counting   =     18041.74356557   -22065.74363622
  entropy T*S    EENTRO =         0.01018081
  eigenvalues    EBANDS =      4886.70536002
  atomic energy  EATOM  =     17171.67323441
  ---------------------------------------------------
  free energy    TOTEN  =      1639.04024765 eV

  energy without entropy =     1639.03006684  energy(sigma->0) =     1639.03685405
  exchange ACFDT corr.  =         0.00586412  see jH, gK, PRB 81, 115126


--------------------------------------------------------------------------------------------------------




--------------------------------------- Iteration      1(   7)  ---------------------------------------


    POTLOK:  cpu time      0.2043: real time      0.2043
    SETDIJ:  cpu time      0.1792: real time      0.1792
    TRIAL :  cpu time      1.0648: real time      1.0646
    CORREC:  cpu time      1.3626: real time      1.3624
    CHARGE:  cpu time      0.0243: real time      0.0242
    --------------------------------------------
      LOOP:  cpu time      2.8354: real time      2.8353

 eigenvalue-minimisations  :     0
 total energy-change (2. order) :-0.1438685E+04  (-0.1529199E+03)
 number of electron     103.9999960 magnetization 
 augmentation part       65.9861192 magnetization 

 Free energy of the ion-electron system (eV)
  ---------------------------------------------------
  alpha Z        PSCENC =       563.37210189
  Ewald energy   TEWEN  =    -10075.62109696
  -Hartree energ DENC   =     -5320.70187695
  -exchange      EXHF   =       402.80260389
  -V(xc)+E(xc)   XCENC  =       246.47208946
  PAW double counting   =     15718.22376615   -18927.05038633
  entropy T*S    EENTRO =         0.00102102
  eigenvalues    EBANDS =       421.17417839
  atomic energy  EATOM  =     17171.67323441
  ---------------------------------------------------
  free energy    TOTEN  =       200.35479475 eV

  energy without entropy =      200.35377373  energy(sigma->0) =      200.35445441
  exchange ACFDT corr.  =        -2.08007408  see jH, gK, PRB 81, 115126


--------------------------------------------------------------------------------------------------------




--------------------------------------- Iteration      1(   8)  ---------------------------------------


    POTLOK:  cpu time      0.1946: real time      0.1946
    SETDIJ:  cpu time      0.1887: real time      0.1887
    TRIAL :  cpu time      1.0442: real time      1.0441
    CORREC:  cpu time      1.8448: real time      1.8445
    CHARGE:  cpu time      0.0241: real time      0.0240
    --------------------------------------------
      LOOP:  cpu time      3.2967: real time      3.2978

 eigenvalue-minimisations  :     0
 total energy-change (2. order) :-0.1538059E+03  (-0.4493833E+02)
 number of electron     103.9999961 magnetization 
 augmentation part       66.0190723 magnetization 

 Free energy of the ion-electron system (eV)
  ---------------------------------------------------
  alpha Z        PSCENC =       563.37210189
  Ewald energy   TEWEN  =    -10075.62109696
  -Hartree energ DENC   =     -4554.45723981
  -exchange      EXHF   =       380.63615078
  -V(xc)+E(xc)   XCENC  =       227.02830406
  PAW double counting   =     14289.62981974   -16871.38250022
  entropy T*S    EENTRO =         0.00947404
  eigenvalues    EBANDS =     -1084.33086720
  atomic energy  EATOM  =     17171.67323441
  ---------------------------------------------------
  free energy    TOTEN  =        46.54892772 eV

  energy without entropy =       46.53945368  energy(sigma->0) =       46.54576971
  exchange ACFDT corr.  =        -0.13857417  see jH, gK, PRB 81, 115126


--------------------------------------------------------------------------------------------------------




--------------------------------------- Iteration      1(   9)  ---------------------------------------


    POTLOK:  cpu time      0.1983: real time      0.1982
    SETDIJ:  cpu time      0.1789: real time      0.1789
    TRIAL :  cpu time      1.0308: real time      1.0307
    CORREC:  cpu time      1.3497: real time      1.3495
    CHARGE:  cpu time      0.0250: real time      0.0250
    --------------------------------------------
      LOOP:  cpu time      2.7829: real time      2.7828

 eigenvalue-minimisations  :     0
 total energy-change (2. order) :-0.4487010E+02  (-0.1170209E+02)
 number of electron     103.9999960 magnetization 
 augmentation part       67.3372184 magnetization 

 Free energy of the ion-electron system (eV)
  ---------------------------------------------------
  alpha Z        PSCENC =       563.37210189
  Ewald energy   TEWEN  =    -10075.62109696
  -Hartree energ DENC   =     -4584.40370265
  -exchange      EXHF   =       380.79457389
  -V(xc)+E(xc)   XCENC  =       227.97444179
  PAW double counting   =     13708.71851078   -16178.87273970
  entropy T*S    EENTRO =         0.00348250
  eigenvalues    EBANDS =     -1211.96597286
  atomic energy  EATOM  =     17171.67323441
  ---------------------------------------------------
  free energy    TOTEN  =         1.67882461 eV

  energy without entropy =        1.67534211  energy(sigma->0) =        1.67766378
  exchange ACFDT corr.  =        -0.05719353  see jH, gK, PRB 81, 115126


--------------------------------------------------------------------------------------------------------




--------------------------------------- Iteration      1(  10)  ---------------------------------------


    POTLOK:  cpu time      0.1972: real time      0.1972
    SETDIJ:  cpu time      0.1874: real time      0.1873
    TRIAL :  cpu time      1.0333: real time      1.0332
    CORREC:  cpu time      1.3488: real time      1.3486
    CHARGE:  cpu time      0.0240: real time      0.0240
    --------------------------------------------
      LOOP:  cpu time      2.7910: real time      2.7908

 eigenvalue-minimisations  :     0
 total energy-change (2. order) :-0.1170375E+02  (-0.8458921E+01)
 number of electron     103.9999960 magnetization 
 augmentation part       67.4127283 magnetization 

 Free energy of the ion-electron system (eV)
  ---------------------------------------------------
  alpha Z        PSCENC =       563.37210189
  Ewald energy   TEWEN  =    -10075.62109696
  -Hartree energ DENC   =     -4728.88318075
  -exchange      EXHF   =       385.72838581
  -V(xc)+E(xc)   XCENC  =       231.71948445
  PAW double counting   =     13955.53835422   -16525.79413644
  entropy T*S    EENTRO =        -0.00313859
  eigenvalues    EBANDS =      -987.76155738
  atomic energy  EATOM  =     17171.67323441
  ---------------------------------------------------
  free energy    TOTEN  =       -10.02492824 eV

  energy without entropy =      -10.02178965  energy(sigma->0) =      -10.02388204
  exchange ACFDT corr.  =        -0.11877852  see jH, gK, PRB 81, 115126


--------------------------------------------------------------------------------------------------------




--------------------------------------- Iteration      1(  11)  ---------------------------------------


    POTLOK:  cpu time      0.1983: real time      0.1983
    SETDIJ:  cpu time      0.1905: real time      0.1906
    TRIAL :  cpu time      1.0382: real time      1.0382
    CORREC:  cpu time      1.3513: real time      1.3513
    CHARGE:  cpu time      0.0239: real time      0.0239
    --------------------------------------------
      LOOP:  cpu time      2.8031: real time      2.8038

 eigenvalue-minimisations  :     0
 total energy-change (2. order) :-0.8266539E+01  (-0.5825376E+01)
 number of electron     103.9999960 magnetization 
 augmentation part       67.2504843 magnetization 

 Free energy of the ion-electron system (eV)
  ---------------------------------------------------
  alpha Z        PSCENC =       563.37210189
  Ewald energy   TEWEN  =    -10075.62109696
  -Hartree energ DENC   =     -4672.78295081
  -exchange      EXHF   =       385.81501144
  -V(xc)+E(xc)   XCENC  =       230.11625420
  PAW double counting   =     14307.59683885   -16868.42378196
  entropy T*S    EENTRO =        -0.00564192
  eigenvalues    EBANDS =     -1060.03394017
  atomic energy  EATOM  =     17171.67323441
  ---------------------------------------------------
  free energy    TOTEN  =       -18.29146771 eV

  energy without entropy =      -18.28582579  energy(sigma->0) =      -18.28958707
  exchange ACFDT corr.  =        -0.10524842  see jH, gK, PRB 81, 115126


--------------------------------------------------------------------------------------------------------




--------------------------------------- Iteration      1(  12)  ---------------------------------------


    POTLOK:  cpu time      0.1984: real time      0.1984
    SETDIJ:  cpu time      0.1866: real time      0.1865
    TRIAL :  cpu time      1.0348: real time      1.0347
    CORREC:  cpu time      1.3435: real time      1.3432
    CHARGE:  cpu time      0.0242: real time      0.0241
    --------------------------------------------
      LOOP:  cpu time      2.7877: real time      2.7876

 eigenvalue-minimisations  :     0
 total energy-change (2. order) :-0.5046207E+01  (-0.1517350E+01)
 number of electron     103.9999961 magnetization 
 augmentation part       67.6452702 magnetization 

 Free energy of the ion-electron system (eV)
  ---------------------------------------------------
  alpha Z        PSCENC =       563.37210189
  Ewald energy   TEWEN  =    -10075.62109696
  -Hartree energ DENC   =     -4633.41237973
  -exchange      EXHF   =       384.39933597
  -V(xc)+E(xc)   XCENC  =       229.11089281
  PAW double counting   =     14322.55306114   -16836.64658185
  entropy T*S    EENTRO =        -0.01040572
  eigenvalues    EBANDS =     -1148.76060043
  atomic energy  EATOM  =     17171.67323441
  ---------------------------------------------------
  free energy    TOTEN  =       -23.33767468 eV

  energy without entropy =      -23.32726896  energy(sigma->0) =      -23.33420611
  exchange ACFDT corr.  =        -0.07500452  see jH, gK, PRB 81, 115126


--------------------------------------------------------------------------------------------------------




--------------------------------------- Iteration      1(  13)  ---------------------------------------


    POTLOK:  cpu time      0.1925: real time      0.1925
    SETDIJ:  cpu time      0.1911: real time      0.1911
    TRIAL :  cpu time      1.0391: real time      1.0389
    CORREC:  cpu time      1.3570: real time      1.3568
    CHARGE:  cpu time      0.0243: real time      0.0243
    --------------------------------------------
      LOOP:  cpu time      2.8043: real time      2.8062

 eigenvalue-minimisations  :     0
 total energy-change (2. order) :-0.1538805E+01  (-0.6896074E+00)
 number of electron     103.9999961 magnetization 
 augmentation part       67.8698099 magnetization 

 Free energy of the ion-electron system (eV)
  ---------------------------------------------------
  alpha Z        PSCENC =       563.37210189
  Ewald energy   TEWEN  =    -10075.62109696
  -Hartree energ DENC   =     -4632.62635352
  -exchange      EXHF   =       384.45819790
  -V(xc)+E(xc)   XCENC  =       229.24409456
  PAW double counting   =     14283.81261279   -16806.69307839
  entropy T*S    EENTRO =        -0.01582634
  eigenvalues    EBANDS =     -1142.48578709
  atomic energy  EATOM  =     17171.67323441
  ---------------------------------------------------
  free energy    TOTEN  =       -24.87648014 eV

  energy without entropy =      -24.86065380  energy(sigma->0) =      -24.87120469
  exchange ACFDT corr.  =        -0.03407929  see jH, gK, PRB 81, 115126


--------------------------------------------------------------------------------------------------------




--------------------------------------- Iteration      1(  14)  ---------------------------------------


    POTLOK:  cpu time      0.1901: real time      0.1901
    SETDIJ:  cpu time      0.1879: real time      0.1878
    TRIAL :  cpu time      1.0377: real time      1.0376
    CORREC:  cpu time      1.3465: real time      1.3463
    CHARGE:  cpu time      0.0241: real time      0.0240
    --------------------------------------------
      LOOP:  cpu time      2.7865: real time      2.7863

 eigenvalue-minimisations  :     0
 total energy-change (2. order) :-0.7025547E+00  (-0.4121345E+00)
 number of electron     103.9999960 magnetization 
 augmentation part       68.0077729 magnetization 

 Free energy of the ion-electron system (eV)
  ---------------------------------------------------
  alpha Z        PSCENC =       563.37210189
  Ewald energy   TEWEN  =    -10075.62109696
  -Hartree energ DENC   =     -4645.36618186
  -exchange      EXHF   =       384.89808367
  -V(xc)+E(xc)   XCENC  =       229.62795399
  PAW double counting   =     14255.25972384   -16794.67292756
  entropy T*S    EENTRO =        -0.01290932
  eigenvalues    EBANDS =     -1114.73409992
  atomic energy  EATOM  =     17171.67323441
  ---------------------------------------------------
  free energy    TOTEN  =       -25.57903484 eV

  energy without entropy =      -25.56612552  energy(sigma->0) =      -25.57473173
  exchange ACFDT corr.  =        -0.04487993  see jH, gK, PRB 81, 115126


--------------------------------------------------------------------------------------------------------




--------------------------------------- Iteration      1(  15)  ---------------------------------------


    POTLOK:  cpu time      0.1944: real time      0.1944
    SETDIJ:  cpu time      0.1944: real time      0.1944
    TRIAL :  cpu time      1.0320: real time      1.0318
    CORREC:  cpu time      1.3467: real time      1.3465
    CHARGE:  cpu time      0.0242: real time      0.0242
    --------------------------------------------
      LOOP:  cpu time      2.7919: real time      2.7919

 eigenvalue-minimisations  :     0
 total energy-change (2. order) :-0.4111686E+00  (-0.3613601E+00)
 number of electron     103.9999960 magnetization 
 augmentation part       68.0444451 magnetization 

 Free energy of the ion-electron system (eV)
  ---------------------------------------------------
  alpha Z        PSCENC =       563.37210189
  Ewald energy   TEWEN  =    -10075.62109696
  -Hartree energ DENC   =     -4645.44245729
  -exchange      EXHF   =       385.10490890
  -V(xc)+E(xc)   XCENC  =       229.67533544
  PAW double counting   =     14207.47093361   -16756.71093966
  entropy T*S    EENTRO =        -0.01090757
  eigenvalues    EBANDS =     -1105.49931441
  atomic energy  EATOM  =     17171.67323441
  ---------------------------------------------------
  free energy    TOTEN  =       -25.99020340 eV

  energy without entropy =      -25.97929583  energy(sigma->0) =      -25.98656754
  exchange ACFDT corr.  =        -0.03924565  see jH, gK, PRB 81, 115126


--------------------------------------------------------------------------------------------------------




--------------------------------------- Iteration      1(  16)  ---------------------------------------


    POTLOK:  cpu time      0.1925: real time      0.1925
    SETDIJ:  cpu time      0.1780: real time      0.1780
    TRIAL :  cpu time      1.0350: real time      1.0348
    CORREC:  cpu time      1.3465: real time      1.3463
    CHARGE:  cpu time      0.0242: real time      0.0242
    --------------------------------------------
      LOOP:  cpu time      2.7763: real time      2.7761

 eigenvalue-minimisations  :     0
 total energy-change (2. order) :-0.3610170E+00  (-0.2493741E+00)
 number of electron     103.9999960 magnetization 
 augmentation part       67.9949725 magnetization 

 Free energy of the ion-electron system (eV)
  ---------------------------------------------------
  alpha Z        PSCENC =       563.37210189
  Ewald energy   TEWEN  =    -10075.62109696
  -Hartree energ DENC   =     -4633.64167764
  -exchange      EXHF   =       384.98597002
  -V(xc)+E(xc)   XCENC  =       229.40670365
  PAW double counting   =     14128.64549492   -16678.18967970
  entropy T*S    EENTRO =        -0.01012877
  eigenvalues    EBANDS =     -1116.97136342
  atomic energy  EATOM  =     17171.67323441
  ---------------------------------------------------
  free energy    TOTEN  =       -26.35122040 eV

  energy without entropy =      -26.34109163  energy(sigma->0) =      -26.34784414
  exchange ACFDT corr.  =        -0.03089206  see jH, gK, PRB 81, 115126


--------------------------------------------------------------------------------------------------------




--------------------------------------- Iteration      1(  17)  ---------------------------------------


    POTLOK:  cpu time      0.2023: real time      0.2023
    SETDIJ:  cpu time      0.1784: real time      0.1784
    TRIAL :  cpu time      1.0296: real time      1.0294
    CORREC:  cpu time      1.3508: real time      1.3506
    CHARGE:  cpu time      0.0239: real time      0.0240
    --------------------------------------------
      LOOP:  cpu time      2.7853: real time      2.7851

 eigenvalue-minimisations  :     0
 total energy-change (2. order) :-0.2484978E+00  (-0.1752698E+00)
 number of electron     103.9999961 magnetization 
 augmentation part       67.9347160 magnetization 

 Free energy of the ion-electron system (eV)
  ---------------------------------------------------
  alpha Z        PSCENC =       563.37210189
  Ewald energy   TEWEN  =    -10075.62109696
  -Hartree energ DENC   =     -4622.41470155
  -exchange      EXHF   =       384.72699441
  -V(xc)+E(xc)   XCENC  =       229.12817957
  PAW double counting   =     14055.60015448   -16599.18223604
  entropy T*S    EENTRO =        -0.01055676
  eigenvalues    EBANDS =     -1133.87221964
  atomic energy  EATOM  =     17171.67323441
  ---------------------------------------------------
  free energy    TOTEN  =       -26.59971821 eV

  energy without entropy =      -26.58916145  energy(sigma->0) =      -26.59619929
  exchange ACFDT corr.  =        -0.02858277  see jH, gK, PRB 81, 115126


--------------------------------------------------------------------------------------------------------




--------------------------------------- Iteration      1(  18)  ---------------------------------------


    POTLOK:  cpu time      0.1952: real time      0.1952
    SETDIJ:  cpu time      0.1845: real time      0.1845
    TRIAL :  cpu time      1.0334: real time      1.0333
    CORREC:  cpu time      1.3603: real time      1.3601
    CHARGE:  cpu time      0.0241: real time      0.0241
    --------------------------------------------
      LOOP:  cpu time      2.7978: real time      2.7978

 eigenvalue-minimisations  :     0
 total energy-change (2. order) :-0.1746574E+00  (-0.1567851E+00)
 number of electron     103.9999961 magnetization 
 augmentation part       67.9001239 magnetization 

 Free energy of the ion-electron system (eV)
  ---------------------------------------------------
  alpha Z        PSCENC =       563.37210189
  Ewald energy   TEWEN  =    -10075.62109696
  -Hartree energ DENC   =     -4619.75967104
  -exchange      EXHF   =       384.58194994
  -V(xc)+E(xc)   XCENC  =       229.05326189
  PAW double counting   =     14005.45392691   -16544.35332927
  entropy T*S    EENTRO =        -0.01010940
  eigenvalues    EBANDS =     -1141.16419659
  atomic energy  EATOM  =     17171.67323441
  ---------------------------------------------------
  free energy    TOTEN  =       -26.77437558 eV

  energy without entropy =      -26.76426618  energy(sigma->0) =      -26.77100578
  exchange ACFDT corr.  =        -0.02525716  see jH, gK, PRB 81, 115126


--------------------------------------------------------------------------------------------------------




--------------------------------------- Iteration      1(  19)  ---------------------------------------


    POTLOK:  cpu time      0.1834: real time      0.1834
    SETDIJ:  cpu time      0.2050: real time      0.2050
    TRIAL :  cpu time      1.0270: real time      1.0269
    CORREC:  cpu time      1.3653: real time      1.3652
    CHARGE:  cpu time      0.0242: real time      0.0242
    --------------------------------------------
      LOOP:  cpu time      2.8053: real time      2.8053

 eigenvalue-minimisations  :     0
 total energy-change (2. order) :-0.1565660E+00  (-0.1346772E+00)
 number of electron     103.9999961 magnetization 
 augmentation part       67.8943410 magnetization 

 Free energy of the ion-electron system (eV)
  ---------------------------------------------------
  alpha Z        PSCENC =       563.37210189
  Ewald energy   TEWEN  =    -10075.62109696
  -Hartree energ DENC   =     -4626.25325678
  -exchange      EXHF   =       384.64742871
  -V(xc)+E(xc)   XCENC  =       229.20194732
  PAW double counting   =     13982.95062025   -16521.76844104
  entropy T*S    EENTRO =        -0.00813848
  eigenvalues    EBANDS =     -1135.12336999
  atomic energy  EATOM  =     17171.67323441
  ---------------------------------------------------
  free energy    TOTEN  =       -26.93094159 eV

  energy without entropy =      -26.92280311  energy(sigma->0) =      -26.92822876
  exchange ACFDT corr.  =        -0.02392163  see jH, gK, PRB 81, 115126


--------------------------------------------------------------------------------------------------------




--------------------------------------- Iteration      1(  20)  ---------------------------------------


    POTLOK:  cpu time      0.1921: real time      0.1921
    SETDIJ:  cpu time      0.1793: real time      0.1793
    TRIAL :  cpu time      1.0376: real time      1.0375
    CORREC:  cpu time      1.3497: real time      1.3495
    CHARGE:  cpu time      0.0241: real time      0.0240
    --------------------------------------------
      LOOP:  cpu time      2.7830: real time      2.7829

 eigenvalue-minimisations  :     0
 total energy-change (2. order) :-0.1345427E+00  (-0.1015116E+00)
 number of electron     103.9999961 magnetization 
 augmentation part       67.8840962 magnetization 

 Free energy of the ion-electron system (eV)
  ---------------------------------------------------
  alpha Z        PSCENC =       563.37210189
  Ewald energy   TEWEN  =    -10075.62109696
  -Hartree energ DENC   =     -4636.62126258
  -exchange      EXHF   =       384.87630386
  -V(xc)+E(xc)   XCENC  =       229.44289898
  PAW double counting   =     13996.62284542   -16539.30228606
  entropy T*S    EENTRO =        -0.00546223
  eigenvalues    EBANDS =     -1121.50008480
  atomic energy  EATOM  =     17171.67323441
  ---------------------------------------------------
  free energy    TOTEN  =       -27.06548432 eV

  energy without entropy =      -27.06002210  energy(sigma->0) =      -27.06366358
  exchange ACFDT corr.  =        -0.02196550  see jH, gK, PRB 81, 115126


--------------------------------------------------------------------------------------------------------




--------------------------------------- Iteration      1(  21)  ---------------------------------------


    POTLOK:  cpu time      0.1935: real time      0.1935
    SETDIJ:  cpu time      0.1891: real time      0.1891
    TRIAL :  cpu time      1.0418: real time      1.0417
    CORREC:  cpu time      1.3551: real time      1.3549
    CHARGE:  cpu time      0.0241: real time      0.0241
    --------------------------------------------
      LOOP:  cpu time      2.8040: real time      2.8039

 eigenvalue-minimisations  :     0
 total energy-change (2. order) :-0.1014323E+00  (-0.6325270E-01)
 number of electron     103.9999961 magnetization 
 augmentation part       67.8534930 magnetization 

 Free energy of the ion-electron system (eV)
  ---------------------------------------------------
  alpha Z        PSCENC =       563.37210189
  Ewald energy   TEWEN  =    -10075.62109696
  -Hartree energ DENC   =     -4642.52998441
  -exchange      EXHF   =       385.06686736
  -V(xc)+E(xc)   XCENC  =       229.56890606
  PAW double counting   =     14033.85790775   -16579.48647651
  entropy T*S    EENTRO =        -0.00341602
  eigenvalues    EBANDS =     -1113.06291400
  atomic energy  EATOM  =     17171.67323441
  ---------------------------------------------------
  free energy    TOTEN  =       -27.16691664 eV

  energy without entropy =      -27.16350061  energy(sigma->0) =      -27.16577796
  exchange ACFDT corr.  =        -0.01969261  see jH, gK, PRB 81, 115126


--------------------------------------------------------------------------------------------------------




--------------------------------------- Iteration      1(  22)  ---------------------------------------


    POTLOK:  cpu time      0.1986: real time      0.1986
    SETDIJ:  cpu time      0.1848: real time      0.1848
    TRIAL :  cpu time      1.0393: real time      1.0392
    CORREC:  cpu time      1.3404: real time      1.3402
    CHARGE:  cpu time      0.0241: real time      0.0242
    --------------------------------------------
      LOOP:  cpu time      2.7876: real time      2.7876

 eigenvalue-minimisations  :     0
 total energy-change (2. order) :-0.6313537E-01  (-0.3645619E-01)
 number of electron     103.9999961 magnetization 
 augmentation part       67.8190406 magnetization 

 Free energy of the ion-electron system (eV)
  ---------------------------------------------------
  alpha Z        PSCENC =       563.37210189
  Ewald energy   TEWEN  =    -10075.62109696
  -Hartree energ DENC   =     -4642.25617257
  -exchange      EXHF   =       385.10334730
  -V(xc)+E(xc)   XCENC  =       229.54417955
  PAW double counting   =     14068.02515644   -16613.01618841
  entropy T*S    EENTRO =        -0.00188989
  eigenvalues    EBANDS =     -1114.05119763
  atomic energy  EATOM  =     17171.67323441
  ---------------------------------------------------
  free energy    TOTEN  =       -27.23005201 eV

  energy without entropy =      -27.22816212  energy(sigma->0) =      -27.22942205
  exchange ACFDT corr.  =        -0.01782658  see jH, gK, PRB 81, 115126


--------------------------------------------------------------------------------------------------------




--------------------------------------- Iteration      1(  23)  ---------------------------------------


    POTLOK:  cpu time      0.2036: real time      0.2036
    SETDIJ:  cpu time      0.1801: real time      0.1801
    TRIAL :  cpu time      1.0366: real time      1.0365
    CORREC:  cpu time      1.3645: real time      1.3642
    CHARGE:  cpu time      0.0242: real time      0.0242
    --------------------------------------------
      LOOP:  cpu time      2.8092: real time      2.8090

 eigenvalue-minimisations  :     0
 total energy-change (2. order) :-0.3635948E-01  (-0.2593743E-01)
 number of electron     103.9999961 magnetization 
 augmentation part       67.7972087 magnetization 

 Free energy of the ion-electron system (eV)
  ---------------------------------------------------
  alpha Z        PSCENC =       563.37210189
  Ewald energy   TEWEN  =    -10075.62109696
  -Hartree energ DENC   =     -4640.08565986
  -exchange      EXHF   =       385.05107330
  -V(xc)+E(xc)   XCENC  =       229.48119615
  PAW double counting   =     14087.31980160   -16630.01114047
  entropy T*S    EENTRO =        -0.00041621
  eigenvalues    EBANDS =     -1118.44403166
  atomic energy  EATOM  =     17171.67323441
  ---------------------------------------------------
  free energy    TOTEN  =       -27.26641149 eV

  energy without entropy =      -27.26599529  energy(sigma->0) =      -27.26627276
  exchange ACFDT corr.  =        -0.01629386  see jH, gK, PRB 81, 115126


--------------------------------------------------------------------------------------------------------




--------------------------------------- Iteration      1(  24)  ---------------------------------------


    POTLOK:  cpu time      0.1874: real time      0.1874
    SETDIJ:  cpu time      0.1888: real time      0.1888
    TRIAL :  cpu time      1.0415: real time      1.0414
    CORREC:  cpu time      1.3682: real time      1.3680
    CHARGE:  cpu time      0.0241: real time      0.0241
    --------------------------------------------
      LOOP:  cpu time      2.8104: real time      2.8103

 eigenvalue-minimisations  :     0
 total energy-change (2. order) :-0.2592065E-01  (-0.2002933E-01)
 number of electron     103.9999961 magnetization 
 augmentation part       67.7972823 magnetization 

 Free energy of the ion-electron system (eV)
  ---------------------------------------------------
  alpha Z        PSCENC =       563.37210189
  Ewald energy   TEWEN  =    -10075.62109696
  -Hartree energ DENC   =     -4639.09793868
  -exchange      EXHF   =       384.99770995
  -V(xc)+E(xc)   XCENC  =       229.45691934
  PAW double counting   =     14096.36691955   -16637.41203920
  entropy T*S    EENTRO =         0.00094211
  eigenvalues    EBANDS =     -1121.02772622
  atomic energy  EATOM  =     17171.67323441
  ---------------------------------------------------
  free energy    TOTEN  =       -27.29233215 eV

  energy without entropy =      -27.29327425  energy(sigma->0) =      -27.29264618
  exchange ACFDT corr.  =        -0.01474149  see jH, gK, PRB 81, 115126


--------------------------------------------------------------------------------------------------------




--------------------------------------- Iteration      1(  25)  ---------------------------------------


    POTLOK:  cpu time      0.1864: real time      0.1864
    SETDIJ:  cpu time      0.2007: real time      0.2006
    TRIAL :  cpu time      1.0369: real time      1.0368
    CORREC:  cpu time      1.3526: real time      1.3524
    CHARGE:  cpu time      0.0242: real time      0.0242
    --------------------------------------------
      LOOP:  cpu time      2.8012: real time      2.8012

 eigenvalue-minimisations  :     0
 total energy-change (2. order) :-0.2002969E-01  (-0.1394144E-01)
 number of electron     103.9999961 magnetization 
 augmentation part       67.8099681 magnetization 

 Free energy of the ion-electron system (eV)
  ---------------------------------------------------
  alpha Z        PSCENC =       563.37210189
  Ewald energy   TEWEN  =    -10075.62109696
  -Hartree energ DENC   =     -4639.97679448
  -exchange      EXHF   =       384.98661682
  -V(xc)+E(xc)   XCENC  =       229.48633108
  PAW double counting   =     14099.48093828   -16640.66908635
  entropy T*S    EENTRO =         0.00203410
  eigenvalues    EBANDS =     -1120.04554863
  atomic energy  EATOM  =     17171.67323441
  ---------------------------------------------------
  free energy    TOTEN  =       -27.31236184 eV

  energy without entropy =      -27.31439594  energy(sigma->0) =      -27.31303987
  exchange ACFDT corr.  =        -0.01285995  see jH, gK, PRB 81, 115126


--------------------------------------------------------------------------------------------------------




--------------------------------------- Iteration      1(  26)  ---------------------------------------


    POTLOK:  cpu time      0.2011: real time      0.2011
    SETDIJ:  cpu time      0.1791: real time      0.1791
    TRIAL :  cpu time      1.0398: real time      1.0396
    CORREC:  cpu time      1.3555: real time      1.3552
    CHARGE:  cpu time      0.0242: real time      0.0242
    --------------------------------------------
      LOOP:  cpu time      2.7998: real time      2.7997

 eigenvalue-minimisations  :     0
 total energy-change (2. order) :-0.1394206E-01  (-0.1121785E-01)
 number of electron     103.9999961 magnetization 
 augmentation part       67.8228087 magnetization 

 Free energy of the ion-electron system (eV)
  ---------------------------------------------------
  alpha Z        PSCENC =       563.37210189
  Ewald energy   TEWEN  =    -10075.62109696
  -Hartree energ DENC   =     -4641.01932061
  -exchange      EXHF   =       384.99781687
  -V(xc)+E(xc)   XCENC  =       229.52067019
  PAW double counting   =     14099.65047784   -16641.90407664
  entropy T*S    EENTRO =         0.00321872
  eigenvalues    EBANDS =     -1117.99814499
  atomic energy  EATOM  =     17171.67323441
  ---------------------------------------------------
  free energy    TOTEN  =       -27.32630390 eV

  energy without entropy =      -27.32952262  energy(sigma->0) =      -27.32737681
  exchange ACFDT corr.  =        -0.01078006  see jH, gK, PRB 81, 115126


--------------------------------------------------------------------------------------------------------




--------------------------------------- Iteration      1(  27)  ---------------------------------------


    POTLOK:  cpu time      0.2037: real time      0.2037
    SETDIJ:  cpu time      0.1792: real time      0.1791
    TRIAL :  cpu time      1.0361: real time      1.0359
    CORREC:  cpu time      1.3542: real time      1.3539
    CHARGE:  cpu time      0.0240: real time      0.0241
    --------------------------------------------
      LOOP:  cpu time      2.7974: real time      2.7972

 eigenvalue-minimisations  :     0
 total energy-change (2. order) :-0.1121977E-01  (-0.8858830E-02)
 number of electron     103.9999961 magnetization 
 augmentation part       67.8294262 magnetization 

 Free energy of the ion-electron system (eV)
  ---------------------------------------------------
  alpha Z        PSCENC =       563.37210189
  Ewald energy   TEWEN  =    -10075.62109696
  -Hartree energ DENC   =     -4640.79509513
  -exchange      EXHF   =       384.99718494
  -V(xc)+E(xc)   XCENC  =       229.52069302
  PAW double counting   =     14098.66013346   -16641.68574932
  entropy T*S    EENTRO =         0.00467570
  eigenvalues    EBANDS =     -1117.46214869
  atomic energy  EATOM  =     17171.67323441
  ---------------------------------------------------
  free energy    TOTEN  =       -27.33752367 eV

  energy without entropy =      -27.34219937  energy(sigma->0) =      -27.33908224
  exchange ACFDT corr.  =        -0.00815874  see jH, gK, PRB 81, 115126


--------------------------------------------------------------------------------------------------------




--------------------------------------- Iteration      1(  28)  ---------------------------------------


    POTLOK:  cpu time      0.1998: real time      0.1997
    SETDIJ:  cpu time      0.1782: real time      0.1782
    TRIAL :  cpu time      1.0361: real time      1.0359
    CORREC:  cpu time      1.3539: real time      1.3537
    CHARGE:  cpu time      0.0241: real time      0.0241
    --------------------------------------------
      LOOP:  cpu time      2.7923: real time      2.7923

 eigenvalue-minimisations  :     0
 total energy-change (2. order) :-0.8858586E-02  (-0.5708231E-02)
 number of electron     103.9999961 magnetization 
 augmentation part       67.8313316 magnetization 

 Free energy of the ion-electron system (eV)
  ---------------------------------------------------
  alpha Z        PSCENC =       563.37210189
  Ewald energy   TEWEN  =    -10075.62109696
  -Hartree energ DENC   =     -4639.30599334
  -exchange      EXHF   =       384.97773603
  -V(xc)+E(xc)   XCENC  =       229.48520038
  PAW double counting   =     14097.25208333   -16640.23861649
  entropy T*S    EENTRO =         0.00618380
  eigenvalues    EBANDS =     -1118.94570719
  atomic energy  EATOM  =     17171.67323441
  ---------------------------------------------------
  free energy    TOTEN  =       -27.34638225 eV

  energy without entropy =      -27.35256605  energy(sigma->0) =      -27.34844352
  exchange ACFDT corr.  =        -0.00511391  see jH, gK, PRB 81, 115126


--------------------------------------------------------------------------------------------------------




--------------------------------------- Iteration      1(  29)  ---------------------------------------


    POTLOK:  cpu time      0.1908: real time      0.1907
    SETDIJ:  cpu time      0.1802: real time      0.1801
    TRIAL :  cpu time      1.0324: real time      1.0323
    CORREC:  cpu time      1.3529: real time      1.3527
    CHARGE:  cpu time      0.0243: real time      0.0243
    --------------------------------------------
      LOOP:  cpu time      2.7807: real time      2.7807

 eigenvalue-minimisations  :     0
 total energy-change (2. order) :-0.5708439E-02  (-0.4058802E-02)
 number of electron     103.9999961 magnetization 
 augmentation part       67.8342855 magnetization 

 Free energy of the ion-electron system (eV)
  ---------------------------------------------------
  alpha Z        PSCENC =       563.37210189
  Ewald energy   TEWEN  =    -10075.62109696
  -Hartree energ DENC   =     -4637.82082987
  -exchange      EXHF   =       384.95929592
  -V(xc)+E(xc)   XCENC  =       229.44744689
  PAW double counting   =     14095.91204790   -16638.43676134
  entropy T*S    EENTRO =         0.00784250
  eigenvalues    EBANDS =     -1120.84371334
  atomic energy  EATOM  =     17171.67323441
  ---------------------------------------------------
  free energy    TOTEN  =       -27.35209069 eV

  energy without entropy =      -27.35993320  energy(sigma->0) =      -27.35470486
  exchange ACFDT corr.  =        -0.00229525  see jH, gK, PRB 81, 115126


--------------------------------------------------------------------------------------------------------




--------------------------------------- Iteration      1(  30)  ---------------------------------------


    POTLOK:  cpu time      0.1898: real time      0.1898
    SETDIJ:  cpu time      0.1947: real time      0.1946
    TRIAL :  cpu time      1.0413: real time      1.0412
    CORREC:  cpu time      1.3610: real time      1.3608
    CHARGE:  cpu time      0.0241: real time      0.0241
    --------------------------------------------
      LOOP:  cpu time      2.8112: real time      2.8112

 eigenvalue-minimisations  :     0
 total energy-change (2. order) :-0.4058866E-02  (-0.2997989E-02)
 number of electron     103.9999961 magnetization 
 augmentation part       67.8399384 magnetization 

 Free energy of the ion-electron system (eV)
  ---------------------------------------------------
  alpha Z        PSCENC =       563.37210189
  Ewald energy   TEWEN  =    -10075.62109696
  -Hartree energ DENC   =     -4637.15840089
  -exchange      EXHF   =       384.95808161
  -V(xc)+E(xc)   XCENC  =       229.43031642
  PAW double counting   =     14094.55323678   -16636.79717905
  entropy T*S    EENTRO =         0.00953942
  eigenvalues    EBANDS =     -1121.77428627
  atomic energy  EATOM  =     17171.67323441
  ---------------------------------------------------
  free energy    TOTEN  =       -27.35614956 eV

  energy without entropy =      -27.36568898  energy(sigma->0) =      -27.35932937
  exchange ACFDT corr.  =         0.00048151  see jH, gK, PRB 81, 115126


--------------------------------------------------------------------------------------------------------




--------------------------------------- Iteration      1(  31)  ---------------------------------------


    POTLOK:  cpu time      0.1974: real time      0.1974
    SETDIJ:  cpu time      0.1782: real time      0.1782
    TRIAL :  cpu time      1.0392: real time      1.0391
    CORREC:  cpu time      1.3543: real time      1.3540
    CHARGE:  cpu time      0.0242: real time      0.0242
    --------------------------------------------
      LOOP:  cpu time      2.7936: real time      2.7936

 eigenvalue-minimisations  :     0
 total energy-change (2. order) :-0.2998654E-02  (-0.2174060E-02)
 number of electron     103.9999961 magnetization 
 augmentation part       67.8449987 magnetization 

 Free energy of the ion-electron system (eV)
  ---------------------------------------------------
  alpha Z        PSCENC =       563.37210189
  Ewald energy   TEWEN  =    -10075.62109696
  -Hartree energ DENC   =     -4637.48497745
  -exchange      EXHF   =       384.97547605
  -V(xc)+E(xc)   XCENC  =       229.43891207
  PAW double counting   =     14093.11289174   -16635.48326313
  entropy T*S    EENTRO =         0.01107094
  eigenvalues    EBANDS =     -1121.35196625
  atomic energy  EATOM  =     17171.67323441
  ---------------------------------------------------
  free energy    TOTEN  =       -27.35914821 eV

  energy without entropy =      -27.37021916  energy(sigma->0) =      -27.36283853
  exchange ACFDT corr.  =         0.00303166  see jH, gK, PRB 81, 115126


--------------------------------------------------------------------------------------------------------




--------------------------------------- Iteration      1(  32)  ---------------------------------------


    POTLOK:  cpu time      0.1928: real time      0.1928
    SETDIJ:  cpu time      0.1850: real time      0.1849
    TRIAL :  cpu time      1.0400: real time      1.0399
    CORREC:  cpu time      1.3437: real time      1.3445
    CHARGE:  cpu time      0.0242: real time      0.0242
    --------------------------------------------
      LOOP:  cpu time      2.7860: real time      2.7870

 eigenvalue-minimisations  :     0
 total energy-change (2. order) :-0.2175291E-02  (-0.1715318E-02)
 number of electron     103.9999961 magnetization 
 augmentation part       67.8461849 magnetization 

 Free energy of the ion-electron system (eV)
  ---------------------------------------------------
[...]
     35     -13.6923      2.00000
     36     -13.6923      2.00000
     37     -13.6020      2.00000
     38     -13.6019      2.00000
     39     -13.6012      2.00000
     40     -13.6012      2.00000
     41      -5.2161      2.00000
     42      -5.2161      2.00000
     43      -5.2158      2.00000
     44      -5.2158      2.00000
     45       1.3015      2.00000
     46       1.3016      2.00000
     47       1.3024      2.00000
     48       1.3025      2.00000
     49       2.8892      2.00000
     50       2.8892      2.00000
     51       2.8895      2.00000
     52       2.8895      2.00000
     53       6.2801     -0.00000
     54       6.2801     -0.00000
     55       6.2806     -0.00000
     56       6.2807     -0.00000
     57      10.4330      0.00000
     58      10.4330      0.00000
     59      10.4340      0.00000
     60      10.4340      0.00000
     61      11.2400      0.00000
     62      15.9725      0.00000

 k-point     5 :       0.0000    0.0000    0.5000
  band No.  band energies     occupation 
      1     -14.1906      2.00000
      2     -14.1893      2.00000
      3     -14.1562      2.00000
      4     -14.1551      2.00000
      5     -14.1291      2.00000
      6     -14.1277      2.00000
      7     -14.0789      2.00000
      8     -14.0779      2.00000
      9     -14.0698      2.00000
     10     -14.0690      2.00000
     11     -14.0669      2.00000
     12     -14.0659      2.00000
     13     -14.0213      2.00000
     14     -14.0198      2.00000
     15     -14.0174      2.00000
     16     -14.0159      2.00000
     17     -13.9539      2.00000
     18     -13.9523      2.00000
     19     -13.9099      2.00000
     20     -13.9094      2.00000
     21     -13.8585      2.00000
     22     -13.8575      2.00000
     23     -13.8024      2.00000
     24     -13.8019      2.00000
     25     -13.7988      2.00000
     26     -13.7974      2.00000
     27     -13.7654      2.00000
     28     -13.7637      2.00000
     29     -13.7618      2.00000
     30     -13.7607      2.00000
     31     -13.7064      2.00000
     32     -13.7048      2.00000
     33     -13.6823      2.00000
     34     -13.6822      2.00000
     35     -13.6803      2.00000
     36     -13.6801      2.00000
     37     -13.6800      2.00000
     38     -13.6795      2.00000
     39     -13.6512      2.00000
     40     -13.6504      2.00000
     41      -6.0144      2.00000
     42      -5.9996      2.00000
     43      -4.1835      2.00000
     44      -4.1762      2.00000
     45      -0.9175      2.00000
     46      -0.9109      2.00000
     47       3.1810      2.00000
     48       3.1831      2.00000
     49       3.8960      2.00000
     50       4.3088      2.00024
     51       4.4959      2.01478
     52       4.4983      2.01549
     53       5.5434     -0.00005
     54       5.6730     -0.00000
     55       5.6776     -0.00000
     56       5.7968     -0.00000
     57       7.4870     -0.00000
     58       7.5476     -0.00000
     59      10.1007     -0.00000
     60      10.1020     -0.00000
     61      10.5855      0.00000
     62      10.9136      0.00000

 k-point     6 :       0.5000    0.0000    0.5000
  band No.  band energies     occupation 
      1     -14.1747      2.00000
      2     -14.1746      2.00000
      3     -14.1735      2.00000
      4     -14.1735      2.00000
      5     -14.1190      2.00000
      6     -14.1190      2.00000
      7     -14.1185      2.00000
      8     -14.1184      2.00000
      9     -14.1051      2.00000
     10     -14.1051      2.00000
     11     -14.1039      2.00000
     12     -14.1039      2.00000
     13     -14.0255      2.00000
     14     -14.0254      2.00000
     15     -14.0241      2.00000
     16     -14.0239      2.00000
     17     -13.9167      2.00000
     18     -13.9165      2.00000
     19     -13.9161      2.00000
     20     -13.9159      2.00000
     21     -13.8210      2.00000
     22     -13.8210      2.00000
     23     -13.8197      2.00000
     24     -13.8197      2.00000
     25     -13.7960      2.00000
     26     -13.7960      2.00000
     27     -13.7955      2.00000
     28     -13.7955      2.00000
     29     -13.7396      2.00000
     30     -13.7395      2.00000
     31     -13.7380      2.00000
     32     -13.7380      2.00000
     33     -13.6612      2.00000
     34     -13.6611      2.00000
     35     -13.6605      2.00000
     36     -13.6604      2.00000
     37     -13.6164      2.00000
     38     -13.6164      2.00000
     39     -13.6155      2.00000
     40     -13.6154      2.00000
     41      -3.7955      2.00000
     42      -3.7955      2.00000
     43      -3.7559      2.00000
     44      -3.7559      2.00000
     45      -1.8672      2.00000
     46      -1.8671      2.00000
     47      -1.8261      2.00000
     48      -1.8260      2.00000
     49       1.8515      2.00000
     50       1.8515      2.00000
     51       1.8703      2.00000
     52       1.8703      2.00000
     53       9.2781     -0.00000
     54       9.2782     -0.00000
     55       9.2876     -0.00000
     56       9.2876     -0.00000
     57      10.6586      0.00000
     58      10.6587      0.00000
     59      10.6646      0.00000
     60      10.6647      0.00000
     61      13.8152      0.00000
     62      27.2495      0.00000

 k-point     7 :       0.0000    0.5000    0.5000
  band No.  band energies     occupation 
      1     -14.1707      2.00000
      2     -14.1706      2.00000
      3     -14.1697      2.00000
      4     -14.1696      2.00000
      5     -14.1067      2.00000
      6     -14.1056      2.00000
      7     -14.1050      2.00000
      8     -14.1039      2.00000
      9     -14.0760      2.00000
     10     -14.0754      2.00000
     11     -14.0744      2.00000
     12     -14.0738      2.00000
     13     -14.0188      2.00000
     14     -14.0173      2.00000
     15     -14.0166      2.00000
     16     -14.0151      2.00000
     17     -13.9370      2.00000
     18     -13.9367      2.00000
     19     -13.9362      2.00000
     20     -13.9359      2.00000
     21     -13.8243      2.00000
     22     -13.8238      2.00000
     23     -13.8230      2.00000
     24     -13.8225      2.00000
     25     -13.7865      2.00000
     26     -13.7851      2.00000
     27     -13.7845      2.00000
     28     -13.7831      2.00000
     29     -13.7182      2.00000
     30     -13.7178      2.00000
     31     -13.7172      2.00000
     32     -13.7168      2.00000
     33     -13.6941      2.00000
     34     -13.6933      2.00000
     35     -13.6932      2.00000
     36     -13.6924      2.00000
     37     -13.6633      2.00000
     38     -13.6627      2.00000
     39     -13.6623      2.00000
     40     -13.6617      2.00000
     41      -5.3426      2.00000
     42      -5.3420      2.00000
     43      -5.3285      2.00000
     44      -5.3279      2.00000
     45       1.6631      2.00000
     46       1.6635      2.00000
     47       1.6750      2.00000
     48       1.6755      2.00000
     49       3.7336      2.00000
     50       3.7352      2.00000
     51       3.7369      2.00000
     52       3.7386      2.00000
     53       4.7041      2.04586
     54       4.7046      2.04489
     55       5.1217     -0.06581
     56       5.1220     -0.06601
     57      10.3217      0.00000
     58      10.3219      0.00000
     59      10.3450      0.00000
     60      10.3455      0.00000
     61      13.4573      0.00000
     62      16.8848      0.00000

 k-point     8 :       0.5000    0.5000    0.5000
  band No.  band energies     occupation 
      1     -14.1534      2.00000
      2     -14.1534      2.00000
      3     -14.1517      2.00000
      4     -14.1517      2.00000
      5     -14.1269      2.00000
      6     -14.1269      2.00000
      7     -14.1258      2.00000
      8     -14.1258      2.00000
      9     -14.0867      2.00000
     10     -14.0867      2.00000
     11     -14.0860      2.00000
     12     -14.0859      2.00000
     13     -14.0853      2.00000
     14     -14.0853      2.00000
     15     -14.0841      2.00000
     16     -14.0841      2.00000
     17     -13.8652      2.00000
     18     -13.8652      2.00000
     19     -13.8642      2.00000
     20     -13.8641      2.00000
     21     -13.8554      2.00000
     22     -13.8554      2.00000
     23     -13.8547      2.00000
     24     -13.8546      2.00000
     25     -13.7638      2.00000
     26     -13.7637      2.00000
     27     -13.7634      2.00000
     28     -13.7634      2.00000
     29     -13.7552      2.00000
     30     -13.7552      2.00000
     31     -13.7541      2.00000
     32     -13.7541      2.00000
     33     -13.6631      2.00000
     34     -13.6631      2.00000
     35     -13.6625      2.00000
     36     -13.6625      2.00000
     37     -13.6197      2.00000
     38     -13.6197      2.00000
     39     -13.6184      2.00000
     40     -13.6184      2.00000
     41      -3.4407      2.00000
     42      -3.4406      2.00000
     43      -3.4396      2.00000
     44      -3.4395      2.00000
     45      -2.5835      2.00000
     46      -2.5835      2.00000
     47      -2.5819      2.00000
     48      -2.5818      2.00000
     49       3.3469      2.00000
     50       3.3471      2.00000
     51       3.3473      2.00000
     52       3.3474      2.00000
     53       6.1225     -0.00000
     54       6.1225     -0.00000
     55       6.1242     -0.00000
     56       6.1242     -0.00000
     57      13.9692      0.00000
     58      13.9693      0.00000
     59      13.9793      0.00000
     60      13.9852      0.00000
     61      13.9923      0.00000
     62      13.9923      0.00000


--------------------------------------------------------------------------------------------------------


 soft charge-density along one line, spin component            1
         0         1         2         3         4         5         6         7         8         9
 total charge-density along one line
 
 pseudopotential strength for first ion, spin component:            1
 -9.295  -0.000  -0.000   0.005   0.000  -1.058   0.000   0.000
 -0.000  -9.307   0.002   0.000  -0.004   0.000  -1.051  -0.001
 -0.000   0.002  -9.286  -0.000  -0.020   0.000  -0.001  -1.063
  0.005   0.000  -0.000  -9.271  -0.000  -0.003  -0.000   0.000
  0.000  -0.004  -0.020  -0.000  -9.297  -0.000   0.003   0.012
 -1.058   0.000   0.000  -0.003  -0.000   5.726  -0.000  -0.000
  0.000  -1.051  -0.001  -0.000   0.003  -0.000   5.723   0.001
  0.000  -0.001  -1.063   0.000   0.012  -0.000   0.001   5.729
 -0.003  -0.000   0.000  -1.071   0.000   0.001   0.000  -0.000
 -0.000   0.003   0.012   0.000  -1.056   0.000  -0.002  -0.005
 -0.000   0.001   0.001   0.000  -0.001  -0.000  -0.001  -0.001
 -0.000  -0.002  -0.002  -0.000  -0.009   0.000   0.001   0.001
 -0.000   0.002  -0.001  -0.000  -0.002  -0.000  -0.001   0.002
 -0.000  -0.000   0.000  -0.000  -0.001   0.000  -0.001  -0.001
 -0.000  -0.000   0.000   0.000  -0.000  -0.001   0.000   0.000
  0.000  -0.005   0.005   0.000   0.007   0.000   0.004  -0.005
  0.000   0.002  -0.000   0.000   0.003  -0.000   0.003   0.001
  0.001   0.000  -0.000   0.001   0.000   0.003  -0.000  -0.000
 total augmentation occupancy for first ion, spin component:            1
  1.986   0.000  -0.000  -0.001  -0.000  -0.014  -0.000  -0.000  -0.002   0.000   0.000  -0.000  -0.000   0.000  -0.010   0.000
  0.000   1.988  -0.000   0.000  -0.001   0.000  -0.011   0.000   0.000  -0.003   0.001   0.000   0.006  -0.013  -0.000   0.001
 -0.000  -0.000   1.988  -0.000  -0.001   0.000   0.000  -0.012  -0.000  -0.002   0.002   0.000  -0.006  -0.003   0.000  -0.001
 -0.001   0.000  -0.000   1.988  -0.000  -0.002   0.000  -0.000  -0.009  -0.000  -0.000  -0.000   0.000  -0.000  -0.010  -0.000
 -0.000  -0.001  -0.001  -0.000   1.988  -0.000  -0.003  -0.002  -0.000  -0.010  -0.002   0.001  -0.004  -0.007   0.000  -0.001
 -0.014   0.000   0.000  -0.002  -0.000   0.015   0.000  -0.000  -0.003   0.000  -0.000  -0.000   0.000   0.000  -0.071   0.000
 -0.000  -0.011   0.000   0.000  -0.003   0.000   0.020   0.001   0.000  -0.002   0.012   0.000   0.038  -0.079  -0.000   0.001
 -0.000   0.000  -0.012  -0.000  -0.002  -0.000   0.001   0.020   0.000  -0.008   0.014   0.000  -0.036  -0.022   0.000  -0.001
 -0.002   0.000  -0.000  -0.009  -0.000  -0.003   0.000   0.000   0.028  -0.000   0.000   0.000   0.000   0.000  -0.056   0.000
  0.000  -0.003  -0.002  -0.000  -0.010   0.000  -0.002  -0.008  -0.000   0.028  -0.011   0.001  -0.030  -0.044   0.000  -0.001
  0.000   0.001   0.002  -0.000  -0.002  -0.000   0.012   0.014   0.000  -0.011   1.509   0.043   0.035   0.003   0.000  -0.000
 -0.000   0.000   0.000  -0.000   0.001  -0.000   0.000   0.000   0.000   0.001   0.043   0.002  -0.002  -0.001   0.000  -0.000
 -0.000   0.006  -0.006   0.000  -0.004   0.000   0.038  -0.036   0.000  -0.030   0.035  -0.002   0.705   0.029   0.000   0.015
  0.000  -0.013  -0.003  -0.000  -0.007   0.000  -0.079  -0.022   0.000  -0.044   0.003  -0.001   0.029   0.924  -0.000   0.001
 -0.010  -0.000   0.000  -0.010   0.000  -0.071  -0.000   0.000  -0.056   0.000   0.000   0.000   0.000  -0.000   1.056  -0.000
  0.000   0.001  -0.001  -0.000  -0.001   0.000   0.001  -0.001   0.000  -0.001  -0.000  -0.000   0.015   0.001  -0.000   0.000
 -0.000  -0.001  -0.000  -0.000  -0.001  -0.000  -0.002  -0.000   0.000  -0.001  -0.000  -0.000   0.001   0.020  -0.000   0.000
 -0.001  -0.000   0.000  -0.001   0.000  -0.001  -0.000  -0.000  -0.001   0.000  -0.000   0.000  -0.000   0.000   0.021  -0.000


------------------------ aborting loop because EDIFF is reached ----------------------------------------


    FORLOC:  cpu time      0.0007: real time      0.0007
    FORHF :  cpu time      2.0923: real time      2.0919
    FORNL :  cpu time      0.1052: real time      0.1052
    STRESS:  cpu time      0.3238: real time      0.3237
    FORCOR:  cpu time      0.1885: real time      0.1885
    OFIELD:  cpu time      0.0008: real time      0.0008

  FORCE on cell =-STRESS in cart. coord.  units (eV):
  Direction    XX          YY          ZZ          XY          YZ          ZX
  --------------------------------------------------------------------------------------
  Alpha Z   563.37210   563.37210   563.37210
  Ewald   -2816.29772 -4192.38315 -3066.95774     0.00000    -0.00000    -0.00000
  Hartree  1933.51130   947.95972  1757.09783     0.00002    -0.00014    -0.00013
  E(xc)    -413.51282  -413.52732  -413.49502     0.00000    -0.00000    -0.00000
  Local    -609.49974  1767.63202  -175.80489    -0.00012     0.00043     0.00016
  n-local  1348.20951  1338.37009  1345.41751     0.00009    -0.00016     0.00004
  augment   831.43421   826.40565   828.69579    -0.00000    -0.00007     0.00002
  Kinetic   516.72944   495.48014   502.53089     0.00011     0.00002     0.00014
  Fock    -1339.95793 -1342.47220 -1340.44230    -0.00002    -0.00004     0.00006
  -------------------------------------------------------------------------------------
  Total      13.98836    -9.16294     0.41417     0.00000    -0.00000     0.00000
  in kB     146.09601   -95.69879     4.32560     0.00000    -0.00000     0.00000
  external pressure =       18.24 kB  Pullay stress =        0.00 kB


 VOLUME and BASIS-vectors are now :
 -----------------------------------------------------------------------------
  energy-cutoff  :      450.00
  volume of cell :      153.40
      direct lattice vectors                 reciprocal lattice vectors
     4.432046661  0.000000000  0.000000000     0.225629393  0.000000000 -0.000000000
    -0.000000000  7.597983680  0.000000000     0.000000000  0.131613865  0.000000000
     0.000000000  0.000000000  4.555503530    -0.000000000 -0.000000000  0.219514702

  length of vectors
     4.432046661  7.597983680  4.555503530     0.225629393  0.131613865  0.219514702


 FORCES acting on ions:
    Electron-Ion                     Ewald-Force                    Non-Local-Force
 -----------------------------------------------------------------------------------------------
   0.624E-03 -.123E+03 -.199E+02   -.122E-12 0.124E+03 0.200E+02   0.906E-16 -.138E+01 -.124E+00
   -.238E-03 0.123E+03 -.199E+02   0.108E-13 -.124E+03 0.200E+02   -.905E-16 0.138E+01 -.124E+00
   0.413E-03 0.123E+03 0.198E+02   0.120E-12 -.124E+03 -.200E+02   -.906E-16 0.138E+01 0.124E+00
   -.276E-03 -.123E+03 0.201E+02   0.529E-15 0.124E+03 -.200E+02   0.905E-16 -.138E+01 0.124E+00
   0.293E-03 -.123E+03 -.200E+02   -.124E-12 0.124E+03 0.200E+02   0.905E-16 -.138E+01 -.124E+00
   -.337E-03 0.123E+03 -.198E+02   -.517E-15 -.124E+03 0.200E+02   -.906E-16 0.138E+01 -.124E+00
   0.147E-03 0.123E+03 0.200E+02   0.118E-12 -.124E+03 -.200E+02   -.905E-16 0.138E+01 0.124E+00
   -.529E-03 -.123E+03 0.199E+02   -.111E-13 0.124E+03 -.200E+02   0.906E-16 -.138E+01 0.124E+00
 -----------------------------------------------------------------------------------------------
   0.100E-03 -.496E-01 -.336E-03   -.866E-14 0.000E+00 0.142E-13   0.129E-19 0.222E-15 -.139E-16
 
 
 POSITION                                       TOTAL-FORCE (eV/Angst)
 -----------------------------------------------------------------------------------
     -0.00000      2.56208      1.82712         0.000000     -0.144667     -0.065582
     -0.00000      1.23691      4.10487        -0.000000      0.144667     -0.065582
     -0.00000      5.03591      2.72838        -0.000000      0.144667      0.065582
     -0.00000      6.36107      0.45063         0.000000     -0.144667      0.065582
      2.21602      6.36107      1.82712         0.000000     -0.144667     -0.065582
      2.21602      5.03591      4.10487        -0.000000      0.144667     -0.065582
      2.21602      1.23691      2.72838        -0.000000      0.144667      0.065582
      2.21602      2.56208      0.45063         0.000000     -0.144667      0.065582
 -----------------------------------------------------------------------------------
    total drift:                                0.000100     -0.049627     -0.000336


--------------------------------------------------------------------------------------------------------



  FREE ENERGIE OF THE ION-ELECTRON SYSTEM (eV)
  ---------------------------------------------------
  free  energy   TOTEN  =       -27.36773252 eV

  energy  without entropy=      -27.38119134  energy(sigma->0) =      -27.37221879
 


--------------------------------------------------------------------------------------------------------


    POTLOK:  cpu time      0.3931: real time      0.3931


--------------------------------------------------------------------------------------------------------


 writing wavefunctions
     LOOP+:  cpu time    113.8313: real time    113.9437
    4ORBIT:  cpu time      0.0000: real time      0.0000

 total amount of memory used by VASP MPI-rank0   160933. kBytes
=======================================================================

   base      :      30000. kBytes
   nonlr-proj:       4722. kBytes
   fftplans  :       6540. kBytes
   grid      :      10030. kBytes
   one-center:        124. kBytes
   HF        :         64. kBytes
   wavefun   :      83232. kBytes
   fock_wrk  :      26221. kBytes
 
  
  
 General timing and accounting informations for this job:
 ========================================================
  
                  Total CPU time used (sec):      121.858
                            User time (sec):      119.850
                          System time (sec):        2.008
                         Elapsed time (sec):      123.746
  
                   Maximum memory used (kb):     3953024.
                   Average memory used (kb):          N/A
  
                          Minor page faults:       100225
                          Major page faults:            8
                 Voluntary context switches:         5817
