<?xml version="1.0" encoding="ISO-8859-1"?>
<modeling>
 <generator>
  <i name="program" type="string">vasp </i>
  <i name="version" type="string">6.4.2  </i>
  <i name="subversion" type="string">20Jul23 (build Nov 12 2023 22:16:35) complex                          parallel </i>
  <i name="platform" type="string">LinuxNV </i>
  <i name="date" type="string">2025 03 09 </i>
  <i name="time" type="string">14:07:37 </i>
 </generator>
 <incar>
  <i type="int" name="ISTART">     0</i>
  <i type="string" name="PREC">Normal</i>
  <i type="string" name="ALGO">All</i>
  <i type="int" name="ISPIN">     1</i>
  <i type="int" name="ICHARG">     0</i>
  <i type="int" name="NELM">   500</i>
  <i type="int" name="IBRION">    -1</i>
  <i name="EDIFF">      0.00001000</i>
  <i name="EDIFFG">     -0.00500000</i>
  <i type="int" name="NSW">     0</i>
  <i type="int" name="ISIF">     2</i>
  <i name="ENCUT">    450.00000000</i>
  <i type="string" name="LREAL">Auto</i>
  <i type="logical" name="LPLANE"> T  </i>
  <i name="TIME">      0.40000000</i>
  <i type="int" name="ISMEAR">     1</i>
  <i name="SIGMA">      0.20000000</i>
  <i type="logical" name="LWAVE"> T  </i>
  <i type="logical" name="LCHARG"> T  </i>
  <i name="HFSCREEN">      0.18000000</i>
  <i type="logical" name="LHFCALC"> T  </i>
  <i type="int" name="LMAXFOCK">     4</i>
  <i name="AEXX">      0.35000000</i>
  <i type="string" name="PRECFOCK">Fast</i>
 </incar>
 <primitive_cell>
  <structure name="primitive_cell" >
   <crystal>
    <varray name="basis" >
     <v>       2.21602333      -3.79899184       0.00000000 </v>
     <v>       2.21602333       3.79899184       0.00000000 </v>
     <v>       0.00000000       0.00000000       4.55550353 </v>
    </varray>
    <i name="volume">     76.70242104 </i>
    <varray name="rec_basis" >
     <v>       0.22562939      -0.13161387       0.00000000 </v>
     <v>       0.22562939       0.13161387      -0.00000000 </v>
     <v>      -0.00000000      -0.00000000       0.21951470 </v>
    </varray>
   </crystal>
   <varray name="positions" >
    <v>       0.66279501       0.33720499       0.40107953 </v>
    <v>       0.83720499       0.16279501       0.90107953 </v>
    <v>       0.33720499       0.66279501       0.59892047 </v>
    <v>       0.16279501       0.83720499       0.09892047 </v>
   </varray>
  </structure>
  <varray name="primitive_index" >
   <v type="int" >        1 </v>
   <v type="int" >        2 </v>
   <v type="int" >        3 </v>
   <v type="int" >        4 </v>
  </varray>
 </primitive_cell>
 <kpoints>
  <generation param="Gamma">
   <v type="int" name="divisions">       2        2        2 </v>
   <v name="usershift">      0.00000000       0.00000000       0.00000000 </v>
   <v name="genvec1">      0.50000000      -0.00000000       0.00000000 </v>
   <v name="genvec2">      0.00000000       0.50000000       0.00000000 </v>
   <v name="genvec3">      0.00000000      -0.00000000       0.50000000 </v>
   <v name="shift">      0.00000000       0.00000000       0.00000000 </v>
  </generation>
  <varray name="kpointlist" >
   <v>       0.00000000       0.00000000       0.00000000 </v>
   <v>       0.50000000       0.00000000       0.00000000 </v>
   <v>       0.00000000       0.50000000       0.00000000 </v>
   <v>       0.50000000       0.50000000       0.00000000 </v>
   <v>       0.00000000       0.00000000       0.50000000 </v>
   <v>       0.50000000       0.00000000       0.50000000 </v>
   <v>       0.00000000       0.50000000       0.50000000 </v>
   <v>       0.50000000       0.50000000       0.50000000 </v>
  </varray>
  <varray name="weights" >
   <v>       0.12500000 </v>
   <v>       0.12500000 </v>
   <v>       0.12500000 </v>
   <v>       0.12500000 </v>
   <v>       0.12500000 </v>
   <v>       0.12500000 </v>
   <v>       0.12500000 </v>
   <v>       0.12500000 </v>
  </varray>
 </kpoints>
 <parameters>
  <separator name="general" >
   <i type="string" name="SYSTEM">unknown system</i>
   <i type="logical" name="LCOMPAT"> F  </i>
  </separator>
  <separator name="electronic" >
   <i type="string" name="PREC">normal</i>
   <i name="ENMAX">    450.00000000</i>
   <i name="ENAUG">    490.69000000</i>
   <i name="EDIFF">      0.00001000</i>
   <i type="int" name="IALGO">    58</i>
   <i type="int" name="IWAVPR">    10</i>
   <i type="int" name="NBANDS">    62</i>
   <i type="int" name="NBANDSLOW">    -1</i>
   <i type="int" name="NBANDSHIGH">    -1</i>
   <i name="NELECT">    104.00000000</i>
   <i type="int" name="TURBO">     0</i>
   <i type="int" name="IRESTART">     0</i>
   <i type="int" name="NREBOOT">     0</i>
   <i type="int" name="NMIN">     0</i>
   <i name="EREF">      0.00000000</i>
   <separator name="electronic smearing" >
    <i type="int" name="ISMEAR">     1</i>
    <i name="SIGMA">      0.20000000</i>
    <i name="KSPACING">      0.50000000</i>
    <i type="logical" name="KGAMMA"> T  </i>
    <i type="logical" name="KBLOWUP"> T  </i>
   </separator>
   <separator name="electronic projectors" >
    <i type="logical" name="LREAL"> T  </i>
    <v name="ROPT">     -0.00050000</v>
    <i type="int" name="LMAXPAW">  -100</i>
    <i type="int" name="LMAXMIX">     2</i>
    <i type="logical" name="NLSPLINE"> F  </i>
   </separator>
   <separator name="electronic startup" >
    <i type="int" name="ISTART">     0</i>
    <i type="int" name="ICHARG">     0</i>
    <i type="int" name="INIWAV">     1</i>
   </separator>
   <separator name="electronic spin" >
    <i type="int" name="ISPIN">     1</i>
    <i type="logical" name="LNONCOLLINEAR"> F  </i>
    <v name="MAGMOM">      1.00000000      1.00000000      1.00000000      1.00000000      1.00000000      1.00000000      1.00000000      1.00000000</v>
    <i name="NUPDOWN">     -1.00000000</i>
    <i type="logical" name="LSORBIT"> F  </i>
    <v name="SAXIS">      0.00000000      0.00000000      1.00000000</v>
    <i type="logical" name="LSPIRAL"> F  </i>
    <v name="QSPIRAL">      0.00000000      0.00000000      0.00000000</v>
    <i type="logical" name="LZEROZ"> F  </i>
   </separator>
   <separator name="electronic exchange-correlation" >
    <i type="logical" name="LASPH"> F  </i>
    <i type="logical" name="LMETAGGA"> F  </i>
   </separator>
   <separator name="electronic convergence" >
    <i type="int" name="NELM">   500</i>
    <i type="int" name="NELMDL">    -5</i>
    <i type="int" name="NELMIN">     2</i>
    <i name="ENINI">    450.00000000</i>
    <separator name="electronic convergence detail" >
     <i type="logical" name="LDIAG"> T  </i>
     <i type="logical" name="LSUBROT"> F  </i>
     <i name="WEIMIN">      0.00000000</i>
     <i name="EBREAK">      0.00000004</i>
     <i name="DEPER">      0.30000000</i>
     <i type="int" name="NRMM">     4</i>
     <i name="TIME">      0.40000000</i>
    </separator>
   </separator>
   <separator name="electronic mixer" >
    <i name="AMIX">      0.40000000</i>
    <i name="BMIX">      1.00000000</i>
    <i name="AMIN">      0.10000000</i>
    <i name="AMIX_MAG">      1.60000000</i>
    <i name="BMIX_MAG">      1.00000000</i>
    <separator name="electronic mixer details" >
     <i type="int" name="IMIX">     4</i>
     <i type="logical" name="MIXFIRST"> F  </i>
     <i type="int" name="MAXMIX">   -45</i>
     <i name="WC">    100.00000000</i>
     <i type="int" name="INIMIX">     1</i>
     <i type="int" name="MIXPRE">     1</i>
     <i type="int" name="MREMOVE">     5</i>
    </separator>
   </separator>
   <separator name="electronic dipolcorrection" >
    <i type="logical" name="LDIPOL"> F  </i>
    <i type="logical" name="LMONO"> F  </i>
    <i type="int" name="IDIPOL">     0</i>
    <i name="EPSILON">      1.00000000</i>
    <v name="DIPOL">   -100.00000000   -100.00000000   -100.00000000</v>
    <i name="EFIELD">      0.00000000</i>
   </separator>
  </separator>
  <separator name="grids" >
   <i type="int" name="NGX">    24</i>
   <i type="int" name="NGY">    40</i>
   <i type="int" name="NGZ">    24</i>
   <i type="int" name="NGXF">    48</i>
   <i type="int" name="NGYF">    80</i>
   <i type="int" name="NGZF">    48</i>
   <i type="logical" name="ADDGRID"> F  </i>
  </separator>
  <separator name="ionic" >
   <i type="int" name="NSW">     0</i>
   <i type="int" name="IBRION">    -1</i>
   <i type="int" name="MDALGO">     0</i>
   <i type="int" name="ISIF">     2</i>
   <i name="PSTRESS">      0.00000000</i>
   <i name="EDIFFG">     -0.00500000</i>
   <i type="int" name="NFREE">     0</i>
   <i name="POTIM">      0.50000000</i>
   <i name="SMASS">     -3.00000000</i>
   <i name="SCALEE">      1.00000000</i>
  </separator>
  <separator name="ionic md" >
   <i name="TEBEG">      0.00010000</i>
   <i name="TEEND">      0.00010000</i>
   <i type="int" name="NBLOCK">     1</i>
   <i type="int" name="KBLOCK">     1</i>
   <i type="int" name="NPACO">   256</i>
   <i name="APACO">     10.00000000</i>
  </separator>
  <separator name="symmetry" >
   <i type="int" name="ISYM">     3</i>
   <i name="SYMPREC">      0.00001000</i>
  </separator>
  <separator name="dos" >
   <i type="int" name="LORBIT">     0</i>
   <v name="RWIGS">     -1.00000000</v>
   <i type="int" name="NEDOS">   301</i>
   <i name="EMIN">     10.00000000</i>
   <i name="EMAX">    -10.00000000</i>
   <i name="EFERMI">      0.00000000</i>
  </separator>
  <separator name="writing" >
   <i type="int" name="NWRITE">     2</i>
   <i type="logical" name="LWAVE"> T  </i>
   <i type="logical" name="LDOWNSAMPLE"> F  </i>
   <i type="logical" name="LCHARG"> T  </i>
   <i type="logical" name="LPARD"> F  </i>
   <i type="logical" name="LVTOT"> F  </i>
   <i type="logical" name="LVHAR"> F  </i>
   <i type="logical" name="LELF"> F  </i>
   <i type="logical" name="LOPTICS"> F  </i>
   <v name="STM">      0.00000000      0.00000000      0.00000000      0.00000000      0.00000000      0.00000000      0.00000000</v>
  </separator>
  <separator name="performance" >
   <i type="int" name="NPAR">     1</i>
   <i type="int" name="NSIM">     4</i>
   <i type="int" name="NBLK">    -1</i>
   <i type="logical" name="LPLANE"> T  </i>
   <i type="logical" name="LSCALAPACK"> T  </i>
   <i type="logical" name="LSCAAWARE"> F  </i>
   <i type="logical" name="LSCALU"> F  </i>
   <i type="logical" name="LASYNC"> F  </i>
   <i type="logical" name="LORBITALREAL"> F  </i>
  </separator>
  <separator name="miscellaneous" >
   <i type="int" name="IDIOT">     3</i>
   <i type="int" name="PHON_NSTRUCT">    -1</i>
   <i type="logical" name="LMUSIC"> F  </i>
   <v name="POMASS">     69.72300000</v>
   <v name="DARWINR">      0.00000000</v>
   <v name="DARWINV">      1.00000000</v>
   <i type="logical" name="LCORR"> T  </i>
  </separator>
  <i type="logical" name="GGA_COMPAT"> T  </i>
  <i type="logical" name="LBERRY"> F  </i>
  <i type="int" name="ICORELEVEL">     0</i>
  <i type="logical" name="LDAU"> F  </i>
  <i type="int" name="I_CONSTRAINED_M">     0</i>
  <separator name="electronic exchange-correlation" >
   <i type="string" name="GGA">--</i>
   <i type="int" name="VOSKOWN">     0</i>
   <i type="logical" name="LHFCALC"> T  </i>
   <i type="string" name="PRECFOCK">fast</i>
   <i type="logical" name="LSYMGRAD"> F  </i>
   <i type="logical" name="LHFONE"> F  </i>
   <i type="logical" name="LRHFCALC"> F  </i>
   <i type="logical" name="LTHOMAS"> F  </i>
   <i type="logical" name="LMODELHF"> F  </i>
   <i type="logical" name="LFOCKACE"> T  </i>
   <i name="ENCUT4O">     -1.00000000</i>
   <i type="int" name="EXXOEP">     0</i>
   <i type="int" name="FOURORBIT">     0</i>
   <i name="AEXX">      0.35000000</i>
   <i name="HFALPHA">     -1.00000000</i>
   <i name="MCALPHA">      0.00000000</i>
   <i name="ALDAX">      0.65000000</i>
   <i name="AGGAX">      0.65000000</i>
   <i name="ALDAC">      1.00000000</i>
   <i name="AGGAC">      1.00000000</i>
   <i type="int" name="NKREDX">     1</i>
   <i type="int" name="NKREDY">     1</i>
   <i type="int" name="NKREDZ">     1</i>
   <i type="logical" name="SHIFTRED"> F  </i>
   <i type="logical" name="ODDONLY"> F  </i>
   <i type="logical" name="EVENONLY"> F  </i>
   <i type="int" name="LMAXFOCK">     4</i>
   <i type="int" name="NMAXFOCKAE">     1</i>
   <i type="logical" name="LFOCKAEDFT"> F  </i>
   <i name="HFSCREEN">      0.18000000</i>
   <i name="HFSCREENC">      0.18000000</i>
   <i type="int" name="NBANDSGWLOW">     1</i>
  </separator>
  <separator name="vdW DFT" >
   <i type="logical" name="LUSE_VDW"> F  </i>
   <i type="int" name="IVDW_NL">     1</i>
   <i type="logical" name="LSPIN_VDW"> F  </i>
   <i name="Zab_VDW">     -0.84910000</i>
   <i name="PARAM1">      0.12340000</i>
   <i name="PARAM2">      1.00000000</i>
   <i name="PARAM3">      0.00000000</i>
  </separator>
  <separator name="model GW" >
   <i type="int" name="MODEL_GW">     0</i>
   <i name="MODEL_EPS0">     11.50536316</i>
   <i name="MODEL_ALPHA">      1.00000000</i>
  </separator>
  <separator name="linear response parameters" >
   <i type="logical" name="LEPSILON"> F  </i>
   <i type="logical" name="LRPA"> F  </i>
   <i type="logical" name="LNABLA"> F  </i>
   <i type="logical" name="LVEL"> F  </i>
   <i name="CSHIFT">      0.10000000</i>
   <i name="OMEGAMAX">     -1.00000000</i>
   <i name="DEG_THRESHOLD">      0.00200000</i>
   <i name="RTIME">     -0.10000000</i>
   <i name="WPLASMAI">      0.00000000</i>
   <v name="DFIELD">      0.00000000      0.00000000      0.00000000</v>
   <v name="WPLASMA">      0.00000000      0.00000000      0.00000000      0.00000000      0.00000000      0.00000000      0.00000000      0.00000000      0.00000000</v>
  </separator>
  <separator name="orbital magnetization" >
   <i type="logical" name="NUCIND"> F  </i>
   <v name="MAGPOS">      0.00000000      0.00000000      0.00000000</v>
   <i type="logical" name="LNICSALL"> T  </i>
   <i type="logical" name="ORBITALMAG"> F  </i>
   <i type="logical" name="LMAGBLOCH"> F  </i>
   <i type="logical" name="LCHIMAG"> F  </i>
   <i type="logical" name="LGAUGE"> T  </i>
   <i type="int" name="MAGATOM">     0</i>
   <v name="MAGDIPOL">      0.00000000      0.00000000      0.00000000</v>
   <v name="AVECCONST">      0.00000000      0.00000000      0.00000000</v>
  </separator>
  <separator name="response functions" >
   <i type="logical" name="LALL_IN_ONE"> F  </i>
   <i type="int" name="IALL_IN_ONE">    -1</i>
   <i type="int" name="NBANDS_WAVE">    -1</i>
   <i type="logical" name="LFINITE_TEMPERATURE"> F  </i>
   <i type="logical" name="LADDER"> F  </i>
   <i type="logical" name="LRPAFORCE"> F  </i>
   <i type="logical" name="LFXC"> F  </i>
   <i type="logical" name="LHARTREE"> T  </i>
   <i type="int" name="IBSE">     0</i>
   <v type="int" name="KPOINT">    -1     0     0     0</v>
   <i type="logical" name="LTCTC"> F  </i>
   <i type="logical" name="LTCTE"> F  </i>
   <i type="logical" name="LTETE"> F  </i>
   <i type="logical" name="LTRIPLET"> F  </i>
   <i type="logical" name="LFXCEPS"> F  </i>
   <i type="logical" name="LFXHEG"> F  </i>
   <i type="int" name="NATURALO">     2</i>
   <i type="logical" name="LHOLEGF"> F  </i>
   <i type="logical" name="L2ORDER"> F  </i>
   <i type="logical" name="LDMP1"> F  </i>
   <i type="logical" name="LMP2LT"> F  </i>
   <i type="logical" name="LSMP2LT"> F  </i>
   <i type="logical" name="LGWLF"> F  </i>
   <i name="ENCUTGW">     -1.60000002</i>
   <i name="ENCUTGWSOFT">     -1.60000002</i>
   <i name="ENCUTLF">     -1.00000000</i>
   <i type="logical" name="LESF_SPLINES"> F  </i>
   <i type="int" name="LMAXMP2">    -1</i>
   <i name="SCISSOR">      0.00000000</i>
   <i type="int" name="NOMEGA">     0</i>
   <i type="int" name="NOMEGAR">     0</i>
   <i type="int" name="NBANDSGW">    -1</i>
   <i type="int" name="NBANDSO">    -1</i>
   <i type="int" name="NBANDSV">    -1</i>
   <i type="int" name="NELMGW">     1</i>
   <i type="int" name="NELMHF">     1</i>
   <i type="int" name="DIM">     3</i>
   <i type="int" name="IESPILON">     4</i>
   <i type="int" name="ANTIRES">     0</i>
   <i name="OMEGAMAX">    -30.00000000</i>
   <i name="OMEGAMIN">    -30.00000000</i>
   <i name="OMEGATL">   -200.00000000</i>
   <i type="int" name="OMEGAGRID">     0</i>
   <i name="CSHIFT">     -0.10000000</i>
   <i type="logical" name="LSELFENERGY"> F  </i>
   <i type="logical" name="LSPECTRAL"> F  </i>
   <i type="logical" name="LSPECTRALGW"> F  </i>
   <i type="logical" name="LSINGLES"> F  </i>
   <i type="logical" name="LFERMIGW"> F  </i>
   <i type="logical" name="ODDONLYGW"> F  </i>
   <i type="logical" name="EVENONLYGW"> F  </i>
   <i type="int" name="NKREDLFX">     1</i>
   <i type="int" name="NKREDLFY">     1</i>
   <i type="int" name="NKREDLFZ">     1</i>
   <i type="int" name="MAXMEM">  2800</i>
   <i type="int" name="TELESCOPE">     0</i>
   <i type="int" name="NTAUPAR">    -1</i>
   <i type="int" name="NOMEGAPAR">    -1</i>
   <i name="DAMP_NEWTON">      0.80000001</i>
   <i name="LAMBDA">      1.00000000</i>
  </separator>
  <separator name="External order field" >
   <i name="OFIELD_KAPPA">      0.00000000</i>
   <v name="OFIELD_K">      0.00000000      0.00000000      0.00000000</v>
   <i name="OFIELD_Q6_NEAR">      0.00000000</i>
   <i name="OFIELD_Q6_FAR">      0.00000000</i>
   <i name="OFIELD_A">      0.00000000</i>
  </separator>
  <separator name="optional k-points parameters" >
   <i type="int" name="KPOINTS_OPT_MODE">     1</i>
   <i type="logical" name="LKPOINTS_OPT"> F  </i>
  </separator>
 </parameters>
 <atominfo>
  <atoms>       8 </atoms>
  <types>       1 </types>
  <array name="atoms" >
   <dimension dim="1">ion</dimension>
   <field type="string">element</field>
   <field type="int">atomtype</field>
   <set>
    <rc><c>Ga</c><c>   1</c></rc>
    <rc><c>Ga</c><c>   1</c></rc>
    <rc><c>Ga</c><c>   1</c></rc>
    <rc><c>Ga</c><c>   1</c></rc>
    <rc><c>Ga</c><c>   1</c></rc>
    <rc><c>Ga</c><c>   1</c></rc>
    <rc><c>Ga</c><c>   1</c></rc>
    <rc><c>Ga</c><c>   1</c></rc>
   </set>
  </array>
  <array name="atomtypes" >
   <dimension dim="1">type</dimension>
   <field type="int">atomspertype</field>
   <field type="string">element</field>
   <field>mass</field>
   <field>valence</field>
   <field type="string">pseudopotential</field>
   <set>
    <rc><c>   8</c><c>Ga</c><c>     69.72300000</c><c>     13.00000000</c><c>  PAW_PBE Ga_d 06Jul2010                </c></rc>
   </set>
  </array>
 </atominfo>
 <structure name="initialpos" >
  <crystal>
   <varray name="basis" >
    <v>       4.43204666       0.00000000       0.00000000 </v>
    <v>      -0.00000000       7.59798368       0.00000000 </v>
    <v>       0.00000000       0.00000000       4.55550353 </v>
   </varray>
   <i name="volume">    153.40484207 </i>
   <varray name="rec_basis" >
    <v>       0.22562939       0.00000000      -0.00000000 </v>
    <v>       0.00000000       0.13161387       0.00000000 </v>
    <v>      -0.00000000      -0.00000000       0.21951470 </v>
   </varray>
  </crystal>
  <varray name="positions" >
   <v>       0.00000000       0.33720499       0.40107953 </v>
   <v>       0.00000000       0.16279501       0.90107953 </v>
   <v>       0.00000000       0.66279501       0.59892047 </v>
   <v>       0.00000000       0.83720499       0.09892047 </v>
   <v>       0.50000000       0.83720499       0.40107953 </v>
   <v>       0.50000000       0.66279501       0.90107953 </v>
   <v>       0.50000000       0.16279501       0.59892047 </v>
   <v>       0.50000000       0.33720499       0.09892047 </v>
  </varray>
 </structure>
 <calculation>
  <scstep>
   <time name="total">    0.41    0.41</time>
   <energy>
    <i name="alphaZ">    563.37210189 </i>
    <i name="ewald"> -10075.62109696 </i>
    <i name="hartreedc">   -213.26787051 </i>
    <i name="XCdc">    192.64815077 </i>
    <i name="pawpsdc">   5085.59337777 </i>
    <i name="pawaedc">  -9690.31509403 </i>
    <i name="eentropy">      0.00178345 </i>
    <i name="bandstr"> -11580.49616460 </i>
    <i name="atom">  17171.67323441 </i>
    <i name="e_fr_energy">  -8546.41157782 </i>
    <i name="e_wo_entrp">  -8546.41336127 </i>
    <i name="e_0_energy">  -8546.41217231 </i>
   </energy>
  </scstep>
  <scstep>
   <time name="total">    0.22    0.22</time>
   <energy>
    <i name="e_fr_energy"> -10541.79694736 </i>
    <i name="e_wo_entrp"> -10541.78705026 </i>
    <i name="e_0_energy"> -10541.79364833 </i>
   </energy>
  </scstep>
  <scstep>
   <time name="total">    0.25    0.25</time>
   <energy>
    <i name="e_fr_energy"> -10777.58821853 </i>
    <i name="e_wo_entrp"> -10777.59224095 </i>
    <i name="e_0_energy"> -10777.58955933 </i>
   </energy>
  </scstep>
  <scstep>
   <time name="total">    0.26    0.26</time>
   <energy>
    <i name="e_fr_energy"> -10796.18362918 </i>
    <i name="e_wo_entrp"> -10796.20479669 </i>
    <i name="e_0_energy"> -10796.19068502 </i>
   </energy>
  </scstep>
  <scstep>
   <time name="total">    1.54    1.54</time>
   <energy>
    <i name="e_fr_energy">  -5705.34323676 </i>
    <i name="e_wo_entrp">  -5705.34706022 </i>
    <i name="e_0_energy">  -5705.34451125 </i>
   </energy>
  </scstep>
  <scstep>
   <time name="total">    2.80    2.80</time>
   <energy>
    <i name="e_fr_energy">   1639.04024765 </i>
    <i name="e_wo_entrp">   1639.03006684 </i>
    <i name="e_0_energy">   1639.03685405 </i>
   </energy>
  </scstep>
  <scstep>
   <time name="total">    2.84    2.84</time>
   <energy>
    <i name="e_fr_energy">    200.35479475 </i>
    <i name="e_wo_entrp">    200.35377373 </i>
    <i name="e_0_energy">    200.35445441 </i>
   </energy>
  </scstep>
  <scstep>
   <time name="total">    3.30    3.30</time>
   <energy>
    <i name="e_fr_energy">     46.54892772 </i>
    <i name="e_wo_entrp">     46.53945368 </i>
    <i name="e_0_energy">     46.54576971 </i>
   </energy>
  </scstep>
  <scstep>
   <time name="total">    2.78    2.78</time>
   <energy>
    <i name="e_fr_energy">      1.67882461 </i>
    <i name="e_wo_entrp">      1.67534211 </i>
    <i name="e_0_energy">      1.67766378 </i>
   </energy>
  </scstep>
  <scstep>
   <time name="total">    2.79    2.79</time>
   <energy>
    <i name="e_fr_energy">    -10.02492824 </i>
    <i name="e_wo_entrp">    -10.02178965 </i>
    <i name="e_0_energy">    -10.02388204 </i>
   </energy>
  </scstep>
  <scstep>
   <time name="total">    2.80    2.80</time>
   <energy>
    <i name="e_fr_energy">    -18.29146771 </i>
    <i name="e_wo_entrp">    -18.28582579 </i>
    <i name="e_0_energy">    -18.28958707 </i>
   </energy>
  </scstep>
  <scstep>
   <time name="total">    2.79    2.79</time>
   <energy>
    <i name="e_fr_energy">    -23.33767468 </i>
    <i name="e_wo_entrp">    -23.32726896 </i>
    <i name="e_0_energy">    -23.33420611 </i>
   </energy>
  </scstep>
  <scstep>
   <time name="total">    2.80    2.81</time>
   <energy>
    <i name="e_fr_energy">    -24.87648014 </i>
    <i name="e_wo_entrp">    -24.86065380 </i>
    <i name="e_0_energy">    -24.87120469 </i>
   </energy>
  </scstep>
  <scstep>
   <time name="total">    2.79    2.79</time>
   <energy>
    <i name="e_fr_energy">    -25.57903484 </i>
    <i name="e_wo_entrp">    -25.56612552 </i>
    <i name="e_0_energy">    -25.57473173 </i>
   </energy>
  </scstep>
  <scstep>
   <time name="total">    2.79    2.79</time>
   <energy>
    <i name="e_fr_energy">    -25.99020340 </i>
    <i name="e_wo_entrp">    -25.97929583 </i>
    <i name="e_0_energy">    -25.98656754 </i>
   </energy>
  </scstep>
  <scstep>
   <time name="total">    2.78    2.78</time>
   <energy>
    <i name="e_fr_energy">    -26.35122040 </i>
    <i name="e_wo_entrp">    -26.34109163 </i>
    <i name="e_0_energy">    -26.34784414 </i>
   </energy>
  </scstep>
  <scstep>
   <time name="total">    2.79    2.79</time>
   <energy>
    <i name="e_fr_energy">    -26.59971821 </i>
    <i name="e_wo_entrp">    -26.58916145 </i>
    <i name="e_0_energy">    -26.59619929 </i>
   </energy>
  </scstep>
  <scstep>
   <time name="total">    2.80    2.80</time>
   <energy>
    <i name="e_fr_energy">    -26.77437558 </i>
    <i name="e_wo_entrp">    -26.76426618 </i>
    <i name="e_0_energy">    -26.77100578 </i>
   </energy>
  </scstep>
  <scstep>
   <time name="total">    2.81    2.81</time>
   <energy>
    <i name="e_fr_energy">    -26.93094159 </i>
    <i name="e_wo_entrp">    -26.92280311 </i>
    <i name="e_0_energy">    -26.92822876 </i>
   </energy>
  </scstep>
  <scstep>
   <time name="total">    2.78    2.78</time>
   <energy>
    <i name="e_fr_energy">    -27.06548432 </i>
    <i name="e_wo_entrp">    -27.06002210 </i>
    <i name="e_0_energy">    -27.06366358 </i>
   </energy>
  </scstep>
  <scstep>
   <time name="total">    2.80    2.80</time>
   <energy>
    <i name="e_fr_energy">    -27.16691664 </i>
    <i name="e_wo_entrp">    -27.16350061 </i>
    <i name="e_0_energy">    -27.16577796 </i>
   </energy>
  </scstep>
  <scstep>
   <time name="total">    2.79    2.79</time>
   <energy>
    <i name="e_fr_energy">    -27.23005201 </i>
    <i name="e_wo_entrp">    -27.22816212 </i>
    <i name="e_0_energy">    -27.22942205 </i>
   </energy>
  </scstep>
  <scstep>
   <time name="total">    2.81    2.81</time>
   <energy>
    <i name="e_fr_energy">    -27.26641149 </i>
    <i name="e_wo_entrp">    -27.26599529 </i>
    <i name="e_0_energy">    -27.26627276 </i>
   </energy>
  </scstep>
  <scstep>
   <time name="total">    2.81    2.81</time>
   <energy>
    <i name="e_fr_energy">    -27.29233215 </i>
    <i name="e_wo_entrp">    -27.29327425 </i>
    <i name="e_0_energy">    -27.29264618 </i>
   </energy>
  </scstep>
  <scstep>
   <time name="total">    2.80    2.80</time>
   <energy>
    <i name="e_fr_energy">    -27.31236184 </i>
    <i name="e_wo_entrp">    -27.31439594 </i>
    <i name="e_0_energy">    -27.31303987 </i>
   </energy>
  </scstep>
  <scstep>
   <time name="total">    2.80    2.80</time>
   <energy>
    <i name="e_fr_energy">    -27.32630390 </i>
    <i name="e_wo_entrp">    -27.32952262 </i>
    <i name="e_0_energy">    -27.32737681 </i>
   </energy>
  </scstep>
  <scstep>
   <time name="total">    2.80    2.80</time>
   <energy>
    <i name="e_fr_energy">    -27.33752367 </i>
    <i name="e_wo_entrp">    -27.34219937 </i>
    <i name="e_0_energy">    -27.33908224 </i>
   </energy>
  </scstep>
  <scstep>
   <time name="total">    2.79    2.79</time>
   <energy>
    <i name="e_fr_energy">    -27.34638225 </i>
    <i name="e_wo_entrp">    -27.35256605 </i>
    <i name="e_0_energy">    -27.34844352 </i>
   </energy>
  </scstep>
  <scstep>
   <time name="total">    2.78    2.78</time>
   <energy>
    <i name="e_fr_energy">    -27.35209069 </i>
    <i name="e_wo_entrp">    -27.35993320 </i>
    <i name="e_0_energy">    -27.35470486 </i>
   </energy>
  </scstep>
  <scstep>
   <time name="total">    2.81    2.81</time>
   <energy>
    <i name="e_fr_energy">    -27.35614956 </i>
    <i name="e_wo_entrp">    -27.36568898 </i>
    <i name="e_0_energy">    -27.35932937 </i>
   </energy>
  </scstep>
  <scstep>
   <time name="total">    2.79    2.79</time>
   <energy>
    <i name="e_fr_energy">    -27.35914821 </i>
    <i name="e_wo_entrp">    -27.37021916 </i>
    <i name="e_0_energy">    -27.36283853 </i>
   </energy>
  </scstep>
  <scstep>
   <time name="total">    2.79    2.79</time>
   <energy>
    <i name="e_fr_energy">    -27.36132351 </i>
    <i name="e_wo_entrp">    -27.37370453 </i>
    <i name="e_0_energy">    -27.36545051 </i>
   </energy>
  </scstep>
  <scstep>
   <time name="total">    2.80    2.80</time>
   <energy>
    <i name="e_fr_energy">    -27.36304014 </i>
    <i name="e_wo_entrp">    -27.37633591 </i>
    <i name="e_0_energy">    -27.36747206 </i>
   </energy>
  </scstep>
  <scstep>
   <time name="total">    2.80    2.80</time>
   <energy>
    <i name="e_fr_energy">    -27.36435204 </i>
    <i name="e_wo_entrp">    -27.37816654 </i>
    <i name="e_0_energy">    -27.36895687 </i>
   </energy>
  </scstep>
  <scstep>
   <time name="total">    2.81    2.81</time>
   <energy>
    <i name="e_fr_energy">    -27.36531712 </i>
    <i name="e_wo_entrp">    -27.37936732 </i>
    <i name="e_0_energy">    -27.37000052 </i>
   </energy>
  </scstep>
  <scstep>
   <time name="total">    2.81    2.81</time>
   <energy>
    <i name="e_fr_energy">    -27.36604339 </i>
    <i name="e_wo_entrp">    -27.38014809 </i>
    <i name="e_0_energy">    -27.37074496 </i>
   </energy>
  </scstep>
  <scstep>
   <time name="total">    2.81    2.81</time>
   <energy>
    <i name="e_fr_energy">    -27.36653634 </i>
    <i name="e_wo_entrp">    -27.38046284 </i>
    <i name="e_0_energy">    -27.37117851 </i>
   </energy>
  </scstep>
  <scstep>
   <time name="total">    2.81    2.81</time>
   <energy>
    <i name="e_fr_energy">    -27.36726170 </i>
    <i name="e_wo_entrp">    -27.38095813 </i>
    <i name="e_0_energy">    -27.37182718 </i>
   </energy>
  </scstep>
  <scstep>
   <time name="total">    2.81    2.81</time>
   <energy>
    <i name="e_fr_energy">    -27.36757205 </i>
    <i name="e_wo_entrp">    -27.38113243 </i>
    <i name="e_0_energy">    -27.37209218 </i>
   </energy>
  </scstep>
  <scstep>
   <time name="total">    2.80    2.80</time>
   <energy>
    <i name="e_fr_energy">    -27.36767515 </i>
    <i name="e_wo_entrp">    -27.38117125 </i>
    <i name="e_0_energy">    -27.37217385 </i>
   </energy>
  </scstep>
  <scstep>
   <time name="total">    2.79    2.79</time>
   <energy>
    <i name="e_fr_energy">    -27.36771054 </i>
    <i name="e_wo_entrp">    -27.38117624 </i>
    <i name="e_0_energy">    -27.37219911 </i>
   </energy>
  </scstep>
  <scstep>
   <time name="total">    2.80    2.80</time>
   <energy>
    <i name="e_fr_energy">    -27.36772554 </i>
    <i name="e_wo_entrp">    -27.38118216 </i>
    <i name="e_0_energy">    -27.37221108 </i>
   </energy>
  </scstep>
  <scstep>
   <time name="total">    3.69    3.69</time>
   <energy>
    <i name="alphaZ">    563.37210189 </i>
    <i name="ewald"> -10075.62109696 </i>
    <i name="hartreedc">  -4638.56833003 </i>
    <i name="XCdc">    229.46453027 </i>
    <i name="pawpsdc">  14089.47169509 </i>
    <i name="pawaedc"> -16631.97213446 </i>
    <i name="eentropy">      0.01345881 </i>
    <i name="bandstr">  -1120.20145664 </i>
    <i name="atom">  17171.67323441 </i>
    <i name="e_fr_energy">    -27.36773252 </i>
    <i name="e_wo_entrp">    -27.38119134 </i>
    <i name="e_0_energy">    -27.37221879 </i>
   </energy>
  </scstep>
  <structure>
   <crystal>
    <varray name="basis" >
     <v>       4.43204666       0.00000000       0.00000000 </v>
     <v>      -0.00000000       7.59798368       0.00000000 </v>
     <v>       0.00000000       0.00000000       4.55550353 </v>
    </varray>
    <i name="volume">    153.40484207 </i>
    <varray name="rec_basis" >
     <v>       0.22562939       0.00000000      -0.00000000 </v>
     <v>       0.00000000       0.13161387       0.00000000 </v>
     <v>      -0.00000000      -0.00000000       0.21951470 </v>
    </varray>
   </crystal>
   <varray name="positions" >
    <v>       0.00000000       0.33720499       0.40107953 </v>
    <v>       0.00000000       0.16279501       0.90107953 </v>
    <v>       0.00000000       0.66279501       0.59892047 </v>
    <v>       0.00000000       0.83720499       0.09892047 </v>
    <v>       0.50000000       0.83720499       0.40107953 </v>
    <v>       0.50000000       0.66279501       0.90107953 </v>
    <v>       0.50000000       0.16279501       0.59892047 </v>
    <v>       0.50000000       0.33720499       0.09892047 </v>
   </varray>
  </structure>
  <varray name="forces" >
   <v>       0.00000000      -0.14466682      -0.06558170 </v>
   <v>      -0.00000000       0.14466682      -0.06558170 </v>
   <v>      -0.00000000       0.14466682       0.06558170 </v>
   <v>       0.00000000      -0.14466682       0.06558170 </v>
   <v>       0.00000000      -0.14466682      -0.06558170 </v>
   <v>      -0.00000000       0.14466682      -0.06558170 </v>
   <v>      -0.00000000       0.14466682       0.06558170 </v>
   <v>       0.00000000      -0.14466682       0.06558170 </v>
  </varray>
  <varray name="stress" >
   <v>     146.09601121       0.00000000       0.00000000 </v>
   <v>       0.00000000     -95.69878642      -0.00000000 </v>
   <v>       0.00000000      -0.00000000       4.32560304 </v>
  </varray>
  <energy>
   <i name="e_fr_energy">    -27.36773252 </i>
   <i name="e_wo_entrp">    -27.38119134 </i>
   <i name="e_0_energy">    -27.37221879 </i>
  </energy>
  <time name="totalsc">  113.83  113.94</time>
  <eigenvalues>
   <array>
    <dimension dim="1">band</dimension>
    <dimension dim="2">kpoint</dimension>
    <dimension dim="3">spin</dimension>
    <field>eigene</field>
    <field>occ</field>
    <set>
     <set comment="spin 1">
      <set comment="kpoint 1">
       <r>  -14.1732    1.0000 </r>
       <r>  -14.1542    1.0000 </r>
       <r>  -14.1500    1.0000 </r>
       <r>  -14.1335    1.0000 </r>
       <r>  -14.1323    1.0000 </r>
       <r>  -14.0985    1.0000 </r>
       <r>  -14.0975    1.0000 </r>
       <r>  -14.0950    1.0000 </r>
       <r>  -14.0813    1.0000 </r>
       <r>  -14.0748    1.0000 </r>
       <r>  -14.0724    1.0000 </r>
       <r>  -14.0590    1.0000 </r>
       <r>  -13.9578    1.0000 </r>
       <r>  -13.9569    1.0000 </r>
       <r>  -13.9485    1.0000 </r>
       <r>  -13.9480    1.0000 </r>
       <r>  -13.9375    1.0000 </r>
       <r>  -13.9290    1.0000 </r>
       <r>  -13.9168    1.0000 </r>
       <r>  -13.9109    1.0000 </r>
       <r>  -13.9007    1.0000 </r>
       <r>  -13.8756    1.0000 </r>
       <r>  -13.8625    1.0000 </r>
       <r>  -13.8566    1.0000 </r>
       <r>  -13.8427    1.0000 </r>
       <r>  -13.8348    1.0000 </r>
       <r>  -13.8139    1.0000 </r>
       <r>  -13.7760    1.0000 </r>
       <r>  -13.7740    1.0000 </r>
       <r>  -13.7602    1.0000 </r>
       <r>  -13.7508    1.0000 </r>
       <r>  -13.7317    1.0000 </r>
       <r>  -13.7275    1.0000 </r>
       <r>  -13.7228    1.0000 </r>
       <r>  -13.7123    1.0000 </r>
       <r>  -13.6977    1.0000 </r>
       <r>  -13.6912    1.0000 </r>
       <r>  -13.6244    1.0000 </r>
       <r>  -13.5981    1.0000 </r>
       <r>  -13.5901    1.0000 </r>
       <r>   -8.1419    1.0000 </r>
       <r>   -6.2529    1.0000 </r>
       <r>   -3.3335    1.0000 </r>
       <r>    0.1562    1.0000 </r>
       <r>    0.2424    1.0000 </r>
       <r>    0.7140    1.0000 </r>
       <r>    0.8261    1.0000 </r>
       <r>    2.4525    1.0000 </r>
       <r>    2.7472    1.0000 </r>
       <r>    2.7641    1.0000 </r>
       <r>    3.5373    1.0000 </r>
       <r>    4.4809    1.0058 </r>
       <r>    6.4215   -0.0000 </r>
       <r>    6.5682   -0.0000 </r>
       <r>    6.5913   -0.0000 </r>
       <r>    6.7041   -0.0000 </r>
       <r>    6.7075   -0.0000 </r>
       <r>    9.6140   -0.0000 </r>
       <r>    9.7298   -0.0000 </r>
       <r>    9.8549   -0.0000 </r>
       <r>   11.2023    0.0000 </r>
       <r>   11.4939    0.0000 </r>
      </set>
      <set comment="kpoint 2">
       <r>  -14.1940    1.0000 </r>
       <r>  -14.1940    1.0000 </r>
       <r>  -14.1565    1.0000 </r>
       <r>  -14.1564    1.0000 </r>
       <r>  -14.1166    1.0000 </r>
       <r>  -14.1166    1.0000 </r>
       <r>  -14.1015    1.0000 </r>
       <r>  -14.1014    1.0000 </r>
       <r>  -14.0862    1.0000 </r>
       <r>  -14.0862    1.0000 </r>
       <r>  -14.0174    1.0000 </r>
       <r>  -14.0173    1.0000 </r>
       <r>  -13.9602    1.0000 </r>
       <r>  -13.9602    1.0000 </r>
       <r>  -13.9577    1.0000 </r>
       <r>  -13.9577    1.0000 </r>
       <r>  -13.9227    1.0000 </r>
       <r>  -13.9226    1.0000 </r>
       <r>  -13.9162    1.0000 </r>
       <r>  -13.9162    1.0000 </r>
       <r>  -13.9116    1.0000 </r>
       <r>  -13.9116    1.0000 </r>
       <r>  -13.8789    1.0000 </r>
       <r>  -13.8788    1.0000 </r>
       <r>  -13.8665    1.0000 </r>
       <r>  -13.8664    1.0000 </r>
       <r>  -13.7876    1.0000 </r>
       <r>  -13.7876    1.0000 </r>
       <r>  -13.7669    1.0000 </r>
       <r>  -13.7669    1.0000 </r>
       <r>  -13.7634    1.0000 </r>
       <r>  -13.7634    1.0000 </r>
       <r>  -13.6987    1.0000 </r>
       <r>  -13.6987    1.0000 </r>
       <r>  -13.6331    1.0000 </r>
       <r>  -13.6331    1.0000 </r>
       <r>  -13.6234    1.0000 </r>
       <r>  -13.6233    1.0000 </r>
       <r>  -13.5933    1.0000 </r>
       <r>  -13.5932    1.0000 </r>
       <r>   -5.8970    1.0000 </r>
       <r>   -5.8970    1.0000 </r>
       <r>   -3.9827    1.0000 </r>
       <r>   -3.9826    1.0000 </r>
       <r>   -1.2077    1.0000 </r>
       <r>   -1.2077    1.0000 </r>
       <r>    2.4233    1.0000 </r>
       <r>    2.4233    1.0000 </r>
       <r>    2.8474    1.0000 </r>
       <r>    2.8474    1.0000 </r>
       <r>    5.4635   -0.0003 </r>
       <r>    5.4635   -0.0003 </r>
       <r>    5.7219   -0.0000 </r>
       <r>    5.7220   -0.0000 </r>
       <r>    6.5620   -0.0000 </r>
       <r>    6.5620   -0.0000 </r>
       <r>    8.8575   -0.0000 </r>
       <r>    8.8575   -0.0000 </r>
       <r>    9.0853   -0.0000 </r>
       <r>    9.0895   -0.0000 </r>
       <r>    9.9811   -0.0000 </r>
       <r>    9.9812   -0.0000 </r>
      </set>
      <set comment="kpoint 3">
       <r>  -14.1568    1.0000 </r>
       <r>  -14.1565    1.0000 </r>
       <r>  -14.1531    1.0000 </r>
       <r>  -14.1517    1.0000 </r>
       <r>  -14.1074    1.0000 </r>
       <r>  -14.1072    1.0000 </r>
       <r>  -14.0957    1.0000 </r>
       <r>  -14.0952    1.0000 </r>
       <r>  -14.0774    1.0000 </r>
       <r>  -14.0771    1.0000 </r>
       <r>  -14.0671    1.0000 </r>
       <r>  -14.0662    1.0000 </r>
       <r>  -13.9773    1.0000 </r>
       <r>  -13.9766    1.0000 </r>
       <r>  -13.9542    1.0000 </r>
       <r>  -13.9531    1.0000 </r>
       <r>  -13.9437    1.0000 </r>
       <r>  -13.9435    1.0000 </r>
       <r>  -13.9228    1.0000 </r>
       <r>  -13.9225    1.0000 </r>
       <r>  -13.8579    1.0000 </r>
       <r>  -13.8575    1.0000 </r>
       <r>  -13.8398    1.0000 </r>
       <r>  -13.8387    1.0000 </r>
       <r>  -13.8096    1.0000 </r>
       <r>  -13.8076    1.0000 </r>
       <r>  -13.8018    1.0000 </r>
       <r>  -13.8014    1.0000 </r>
       <r>  -13.7904    1.0000 </r>
       <r>  -13.7902    1.0000 </r>
       <r>  -13.7764    1.0000 </r>
       <r>  -13.7759    1.0000 </r>
       <r>  -13.7055    1.0000 </r>
       <r>  -13.7033    1.0000 </r>
       <r>  -13.7031    1.0000 </r>
       <r>  -13.7026    1.0000 </r>
       <r>  -13.6582    1.0000 </r>
       <r>  -13.6567    1.0000 </r>
       <r>  -13.5939    1.0000 </r>
       <r>  -13.5938    1.0000 </r>
       <r>   -7.4683    1.0000 </r>
       <r>   -7.4680    1.0000 </r>
       <r>   -0.8984    1.0000 </r>
       <r>   -0.8972    1.0000 </r>
       <r>    0.5072    1.0000 </r>
       <r>    0.5073    1.0000 </r>
       <r>    1.4793    1.0000 </r>
       <r>    1.4797    1.0000 </r>
       <r>    2.0672    1.0000 </r>
       <r>    2.0683    1.0000 </r>
       <r>    2.7289    1.0000 </r>
       <r>    2.7292    1.0000 </r>
       <r>    7.5958   -0.0000 </r>
       <r>    7.5960   -0.0000 </r>
       <r>    8.4152   -0.0000 </r>
       <r>    8.4162   -0.0000 </r>
       <r>    8.9093   -0.0000 </r>
       <r>    8.9111   -0.0000 </r>
       <r>   10.3358    0.0000 </r>
       <r>   10.3364    0.0000 </r>
       <r>   10.4781    0.0000 </r>
       <r>   10.4784    0.0000 </r>
      </set>
      <set comment="kpoint 4">
       <r>  -14.1729    1.0000 </r>
       <r>  -14.1729    1.0000 </r>
       <r>  -14.1722    1.0000 </r>
       <r>  -14.1721    1.0000 </r>
       <r>  -14.0965    1.0000 </r>
       <r>  -14.0964    1.0000 </r>
       <r>  -14.0961    1.0000 </r>
       <r>  -14.0961    1.0000 </r>
       <r>  -14.0608    1.0000 </r>
       <r>  -14.0607    1.0000 </r>
       <r>  -14.0606    1.0000 </r>
       <r>  -14.0605    1.0000 </r>
       <r>  -14.0035    1.0000 </r>
       <r>  -14.0034    1.0000 </r>
       <r>  -14.0033    1.0000 </r>
       <r>  -14.0033    1.0000 </r>
       <r>  -13.9236    1.0000 </r>
       <r>  -13.9236    1.0000 </r>
       <r>  -13.9224    1.0000 </r>
       <r>  -13.9224    1.0000 </r>
       <r>  -13.8691    1.0000 </r>
       <r>  -13.8690    1.0000 </r>
       <r>  -13.8684    1.0000 </r>
       <r>  -13.8684    1.0000 </r>
       <r>  -13.8094    1.0000 </r>
       <r>  -13.8093    1.0000 </r>
       <r>  -13.8089    1.0000 </r>
       <r>  -13.8089    1.0000 </r>
       <r>  -13.7481    1.0000 </r>
       <r>  -13.7481    1.0000 </r>
       <r>  -13.7474    1.0000 </r>
       <r>  -13.7474    1.0000 </r>
       <r>  -13.6925    1.0000 </r>
       <r>  -13.6925    1.0000 </r>
       <r>  -13.6923    1.0000 </r>
       <r>  -13.6923    1.0000 </r>
       <r>  -13.6020    1.0000 </r>
       <r>  -13.6019    1.0000 </r>
       <r>  -13.6012    1.0000 </r>
       <r>  -13.6012    1.0000 </r>
       <r>   -5.2161    1.0000 </r>
       <r>   -5.2161    1.0000 </r>
       <r>   -5.2158    1.0000 </r>
       <r>   -5.2158    1.0000 </r>
       <r>    1.3015    1.0000 </r>
       <r>    1.3016    1.0000 </r>
       <r>    1.3024    1.0000 </r>
       <r>    1.3025    1.0000 </r>
       <r>    2.8892    1.0000 </r>
       <r>    2.8892    1.0000 </r>
       <r>    2.8895    1.0000 </r>
       <r>    2.8895    1.0000 </r>
       <r>    6.2801   -0.0000 </r>
       <r>    6.2801   -0.0000 </r>
       <r>    6.2806   -0.0000 </r>
       <r>    6.2807   -0.0000 </r>
       <r>   10.4330    0.0000 </r>
       <r>   10.4330    0.0000 </r>
       <r>   10.4340    0.0000 </r>
       <r>   10.4340    0.0000 </r>
       <r>   11.2400    0.0000 </r>
       <r>   15.9725    0.0000 </r>
      </set>
      <set comment="kpoint 5">
       <r>  -14.1906    1.0000 </r>
       <r>  -14.1893    1.0000 </r>
       <r>  -14.1562    1.0000 </r>
       <r>  -14.1551    1.0000 </r>
       <r>  -14.1291    1.0000 </r>
       <r>  -14.1277    1.0000 </r>
       <r>  -14.0789    1.0000 </r>
       <r>  -14.0779    1.0000 </r>
       <r>  -14.0698    1.0000 </r>
       <r>  -14.0690    1.0000 </r>
       <r>  -14.0669    1.0000 </r>
       <r>  -14.0659    1.0000 </r>
       <r>  -14.0213    1.0000 </r>
       <r>  -14.0198    1.0000 </r>
       <r>  -14.0174    1.0000 </r>
       <r>  -14.0159    1.0000 </r>
       <r>  -13.9539    1.0000 </r>
       <r>  -13.9523    1.0000 </r>
       <r>  -13.9099    1.0000 </r>
       <r>  -13.9094    1.0000 </r>
       <r>  -13.8585    1.0000 </r>
       <r>  -13.8575    1.0000 </r>
       <r>  -13.8024    1.0000 </r>
       <r>  -13.8019    1.0000 </r>
       <r>  -13.7988    1.0000 </r>
       <r>  -13.7974    1.0000 </r>
       <r>  -13.7654    1.0000 </r>
       <r>  -13.7637    1.0000 </r>
       <r>  -13.7618    1.0000 </r>
       <r>  -13.7607    1.0000 </r>
       <r>  -13.7064    1.0000 </r>
       <r>  -13.7048    1.0000 </r>
       <r>  -13.6823    1.0000 </r>
       <r>  -13.6822    1.0000 </r>
       <r>  -13.6803    1.0000 </r>
       <r>  -13.6801    1.0000 </r>
       <r>  -13.6800    1.0000 </r>
       <r>  -13.6795    1.0000 </r>
       <r>  -13.6512    1.0000 </r>
       <r>  -13.6504    1.0000 </r>
       <r>   -6.0144    1.0000 </r>
       <r>   -5.9996    1.0000 </r>
       <r>   -4.1835    1.0000 </r>
       <r>   -4.1762    1.0000 </r>
       <r>   -0.9175    1.0000 </r>
       <r>   -0.9109    1.0000 </r>
       <r>    3.1810    1.0000 </r>
       <r>    3.1831    1.0000 </r>
       <r>    3.8960    1.0000 </r>
       <r>    4.3088    1.0001 </r>
       <r>    4.4959    1.0074 </r>
       <r>    4.4983    1.0077 </r>
       <r>    5.5434   -0.0000 </r>
       <r>    5.6730   -0.0000 </r>
       <r>    5.6776   -0.0000 </r>
       <r>    5.7968   -0.0000 </r>
       <r>    7.4870   -0.0000 </r>
       <r>    7.5476   -0.0000 </r>
       <r>   10.1007   -0.0000 </r>
       <r>   10.1020   -0.0000 </r>
       <r>   10.5855    0.0000 </r>
       <r>   10.9136    0.0000 </r>
      </set>
      <set comment="kpoint 6">
       <r>  -14.1747    1.0000 </r>
       <r>  -14.1746    1.0000 </r>
       <r>  -14.1735    1.0000 </r>
       <r>  -14.1735    1.0000 </r>
       <r>  -14.1190    1.0000 </r>
       <r>  -14.1190    1.0000 </r>
       <r>  -14.1185    1.0000 </r>
       <r>  -14.1184    1.0000 </r>
       <r>  -14.1051    1.0000 </r>
       <r>  -14.1051    1.0000 </r>
       <r>  -14.1039    1.0000 </r>
       <r>  -14.1039    1.0000 </r>
       <r>  -14.0255    1.0000 </r>
       <r>  -14.0254    1.0000 </r>
       <r>  -14.0241    1.0000 </r>
       <r>  -14.0239    1.0000 </r>
       <r>  -13.9167    1.0000 </r>
       <r>  -13.9165    1.0000 </r>
       <r>  -13.9161    1.0000 </r>
       <r>  -13.9159    1.0000 </r>
       <r>  -13.8210    1.0000 </r>
       <r>  -13.8210    1.0000 </r>
       <r>  -13.8197    1.0000 </r>
       <r>  -13.8197    1.0000 </r>
       <r>  -13.7960    1.0000 </r>
       <r>  -13.7960    1.0000 </r>
       <r>  -13.7955    1.0000 </r>
       <r>  -13.7955    1.0000 </r>
       <r>  -13.7396    1.0000 </r>
       <r>  -13.7395    1.0000 </r>
       <r>  -13.7380    1.0000 </r>
       <r>  -13.7380    1.0000 </r>
       <r>  -13.6612    1.0000 </r>
       <r>  -13.6611    1.0000 </r>
       <r>  -13.6605    1.0000 </r>
       <r>  -13.6604    1.0000 </r>
       <r>  -13.6164    1.0000 </r>
       <r>  -13.6164    1.0000 </r>
       <r>  -13.6155    1.0000 </r>
       <r>  -13.6154    1.0000 </r>
       <r>   -3.7955    1.0000 </r>
       <r>   -3.7955    1.0000 </r>
       <r>   -3.7559    1.0000 </r>
       <r>   -3.7559    1.0000 </r>
       <r>   -1.8672    1.0000 </r>
       <r>   -1.8671    1.0000 </r>
       <r>   -1.8261    1.0000 </r>
       <r>   -1.8260    1.0000 </r>
       <r>    1.8515    1.0000 </r>
       <r>    1.8515    1.0000 </r>
       <r>    1.8703    1.0000 </r>
       <r>    1.8703    1.0000 </r>
       <r>    9.2781   -0.0000 </r>
       <r>    9.2782   -0.0000 </r>
       <r>    9.2876   -0.0000 </r>
       <r>    9.2876   -0.0000 </r>
       <r>   10.6586    0.0000 </r>
       <r>   10.6587    0.0000 </r>
       <r>   10.6646    0.0000 </r>
       <r>   10.6647    0.0000 </r>
       <r>   13.8152    0.0000 </r>
       <r>   27.2495    0.0000 </r>
      </set>
      <set comment="kpoint 7">
       <r>  -14.1707    1.0000 </r>
       <r>  -14.1706    1.0000 </r>
       <r>  -14.1697    1.0000 </r>
       <r>  -14.1696    1.0000 </r>
       <r>  -14.1067    1.0000 </r>
       <r>  -14.1056    1.0000 </r>
       <r>  -14.1050    1.0000 </r>
       <r>  -14.1039    1.0000 </r>
       <r>  -14.0760    1.0000 </r>
       <r>  -14.0754    1.0000 </r>
       <r>  -14.0744    1.0000 </r>
       <r>  -14.0738    1.0000 </r>
       <r>  -14.0188    1.0000 </r>
       <r>  -14.0173    1.0000 </r>
       <r>  -14.0166    1.0000 </r>
       <r>  -14.0151    1.0000 </r>
       <r>  -13.9370    1.0000 </r>
       <r>  -13.9367    1.0000 </r>
       <r>  -13.9362    1.0000 </r>
       <r>  -13.9359    1.0000 </r>
       <r>  -13.8243    1.0000 </r>
       <r>  -13.8238    1.0000 </r>
       <r>  -13.8230    1.0000 </r>
       <r>  -13.8225    1.0000 </r>
       <r>  -13.7865    1.0000 </r>
       <r>  -13.7851    1.0000 </r>
       <r>  -13.7845    1.0000 </r>
       <r>  -13.7831    1.0000 </r>
       <r>  -13.7182    1.0000 </r>
       <r>  -13.7178    1.0000 </r>
       <r>  -13.7172    1.0000 </r>
       <r>  -13.7168    1.0000 </r>
       <r>  -13.6941    1.0000 </r>
       <r>  -13.6933    1.0000 </r>
       <r>  -13.6932    1.0000 </r>
       <r>  -13.6924    1.0000 </r>
       <r>  -13.6633    1.0000 </r>
       <r>  -13.6627    1.0000 </r>
       <r>  -13.6623    1.0000 </r>
       <r>  -13.6617    1.0000 </r>
       <r>   -5.3426    1.0000 </r>
       <r>   -5.3420    1.0000 </r>
       <r>   -5.3285    1.0000 </r>
       <r>   -5.3279    1.0000 </r>
       <r>    1.6631    1.0000 </r>
       <r>    1.6635    1.0000 </r>
       <r>    1.6750    1.0000 </r>
       <r>    1.6755    1.0000 </r>
       <r>    3.7336    1.0000 </r>
       <r>    3.7352    1.0000 </r>
       <r>    3.7369    1.0000 </r>
       <r>    3.7386    1.0000 </r>
       <r>    4.7041    1.0229 </r>
       <r>    4.7046    1.0224 </r>
       <r>    5.1217   -0.0329 </r>
       <r>    5.1220   -0.0330 </r>
       <r>   10.3217    0.0000 </r>
       <r>   10.3219    0.0000 </r>
       <r>   10.3450    0.0000 </r>
       <r>   10.3455    0.0000 </r>
       <r>   13.4573    0.0000 </r>
       <r>   16.8848    0.0000 </r>
      </set>
      <set comment="kpoint 8">
       <r>  -14.1534    1.0000 </r>
       <r>  -14.1534    1.0000 </r>
       <r>  -14.1517    1.0000 </r>
       <r>  -14.1517    1.0000 </r>
       <r>  -14.1269    1.0000 </r>
       <r>  -14.1269    1.0000 </r>
       <r>  -14.1258    1.0000 </r>
       <r>  -14.1258    1.0000 </r>
       <r>  -14.0867    1.0000 </r>
       <r>  -14.0867    1.0000 </r>
       <r>  -14.0860    1.0000 </r>
       <r>  -14.0859    1.0000 </r>
       <r>  -14.0853    1.0000 </r>
       <r>  -14.0853    1.0000 </r>
       <r>  -14.0841    1.0000 </r>
       <r>  -14.0841    1.0000 </r>
       <r>  -13.8652    1.0000 </r>
       <r>  -13.8652    1.0000 </r>
       <r>  -13.8642    1.0000 </r>
       <r>  -13.8641    1.0000 </r>
       <r>  -13.8554    1.0000 </r>
       <r>  -13.8554    1.0000 </r>
       <r>  -13.8547    1.0000 </r>
       <r>  -13.8546    1.0000 </r>
       <r>  -13.7638    1.0000 </r>
       <r>  -13.7637    1.0000 </r>
       <r>  -13.7634    1.0000 </r>
       <r>  -13.7634    1.0000 </r>
       <r>  -13.7552    1.0000 </r>
       <r>  -13.7552    1.0000 </r>
       <r>  -13.7541    1.0000 </r>
       <r>  -13.7541    1.0000 </r>
       <r>  -13.6631    1.0000 </r>
       <r>  -13.6631    1.0000 </r>
       <r>  -13.6625    1.0000 </r>
       <r>  -13.6625    1.0000 </r>
       <r>  -13.6197    1.0000 </r>
       <r>  -13.6197    1.0000 </r>
       <r>  -13.6184    1.0000 </r>
       <r>  -13.6184    1.0000 </r>
       <r>   -3.4407    1.0000 </r>
       <r>   -3.4406    1.0000 </r>
       <r>   -3.4396    1.0000 </r>
       <r>   -3.4395    1.0000 </r>
       <r>   -2.5835    1.0000 </r>
       <r>   -2.5835    1.0000 </r>
       <r>   -2.5819    1.0000 </r>
       <r>   -2.5818    1.0000 </r>
       <r>    3.3469    1.0000 </r>
       <r>    3.3471    1.0000 </r>
       <r>    3.3473    1.0000 </r>
       <r>    3.3474    1.0000 </r>
       <r>    6.1225   -0.0000 </r>
       <r>    6.1225   -0.0000 </r>
       <r>    6.1242   -0.0000 </r>
       <r>    6.1242   -0.0000 </r>
       <r>   13.9692    0.0000 </r>
       <r>   13.9693    0.0000 </r>
       <r>   13.9793    0.0000 </r>
       <r>   13.9852    0.0000 </r>
       <r>   13.9923    0.0000 </r>
       <r>   13.9923    0.0000 </r>
      </set>
     </set>
    </set>
   </array>
  </eigenvalues>
  <separator name="orbital magnetization" >
   <v name="MAGDIPOLOUT">      0.00000000      0.00000000      0.00000000</v>
  </separator>
  <dos>
   <i name="efermi">      4.90003488 </i>
   <total>
    <array>
     <dimension dim="1">gridpoints</dimension>
     <dimension dim="2">spin</dimension>
     <field>energy</field>
     <field>total</field>
     <field>integrated</field>
     <set>
      <set comment="spin 1">
       <r>   -16.2661     0.0000     0.0000 </r>
       <r>   -16.1142     0.0000     0.0000 </r>
       <r>   -15.9622     0.0000     0.0000 </r>
       <r>   -15.8103    -0.0000    -0.0000 </r>
       <r>   -15.6583    -0.0000    -0.0000 </r>
       <r>   -15.5063    -0.0000    -0.0000 </r>
       <r>   -15.3544    -0.0000    -0.0000 </r>
       <r>   -15.2024    -0.0000    -0.0000 </r>
       <r>   -15.0505    -0.0000    -0.0000 </r>
       <r>   -14.8985    -0.0001    -0.0000 </r>
       <r>   -14.7465    -0.0113    -0.0017 </r>
       <r>   -14.5946    -0.3902    -0.0610 </r>
       <r>   -14.4426    -3.3302    -0.5671 </r>
       <r>   -14.2907     2.8572    -0.1329 </r>
       <r>   -14.1387    64.3858     9.6511 </r>
       <r>   -13.9868   122.1781    28.2172 </r>
       <r>   -13.8348   129.7366    47.9319 </r>
       <r>   -13.6828   132.9068    68.1283 </r>
       <r>   -13.5309    74.1904    79.4023 </r>
       <r>   -13.3789     8.1909    80.6469 </r>
       <r>   -13.2270    -3.5897    80.1015 </r>
       <r>   -13.0750    -0.6409    80.0041 </r>
       <r>   -12.9230    -0.0264    80.0000 </r>
       <r>   -12.7711    -0.0003    80.0000 </r>
       <r>   -12.6191    -0.0000    80.0000 </r>
       <r>   -12.4672    -0.0000    80.0000 </r>
       <r>   -12.3152    -0.0000    80.0000 </r>
       <r>   -12.1632     0.0000    80.0000 </r>
       <r>   -12.0113     0.0000    80.0000 </r>
       <r>   -11.8593     0.0000    80.0000 </r>
       <r>   -11.7074     0.0000    80.0000 </r>
       <r>   -11.5554     0.0000    80.0000 </r>
       <r>   -11.4034     0.0000    80.0000 </r>
       <r>   -11.2515     0.0000    80.0000 </r>
       <r>   -11.0995     0.0000    80.0000 </r>
       <r>   -10.9476     0.0000    80.0000 </r>
       <r>   -10.7956     0.0000    80.0000 </r>
       <r>   -10.6436     0.0000    80.0000 </r>
       <r>   -10.4917     0.0000    80.0000 </r>
       <r>   -10.3397     0.0000    80.0000 </r>
       <r>   -10.1878     0.0000    80.0000 </r>
       <r>   -10.0358     0.0000    80.0000 </r>
       <r>    -9.8838    -0.0000    80.0000 </r>
       <r>    -9.7319    -0.0000    80.0000 </r>
       <r>    -9.5799    -0.0000    80.0000 </r>
       <r>    -9.4280    -0.0000    80.0000 </r>
       <r>    -9.2760    -0.0000    80.0000 </r>
       <r>    -9.1241    -0.0000    80.0000 </r>
       <r>    -8.9721    -0.0000    80.0000 </r>
       <r>    -8.8201    -0.0000    80.0000 </r>
       <r>    -8.6682    -0.0010    79.9998 </r>
       <r>    -8.5162    -0.0184    79.9970 </r>
       <r>    -8.3643    -0.0351    79.9917 </r>
       <r>    -8.2123     0.4190    80.0554 </r>
       <r>    -8.0603     0.9765    80.2038 </r>
       <r>    -7.9084     0.3487    80.2567 </r>
       <r>    -7.7564    -0.1272    80.2374 </r>
       <r>    -7.6045     0.2373    80.2735 </r>
       <r>    -7.4525     1.7078    80.5330 </r>
       <r>    -7.3005     1.4252    80.7496 </r>
       <r>    -7.1486     0.0790    80.7616 </r>
       <r>    -6.9966    -0.0692    80.7511 </r>
       <r>    -6.8447    -0.0071    80.7500 </r>
       <r>    -6.6927    -0.0066    80.7490 </r>
       <r>    -6.5407    -0.0450    80.7422 </r>
       <r>    -6.3888     0.0903    80.7559 </r>
       <r>    -6.2368     0.7219    80.8656 </r>
       <r>    -6.0849     1.4748    81.0897 </r>
       <r>    -5.9329     3.2019    81.5762 </r>
       <r>    -5.7809     2.5846    81.9690 </r>
       <r>    -5.6290     0.1190    81.9871 </r>
       <r>    -5.4770     0.1263    82.0063 </r>
       <r>    -5.3251     4.2297    82.6490 </r>
       <r>    -5.1731     6.7124    83.6690 </r>
       <r>    -5.0212     2.4851    84.0467 </r>
       <r>    -4.8692    -0.1787    84.0195 </r>
       <r>    -4.7172    -0.1217    84.0010 </r>
       <r>    -4.5653    -0.0401    83.9949 </r>
       <r>    -4.4133    -0.0970    83.9802 </r>
       <r>    -4.2614     0.6227    84.0748 </r>
       <r>    -4.1094     2.1526    84.4019 </r>
       <r>    -3.9574     2.6822    84.8095 </r>
       <r>    -3.8055     3.7138    85.3738 </r>
       <r>    -3.6535     3.4241    85.8941 </r>
       <r>    -3.5016     2.5794    86.2861 </r>
       <r>    -3.3496     4.4105    86.9563 </r>
       <r>    -3.1976     2.0882    87.2737 </r>
       <r>    -3.0457    -0.0651    87.2638 </r>
       <r>    -2.8937    -0.2469    87.2262 </r>
       <r>    -2.7418     0.2299    87.2612 </r>
       <r>    -2.5898     3.0187    87.7199 </r>
       <r>    -2.4378     3.2772    88.2179 </r>
       <r>    -2.2859     0.3698    88.2741 </r>
       <r>    -2.1339    -0.3329    88.2235 </r>
       <r>    -1.9820     0.5283    88.3038 </r>
       <r>    -1.8300     3.3888    88.8187 </r>
       <r>    -1.6780     2.8031    89.2447 </r>
       <r>    -1.5261     0.1087    89.2612 </r>
       <r>    -1.3741    -0.0671    89.2510 </r>
       <r>    -1.2222     1.2801    89.4455 </r>
       <r>    -1.0702     1.8932    89.7332 </r>
       <r>    -0.9182     3.1594    90.2133 </r>
       <r>    -0.7663     3.2711    90.7104 </r>
       <r>    -0.6143     0.4545    90.7795 </r>
       <r>    -0.4624    -0.1692    90.7537 </r>
       <r>    -0.3104    -0.0283    90.7494 </r>
       <r>    -0.1585    -0.0493    90.7419 </r>
       <r>    -0.0065     0.0027    90.7424 </r>
       <r>     0.1455     0.9792    90.8912 </r>
       <r>     0.2974     1.7358    91.1549 </r>
       <r>     0.4494     1.5204    91.3860 </r>
       <r>     0.6013     2.0473    91.6971 </r>
       <r>     0.7533     1.9057    91.9867 </r>
       <r>     0.9053     1.4205    92.2025 </r>
       <r>     1.0572     0.1481    92.2250 </r>
       <r>     1.2092     1.0448    92.3838 </r>
       <r>     1.3611     4.0787    93.0036 </r>
       <r>     1.5131     3.9136    93.5983 </r>
       <r>     1.6651     4.1438    94.2280 </r>
       <r>     1.8170     5.3080    95.0346 </r>
       <r>     1.9690     4.5992    95.7335 </r>
       <r>     2.1209     2.5909    96.1272 </r>
       <r>     2.2729     0.9851    96.2769 </r>
       <r>     2.4249     1.9828    96.5782 </r>
       <r>     2.5768     2.3636    96.9374 </r>
       <r>     2.7288     3.7931    97.5138 </r>
       <r>     2.8807     7.9646    98.7241 </r>
       <r>     3.0327     5.0459    99.4908 </r>
       <r>     3.1847     2.0358    99.8002 </r>
       <r>     3.3366     4.1879   100.4366 </r>
       <r>     3.4886     3.7957   101.0134 </r>
       <r>     3.6405     2.4375   101.3838 </r>
       <r>     3.7925     4.1914   102.0207 </r>
       <r>     3.9444     2.8363   102.4517 </r>
       <r>     4.0964     0.3614   102.5066 </r>
       <r>     4.2484     0.2274   102.5412 </r>
       <r>     4.4003     1.8003   102.8148 </r>
       <r>     4.5523     3.3679   103.3265 </r>
       <r>     4.7042     2.9282   103.7715 </r>
       <r>     4.8562     1.3898   103.9827 </r>
       <r>     5.0082     0.5067   104.0597 </r>
       <r>     5.1601     1.6749   104.3142 </r>
       <r>     5.3121     1.2303   104.5012 </r>
       <r>     5.4640     1.7732   104.7706 </r>
       <r>     5.6160     3.9475   105.3705 </r>
       <r>     5.7680     4.9291   106.1195 </r>
       <r>     5.9199     2.3351   106.4743 </r>
       <r>     6.0719     1.9885   106.7765 </r>
       <r>     6.2238     5.5543   107.6205 </r>
       <r>     6.3758     5.3858   108.4390 </r>
       <r>     6.5278     4.2385   109.0831 </r>
       <r>     6.6797     5.0738   109.8541 </r>
       <r>     6.8317     2.6225   110.2526 </r>
       <r>     6.9836     0.1302   110.2724 </r>
       <r>     7.1356    -0.1758   110.2456 </r>
       <r>     7.2876    -0.1534   110.2223 </r>
       <r>     7.4395     0.9114   110.3608 </r>
       <r>     7.5915     3.4258   110.8814 </r>
       <r>     7.7434     2.4297   111.2506 </r>
       <r>     7.8954     0.1241   111.2695 </r>
       <r>     8.0474    -0.1577   111.2455 </r>
       <r>     8.1993    -0.0745   111.2342 </r>
       <r>     8.3513     0.8973   111.3706 </r>
       <r>     8.5032     1.8754   111.6555 </r>
       <r>     8.6552     0.5205   111.7346 </r>
       <r>     8.8071     1.3826   111.9447 </r>
       <r>     8.9591     3.9604   112.5466 </r>
       <r>     9.1111     3.4865   113.0764 </r>
       <r>     9.2630     3.9535   113.6771 </r>
       <r>     9.4150     3.3951   114.1930 </r>
       <r>     9.5669     1.0278   114.3492 </r>
       <r>     9.7189     1.5051   114.5779 </r>
       <r>     9.8709     2.2593   114.9213 </r>
       <r>    10.0228     3.1267   115.3964 </r>
       <r>    10.1748     3.1666   115.8776 </r>
       <r>    10.3267     6.2154   116.8221 </r>
       <r>    10.4787    10.4193   118.4054 </r>
       <r>    10.6307     7.7996   119.5906 </r>
       <r>    10.7826     4.1756   120.2251 </r>
       <r>    10.9346     1.2940   120.4218 </r>
       <r>    11.0865     0.7261   120.5321 </r>
       <r>    11.2385     1.6500   120.7828 </r>
       <r>    11.3905     1.6216   121.0293 </r>
       <r>    11.5424     1.0321   121.1861 </r>
       <r>    11.6944     0.4696   121.2574 </r>
       <r>    11.8463    -0.0226   121.2540 </r>
       <r>    11.9983    -0.0247   121.2503 </r>
       <r>    12.1503    -0.0017   121.2500 </r>
       <r>    12.3022    -0.0000   121.2500 </r>
       <r>    12.4542    -0.0000   121.2500 </r>
       <r>    12.6061    -0.0000   121.2500 </r>
       <r>    12.7581    -0.0000   121.2500 </r>
       <r>    12.9100    -0.0006   121.2499 </r>
       <r>    13.0620    -0.0136   121.2478 </r>
       <r>    13.2140    -0.0443   121.2411 </r>
       <r>    13.3659     0.3067   121.2877 </r>
       <r>    13.5179     0.9039   121.4251 </r>
       <r>    13.6698     0.3472   121.4778 </r>
       <r>    13.8218     1.1514   121.6528 </r>
       <r>    13.9738     5.2443   122.4497 </r>
       <r>    14.1257     4.9752   123.2058 </r>
       <r>    14.2777     0.5756   123.2932 </r>
       <r>    14.4296    -0.2503   123.2552 </r>
       <r>    14.5816    -0.0331   123.2501 </r>
       <r>    14.7336    -0.0009   123.2500 </r>
       <r>    14.8855    -0.0000   123.2500 </r>
       <r>    15.0375    -0.0000   123.2500 </r>
       <r>    15.1894    -0.0000   123.2500 </r>
       <r>    15.3414    -0.0001   123.2500 </r>
       <r>    15.4934    -0.0029   123.2495 </r>
       <r>    15.6453    -0.0322   123.2446 </r>
       <r>    15.7973     0.0236   123.2482 </r>
       <r>    15.9492     0.6734   123.3506 </r>
       <r>    16.1012     0.8823   123.4846 </r>
       <r>    16.2532     0.1531   123.5079 </r>
       <r>    16.4051    -0.0475   123.5007 </r>
       <r>    16.5571    -0.0393   123.4947 </r>
       <r>    16.7090     0.0224   123.4981 </r>
       <r>    16.8610     0.6706   123.6000 </r>
       <r>    17.0129     0.8842   123.7344 </r>
       <r>    17.1649     0.1551   123.7579 </r>
       <r>    17.3169    -0.0447   123.7512 </r>
       <r>    17.4688    -0.0073   123.7500 </r>
       <r>    17.6208    -0.0002   123.7500 </r>
       <r>    17.7727    -0.0000   123.7500 </r>
       <r>    17.9247    -0.0000   123.7500 </r>
       <r>    18.0767    -0.0000   123.7500 </r>
       <r>    18.2286    -0.0000   123.7500 </r>
       <r>    18.3806     0.0000   123.7500 </r>
       <r>    18.5325     0.0000   123.7500 </r>
       <r>    18.6845     0.0000   123.7500 </r>
       <r>    18.8365     0.0000   123.7500 </r>
       <r>    18.9884     0.0000   123.7500 </r>
       <r>    19.1404     0.0000   123.7500 </r>
       <r>    19.2923     0.0000   123.7500 </r>
       <r>    19.4443     0.0000   123.7500 </r>
       <r>    19.5963     0.0000   123.7500 </r>
       <r>    19.7482     0.0000   123.7500 </r>
       <r>    19.9002     0.0000   123.7500 </r>
       <r>    20.0521     0.0000   123.7500 </r>
       <r>    20.2041     0.0000   123.7500 </r>
       <r>    20.3561     0.0000   123.7500 </r>
       <r>    20.5080     0.0000   123.7500 </r>
       <r>    20.6600     0.0000   123.7500 </r>
       <r>    20.8119     0.0000   123.7500 </r>
       <r>    20.9639     0.0000   123.7500 </r>
       <r>    21.1159     0.0000   123.7500 </r>
       <r>    21.2678     0.0000   123.7500 </r>
       <r>    21.4198     0.0000   123.7500 </r>
       <r>    21.5717     0.0000   123.7500 </r>
       <r>    21.7237     0.0000   123.7500 </r>
       <r>    21.8756     0.0000   123.7500 </r>
       <r>    22.0276     0.0000   123.7500 </r>
       <r>    22.1796     0.0000   123.7500 </r>
       <r>    22.3315     0.0000   123.7500 </r>
       <r>    22.4835     0.0000   123.7500 </r>
       <r>    22.6354     0.0000   123.7500 </r>
       <r>    22.7874     0.0000   123.7500 </r>
       <r>    22.9394     0.0000   123.7500 </r>
       <r>    23.0913     0.0000   123.7500 </r>
       <r>    23.2433     0.0000   123.7500 </r>
       <r>    23.3952     0.0000   123.7500 </r>
       <r>    23.5472     0.0000   123.7500 </r>
       <r>    23.6992     0.0000   123.7500 </r>
       <r>    23.8511     0.0000   123.7500 </r>
       <r>    24.0031     0.0000   123.7500 </r>
       <r>    24.1550     0.0000   123.7500 </r>
       <r>    24.3070     0.0000   123.7500 </r>
       <r>    24.4590     0.0000   123.7500 </r>
       <r>    24.6109     0.0000   123.7500 </r>
       <r>    24.7629     0.0000   123.7500 </r>
       <r>    24.9148     0.0000   123.7500 </r>
       <r>    25.0668     0.0000   123.7500 </r>
       <r>    25.2188     0.0000   123.7500 </r>
       <r>    25.3707     0.0000   123.7500 </r>
       <r>    25.5227    -0.0000   123.7500 </r>
       <r>    25.6746    -0.0000   123.7500 </r>
       <r>    25.8266    -0.0000   123.7500 </r>
       <r>    25.9785    -0.0000   123.7500 </r>
       <r>    26.1305    -0.0000   123.7500 </r>
       <r>    26.2825    -0.0000   123.7500 </r>
       <r>    26.4344    -0.0000   123.7500 </r>
       <r>    26.5864    -0.0000   123.7500 </r>
       <r>    26.7383    -0.0015   123.7498 </r>
       <r>    26.8903    -0.0225   123.7464 </r>
       <r>    27.0423    -0.0228   123.7429 </r>
       <r>    27.1942     0.5006   123.8189 </r>
       <r>    27.3462     0.9626   123.9652 </r>
       <r>    27.4981     0.2871   124.0089 </r>
       <r>    27.6501    -0.0452   124.0020 </r>
       <r>    27.8021    -0.0125   124.0001 </r>
       <r>    27.9540    -0.0005   124.0000 </r>
       <r>    28.1060    -0.0000   124.0000 </r>
       <r>    28.2579    -0.0000   124.0000 </r>
       <r>    28.4099    -0.0000   124.0000 </r>
       <r>    28.5619    -0.0000   124.0000 </r>
       <r>    28.7138     0.0000   124.0000 </r>
       <r>    28.8658     0.0000   124.0000 </r>
       <r>    29.0177     0.0000   124.0000 </r>
       <r>    29.1697     0.0000   124.0000 </r>
       <r>    29.3217     0.0000   124.0000 </r>
      </set>
     </set>
    </array>
   </total>
  </dos>
 </calculation>
 <structure name="finalpos" >
  <crystal>
   <varray name="basis" >
    <v>       4.43204666       0.00000000       0.00000000 </v>
    <v>      -0.00000000       7.59798368       0.00000000 </v>
    <v>       0.00000000       0.00000000       4.55550353 </v>
   </varray>
   <i name="volume">    153.40484207 </i>
   <varray name="rec_basis" >
    <v>       0.22562939       0.00000000      -0.00000000 </v>
    <v>       0.00000000       0.13161387       0.00000000 </v>
    <v>      -0.00000000      -0.00000000       0.21951470 </v>
   </varray>
  </crystal>
  <varray name="positions" >
   <v>       0.00000000       0.33720499       0.40107953 </v>
   <v>       0.00000000       0.16279501       0.90107953 </v>
   <v>       0.00000000       0.66279501       0.59892047 </v>
   <v>       0.00000000       0.83720499       0.09892047 </v>
   <v>       0.50000000       0.83720499       0.40107953 </v>
   <v>       0.50000000       0.66279501       0.90107953 </v>
   <v>       0.50000000       0.16279501       0.59892047 </v>
   <v>       0.50000000       0.33720499       0.09892047 </v>
  </varray>
 </structure>
</modeling>
