       N       E                     dE             d eps       ncg     rms          ort
DAV:   1    -0.213253177968E+05   -0.21325E+05   -0.54630E+05 11394   0.748E+03
DAV:   2    -0.654455499216E+05   -0.44120E+05   -0.42848E+05 11394   0.118E+03
DAV:   3    -0.698850363779E+05   -0.44395E+04   -0.39461E+04 11394   0.343E+02
DAV:   4    -0.703912235185E+05   -0.50619E+03   -0.42758E+03 11394   0.101E+02
DAV:   5    -0.373285464135E+05    0.33063E+05   -0.78908E+02 11394   0.544E+01
SDA:   6     0.142196609435E+05    0.51548E+05   -0.78908E+02 11394   0.923E+05 0.000E+00
CGA:   7     0.236490409277E+04   -0.11855E+05   -0.13328E+05 11394   0.884E+04 0.105E+05
CGA:   8     0.946413002502E+03   -0.14185E+04   -0.13289E+04 11394   0.975E+04-0.359E+04
CGA:   9     0.284322641722E+03   -0.66209E+03   -0.37558E+03 11394   0.746E+04 0.542E+04
CGA:  10     0.159411761843E+03   -0.12491E+03   -0.65035E+03 11394   0.100E+05-0.134E+04
CGA:  11    -0.126550370635E+03   -0.28596E+03   -0.73162E+03 11394   0.505E+04-0.122E+04
CGA:  12    -0.667726550673E+03   -0.54118E+03   -0.58692E+03 11394   0.198E+04-0.657E+02
CGA:  13    -0.874963516867E+03   -0.20724E+03   -0.25404E+03 11394   0.235E+03 0.272E+03
CGA:  14    -0.941577497335E+03   -0.66614E+02   -0.64910E+02 11394   0.781E+02 0.151E+02
CGA:  15    -0.971598206442E+03   -0.30021E+02   -0.29354E+02 11394   0.409E+02 0.272E+01
CGA:  16    -0.982695708755E+03   -0.11098E+02   -0.10326E+02 11394   0.133E+02 0.854E+01
CGA:  17    -0.986976246624E+03   -0.42805E+01   -0.42632E+01 11394   0.436E+01 0.155E+00
CGA:  18    -0.988387015698E+03   -0.14108E+01   -0.14061E+01 11394   0.150E+01 0.308E-01
CGA:  19    -0.988804218914E+03   -0.41720E+00   -0.41726E+00 11394   0.515E+00-0.757E-03
CGA:  20    -0.988953714541E+03   -0.14950E+00   -0.14960E+00 11394   0.140E+00-0.106E-02
CGA:  21    -0.988996367381E+03   -0.42653E-01   -0.42666E-01 11394   0.451E-01-0.123E-03
CGA:  22    -0.989010221271E+03   -0.13854E-01   -0.13851E-01 11394   0.152E-01 0.335E-04
CGA:  23    -0.989014638217E+03   -0.44169E-02   -0.44182E-02 11394   0.555E-02-0.123E-04
CGA:  24    -0.989016209327E+03   -0.15711E-02   -0.15724E-02 11394   0.186E-02-0.180E-04
CGA:  25    -0.989016766812E+03   -0.55749E-03   -0.55758E-03 11394   0.575E-03-0.126E-05
CGA:  26    -0.989016949497E+03   -0.18269E-03   -0.18287E-03 11394   0.215E-03-0.194E-05
CGA:  27    -0.989017015015E+03   -0.65518E-04   -0.65847E-04 11394   0.782E-04-0.429E-05
CGA:  28    -0.989017035513E+03   -0.20498E-04   -0.20529E-04 11394   0.251E-04-0.934E-06
CGA:  29    -0.989017042365E+03   -0.68521E-05   -0.68496E-05 11394   0.886E-05 0.696E-07
   1 F= -.98901704E+03 E0= -.98901704E+03  d E =-.252815E-21
