 vasp.6.4.2 20Jul23 (build Nov 12 2023 22:16:35) complex                         
 executed on              LinuxNV date 2025.03.12  18:13:04
 running    4 mpi-ranks, on    1 nodes
 distrk:  each k-point on    1 cores,    4 groups
 distr:  one band on NCORE=   1 cores,    1 groups
 OpenACC runtime initialized ...    4 GPUs detected


--------------------------------------------------------------------------------------------------------


 INCAR:
   PREC = Normal
   ENCUT = 450
   NELM = 500
   IBRION = -1
   ISPIN = 1
   NSW = 0
   ISIF = 2
   EDIFF = 1E-5
   EDIFFG = -5E-3
   ISTART = 0
   ICHARG = 0
   ISMEAR = 0
   SIGMA = 0.05
   LWAVE = .T.
   LCHARG = .T.
   LREAL = Auto
   LPLANE = .TRUE.
   NPAR = 1
   KPAR = 4
   NCORE = 1
   ALGO = All
   LHFCALC = .TRUE.
   HSE06 = .TRUE.
   HFSCREEN = 0.18
   TIME = 0.4
   AEXX = 0.35
   LMAXFOCK = 4
   PRECFOCK = Fast

 POTCAR:    PAW_PBE Ga_d 06Jul2010                
 POTCAR:    PAW_PBE O 08Apr2002                   
 POTCAR:    PAW_PBE Ga_d 06Jul2010                
   SHA256 =  a60ddf36e14f00ea098d9e3914b3745f1b7105e68786148f49ae384e44b4226c Ga_d/POTCAR           
   COPYR  = (c) Copyright 06Jul2010 Georg Kresse                                                    
   COPYR  = This file is part of the software VASP. Any use, copying, and all other rights are regul
   COPYR  = If you do not have a valid VASP license, you may not use, copy or distribute this file. 
   VRHFIN =Ga: s2p1                                                                                 
   LEXCH  = PE                                                                                      
   EATOM  =  2148.8298 eV,  157.9345 Ry                                                             
                                                                                                    
   TITEL  = PAW_PBE Ga_d 06Jul2010                                                                  
   LULTRA =        F    use ultrasoft PP ?                                                          
   IUNSCR =        1    unscreen: 0-lin 1-nonlin 2-no                                               
   RPACOR =    1.700    partial core radius                                                         
   POMASS =   69.723; ZVAL   =   13.000    mass and valenz                                          
   RCORE  =    2.300    outmost cutoff radius                                                       
   RWIGS  =    2.300; RWIGS  =    1.217    wigner-seitz radius (au A)                               
   ENMAX  =  282.691; ENMIN  =  212.018 eV                                                          
   ICORE  =        3    local potential                                                             
   LCOR   =        T    correct aug charges                                                         
   LPAW   =        T    paw PP                                                                      
   EAUG   =  490.690                                                                                
   DEXC   =    0.000                                                                                
   RMAX   =    2.341    core radius for proj-oper                                                   
   RAUG   =    1.300    factor for augmentation sphere                                              
   RDEP   =    2.413    radius for radial grids                                                     
   RDEPT  =    1.856    core radius for aug-charge                                                  
                                                                                                    
   Atomic configuration                                                                             
    9 entries                                                                                       
     n  l   j            E        occ.                                                              
     1  0  0.50    -10228.7831   2.0000                                                             
     2  0  0.50     -1262.1604   2.0000                                                             
     2  1  1.50     -1098.6333   6.0000                                                             
     3  0  0.50      -148.1110   2.0000                                                             
     3  1  1.50       -98.8436   6.0000                                                             
     3  2  2.50       -19.1549  10.0000                                                             
     4  0  0.50        -8.9483   2.0000                                                             
     4  1  0.50        -2.5791   1.0000                                                             
     4  3  2.50        -2.7416   0.0000                                                             
   Description                                                                                      
     l       E           TYP  RCUT    TYP  RCUT                                                     
     2    -19.1549037     23  2.300                                                                 
     2     -5.4423304     23  2.300                                                                 
     0     -8.9483111     23  2.300                                                                 
     0     68.0291300     23  2.300                                                                 
     1     -2.5790802     23  2.100                                                                 
     1     81.6349560     23  2.300                                                                 
     3      6.8029130     23  2.300                                                                 
  local pseudopotential read in
  partial core-charges read in
  partial kinetic energy density read in
  atomic valenz-charges read in
  non local Contribution for L=            2  read in
    real space projection operators read in
  non local Contribution for L=            2  read in
    real space projection operators read in
  non local Contribution for L=            0  read in
    real space projection operators read in
  non local Contribution for L=            0  read in
    real space projection operators read in
  non local Contribution for L=            1  read in
    real space projection operators read in
  non local Contribution for L=            1  read in
    real space projection operators read in
    PAW grid and wavefunctions read in
 
   number of l-projection  operators is LMAX  =            6
   number of lm-projection operators is LMMAX =           18
 
 POTCAR:    PAW_PBE O 08Apr2002                   
   SHA256 =  818f92134a0a090dccd8ba1447fa70422a3b330e708bb4f08108d8ae51209ddf O/POTCAR              
   COPYR  = (c) Copyright 08Apr2002 Georg Kresse                                                    
   COPYR  = This file is part of the software VASP. Any use, copying, and all other rights are regul
   COPYR  = If you do not have a valid VASP license, you may not use, copy or distribute this file. 
   VRHFIN =O: s2p4                                                                                  
   LEXCH  = PE                                                                                      
   EATOM  =   432.3788 eV,   31.7789 Ry                                                             
                                                                                                    
   TITEL  = PAW_PBE O 08Apr2002                                                                     
   LULTRA =        F    use ultrasoft PP ?                                                          
   IUNSCR =        1    unscreen: 0-lin 1-nonlin 2-no                                               
   RPACOR =    1.200    partial core radius                                                         
   POMASS =   16.000; ZVAL   =    6.000    mass and valenz                                          
   RCORE  =    1.520    outmost cutoff radius                                                       
   RWIGS  =    1.550; RWIGS  =    0.820    wigner-seitz radius (au A)                               
   ENMAX  =  400.000; ENMIN  =  300.000 eV                                                          
   ICORE  =        2    local potential                                                             
   LCOR   =        T    correct aug charges                                                         
   LPAW   =        T    paw PP                                                                      
   EAUG   =  605.392                                                                                
   DEXC   =    0.000                                                                                
   RMAX   =    1.553    core radius for proj-oper                                                   
   RAUG   =    1.300    factor for augmentation sphere                                              
   RDEP   =    1.550    radius for radial grids                                                     
   RDEPT  =    1.329    core radius for aug-charge                                                  
                                                                                                    
   Atomic configuration                                                                             
    4 entries                                                                                       
     n  l   j            E        occ.                                                              
     1  0  0.50      -514.6923   2.0000                                                             
     2  0  0.50       -23.9615   2.0000                                                             
     2  1  0.50        -9.0305   4.0000                                                             
     3  2  1.50        -9.5241   0.0000                                                             
   Description                                                                                      
     l       E           TYP  RCUT    TYP  RCUT                                                     
     0    -23.9615318     23  1.200                                                                 
     0     -9.5240782     23  1.200                                                                 
     1     -9.0304911     23  1.520                                                                 
     1      8.1634956     23  1.520                                                                 
     2     -9.5240782      7  1.500                                                                 
  local pseudopotential read in
  partial core-charges read in
  partial kinetic energy density read in
  kinetic energy density of atom read in
  atomic valenz-charges read in
  non local Contribution for L=            0  read in
    real space projection operators read in
  non local Contribution for L=            0  read in
    real space projection operators read in
  non local Contribution for L=            1  read in
    real space projection operators read in
  non local Contribution for L=            1  read in
    real space projection operators read in
    PAW grid and wavefunctions read in
 
   number of l-projection  operators is LMAX  =            4
   number of lm-projection operators is LMMAX =            8
 
 Optimization of the real space projectors (new method)

 maximal supplied QI-value         = 16.25
 optimisation between [QCUT,QGAM] = [ 10.73, 21.61] = [ 32.22,130.83] Ry 
 Optimized for a Real-space Cutoff    1.42 Angstroem

   l    n(q)    QCUT    max X(q) W(low)/X(q) W(high)/X(q)  e(spline) 
   2      8    10.726     7.143    0.22E-03    0.16E-03    0.73E-07
   2      8    10.726     5.586    0.40E-03    0.26E-03    0.10E-06
   0      9    10.726    12.382    0.25E-04    0.21E-05    0.37E-07
   0      9    10.726     6.622    0.42E-04    0.48E-05    0.77E-07
   1      9    10.726     7.935    0.27E-03    0.13E-04    0.16E-06
   1      9    10.726     2.425    0.23E-03    0.15E-04    0.14E-06
 Optimization of the real space projectors (new method)

 maximal supplied QI-value         = 24.76
 optimisation between [QCUT,QGAM] = [ 10.64, 21.54] = [ 31.73,129.89] Ry 
 Optimized for a Real-space Cutoff    1.23 Angstroem

   l    n(q)    QCUT    max X(q) W(low)/X(q) W(high)/X(q)  e(spline) 
   0      8    10.645    20.381    0.38E-03    0.60E-03    0.15E-06
   0      8    10.645    15.268    0.40E-03    0.65E-03    0.17E-06
   1      7    10.645     5.964    0.30E-03    0.63E-03    0.18E-06
   1      7    10.645     5.382    0.24E-03    0.53E-03    0.16E-06
  PAW_PBE Ga_d 06Jul2010                :
 energy of atom  1       EATOM=-2148.8298
 kinetic energy error for atom=    0.0038 (will be added to EATOM!!)
  PAW_PBE O 08Apr2002                   :
 energy of atom  2       EATOM= -432.3788
 kinetic energy error for atom=    0.0389 (will be added to EATOM!!)
 
 
 POSCAR: Ga48 O72
  positions in direct lattice
  velocities in cartesian coordinates
 exchange correlation table for  LEXCH =        8
   RHO(1)=    0.500       N(1)  =     2000
   RHO(2)=  100.500       N(2)  =     4000
 


--------------------------------------------------------------------------------------------------------


 ion  position               nearest neighbor table
   1  0.659  0.000  0.157-  85 1.94  83 1.95  79 1.95  67 2.02  61 2.08  65 2.08
   2  0.659  0.000  0.657-  86 1.94  84 1.95  80 1.95  68 2.02  62 2.08  66 2.08
   3  0.659  0.333  0.157-  87 1.94  81 1.95  79 1.95  69 2.02  63 2.08  61 2.08
   4  0.659  0.333  0.657-  88 1.94  82 1.95  80 1.95  70 2.02  64 2.08  62 2.08
   5  0.659  0.667  0.157-  89 1.94  81 1.95  83 1.95  71 2.02  63 2.08  65 2.08
   6  0.659  0.667  0.657-  90 1.94  82 1.95  84 1.95  72 2.02  64 2.08  66 2.08
   7  0.841  0.167  0.343-  91 1.94  73 1.95  75 1.95  61 2.02  67 2.08  69 2.08
   8  0.841  0.167  0.843-  92 1.94  74 1.95  76 1.95  62 2.02  68 2.08  70 2.08
   9  0.841  0.500  0.343-  93 1.94  77 1.95  75 1.95  63 2.02  71 2.08  69 2.08
  10  0.841  0.500  0.843-  94 1.94  78 1.95  76 1.95  64 2.02  72 2.08  70 2.08
  11  0.841  0.833  0.343-  95 1.94  73 1.95  77 1.95  65 2.02  67 2.08  71 2.08
  12  0.841  0.833  0.843-  96 1.94  74 1.95  78 1.95  66 2.02  68 2.08  72 2.08
  13  0.591  0.167  0.398-  80 1.84  55 1.85  57 1.85  61 1.87
  14  0.591  0.167  0.898-  79 1.84  56 1.85  58 1.85  62 1.87
  15  0.591  0.500  0.398-  82 1.84  59 1.85  57 1.85  63 1.87
  16  0.591  0.500  0.898-  81 1.84  60 1.85  58 1.85  64 1.87
  17  0.591  0.833  0.398-  84 1.84  55 1.85  59 1.85  65 1.87
  18  0.591  0.833  0.898-  83 1.84  56 1.85  60 1.85  66 1.87
  19  0.909  0.000  0.102-  74 1.84  53 1.85  49 1.85  67 1.87
  20  0.909  0.000  0.602-  73 1.84  54 1.85  50 1.85  68 1.87
  21  0.909  0.333  0.102-  76 1.84  51 1.85  49 1.85  69 1.87
  22  0.909  0.333  0.602-  75 1.84  52 1.85  50 1.85  70 1.87
  23  0.909  0.667  0.102-  78 1.84  51 1.85  53 1.85  71 1.87
  24  0.909  0.667  0.602-  77 1.84  52 1.85  54 1.85  72 1.87
  25  0.159  0.167  0.157-  49 1.94 115 1.95 117 1.95 103 2.02  97 2.08  99 2.08
  26  0.159  0.167  0.657-  50 1.94 116 1.95 118 1.95 104 2.02  98 2.08 100 2.08
  27  0.159  0.500  0.157-  51 1.94 117 1.95 119 1.95 105 2.02 101 2.08  99 2.08
  28  0.159  0.500  0.657-  52 1.94 118 1.95 120 1.95 106 2.02 102 2.08 100 2.08
  29  0.159  0.833  0.157-  53 1.94 115 1.95 119 1.95 107 2.02  97 2.08 101 2.08
  30  0.159  0.833  0.657-  54 1.94 116 1.95 120 1.95 108 2.02  98 2.08 102 2.08
  31  0.341  0.000  0.343-  55 1.94 109 1.95 113 1.95  97 2.02 103 2.08 107 2.08
  32  0.341  0.000  0.843-  56 1.94 110 1.95 114 1.95  98 2.02 104 2.08 108 2.08
  33  0.341  0.333  0.343-  57 1.94 111 1.95 109 1.95  99 2.02 105 2.08 103 2.08
  34  0.341  0.333  0.843-  58 1.94 112 1.95 110 1.95 100 2.02 106 2.08 104 2.08
  35  0.341  0.667  0.343-  59 1.94 111 1.95 113 1.95 101 2.02 105 2.08 107 2.08
  36  0.341  0.667  0.843-  60 1.94 112 1.95 114 1.95 102 2.02 106 2.08 108 2.08
  37  0.091  0.000  0.398- 116 1.84  95 1.85  91 1.85  97 1.87
  38  0.091  0.000  0.898- 115 1.84  96 1.85  92 1.85  98 1.87
  39  0.091  0.333  0.398- 118 1.84  93 1.85  91 1.85  99 1.87
  40  0.091  0.333  0.898- 117 1.84  94 1.85  92 1.85 100 1.87
  41  0.091  0.667  0.398- 120 1.84  93 1.85  95 1.85 101 1.87
  42  0.091  0.667  0.898- 119 1.84  94 1.85  96 1.85 102 1.87
  43  0.409  0.167  0.102- 110 1.84  85 1.85  87 1.85 103 1.87
  44  0.409  0.167  0.602- 109 1.84  86 1.85  88 1.85 104 1.87
  45  0.409  0.500  0.102- 112 1.84  89 1.85  87 1.85 105 1.87
  46  0.409  0.500  0.602- 111 1.84  90 1.85  88 1.85 106 1.87
  47  0.409  0.833  0.102- 114 1.84  85 1.85  89 1.85 107 1.87
  48  0.409  0.833  0.602- 113 1.84  86 1.85  90 1.85 108 1.87
  49  0.996  0.167  0.127-  19 1.85  21 1.85  25 1.94
  50  0.996  0.167  0.627-  20 1.85  22 1.85  26 1.94
  51  0.996  0.500  0.127-  21 1.85  23 1.85  27 1.94
  52  0.996  0.500  0.627-  22 1.85  24 1.85  28 1.94
  53  0.996  0.833  0.127-  19 1.85  23 1.85  29 1.94
  54  0.996  0.833  0.627-  20 1.85  24 1.85  30 1.94
  55  0.504  0.000  0.373-  13 1.85  17 1.85  31 1.94
  56  0.504  0.000  0.873-  14 1.85  18 1.85  32 1.94
  57  0.504  0.333  0.373-  15 1.85  13 1.85  33 1.94
  58  0.504  0.333  0.873-  16 1.85  14 1.85  34 1.94
  59  0.504  0.667  0.373-  15 1.85  17 1.85  35 1.94
  60  0.504  0.667  0.873-  16 1.85  18 1.85  36 1.94
  61  0.673  0.167  0.280-  13 1.87   7 2.02   1 2.08   3 2.08
  62  0.673  0.167  0.780-  14 1.87   8 2.02   2 2.08   4 2.08
  63  0.673  0.500  0.280-  15 1.87   9 2.02   3 2.08   5 2.08
  64  0.673  0.500  0.780-  16 1.87  10 2.02   4 2.08   6 2.08
  65  0.673  0.833  0.280-  17 1.87  11 2.02   1 2.08   5 2.08
  66  0.673  0.833  0.780-  18 1.87  12 2.02   2 2.08   6 2.08
  67  0.827  0.000  0.220-  19 1.87   1 2.02  11 2.08   7 2.08
  68  0.827  0.000  0.720-  20 1.87   2 2.02  12 2.08   8 2.08
  69  0.827  0.333  0.220-  21 1.87   3 2.02   9 2.08   7 2.08
  70  0.827  0.333  0.720-  22 1.87   4 2.02  10 2.08   8 2.08
  71  0.827  0.667  0.220-  23 1.87   5 2.02   9 2.08  11 2.08
  72  0.827  0.667  0.720-  24 1.87   6 2.02  10 2.08  12 2.08
  73  0.832  0.000  0.446-  20 1.84  11 1.95   7 1.95
  74  0.832  0.000  0.946-  19 1.84  12 1.95   8 1.95
  75  0.832  0.333  0.446-  22 1.84   9 1.95   7 1.95
  76  0.832  0.333  0.946-  21 1.84  10 1.95   8 1.95
  77  0.832  0.667  0.446-  24 1.84   9 1.95  11 1.95
  78  0.832  0.667  0.946-  23 1.84  10 1.95  12 1.95
  79  0.668  0.167  0.054-  14 1.84   1 1.95   3 1.95
  80  0.668  0.167  0.554-  13 1.84   2 1.95   4 1.95
  81  0.668  0.500  0.054-  16 1.84   5 1.95   3 1.95
  82  0.668  0.500  0.554-  15 1.84   6 1.95   4 1.95
  83  0.668  0.833  0.054-  18 1.84   1 1.95   5 1.95
  84  0.668  0.833  0.554-  17 1.84   2 1.95   6 1.95
  85  0.496  0.000  0.127-  43 1.85  47 1.85   1 1.94
  86  0.496  0.000  0.627-  44 1.85  48 1.85   2 1.94
  87  0.496  0.333  0.127-  45 1.85  43 1.85   3 1.94
  88  0.496  0.333  0.627-  46 1.85  44 1.85   4 1.94
  89  0.496  0.667  0.127-  45 1.85  47 1.85   5 1.94
  90  0.496  0.667  0.627-  46 1.85  48 1.85   6 1.94
  91  0.004  0.167  0.373-  37 1.85  39 1.85   7 1.94
  92  0.004  0.167  0.873-  38 1.85  40 1.85   8 1.94
  93  0.004  0.500  0.373-  39 1.85  41 1.85   9 1.94
  94  0.004  0.500  0.873-  40 1.85  42 1.85  10 1.94
  95  0.004  0.833  0.373-  37 1.85  41 1.85  11 1.94
  96  0.004  0.833  0.873-  38 1.85  42 1.85  12 1.94
  97  0.173  0.000  0.280-  37 1.87  31 2.02  25 2.08  29 2.08
  98  0.173  0.000  0.780-  38 1.87  32 2.02  26 2.08  30 2.08
  99  0.173  0.333  0.280-  39 1.87  33 2.02  27 2.08  25 2.08
 100  0.173  0.333  0.780-  40 1.87  34 2.02  28 2.08  26 2.08
 101  0.173  0.667  0.280-  41 1.87  35 2.02  27 2.08  29 2.08
 102  0.173  0.667  0.780-  42 1.87  36 2.02  28 2.08  30 2.08
 103  0.327  0.167  0.220-  43 1.87  25 2.02  31 2.08  33 2.08
 104  0.327  0.167  0.720-  44 1.87  26 2.02  32 2.08  34 2.08
 105  0.327  0.500  0.220-  45 1.87  27 2.02  35 2.08  33 2.08
 106  0.327  0.500  0.720-  46 1.87  28 2.02  36 2.08  34 2.08
 107  0.327  0.833  0.220-  47 1.87  29 2.02  31 2.08  35 2.08
 108  0.327  0.833  0.720-  48 1.87  30 2.02  32 2.08  36 2.08
 109  0.332  0.167  0.446-  44 1.84  31 1.95  33 1.95
 110  0.332  0.167  0.946-  43 1.84  32 1.95  34 1.95
 111  0.332  0.500  0.446-  46 1.84  35 1.95  33 1.95
 112  0.332  0.500  0.946-  45 1.84  36 1.95  34 1.95
 113  0.332  0.833  0.446-  48 1.84  31 1.95  35 1.95
 114  0.332  0.833  0.946-  47 1.84  32 1.95  36 1.95
 115  0.168  0.000  0.054-  38 1.84  29 1.95  25 1.95
 116  0.168  0.000  0.554-  37 1.84  30 1.95  26 1.95
 117  0.168  0.333  0.054-  40 1.84  27 1.95  25 1.95
 118  0.168  0.333  0.554-  39 1.84  28 1.95  26 1.95
 119  0.168  0.667  0.054-  42 1.84  27 1.95  29 1.95
 120  0.168  0.667  0.554-  41 1.84  28 1.95  30 1.95
 
  LATTYP: Found a simple monoclinic cell.
 ALAT       =    11.6348202465
 B/A-ratio  =     0.7858051831
 C/A-ratio  =     1.0554931797
 COS(beta)  =    -0.2379290539
  
  Lattice vectors:
  
 A1 = (   0.0000000000,  -2.7682617730, -11.3006977184)
 A2 = (  -9.1427020537,   0.0000000000,   0.0000000000)
 A3 = (   0.0000000000,  12.2804734172,   0.0000000000)


Analysis of symmetry for initial positions (statically):
=====================================================================
 Subroutine PRICEL returns following result:
 
  LATTYP: Found a base centered monoclinic cell.
 ALAT       =    12.2804734172
 B/A-ratio  =     0.2481636699
 C/A-ratio  =     0.4737122036
 COS(beta)  =    -0.2379290539
  
  Lattice vectors:
  
 A1 = (  -1.5237836756,   6.1402367086,   0.0000000000)
 A2 = (   1.5237836756,   6.1402367086,   0.0000000000)
 A3 = (   0.0000000000,  -1.3841308865,  -5.6503488592)
 
  12 primitive cells build up your supercell.
 

 Routine SETGRP: Setting up the symmetry group for a 
 simple monoclinic supercell.


 Subroutine GETGRP returns: Found  4 space group operations
 (whereof  4 operations were pure point group operations)
 out of a pool of  4 trial point group operations.


The static configuration has the point symmetry C_2h.


Analysis of symmetry for dynamics (positions and initial velocities):
=====================================================================
 Subroutine PRICEL returns following result:
 
  LATTYP: Found a base centered monoclinic cell.
 ALAT       =    12.2804734172
 B/A-ratio  =     0.2481636699
 C/A-ratio  =     0.4737122036
 COS(beta)  =    -0.2379290539
  
  Lattice vectors:
  
 A1 = (  -1.5237836756,   6.1402367086,   0.0000000000)
 A2 = (   1.5237836756,   6.1402367086,   0.0000000000)
 A3 = (   0.0000000000,  -1.3841308865,  -5.6503488592)
 
  12 primitive cells build up your supercell.
 

 Routine SETGRP: Setting up the symmetry group for a 
 simple monoclinic supercell.


 Subroutine GETGRP returns: Found  4 space group operations
 (whereof  4 operations were pure point group operations)
 out of a pool of  4 trial point group operations.


The dynamic configuration has the point symmetry C_2h.


 Subroutine INISYM returns: Found  4 space group operations
 (whereof  4 operations are pure point group operations),
 and found    12 'primitive' translations


----------------------------------------------------------------------------------------

                                     Primitive cell                                     

  volume of cell :     105.7338

  direct lattice vectors                    reciprocal lattice vectors
    -1.523783676  6.140236709  0.000000000    -0.328130566  0.081430085 -0.019947423
     1.523783676  6.140236709  0.000000000     0.328130566  0.081430085 -0.019947423
     0.000000000 -1.384130887 -5.650348859     0.000000000  0.000000000 -0.176980223

  length of vectors
     6.326485875  6.326485875  5.817410123     0.338671562  0.338671562  0.176980223

  position of ions in fractional coordinates (direct lattice)
     0.659021176  0.659021176  0.313180369
     0.340978824  0.340978824  0.686819631
     0.091086781  0.091086781  0.795150701
     0.908913219  0.908913219  0.204849299
     0.496364652  0.496364652  0.254467510
     0.503635348  0.503635348  0.745532490
     0.172546880  0.172546880  0.560796470
     0.827453120  0.827453120  0.439203530
     0.832090821  0.832090821  0.891619366
     0.167909179  0.167909179  0.108380634

  ion indices of the primitive-cell ions
   primitive index   ion index
                 1           1
                 2           7
                 3          13
                 4          19
                 5          85
                 6          55
                 7          61
                 8          67
                 9          74
                10          79

----------------------------------------------------------------------------------------

 
 
 KPOINTS: Automatic mesh                          

Automatic generation of k-mesh.
 Grid dimensions read from file:
 generate k-points for:    2    4    4

 Generating k-lattice:

  Cartesian coordinates                     Fractional coordinates (reciprocal lattice)
     0.000000000  0.040715043 -0.009973711     0.500000000  0.000000000  0.000000000
     0.027344214 -0.000000000  0.000000000     0.000000000  0.250000000  0.000000000
     0.000000000  0.000000000 -0.022122528     0.000000000  0.000000000  0.250000000

  Length of vectors
     0.041918846  0.027344214  0.022122528

  Shift w.r.t. Gamma in fractional coordinates (k-lattice)
     0.000000000  0.000000000  0.000000000

 
 Subroutine IBZKPT returns following result:
 ===========================================
 
 Found     18 irreducible k-points:
 
 Following reciprocal coordinates:
            Coordinates               Weight
  0.000000  0.000000  0.000000      1.000000
  0.500000  0.000000  0.000000      1.000000
  0.000000  0.250000  0.000000      2.000000
  0.500000  0.250000  0.000000      2.000000
  0.000000  0.500000  0.000000      1.000000
  0.500000  0.500000  0.000000      1.000000
  0.000000  0.000000  0.250000      2.000000
  0.500000  0.000000  0.250000      2.000000
  0.000000  0.250000  0.250000      4.000000
  0.500000  0.250000  0.250000      4.000000
  0.000000  0.500000  0.250000      2.000000
  0.500000  0.500000  0.250000      2.000000
  0.000000  0.000000  0.500000      1.000000
  0.500000  0.000000  0.500000      1.000000
  0.000000  0.250000  0.500000      2.000000
  0.500000  0.250000  0.500000      2.000000
  0.000000  0.500000  0.500000      1.000000
  0.500000  0.500000  0.500000      1.000000
 
 Following cartesian coordinates:
            Coordinates               Weight
  0.000000  0.000000 -0.000000      1.000000
  0.000000  0.040715 -0.009974      1.000000
  0.027344  0.000000 -0.000000      2.000000
  0.027344  0.040715 -0.009974      2.000000
  0.054688  0.000000 -0.000000      1.000000
  0.054688  0.040715 -0.009974      1.000000
  0.000000  0.000000 -0.022123      2.000000
  0.000000  0.040715 -0.032096      2.000000
  0.027344  0.000000 -0.022123      4.000000
  0.027344  0.040715 -0.032096      4.000000
  0.054688  0.000000 -0.022123      2.000000
  0.054688  0.040715 -0.032096      2.000000
  0.000000  0.000000 -0.044245      1.000000
  0.000000  0.040715 -0.054219      1.000000
  0.027344  0.000000 -0.044245      2.000000
  0.027344  0.040715 -0.054219      2.000000
  0.054688  0.000000 -0.044245      1.000000
  0.054688  0.040715 -0.054219      1.000000
 
 
 Subroutine IBZKPT_HF returns following result:
 ==============================================
 
 Found     32 k-points in 1st BZ
 the following     32 k-points will be used (e.g. in the exchange kernel)
 Following reciprocal coordinates:   # in IRBZ
  0.000000  0.000000  0.000000    0.03125000   1 t-inv F
  0.500000  0.000000  0.000000    0.03125000   2 t-inv F
  0.000000  0.250000  0.000000    0.03125000   3 t-inv F
  0.500000  0.250000  0.000000    0.03125000   4 t-inv F
  0.000000  0.500000  0.000000    0.03125000   5 t-inv F
  0.500000  0.500000  0.000000    0.03125000   6 t-inv F
  0.000000  0.000000  0.250000    0.03125000   7 t-inv F
  0.500000  0.000000  0.250000    0.03125000   8 t-inv F
  0.000000  0.250000  0.250000    0.03125000   9 t-inv F
  0.500000  0.250000  0.250000    0.03125000  10 t-inv F
  0.000000  0.500000  0.250000    0.03125000  11 t-inv F
  0.500000  0.500000  0.250000    0.03125000  12 t-inv F
  0.000000  0.000000  0.500000    0.03125000  13 t-inv F
  0.500000  0.000000  0.500000    0.03125000  14 t-inv F
  0.000000  0.250000  0.500000    0.03125000  15 t-inv F
  0.500000  0.250000  0.500000    0.03125000  16 t-inv F
  0.000000  0.500000  0.500000    0.03125000  17 t-inv F
  0.500000  0.500000  0.500000    0.03125000  18 t-inv F
 -0.000000 -0.250000 -0.000000    0.03125000   3 t-inv F
 -0.500000 -0.250000 -0.000000    0.03125000   4 t-inv F
 -0.000000 -0.000000 -0.250000    0.03125000   7 t-inv F
 -0.500000 -0.000000 -0.250000    0.03125000   8 t-inv F
 -0.000000 -0.250000 -0.250000    0.03125000   9 t-inv F
 -0.000000  0.250000 -0.250000    0.03125000   9 t-inv F
  0.000000 -0.250000  0.250000    0.03125000   9 t-inv F
 -0.500000 -0.250000 -0.250000    0.03125000  10 t-inv F
 -0.500000  0.250000 -0.250000    0.03125000  10 t-inv F
  0.500000 -0.250000  0.250000    0.03125000  10 t-inv F
 -0.000000 -0.500000 -0.250000    0.03125000  11 t-inv F
 -0.500000 -0.500000 -0.250000    0.03125000  12 t-inv F
 -0.000000 -0.250000 -0.500000    0.03125000  15 t-inv F
 -0.500000 -0.250000 -0.500000    0.03125000  16 t-inv F


--------------------------------------------------------------------------------------------------------




 Dimension of arrays:
   k-points           NKPTS =     18   k-points in BZ     NKDIM =     32   number of bands    NBANDS=    633
   number of dos      NEDOS =    301   number of ions     NIONS =    120
   non local maximal  LDIM  =      6   non local SUM 2l+1 LMDIM =     18
   total plane-waves  NPLWV = 184320
   max r-space proj   IRMAX =   1800   max aug-charges    IRDMAX=   5704
   dimension x,y,z NGX =    64 NGY =   48 NGZ =   60
   dimension x,y,z NGXF=   128 NGYF=   96 NGZF=  120
   support grid    NGXF=   128 NGYF=   96 NGZF=  120
   ions per type =              48  72
   NGX,Y,Z   is equivalent  to a cutoff of   8.66,  8.73,  8.57 a.u.
   NGXF,Y,Z  is equivalent  to a cutoff of  17.33, 17.46, 17.15 a.u.

 SYSTEM =  unknown system                          
 POSCAR =  Ga48 O72                                

 Startparameter for this run:
   NWRITE =      2    write-flag & timer
   PREC   = normal    normal or accurate (medium, high low for compatibility)
   ISTART =      0    job   : 0-new  1-cont  2-samecut
   ICHARG =      0    charge: 1-file 2-atom 10-const
   ISPIN  =      1    spin polarized calculation?
   LNONCOLLINEAR =      F non collinear calculations
   LSORBIT =      F    spin-orbit coupling
   INIWAV =      1    electr: 0-lowe 1-rand  2-diag
   LASPH  =      F    aspherical Exc in radial PAW
 Electronic Relaxation 1
   ENCUT  =  450.0 eV  33.07 Ry    5.75 a.u.  21.24 15.81 20.12*2*pi/ulx,y,z
   ENINI  =  450.0     initial cutoff
   ENAUG  =  605.4 eV  augmentation charge cutoff
   NELM   =    500;   NELMIN=  2; NELMDL= -5     # of ELM steps 
   EDIFF  = 0.1E-04   stopping-criterion for ELM
   LREAL  =      T    real-space projection
   NLSPLINE    = F    spline interpolate recip. space projectors
   LCOMPAT=      F    compatible to vasp.4.4
   GGA_COMPAT  = T    GGA compatible to vasp.4.4-vasp.4.6
   LMAXPAW     = -100 max onsite density
   LMAXMIX     =    2 max onsite mixed and CHGCAR
   VOSKOWN=      0    Vosko Wilk Nusair interpolation
   ROPT   =   -0.00050  -0.00050
 Ionic relaxation
   EDIFFG = -.5E-02   stopping-criterion for IOM
   NSW    =      0    number of steps for IOM
   NBLOCK =      1;   KBLOCK =      1    inner block; outer block 
   IBRION =     -1    ionic relax: 0-MD 1-quasi-New 2-CG
   NFREE  =      0    steps in history (QN), initial steepest desc. (CG)
   ISIF   =      2    stress and relaxation
   IWAVPR =     10    prediction:  0-non 1-charg 2-wave 3-comb
   ISYM   =      3    0-nonsym 1-usesym 2-fastsym
   LCORR  =      T    Harris-Foulkes like correction to forces

   POTIM  = 0.5000    time-step for ionic-motion
   TEIN   =    0.0    initial temperature
   TEBEG  =    0.0;   TEEND  =   0.0 temperature during run
   SMASS  =  -3.00    Nose mass-parameter (am)
   estimated Nose-frequenzy (Omega)   =  0.10E-29 period in steps = 0.13E+47 mass=  -0.345E-26a.u.
   SCALEE = 1.0000    scale energy and forces
   NPACO  =    256;   APACO  = 10.0  distance and # of slots for P.C.
   PSTRESS=    0.0 pullay stress

  Mass of Ions in am
   POMASS =  69.72 16.00
  Ionic Valenz
   ZVAL   =  13.00  6.00
  Atomic Wigner-Seitz radii
   RWIGS  =  -1.00 -1.00
  virtual crystal weights 
   VCA    =   1.00  1.00
   NELECT =    1056.0000    total number of electrons
   NUPDOWN=      -1.0000    fix difference up-down

 DOS related values:
   EMIN   =  10.00;   EMAX   =-10.00  energy-range for DOS
   EFERMI =   0.00;   METHOD = LEGACY      
   ISMEAR =     0;   SIGMA  =   0.05  broadening in eV -4-tet -1-fermi 0-gaus

 Electronic relaxation 2 (details)
   IALGO  =     58    algorithm
   LDIAG  =      T    sub-space diagonalisation (order eigenvalues)
   LSUBROT=      F    optimize rotation matrix (better conditioning)
   TURBO    =      0    0=normal 1=particle mesh
   IRESTART =      0    0=no restart 2=restart with 2 vectors
   NREBOOT  =      0    no. of reboots
   NMIN     =      0    reboot dimension
   EREF     =   0.00    reference energy to select bands
   IMIX   =      4    mixing-type and parameters
     AMIX     =   0.40;   BMIX     =  1.00
     AMIX_MAG =   1.60;   BMIX_MAG =  1.00
     AMIN     =   0.10
     WC   =   100.;   INIMIX=   1;  MIXPRE=   1;  MAXMIX= -45

 Intra band minimization:
   WEIMIN = 0.0000     energy-eigenvalue tresh-hold
   EBREAK =  0.39E-08  absolut break condition
   DEPER  =   0.30     relativ break condition  

   TIME   =   0.40     timestep for ELM

  volume/ion in A,a.u.               =      10.57        71.35
  Fermi-wavevector in a.u.,A,eV,Ry     =   1.539919  2.910025 32.264175  2.371350
  Thomas-Fermi vector in A             =   2.646079
 
 Write flags
   LWAVE        =      T    write WAVECAR
   LDOWNSAMPLE  =      F    k-point downsampling of WAVECAR
   LCHARG       =      T    write CHGCAR
   LVTOT        =      F    write LOCPOT, total local potential
   LVHAR        =      F    write LOCPOT, Hartree potential only
   LELF         =      F    write electronic localiz. function (ELF)
   LORBIT       =      0    0 simple, 1 ext, 2 COOP (PROOUT), +10 PAW based schemes


 Dipole corrections
   LMONO  =      F    monopole corrections only (constant potential shift)
   LDIPOL =      F    correct potential (dipole corrections)
   IDIPOL =      0    1-x, 2-y, 3-z, 4-all directions 
   EPSILON=  1.0000000 bulk dielectric constant

 Exchange correlation treatment:
   GGA     =    --    GGA type
   LEXCH   =     8    internal setting for exchange type
   LIBXC   =     F    Libxc                    
   VOSKOWN =     0    Vosko Wilk Nusair interpolation
   EXXOEP  =     0    0=HF, 1=EXX-LHF (local Hartree Fock) 2=EXX OEP
   LHFCALC =     T    Hartree Fock is set to
   LSYMGRAD=     F    symmetrize gradient (conserves proper symmetry)
   PRECFOCK=fast      Normal, Fast or Accurate (Low or Medium for compatibility)
   LRHFCALC=     F    long range Hartree Fock
   LRSCOR  =     F    long range correlation only (use DFT for short range part)
   LTHOMAS =     F    Thomas Fermi screening in HF
   LMODELHF=     F    short range full HF, long range fraction AEXX
   FOCKCORR=     1    mode to apply convergence corrections
   LFOCKACE=     T    use Adeptively-Compressed-Exchange operator
   ENCUT4O =  -1.0   cutoff for four orbital integrals eV
   LMAXFOCK=     4    L truncation for augmentation on plane wave grid
   LMAXFOCKAE=  -1    L truncation for all-electron charge restoration on plane wave grid
   NMAXFOCKAE=   1    number of basis functions for all-electron charge restoration
   LFOCKAEDFT=     F  apply the AE augmentation even for DFT
   NKREDX  =     1    reduce k-point grid by
   NKREDY  =     1    reduce k-point grid by
   NKREDZ  =     1    reduce k-point grid by
   SHIFTRED=     F    shift reduced grid of Gamma
   HFKIDENT=     F    idential grid for each k-point
   ODDONLY =     F    use only odd q-grid points
   EVENONLY=     F    use only even q-grid points
   HFALPHA =   -1.0000 decay constant for conv. correction
   MCALPHA =    0.0000 extent of test-charge in conv. correction in multipole expansion
   AEXX    =    0.3500 exact exchange contribution
   HFSCREEN=    0.1800 screening length (either q_TF or 0.3 A-1)
   HFSCREENC=   0.1800 screening length for correlation (either q_TF or 0.3 A-1)
   HFRCUT  =    0.0000 spherical cutoff for potential kernel
   ALDAX   =    0.6500 LDA exchange part
   AGGAX   =    0.6500 GGA exchange part
   ALDAC   =    1.0000 LDA correlation
   AGGAC   =    1.0000 GGA correlation
   ENCUTFOCK=  -1.0 apply spherical cutoff to Coloumb kernel
   NBANDSGWLOW=     1    first orbital included in HF term
   NBLOCK_FOCK=    64    blocking factor in FOCK_ACC

 Linear response parameters
   LEPSILON=     F    determine dielectric tensor
   LRPA    =     F    only Hartree local field effects (RPA)
   LNABLA  =     F    use nabla operator in PAW spheres
   LVEL    =     F    velocity operator in full k-point grid
   CSHIFT  =0.1000    complex shift for real part using Kramers Kronig
   OMEGAMAX=  -1.0    maximum frequency
   DEG_THRESHOLD= 0.2000000E-02 threshold for treating states as degnerate
   RTIME   =   -0.100 relaxation time in fs
  (WPLASMAI=    0.000 imaginary part of plasma frequency in eV, 0.658/RTIME)
   DFIELD  = 0.0000000 0.0000000 0.0000000 field for delta impulse in time
 
  Optional k-point grid parameters
   LKPOINTS_OPT  =     F    use optional k-point grid
   KPOINTS_OPT_MODE=     1    mode for optional k-point grid
 
 Orbital magnetization related:
   ORBITALMAG=     F  switch on orbital magnetization
   LCHIMAG   =     F  perturbation theory with respect to B field
   DQ        =  0.001000  dq finite difference perturbation B field
   LLRAUG    =     F  two centre corrections for induced B field
   LBONE     =     F  B-component reconstruction in AE one-centre
   LVGVCALC  =     T  calculate vGv susceptibility
   LVGVAPPL  =     F  apply vGv susceptibility instead of pGv for G=0

 Random number generation:
   RANDOM_GENERATOR = DEFAULT
   PCG_SEED         = not used


--------------------------------------------------------------------------------------------------------


 Static calculation
 charge density and potential will be updated during run
 non-spin polarized calculation
 Conjugate gradient for all bands (Freysoldt, et al. PRB 79, 241103 (2009))
 preconditioned conjugated gradient                                        
 perform sub-space diagonalisation
    before iterative eigenvector-optimisation
 modified Broyden-mixing scheme, WC =      100.0
 initial mixing is a Kerker type mixing with AMIX =  0.4000 and BMIX =      1.0000
 Hartree-type preconditioning will be used
 using additional bands           105
 real space projection scheme for non local part
 use partial core corrections
 no Harris-corrections to forces 
 use gradient corrections 
 use of overlap-Matrix (Vanderbilt PP)
 Gauss-broadening in eV      SIGMA  =   0.05


--------------------------------------------------------------------------------------------------------


  energy-cutoff  :      450.00
  volume of cell :     1268.81
      direct lattice vectors                 reciprocal lattice vectors
     0.000000000 12.280473417  0.000000000     0.000000000  0.081430085 -0.019947423
     9.142702054  0.000000000  0.000000000     0.109376855 -0.000000000  0.000000000
     0.000000000 -2.768261773-11.300697718     0.000000000  0.000000000 -0.088490111

  length of vectors
    12.280473417  9.142702054 11.634820246     0.083837691  0.109376855  0.088490111


 
 k-points in units of 2pi/SCALE and weight: Automatic mesh                          
   0.00000000  0.00000000 -0.00000000       0.031
   0.00000000  0.04071504 -0.00997371       0.031
   0.02734421  0.00000000 -0.00000000       0.063
   0.02734421  0.04071504 -0.00997371       0.063
   0.05468843  0.00000000 -0.00000000       0.031
   0.05468843  0.04071504 -0.00997371       0.031
   0.00000000  0.00000000 -0.02212253       0.063
   0.00000000  0.04071504 -0.03209624       0.063
   0.02734421  0.00000000 -0.02212253       0.125
   0.02734421  0.04071504 -0.03209624       0.125
   0.05468843  0.00000000 -0.02212253       0.063
   0.05468843  0.04071504 -0.03209624       0.063
   0.00000000  0.00000000 -0.04424506       0.031
   0.00000000  0.04071504 -0.05421877       0.031
   0.02734421  0.00000000 -0.04424506       0.063
   0.02734421  0.04071504 -0.05421877       0.063
   0.05468843  0.00000000 -0.04424506       0.031
   0.05468843  0.04071504 -0.05421877       0.031
 
 k-points in reciprocal lattice and weights: Automatic mesh                          
   0.00000000  0.00000000  0.00000000       0.031
   0.50000000  0.00000000  0.00000000       0.031
   0.00000000  0.25000000  0.00000000       0.063
   0.50000000  0.25000000  0.00000000       0.063
   0.00000000  0.50000000  0.00000000       0.031
   0.50000000  0.50000000  0.00000000       0.031
   0.00000000  0.00000000  0.25000000       0.063
   0.50000000  0.00000000  0.25000000       0.063
   0.00000000  0.25000000  0.25000000       0.125
   0.50000000  0.25000000  0.25000000       0.125
   0.00000000  0.50000000  0.25000000       0.063
   0.50000000  0.50000000  0.25000000       0.063
   0.00000000  0.00000000  0.50000000       0.031
   0.50000000  0.00000000  0.50000000       0.031
   0.00000000  0.25000000  0.50000000       0.063
   0.50000000  0.25000000  0.50000000       0.063
   0.00000000  0.50000000  0.50000000       0.031
   0.50000000  0.50000000  0.50000000       0.031
 
 position of ions in fractional coordinates (direct lattice) 
   0.65902118  0.00000000  0.15659018
   0.65902118  0.00000000  0.65659018
   0.65902118  0.33333333  0.15659018
   0.65902118  0.33333333  0.65659018
   0.65902118  0.66666667  0.15659018
   0.65902118  0.66666667  0.65659018
   0.84097882  0.16666667  0.34340982
   0.84097882  0.16666667  0.84340982
   0.84097882  0.50000000  0.34340982
   0.84097882  0.50000000  0.84340982
   0.84097882  0.83333333  0.34340982
   0.84097882  0.83333333  0.84340982
   0.59108678  0.16666667  0.39757535
   0.59108678  0.16666667  0.89757535
   0.59108678  0.50000000  0.39757535
   0.59108678  0.50000000  0.89757535
   0.59108678  0.83333333  0.39757535
   0.59108678  0.83333333  0.89757535
   0.90891322  0.00000000  0.10242465
   0.90891322  0.00000000  0.60242465
   0.90891322  0.33333333  0.10242465
   0.90891322  0.33333333  0.60242465
   0.90891322  0.66666667  0.10242465
   0.90891322  0.66666667  0.60242465
   0.15902118  0.16666667  0.15659018
   0.15902118  0.16666667  0.65659018
   0.15902118  0.50000000  0.15659018
   0.15902118  0.50000000  0.65659018
   0.15902118  0.83333333  0.15659018
   0.15902118  0.83333333  0.65659018
   0.34097882  0.00000000  0.34340982
   0.34097882  0.00000000  0.84340982
   0.34097882  0.33333333  0.34340982
   0.34097882  0.33333333  0.84340982
   0.34097882  0.66666667  0.34340982
   0.34097882  0.66666667  0.84340982
   0.09108678  0.00000000  0.39757535
   0.09108678  0.00000000  0.89757535
   0.09108678  0.33333333  0.39757535
   0.09108678  0.33333333  0.89757535
   0.09108678  0.66666667  0.39757535
   0.09108678  0.66666667  0.89757535
   0.40891322  0.16666667  0.10242465
   0.40891322  0.16666667  0.60242465
   0.40891322  0.50000000  0.10242465
   0.40891322  0.50000000  0.60242465
   0.40891322  0.83333333  0.10242465
   0.40891322  0.83333333  0.60242465
   0.99636465  0.16666667  0.12723376
   0.99636465  0.16666667  0.62723376
   0.99636465  0.50000000  0.12723376
   0.99636465  0.50000000  0.62723376
   0.99636465  0.83333333  0.12723376
   0.99636465  0.83333333  0.62723376
   0.50363535  0.00000000  0.37276624
   0.50363535  0.00000000  0.87276624
   0.50363535  0.33333333  0.37276624
   0.50363535  0.33333333  0.87276624
   0.50363535  0.66666667  0.37276624
   0.50363535  0.66666667  0.87276624
   0.67254688  0.16666667  0.28039823
   0.67254688  0.16666667  0.78039823
   0.67254688  0.50000000  0.28039823
   0.67254688  0.50000000  0.78039823
   0.67254688  0.83333333  0.28039823
   0.67254688  0.83333333  0.78039823
   0.82745312  0.00000000  0.21960177
   0.82745312  0.00000000  0.71960177
   0.82745312  0.33333333  0.21960177
   0.82745312  0.33333333  0.71960177
   0.82745312  0.66666667  0.21960177
   0.82745312  0.66666667  0.71960177
   0.83209082  0.00000000  0.44580968
   0.83209082  0.00000000  0.94580968
   0.83209082  0.33333333  0.44580968
   0.83209082  0.33333333  0.94580968
   0.83209082  0.66666667  0.44580968
   0.83209082  0.66666667  0.94580968
   0.66790918  0.16666667  0.05419032
   0.66790918  0.16666667  0.55419032
   0.66790918  0.50000000  0.05419032
   0.66790918  0.50000000  0.55419032
   0.66790918  0.83333333  0.05419032
   0.66790918  0.83333333  0.55419032
   0.49636465  0.00000000  0.12723376
   0.49636465  0.00000000  0.62723376
   0.49636465  0.33333333  0.12723376
   0.49636465  0.33333333  0.62723376
   0.49636465  0.66666667  0.12723376
   0.49636465  0.66666667  0.62723376
   0.00363535  0.16666667  0.37276624
   0.00363535  0.16666667  0.87276624
   0.00363535  0.50000000  0.37276624
   0.00363535  0.50000000  0.87276624
   0.00363535  0.83333333  0.37276624
   0.00363535  0.83333333  0.87276624
   0.17254688  0.00000000  0.28039823
   0.17254688  0.00000000  0.78039823
   0.17254688  0.33333333  0.28039823
   0.17254688  0.33333333  0.78039823
   0.17254688  0.66666667  0.28039823
   0.17254688  0.66666667  0.78039823
   0.32745312  0.16666667  0.21960177
   0.32745312  0.16666667  0.71960177
   0.32745312  0.50000000  0.21960177
   0.32745312  0.50000000  0.71960177
   0.32745312  0.83333333  0.21960177
   0.32745312  0.83333333  0.71960177
   0.33209082  0.16666667  0.44580968
   0.33209082  0.16666667  0.94580968
   0.33209082  0.50000000  0.44580968
   0.33209082  0.50000000  0.94580968
   0.33209082  0.83333333  0.44580968
   0.33209082  0.83333333  0.94580968
   0.16790918  0.00000000  0.05419032
   0.16790918  0.00000000  0.55419032
   0.16790918  0.33333333  0.05419032
   0.16790918  0.33333333  0.55419032
   0.16790918  0.66666667  0.05419032
   0.16790918  0.66666667  0.55419032
 
 position of ions in cartesian coordinates  (Angst):
   0.00000000  7.65960941 -1.76957834
   0.00000000  6.27547852 -7.41992720
   3.04756735  7.65960941 -1.76957834
   3.04756735  6.27547852 -7.41992720
   6.09513470  7.65960941 -1.76957834
   6.09513470  6.27547852 -7.41992720
   1.52378368  9.37696983 -3.88077052
   1.52378368  7.99283894 -9.53111938
   4.57135103  9.37696983 -3.88077052
   4.57135103  7.99283894 -9.53111938
   7.61891838  9.37696983 -3.88077052
   7.61891838  7.99283894 -9.53111938
   1.52378368  6.15823286 -4.49287885
   1.52378368  4.77410197-10.14322771
   4.57135103  6.15823286 -4.49287885
   4.57135103  4.77410197-10.14322771
   7.61891838  6.15823286 -4.49287885
   7.61891838  4.77410197-10.14322771
   0.00000000 10.87834638 -1.15747000
   0.00000000  9.49421549 -6.80781886
   3.04756735 10.87834638 -1.15747000
   3.04756735  9.49421549 -6.80781886
   6.09513470 10.87834638 -1.15747000
   6.09513470  9.49421549 -6.80781886
   1.52378368  1.51937270 -1.76957834
   1.52378368  0.13524181 -7.41992720
   4.57135103  1.51937270 -1.76957834
   4.57135103  0.13524181 -7.41992720
   7.61891838  1.51937270 -1.76957834
   7.61891838  0.13524181 -7.41992720
   0.00000000  3.23673312 -3.88077052
   0.00000000  1.85260224 -9.53111938
   3.04756735  3.23673312 -3.88077052
   3.04756735  1.85260224 -9.53111938
   6.09513470  3.23673312 -3.88077052
   6.09513470  1.85260224 -9.53111938
   0.00000000  0.01799615 -4.49287885
   0.00000000 -1.36613474-10.14322771
   3.04756735  0.01799615 -4.49287885
   3.04756735 -1.36613474-10.14322771
   6.09513470  0.01799615 -4.49287885
   6.09513470 -1.36613474-10.14322771
   1.52378368  4.73810967 -1.15747000
   1.52378368  3.35397879 -6.80781886
   4.57135103  4.73810967 -1.15747000
   4.57135103  3.35397879 -6.80781886
   7.61891838  4.73810967 -1.15747000
   7.61891838  3.35397879 -6.80781886
   1.52378368 11.88361328 -1.43783021
   1.52378368 10.49948239 -7.08817907
   4.57135103 11.88361328 -1.43783021
   4.57135103 10.49948239 -7.08817907
   7.61891838 11.88361328 -1.43783021
   7.61891838 10.49948239 -7.08817907
   0.00000000  5.15296596 -4.21251865
   0.00000000  3.76883507 -9.86286751
   3.04756735  5.15296596 -4.21251865
   3.04756735  3.76883507 -9.86286751
   6.09513470  5.15296596 -4.21251865
   6.09513470  3.76883507 -9.86286751
   1.52378368  7.48297837 -3.16869569
   1.52378368  6.09884748 -8.81904455
   4.57135103  7.48297837 -3.16869569
   4.57135103  6.09884748 -8.81904455
   7.61891838  7.48297837 -3.16869569
   7.61891838  6.09884748 -8.81904455
   0.00000000  9.55360087 -2.48165317
   0.00000000  8.16946998 -8.13200203
   3.04756735  9.55360087 -2.48165317
   3.04756735  8.16946998 -8.13200203
   6.09513470  9.55360087 -2.48165317
   6.09513470  8.16946998 -8.13200203
   0.00000000  8.98435130 -5.03796047
   0.00000000  7.60022042-10.68830933
   3.04756735  8.98435130 -5.03796047
   3.04756735  7.60022042-10.68830933
   6.09513470  8.98435130 -5.03796047
   6.09513470  7.60022042-10.68830933
   1.52378368  8.05222794 -0.61238839
   1.52378368  6.66809705 -6.26273725
   4.57135103  8.05222794 -0.61238839
   4.57135103  6.66809705 -6.26273725
   7.61891838  8.05222794 -0.61238839
   7.61891838  6.66809705 -6.26273725
   0.00000000  5.74337657 -1.43783021
   0.00000000  4.35924568 -7.08817907
   3.04756735  5.74337657 -1.43783021
   3.04756735  4.35924568 -7.08817907
   6.09513470  5.74337657 -1.43783021
   6.09513470  4.35924568 -7.08817907
   1.52378368 -0.98727075 -4.21251865
   1.52378368 -2.37140163 -9.86286751
   4.57135103 -0.98727075 -4.21251865
   4.57135103 -2.37140163 -9.86286751
   7.61891838 -0.98727075 -4.21251865
   7.61891838 -2.37140163 -9.86286751
   0.00000000  1.34274166 -3.16869569
   0.00000000 -0.04138923 -8.81904455
   3.04756735  1.34274166 -3.16869569
   3.04756735 -0.04138923 -8.81904455
   6.09513470  1.34274166 -3.16869569
   6.09513470 -0.04138923 -8.81904455
   1.52378368  3.41336416 -2.48165317
   1.52378368  2.02923328 -8.13200203
   4.57135103  3.41336416 -2.48165317
   4.57135103  2.02923328 -8.13200203
   7.61891838  3.41336416 -2.48165317
   7.61891838  2.02923328 -8.13200203
   1.52378368  2.84411459 -5.03796047
   1.52378368  1.45998371-10.68830933
   4.57135103  2.84411459 -5.03796047
   4.57135103  1.45998371-10.68830933
   7.61891838  2.84411459 -5.03796047
   7.61891838  1.45998371-10.68830933
   0.00000000  1.91199123 -0.61238839
   0.00000000  0.52786034 -6.26273725
   3.04756735  1.91199123 -0.61238839
   3.04756735  0.52786034 -6.26273725
   6.09513470  1.91199123 -0.61238839
   6.09513470  0.52786034 -6.26273725
 


--------------------------------------------------------------------------------------------------------


 k-point   1 :   0.0000 0.0000 0.0000  plane waves:   27533
 k-point   2 :   0.5000 0.0000 0.0000  plane waves:   27522
 k-point   3 :   0.0000 0.2500 0.0000  plane waves:   27508
 k-point   4 :   0.5000 0.2500 0.0000  plane waves:   27480
 k-point   5 :   0.0000 0.5000 0.0000  plane waves:   27488
 k-point   6 :   0.5000 0.5000 0.0000  plane waves:   27488
 k-point   7 :   0.0000 0.0000 0.2500  plane waves:   27520
 k-point   8 :   0.5000 0.0000 0.2500  plane waves:   27494
 k-point   9 :   0.0000 0.2500 0.2500  plane waves:   27497
 k-point  10 :   0.5000 0.2500 0.2500  plane waves:   27510
 k-point  11 :   0.0000 0.5000 0.2500  plane waves:   27510
 k-point  12 :   0.5000 0.5000 0.2500  plane waves:   27506
 k-point  13 :   0.0000 0.0000 0.5000  plane waves:   27482
 k-point  14 :   0.5000 0.0000 0.5000  plane waves:   27476
 k-point  15 :   0.0000 0.2500 0.5000  plane waves:   27492
 k-point  16 :   0.5000 0.2500 0.5000  plane waves:   27512
 k-point  17 :   0.0000 0.5000 0.5000  plane waves:   27468
 k-point  18 :   0.5000 0.5000 0.5000  plane waves:   27564

 maximum and minimum number of plane-waves per node :     27564    27468

 maximum number of plane-waves:     27564
 maximum index in each direction: 
   IXMAX=   21   IYMAX=   15   IZMAX=   20
   IXMIN=  -21   IYMIN=  -16   IZMIN=  -20


 serial   3D FFT for wavefunctions
 parallel 3D FFT for charge:
    minimum data exchange during FFTs selected (reduces bandwidth)


 FFT grid for exact exchange (Hartree Fock) 
  NGX = 48; NGY = 36; NGZ = 48

 
 Radii for the augmentation spheres in the non-local exchange
 for species   1 augmentation radius   1.392 (default was   1.031)
       energy cutoff for augmentation   1800.0
 for species   2 augmentation radius   0.974 (default was   0.722)
       energy cutoff for augmentation   1800.0
 Maximum index for augmentation-charges in exchange           742
  SETUP_FOCK is finished

 total amount of memory used by VASP MPI-rank0 16069575. kBytes
=======================================================================

   base      :      30000. kBytes
   nonlr-proj:      32953. kBytes
   fftplans  :      51012. kBytes
   grid      :      90980. kBytes
   one-center:       1866. kBytes
   HF        :        129. kBytes
   wavefun   :   15862635. kBytes
 
     INWAV:  cpu time      0.0001: real time      0.0002
 Broyden mixing: mesh for mixing (old mesh)
   NGX = 43   NGY = 31   NGZ = 41
  (NGX  =128   NGY  = 96   NGZ  =120)
  gives a total of  54653 points

 charge density for first step will be calculated from the start-wavefunctions


--------------------------------------------------------------------------------------------------------


 Maximum index for non-local projection operator          1707
 Maximum index for augmentation-charges          5340 (set IRDMAX)


--------------------------------------------------------------------------------------------------------


 initial charge from wavefunction
 First call to EWALD:  gamma=   0.164
 Maximum number of real-space cells 3x 3x 3
 Maximum number of reciprocal cells 3x 2x 3

    FEWALD:  cpu time      0.0726: real time      0.0726


--------------------------------------- Ionic step        1  -------------------------------------------




--------------------------------------- Iteration      1(   1)  ---------------------------------------


    POTLOK:  cpu time      0.0302: real time      0.0302
    SETDIJ:  cpu time      0.1218: real time      0.1217
    TRIAL :  cpu time      6.9522: real time      6.9605
    CORREC:  cpu time      0.0030: real time      0.0030
    --------------------------------------------
      LOOP:  cpu time      9.2346: real time      9.2419

 eigenvalue-minimisations  : 23908
 total energy-change (2. order) :-0.2132532E+05  (-0.5463039E+05)
 number of electron    1055.9999365 magnetization 
 augmentation part      121.8350412 magnetization 

 Free energy of the ion-electron system (eV)
  ---------------------------------------------------
  alpha Z        PSCENC =      5537.53060054
  Ewald energy   TEWEN  =    -88891.04517456
  -Hartree energ DENC   =     -2100.49040983
  -exchange      EXHF   =         0.00000000
  -V(xc)+E(xc)   XCENC  =      2806.50487146
  PAW double counting   =     56087.69325291   -87887.74360080
  entropy T*S    EENTRO =        -0.00602335
  eigenvalues    EBANDS =    -40737.83621877
  atomic energy  EATOM  =    133860.07490555
  ---------------------------------------------------
  free energy    TOTEN  =    -21325.31779684 eV

  energy without entropy =   -21325.31177348  energy(sigma->0) =   -21325.31478516
  exchange ACFDT corr.  =         0.00000000  see jH, gK, PRB 81, 115126


--------------------------------------------------------------------------------------------------------




--------------------------------------- Iteration      1(   2)  ---------------------------------------


    TRIAL :  cpu time      7.8990: real time      7.8971
    CORREC:  cpu time      0.0032: real time      0.0032
    --------------------------------------------
      LOOP:  cpu time      7.9024: real time      7.9014

 eigenvalue-minimisations  : 30574
 total energy-change (2. order) :-0.4412023E+05  (-0.4284829E+05)
 number of electron    1055.9999365 magnetization 
 augmentation part      121.8350412 magnetization 

 Free energy of the ion-electron system (eV)
  ---------------------------------------------------
  alpha Z        PSCENC =      5537.53060054
  Ewald energy   TEWEN  =    -88891.04517456
  -Hartree energ DENC   =     -2100.49040983
  -exchange      EXHF   =         0.00000000
  -V(xc)+E(xc)   XCENC  =      2806.50487146
  PAW double counting   =     56087.69325291   -87887.74360080
  entropy T*S    EENTRO =        -0.02192561
  eigenvalues    EBANDS =    -84858.05244123
  atomic energy  EATOM  =    133860.07490555
  ---------------------------------------------------
  free energy    TOTEN  =    -65445.54992157 eV

  energy without entropy =   -65445.52799595  energy(sigma->0) =   -65445.53895876
  exchange ACFDT corr.  =         0.00000000  see jH, gK, PRB 81, 115126


--------------------------------------------------------------------------------------------------------




--------------------------------------- Iteration      1(   3)  ---------------------------------------


    TRIAL :  cpu time      8.1726: real time      8.1705
    CORREC:  cpu time      0.0036: real time      0.0036
    --------------------------------------------
      LOOP:  cpu time      8.1763: real time      8.1748

 eigenvalue-minimisations  : 32542
 total energy-change (2. order) :-0.4439486E+04  (-0.3946081E+04)
 number of electron    1055.9999365 magnetization 
 augmentation part      121.8350412 magnetization 

 Free energy of the ion-electron system (eV)
  ---------------------------------------------------
  alpha Z        PSCENC =      5537.53060054
  Ewald energy   TEWEN  =    -88891.04517456
  -Hartree energ DENC   =     -2100.49040983
  -exchange      EXHF   =         0.00000000
  -V(xc)+E(xc)   XCENC  =      2806.50487146
  PAW double counting   =     56087.69325291   -87887.74360080
  entropy T*S    EENTRO =        -0.07598894
  eigenvalues    EBANDS =    -89297.48483424
  atomic energy  EATOM  =    133860.07490555
  ---------------------------------------------------
  free energy    TOTEN  =    -69885.03637790 eV

  energy without entropy =   -69884.96038896  energy(sigma->0) =   -69884.99838343
  exchange ACFDT corr.  =         0.00000000  see jH, gK, PRB 81, 115126


--------------------------------------------------------------------------------------------------------




--------------------------------------- Iteration      1(   4)  ---------------------------------------


    TRIAL :  cpu time      9.0086: real time      9.0064
    CORREC:  cpu time      0.0037: real time      0.0037
    --------------------------------------------
      LOOP:  cpu time      9.0124: real time      9.0108

 eigenvalue-minimisations  : 37440
 total energy-change (2. order) :-0.5061871E+03  (-0.4275783E+03)
 number of electron    1055.9999365 magnetization 
 augmentation part      121.8350412 magnetization 

 Free energy of the ion-electron system (eV)
  ---------------------------------------------------
  alpha Z        PSCENC =      5537.53060054
  Ewald energy   TEWEN  =    -88891.04517456
  -Hartree energ DENC   =     -2100.49040983
  -exchange      EXHF   =         0.00000000
  -V(xc)+E(xc)   XCENC  =      2806.50487146
  PAW double counting   =     56087.69325291   -87887.74360080
  entropy T*S    EENTRO =        -0.06906343
  eigenvalues    EBANDS =    -89803.67890033
  atomic energy  EATOM  =    133860.07490555
  ---------------------------------------------------
  free energy    TOTEN  =    -70391.22351848 eV

  energy without entropy =   -70391.15445505  energy(sigma->0) =   -70391.18898677
  exchange ACFDT corr.  =         0.00000000  see jH, gK, PRB 81, 115126


--------------------------------------------------------------------------------------------------------




--------------------------------------- Iteration      1(   5)  ---------------------------------------


    POTLOK:  cpu time      1.2813: real time      1.2810
    SETDIJ:  cpu time      0.4572: real time      0.4570
    TRIAL :  cpu time   2324.1760: real time   2323.6886
    CORREC:  cpu time      0.0034: real time      0.0034
    CHARGE:  cpu time      0.8130: real time      0.8128
    --------------------------------------------
      LOOP:  cpu time   2326.7314: real time   2326.2662

 eigenvalue-minimisations  : 42112
 total energy-change (2. order) : 0.3306268E+05  (-0.7890839E+02)
 number of electron    1055.9998360 magnetization 
 augmentation part      494.1770525 magnetization 

 Free energy of the ion-electron system (eV)
  ---------------------------------------------------
  alpha Z        PSCENC =      5537.53060054
  Ewald energy   TEWEN  =    -88891.04517456
  -Hartree energ DENC   =     -2100.49040983
  -exchange      EXHF   =      5091.36318043
  -V(xc)+E(xc)   XCENC  =      1860.54160962
  PAW double counting   =     56750.64647418   -58821.76547288
  entropy T*S    EENTRO =        -0.03511667
  eigenvalues    EBANDS =    -90615.36700987
  atomic energy  EATOM  =    133860.07490555
  ---------------------------------------------------
  free energy    TOTEN  =    -37328.54641349 eV

  energy without entropy =   -37328.51129682  energy(sigma->0) =   -37328.52885516
  exchange ACFDT corr.  =        -0.11409647  see jH, gK, PRB 81, 115126


--------------------------------------------------------------------------------------------------------




--------------------------------------- Iteration      1(   6)  ---------------------------------------


    POTLOK:  cpu time      1.4066: real time      1.4064
    SETDIJ:  cpu time      0.4388: real time      0.4387
    TRIAL :  cpu time   2304.3641: real time   2303.9182
    CORREC:  cpu time   2311.1336: real time   2310.7282
    CHARGE:  cpu time      0.8015: real time      0.8014
    --------------------------------------------
      LOOP:  cpu time   4618.1448: real time   4617.2935

 eigenvalue-minimisations  :     0
 total energy-change (2. order) : 0.5154821E+05  (-0.1332757E+05)
 number of electron    1055.9998321 magnetization 
 augmentation part      482.2301647 magnetization 

 Free energy of the ion-electron system (eV)
  ---------------------------------------------------
  alpha Z        PSCENC =      5537.53060054
  Ewald energy   TEWEN  =    -88891.04517456
  -Hartree energ DENC   =    -60583.41935153
  -exchange      EXHF   =      5220.11587429
  -V(xc)+E(xc)   XCENC  =      3549.64598479
  PAW double counting   =    142065.92567830  -166297.02571943
  entropy T*S    EENTRO =        -0.02521304
  eigenvalues    EBANDS =     39757.89326217
  atomic energy  EATOM  =    133860.07490555
  ---------------------------------------------------
  free energy    TOTEN  =     14219.66094347 eV

  energy without entropy =    14219.68615651  energy(sigma->0) =    14219.67354999
  exchange ACFDT corr.  =        -0.05505275  see jH, gK, PRB 81, 115126


--------------------------------------------------------------------------------------------------------




--------------------------------------- Iteration      1(   7)  ---------------------------------------


    POTLOK:  cpu time      1.4970: real time      1.4968
    SETDIJ:  cpu time      0.4209: real time      0.4209
    TRIAL :  cpu time   2807.1522: real time   2806.5749
    CORREC:  cpu time   2327.3348: real time   2326.8039
    CHARGE:  cpu time      0.7785: real time      0.7782
    --------------------------------------------
      LOOP:  cpu time   5137.1856: real time   5136.0775

 eigenvalue-minimisations  :     0
 total energy-change (2. order) :-0.1185476E+05  (-0.1328884E+04)
 number of electron    1055.9998476 magnetization 
 augmentation part      453.8412649 magnetization 

 Free energy of the ion-electron system (eV)
  ---------------------------------------------------
  alpha Z        PSCENC =      5537.53060054
  Ewald energy   TEWEN  =    -88891.04517456
  -Hartree energ DENC   =    -41323.05660717
  -exchange      EXHF   =      4549.02633448
  -V(xc)+E(xc)   XCENC  =      2998.45204719
  PAW double counting   =    128964.38270104  -148567.83989222
  entropy T*S    EENTRO =        -0.07213692
  eigenvalues    EBANDS =      5237.40439095
  atomic energy  EATOM  =    133860.07490555
  ---------------------------------------------------
  free energy    TOTEN  =      2364.90409277 eV

  energy without entropy =     2364.97622968  energy(sigma->0) =     2364.94016123
  exchange ACFDT corr.  =      -125.55036517  see jH, gK, PRB 81, 115126


--------------------------------------------------------------------------------------------------------




--------------------------------------- Iteration      1(   8)  ---------------------------------------


    POTLOK:  cpu time      1.4632: real time      1.4629
    SETDIJ:  cpu time      0.4622: real time      0.4688
    TRIAL :  cpu time   2312.8170: real time   2312.3244
    CORREC:  cpu time   2552.3133: real time   2551.7631
    CHARGE:  cpu time     48.2228: real time     48.2149
    --------------------------------------------
      LOOP:  cpu time   4915.2792: real time   4914.2360

 eigenvalue-minimisations  :     0
 total energy-change (2. order) :-0.1418491E+04  (-0.3755768E+03)
 number of electron    1055.9998510 magnetization 
 augmentation part      439.4489461 magnetization 

 Free energy of the ion-electron system (eV)
  ---------------------------------------------------
  alpha Z        PSCENC =      5537.53060054
  Ewald energy   TEWEN  =    -88891.04517456
  -Hartree energ DENC   =    -36022.85650123
  -exchange      EXHF   =      4314.43664479
  -V(xc)+E(xc)   XCENC  =      2830.88563308
  PAW double counting   =    123856.12754319  -140753.83933514
  entropy T*S    EENTRO =        -0.12324513
  eigenvalues    EBANDS =     -3784.82917682
  atomic energy  EATOM  =    133860.07490555
  ---------------------------------------------------
  free energy    TOTEN  =       946.41300250 eV

  energy without entropy =      946.53624764  energy(sigma->0) =      946.47462507
  exchange ACFDT corr.  =      -107.49651496  see jH, gK, PRB 81, 115126


--------------------------------------------------------------------------------------------------------




--------------------------------------- Iteration      1(   9)  ---------------------------------------


    POTLOK:  cpu time      2.7171: real time      2.7167
    SETDIJ:  cpu time      0.4220: real time      0.4219
    TRIAL :  cpu time   2758.3907: real time   2757.8502
    CORREC:  cpu time   2314.9336: real time   2314.4389
    CHARGE:  cpu time      0.8071: real time      0.8069
    --------------------------------------------
      LOOP:  cpu time   5077.2709: real time   5076.2353

 eigenvalue-minimisations  :     0
 total energy-change (2. order) :-0.6620904E+03  (-0.6503531E+03)
 number of electron    1055.9998412 magnetization 
 augmentation part      448.5093060 magnetization 

 Free energy of the ion-electron system (eV)
  ---------------------------------------------------
  alpha Z        PSCENC =      5537.53060054
  Ewald energy   TEWEN  =    -88891.04517456
  -Hartree energ DENC   =    -32833.11670449
  -exchange      EXHF   =      4157.90262814
  -V(xc)+E(xc)   XCENC  =      2743.44050242
  PAW double counting   =    119175.43317326  -134240.17636600
  entropy T*S    EENTRO =        -0.08574626
  eigenvalues    EBANDS =     -9225.59767801
  atomic energy  EATOM  =    133860.07490555
  ---------------------------------------------------
  free energy    TOTEN  =       284.32264172 eV

  energy without entropy =      284.40838798  energy(sigma->0) =      284.36551485
  exchange ACFDT corr.  =       -28.37956924  see jH, gK, PRB 81, 115126


--------------------------------------------------------------------------------------------------------




--------------------------------------- Iteration      1(  10)  ---------------------------------------


    POTLOK:  cpu time      1.4384: real time      1.4382
    SETDIJ:  cpu time      0.4636: real time      0.4635
    TRIAL :  cpu time   2330.3285: real time   2329.8546
    CORREC:  cpu time   2312.5853: real time   2312.1422
    CHARGE:  cpu time      0.8071: real time      0.8069
    --------------------------------------------
      LOOP:  cpu time   4645.6232: real time   4644.7058

 eigenvalue-minimisations  :     0
 total energy-change (2. order) :-0.1249109E+03  (-0.7316159E+03)
 number of electron    1055.9998400 magnetization 
 augmentation part      460.4136310 magnetization 

 Free energy of the ion-electron system (eV)
  ---------------------------------------------------
  alpha Z        PSCENC =      5537.53060054
  Ewald energy   TEWEN  =    -88891.04517456
  -Hartree energ DENC   =    -34179.19523416
  -exchange      EXHF   =      4217.36067379
  -V(xc)+E(xc)   XCENC  =      2778.81628023
  PAW double counting   =    119588.93988549  -135223.52328884
  entropy T*S    EENTRO =        -0.05346563
  eigenvalues    EBANDS =     -7529.46113996
  atomic energy  EATOM  =    133860.07490555
  ---------------------------------------------------
  free energy    TOTEN  =       159.41176184 eV

  energy without entropy =      159.46522747  energy(sigma->0) =      159.43849466
  exchange ACFDT corr.  =      -142.98807427  see jH, gK, PRB 81, 115126


--------------------------------------------------------------------------------------------------------




--------------------------------------- Iteration      1(  11)  ---------------------------------------


    POTLOK:  cpu time      1.4966: real time      1.4963
    SETDIJ:  cpu time      0.4194: real time      0.4194
    TRIAL :  cpu time   2320.5787: real time   2320.1776
    CORREC:  cpu time   2308.4402: real time   2307.9925
    CHARGE:  cpu time      0.7993: real time      0.7991
    --------------------------------------------
      LOOP:  cpu time   4631.7362: real time   4630.8871

 eigenvalue-minimisations  :     0
 total energy-change (2. order) :-0.2859621E+03  (-0.5869163E+03)
 number of electron    1055.9998472 magnetization 
 augmentation part      464.1672689 magnetization 

 Free energy of the ion-electron system (eV)
  ---------------------------------------------------
  alpha Z        PSCENC =      5537.53060054
  Ewald energy   TEWEN  =    -88891.04517456
  -Hartree energ DENC   =    -35586.92287994
  -exchange      EXHF   =      4292.83004701
  -V(xc)+E(xc)   XCENC  =      2827.48770409
  PAW double counting   =    121269.35255645  -137612.84903707
  entropy T*S    EENTRO =        -0.02573195
  eigenvalues    EBANDS =     -5822.95562708
  atomic energy  EATOM  =    133860.07490555
  ---------------------------------------------------
  free energy    TOTEN  =      -126.55037064 eV

  energy without entropy =     -126.52463869  energy(sigma->0) =     -126.53750466
  exchange ACFDT corr.  =       -99.74980971  see jH, gK, PRB 81, 115126


--------------------------------------------------------------------------------------------------------




--------------------------------------- Iteration      1(  12)  ---------------------------------------


    POTLOK:  cpu time      1.4622: real time      1.4619
    SETDIJ:  cpu time      0.4359: real time      0.4358
    TRIAL :  cpu time   2307.1026: real time   2306.5970
    CORREC:  cpu time   2302.9638: real time   2302.4698
    CHARGE:  cpu time      0.7903: real time      0.7900
    --------------------------------------------
      LOOP:  cpu time   4612.7557: real time   4611.7561

 eigenvalue-minimisations  :     0
 total energy-change (2. order) :-0.5411762E+03  (-0.2540398E+03)
 number of electron    1055.9998478 magnetization 
 augmentation part      460.7447572 magnetization 

 Free energy of the ion-electron system (eV)
  ---------------------------------------------------
  alpha Z        PSCENC =      5537.53060054
  Ewald energy   TEWEN  =    -88891.04517456
  -Hartree energ DENC   =    -35055.20434585
  -exchange      EXHF   =      4332.03399173
  -V(xc)+E(xc)   XCENC  =      2834.01036594
  PAW double counting   =    121998.58353071  -138115.64457655
  entropy T*S    EENTRO =        -0.01187323
  eigenvalues    EBANDS =     -7168.04011624
  atomic energy  EATOM  =    133860.07490555
  ---------------------------------------------------
  free energy    TOTEN  =      -667.72655067 eV

  energy without entropy =     -667.71467745  energy(sigma->0) =     -667.72061406
  exchange ACFDT corr.  =       -12.56159682  see jH, gK, PRB 81, 115126


--------------------------------------------------------------------------------------------------------




--------------------------------------- Iteration      1(  13)  ---------------------------------------


    POTLOK:  cpu time      1.4665: real time      1.4662
    SETDIJ:  cpu time      0.4418: real time      0.4417
    TRIAL :  cpu time   2300.7752: real time   2300.2479
    CORREC:  cpu time   2302.0459: real time   2301.5378
    CHARGE:  cpu time      0.7955: real time      0.7953
    --------------------------------------------
      LOOP:  cpu time   4605.5252: real time   4604.4963

 eigenvalue-minimisations  :     0
 total energy-change (2. order) :-0.2072370E+03  (-0.6491046E+02)
 number of electron    1055.9998511 magnetization 
 augmentation part      457.4605004 magnetization 

 Free energy of the ion-electron system (eV)
  ---------------------------------------------------
  alpha Z        PSCENC =      5537.53060054
  Ewald energy   TEWEN  =    -88891.04517456
  -Hartree energ DENC   =    -34326.43868079
  -exchange      EXHF   =      4336.26800410
  -V(xc)+E(xc)   XCENC  =      2817.54193644
  PAW double counting   =    122204.28585501  -137780.36817847
  entropy T*S    EENTRO =        -0.00787080
  eigenvalues    EBANDS =     -8632.80091147
  atomic energy  EATOM  =    133860.07490555
  ---------------------------------------------------
  free energy    TOTEN  =      -874.96351687 eV

  energy without entropy =     -874.95564607  energy(sigma->0) =     -874.95958147
  exchange ACFDT corr.  =        -0.16580689  see jH, gK, PRB 81, 115126


--------------------------------------------------------------------------------------------------------




--------------------------------------- Iteration      1(  14)  ---------------------------------------


    POTLOK:  cpu time      1.4506: real time      1.4508
    SETDIJ:  cpu time      0.4576: real time      0.4575
    TRIAL :  cpu time   2296.2108: real time   2295.6994
    CORREC:  cpu time   2301.1735: real time   2300.6936
    CHARGE:  cpu time      0.7941: real time      0.7939
    --------------------------------------------
      LOOP:  cpu time   4600.0869: real time   4599.0958

 eigenvalue-minimisations  :     0
 total energy-change (2. order) :-0.6661398E+02  (-0.2935409E+02)
 number of electron    1055.9998533 magnetization 
 augmentation part      460.6938147 magnetization 

 Free energy of the ion-electron system (eV)
  ---------------------------------------------------
  alpha Z        PSCENC =      5537.53060054
  Ewald energy   TEWEN  =    -88891.04517456
  -Hartree energ DENC   =    -33696.94775886
  -exchange      EXHF   =      4303.73542640
  -V(xc)+E(xc)   XCENC  =      2793.90316202
  PAW double counting   =    121717.08404824  -137026.29885949
  entropy T*S    EENTRO =        -0.00267497
  eigenvalues    EBANDS =     -9539.60597639
  atomic energy  EATOM  =    133860.07490555
  ---------------------------------------------------
  free energy    TOTEN  =      -941.57749733 eV

  energy without entropy =     -941.57482236  energy(sigma->0) =     -941.57615985
  exchange ACFDT corr.  =        -0.09529864  see jH, gK, PRB 81, 115126


--------------------------------------------------------------------------------------------------------




--------------------------------------- Iteration      1(  15)  ---------------------------------------


    POTLOK:  cpu time      1.4377: real time      1.4374
    SETDIJ:  cpu time      0.4744: real time      0.4743
    TRIAL :  cpu time   2296.8495: real time   2296.3459
    CORREC:  cpu time   2298.4057: real time   2297.9206
    CHARGE:  cpu time      0.7720: real time      0.7718
    --------------------------------------------
      LOOP:  cpu time   4597.9404: real time   4596.9516

 eigenvalue-minimisations  :     0
 total energy-change (2. order) :-0.3002071E+02  (-0.1032614E+02)
 number of electron    1055.9998540 magnetization 
 augmentation part      461.4045322 magnetization 

 Free energy of the ion-electron system (eV)
  ---------------------------------------------------
  alpha Z        PSCENC =      5537.53060054
  Ewald energy   TEWEN  =    -88891.04517456
  -Hartree energ DENC   =    -33846.04836497
  -exchange      EXHF   =      4306.95957676
  -V(xc)+E(xc)   XCENC  =      2795.62108229
  PAW double counting   =    121582.31116892  -137172.00742994
  entropy T*S    EENTRO =        -0.00000000
  eigenvalues    EBANDS =     -9144.99189607
  atomic energy  EATOM  =    133860.07490555
  ---------------------------------------------------
  free energy    TOTEN  =      -971.59820644 eV

  energy without entropy =     -971.59820644  energy(sigma->0) =     -971.59820644
  exchange ACFDT corr.  =        -0.01998849  see jH, gK, PRB 81, 115126


--------------------------------------------------------------------------------------------------------




--------------------------------------- Iteration      1(  16)  ---------------------------------------


    POTLOK:  cpu time      1.4733: real time      1.4730
    SETDIJ:  cpu time      0.4605: real time      0.4604
    TRIAL :  cpu time   2295.3987: real time   2294.9453
    CORREC:  cpu time   2297.3346: real time   2296.9065
    CHARGE:  cpu time      0.7706: real time      0.7705
    --------------------------------------------
      LOOP:  cpu time   4595.4401: real time   4594.5585

 eigenvalue-minimisations  :     0
 total energy-change (2. order) :-0.1109750E+02  (-0.4263192E+01)
 number of electron    1055.9998550 magnetization 
 augmentation part      460.9288910 magnetization 

 Free energy of the ion-electron system (eV)
  ---------------------------------------------------
  alpha Z        PSCENC =      5537.53060054
  Ewald energy   TEWEN  =    -88891.04517456
  -Hartree energ DENC   =    -33908.14819839
  -exchange      EXHF   =      4316.76249994
  -V(xc)+E(xc)   XCENC  =      2799.28254095
  PAW double counting   =    121587.92279025  -137167.30454788
  entropy T*S    EENTRO =        -0.00000000
  eigenvalues    EBANDS =     -9117.77112517
  atomic energy  EATOM  =    133860.07490555
  ---------------------------------------------------
  free energy    TOTEN  =      -982.69570876 eV

  energy without entropy =     -982.69570876  energy(sigma->0) =     -982.69570876
  exchange ACFDT corr.  =        -0.00000000  see jH, gK, PRB 81, 115126


--------------------------------------------------------------------------------------------------------




--------------------------------------- Iteration      1(  17)  ---------------------------------------


    POTLOK:  cpu time      1.4405: real time      1.4402
    SETDIJ:  cpu time      0.4668: real time      0.4667
[...]
   0.147E-05 0.464E+02 -.295E+02   -.782E-13 -.442E+02 0.311E+02   -.311E-20 -.191E+01 -.160E+01
   0.268E-05 0.464E+02 -.295E+02   -.568E-13 -.442E+02 0.311E+02   0.000E+00 -.191E+01 -.160E+01
   0.201E-03 0.464E+02 -.295E+02   -.654E-10 -.442E+02 0.311E+02   0.116E-20 -.191E+01 -.160E+01
   -.128E-03 0.464E+02 -.295E+02   -.654E-10 -.442E+02 0.311E+02   0.119E-20 -.191E+01 -.160E+01
   -.356E-03 -.177E+02 0.146E+02   0.386E-10 0.251E+02 -.183E+02   -.275E-20 -.621E+01 0.320E+01
   -.965E-04 -.177E+02 0.146E+02   0.386E-10 0.251E+02 -.183E+02   0.360E-20 -.621E+01 0.320E+01
   -.342E-05 -.177E+02 0.146E+02   0.138E-13 0.251E+02 -.183E+02   0.249E-20 -.621E+01 0.320E+01
   0.951E-05 -.177E+02 0.146E+02   0.995E-13 0.251E+02 -.183E+02   0.241E-20 -.621E+01 0.320E+01
   0.356E-03 -.177E+02 0.146E+02   -.386E-10 0.251E+02 -.183E+02   -.212E-21 -.621E+01 0.320E+01
   0.872E-04 -.177E+02 0.146E+02   -.386E-10 0.251E+02 -.183E+02   0.254E-20 -.621E+01 0.320E+01
   0.496E-05 0.177E+02 -.146E+02   0.355E-14 -.251E+02 0.183E+02   -.805E-20 0.621E+01 -.320E+01
   0.749E-05 0.177E+02 -.146E+02   -.826E-13 -.251E+02 0.183E+02   0.561E-20 0.621E+01 -.320E+01
   0.147E-03 0.177E+02 -.146E+02   -.387E-10 -.251E+02 0.183E+02   0.254E-20 0.621E+01 -.320E+01
   0.169E-03 0.177E+02 -.146E+02   -.387E-10 -.251E+02 0.183E+02   0.604E-20 0.621E+01 -.320E+01
   -.155E-03 0.177E+02 -.146E+02   0.386E-10 -.251E+02 0.183E+02   -.127E-20 0.621E+01 -.320E+01
   -.171E-03 0.177E+02 -.146E+02   0.387E-10 -.251E+02 0.183E+02   0.614E-20 0.621E+01 -.320E+01
   0.596E-04 0.661E+02 0.376E+02   0.290E-10 -.641E+02 -.329E+02   -.169E-19 -.170E+01 -.397E+01
   -.497E-04 0.661E+02 0.376E+02   0.291E-10 -.641E+02 -.329E+02   -.136E-19 -.170E+01 -.397E+01
   0.610E-06 0.661E+02 0.376E+02   -.229E-13 -.641E+02 -.329E+02   0.237E-19 -.170E+01 -.397E+01
   -.457E-05 0.661E+02 0.376E+02   -.380E-13 -.641E+02 -.329E+02   -.339E-20 -.170E+01 -.397E+01
   -.656E-04 0.661E+02 0.376E+02   -.291E-10 -.641E+02 -.329E+02   -.169E-19 -.170E+01 -.397E+01
   0.483E-04 0.661E+02 0.376E+02   -.292E-10 -.641E+02 -.329E+02   -.119E-19 -.170E+01 -.397E+01
   0.589E-06 -.661E+02 -.376E+02   -.373E-13 0.641E+02 0.329E+02   0.280E-19 0.170E+01 0.397E+01
   -.111E-04 -.661E+02 -.376E+02   -.453E-13 0.641E+02 0.329E+02   0.254E-20 0.170E+01 0.397E+01
   -.175E-03 -.661E+02 -.376E+02   -.292E-10 0.641E+02 0.329E+02   -.169E-20 0.170E+01 0.397E+01
   0.302E-05 -.661E+02 -.376E+02   -.292E-10 0.641E+02 0.329E+02   -.229E-19 0.170E+01 0.397E+01
   0.170E-03 -.661E+02 -.376E+02   0.291E-10 0.641E+02 0.329E+02   -.254E-20 0.170E+01 0.397E+01
   0.123E-04 -.661E+02 -.376E+02   0.291E-10 0.641E+02 0.329E+02   0.678E-20 0.170E+01 0.397E+01
   0.401E-05 0.121E+03 0.632E+02   -.551E-13 -.134E+03 -.597E+02   -.161E-19 0.107E+02 -.295E+01
   0.105E-04 0.121E+03 0.632E+02   -.457E-13 -.134E+03 -.597E+02   0.136E-19 0.107E+02 -.295E+01
   -.135E-03 0.121E+03 0.632E+02   -.328E-10 -.134E+03 -.597E+02   -.847E-20 0.107E+02 -.295E+01
   -.191E-03 0.121E+03 0.632E+02   -.329E-10 -.134E+03 -.597E+02   0.212E-19 0.107E+02 -.295E+01
   0.136E-03 0.121E+03 0.632E+02   0.328E-10 -.134E+03 -.597E+02   -.152E-19 0.107E+02 -.295E+01
   0.185E-03 0.121E+03 0.632E+02   0.328E-10 -.134E+03 -.597E+02   0.254E-20 0.107E+02 -.295E+01
   -.104E-03 -.121E+03 -.632E+02   0.330E-10 0.134E+03 0.597E+02   -.119E-19 -.107E+02 0.295E+01
   0.150E-03 -.121E+03 -.632E+02   0.328E-10 0.134E+03 0.597E+02   0.119E-19 -.107E+02 0.295E+01
   -.457E-05 -.121E+03 -.632E+02   -.155E-14 0.134E+03 0.597E+02   -.424E-20 -.107E+02 0.295E+01
   0.166E-05 -.121E+03 -.632E+02   -.155E-13 0.134E+03 0.597E+02   -.254E-20 -.107E+02 0.295E+01
   0.106E-03 -.121E+03 -.632E+02   -.330E-10 0.134E+03 0.597E+02   -.254E-20 -.107E+02 0.295E+01
   -.150E-03 -.121E+03 -.632E+02   -.328E-10 0.134E+03 0.597E+02   -.169E-20 -.107E+02 0.295E+01
   -.732E-05 -.177E+02 0.146E+02   0.737E-13 0.251E+02 -.183E+02   -.106E-20 -.621E+01 0.320E+01
   -.645E-05 -.177E+02 0.146E+02   -.622E-14 0.251E+02 -.183E+02   -.106E-20 -.621E+01 0.320E+01
   0.168E-03 -.177E+02 0.146E+02   -.386E-10 0.251E+02 -.183E+02   0.000E+00 -.621E+01 0.320E+01
   0.154E-03 -.177E+02 0.146E+02   -.386E-10 0.251E+02 -.183E+02   0.424E-20 -.621E+01 0.320E+01
   -.167E-03 -.177E+02 0.146E+02   0.386E-10 0.251E+02 -.183E+02   0.635E-21 -.621E+01 0.320E+01
   -.145E-03 -.177E+02 0.146E+02   0.387E-10 0.251E+02 -.183E+02   0.466E-20 -.621E+01 0.320E+01
   -.891E-04 0.177E+02 -.146E+02   0.387E-10 -.251E+02 0.183E+02   -.291E-20 0.621E+01 -.320E+01
   -.364E-03 0.177E+02 -.146E+02   0.387E-10 -.251E+02 0.183E+02   0.413E-20 0.621E+01 -.320E+01
   -.827E-05 0.177E+02 -.146E+02   -.355E-13 -.251E+02 0.183E+02   -.212E-20 0.621E+01 -.320E+01
   0.106E-05 0.177E+02 -.146E+02   -.622E-14 -.251E+02 0.183E+02   0.106E-20 0.621E+01 -.320E+01
   0.953E-04 0.177E+02 -.146E+02   -.387E-10 -.251E+02 0.183E+02   -.741E-20 0.621E+01 -.320E+01
   0.359E-03 0.177E+02 -.146E+02   -.387E-10 -.251E+02 0.183E+02   0.699E-20 0.621E+01 -.320E+01
   0.114E-04 0.661E+02 0.376E+02   -.266E-13 -.641E+02 -.329E+02   0.110E-19 -.170E+01 -.397E+01
   -.346E-05 0.661E+02 0.376E+02   -.338E-13 -.641E+02 -.329E+02   0.110E-19 -.170E+01 -.397E+01
   -.101E-04 0.661E+02 0.376E+02   -.291E-10 -.641E+02 -.329E+02   -.254E-20 -.170E+01 -.397E+01
   -.170E-03 0.661E+02 0.376E+02   -.292E-10 -.641E+02 -.329E+02   -.847E-21 -.170E+01 -.397E+01
   -.123E-05 0.661E+02 0.376E+02   0.291E-10 -.641E+02 -.329E+02   0.847E-20 -.170E+01 -.397E+01
   0.174E-03 0.661E+02 0.376E+02   0.291E-10 -.641E+02 -.329E+02   -.152E-19 -.170E+01 -.397E+01
   -.445E-04 -.661E+02 -.376E+02   0.291E-10 0.641E+02 0.329E+02   0.102E-19 0.170E+01 0.397E+01
   0.651E-04 -.661E+02 -.376E+02   0.291E-10 0.641E+02 0.329E+02   -.110E-19 0.170E+01 0.397E+01
   0.170E-05 -.661E+02 -.376E+02   -.222E-13 0.641E+02 0.329E+02   0.440E-19 0.170E+01 0.397E+01
   -.266E-05 -.661E+02 -.376E+02   -.711E-14 0.641E+02 0.329E+02   -.110E-19 0.170E+01 0.397E+01
   0.501E-04 -.661E+02 -.376E+02   -.292E-10 0.641E+02 0.329E+02   0.169E-20 0.170E+01 0.397E+01
   -.627E-04 -.661E+02 -.376E+02   -.292E-10 0.641E+02 0.329E+02   0.102E-19 0.170E+01 0.397E+01
   0.144E-03 0.121E+03 0.632E+02   0.328E-10 -.134E+03 -.597E+02   -.152E-19 0.107E+02 -.295E+01
   -.100E-03 0.121E+03 0.632E+02   0.328E-10 -.134E+03 -.597E+02   0.144E-19 0.107E+02 -.295E+01
   0.489E-06 0.121E+03 0.632E+02   -.426E-13 -.134E+03 -.597E+02   -.136E-19 0.107E+02 -.295E+01
   0.786E-06 0.121E+03 0.632E+02   -.524E-13 -.134E+03 -.597E+02   0.136E-19 0.107E+02 -.295E+01
   -.149E-03 0.121E+03 0.632E+02   -.329E-10 -.134E+03 -.597E+02   -.195E-19 0.107E+02 -.295E+01
   0.107E-03 0.121E+03 0.632E+02   -.329E-10 -.134E+03 -.597E+02   0.593E-20 0.107E+02 -.295E+01
   -.641E-05 -.121E+03 -.632E+02   -.364E-13 0.134E+03 0.597E+02   0.678E-20 -.107E+02 0.295E+01
   -.189E-05 -.121E+03 -.632E+02   -.213E-13 0.134E+03 0.597E+02   0.254E-19 -.107E+02 0.295E+01
   -.194E-03 -.121E+03 -.632E+02   -.331E-10 0.134E+03 0.597E+02   -.102E-19 -.107E+02 0.295E+01
   -.134E-03 -.121E+03 -.632E+02   -.328E-10 0.134E+03 0.597E+02   0.339E-20 -.107E+02 0.295E+01
   0.195E-03 -.121E+03 -.632E+02   0.330E-10 0.134E+03 0.597E+02   -.847E-20 -.107E+02 0.295E+01
   0.137E-03 -.121E+03 -.632E+02   0.328E-10 0.134E+03 0.597E+02   0.762E-20 -.107E+02 0.295E+01
 -----------------------------------------------------------------------------------------------
   -.639E-05 0.331E-04 0.514E-05   -.117E-12 -.185E-11 0.113E-11   0.470E-19 0.108E-12 0.107E-13
 
 
 POSITION                                       TOTAL-FORCE (eV/Angst)
 -----------------------------------------------------------------------------------
      0.00000      7.65961     -1.76958        -0.000000      0.077259      0.005360
      0.00000      6.27548     -7.41993        -0.000000      0.077259      0.005360
      3.04757      7.65961     -1.76958        -0.000000      0.077259      0.005360
      3.04757      6.27548     -7.41993        -0.000000      0.077259      0.005360
      6.09513      7.65961     -1.76958         0.000000      0.077259      0.005360
      6.09513      6.27548     -7.41993        -0.000000      0.077259      0.005360
      1.52378      9.37697     -3.88077         0.000000     -0.077259     -0.005360
      1.52378      7.99284     -9.53112         0.000000     -0.077259     -0.005360
      4.57135      9.37697     -3.88077        -0.000000     -0.077259     -0.005360
      4.57135      7.99284     -9.53112        -0.000000     -0.077259     -0.005360
      7.61892      9.37697     -3.88077         0.000000     -0.077259     -0.005360
      7.61892      7.99284     -9.53112         0.000000     -0.077259     -0.005360
      1.52378      6.15823     -4.49288        -0.000000     -0.024806      0.011504
      1.52378      4.77410    -10.14323        -0.000000     -0.024806      0.011504
      4.57135      6.15823     -4.49288         0.000000     -0.024806      0.011504
      4.57135      4.77410    -10.14323        -0.000000     -0.024806      0.011504
      7.61892      6.15823     -4.49288         0.000000     -0.024806      0.011504
      7.61892      4.77410    -10.14323         0.000000     -0.024806      0.011504
      0.00000     10.87835     -1.15747         0.000000      0.024806     -0.011504
      0.00000      9.49422     -6.80782         0.000000      0.024806     -0.011504
      3.04757     10.87835     -1.15747        -0.000000      0.024806     -0.011504
      3.04757      9.49422     -6.80782        -0.000000      0.024806     -0.011504
      6.09513     10.87835     -1.15747        -0.000000      0.024806     -0.011504
      6.09513      9.49422     -6.80782         0.000000      0.024806     -0.011504
      1.52378      1.51937     -1.76958        -0.000000      0.077259      0.005360
      1.52378      0.13524     -7.41993         0.000000      0.077259      0.005360
      4.57135      1.51937     -1.76958        -0.000000      0.077259      0.005360
      4.57135      0.13524     -7.41993         0.000000      0.077259      0.005360
      7.61892      1.51937     -1.76958        -0.000000      0.077259      0.005360
      7.61892      0.13524     -7.41993         0.000000      0.077259      0.005360
      0.00000      3.23673     -3.88077         0.000000     -0.077259     -0.005360
      0.00000      1.85260     -9.53112         0.000000     -0.077259     -0.005360
      3.04757      3.23673     -3.88077        -0.000000     -0.077259     -0.005360
      3.04757      1.85260     -9.53112        -0.000000     -0.077259     -0.005360
      6.09513      3.23673     -3.88077        -0.000000     -0.077259     -0.005360
      6.09513      1.85260     -9.53112        -0.000000     -0.077259     -0.005360
      0.00000      0.01800     -4.49288         0.000000     -0.024806      0.011504
      0.00000     -1.36613    -10.14323        -0.000000     -0.024806      0.011504
      3.04757      0.01800     -4.49288         0.000000     -0.024806      0.011504
      3.04757     -1.36613    -10.14323        -0.000000     -0.024806      0.011504
      6.09513      0.01800     -4.49288        -0.000000     -0.024806      0.011504
      6.09513     -1.36613    -10.14323        -0.000000     -0.024806      0.011504
      1.52378      4.73811     -1.15747         0.000000      0.024806     -0.011504
      1.52378      3.35398     -6.80782         0.000000      0.024806     -0.011504
      4.57135      4.73811     -1.15747        -0.000000      0.024806     -0.011504
      4.57135      3.35398     -6.80782        -0.000000      0.024806     -0.011504
      7.61892      4.73811     -1.15747         0.000000      0.024806     -0.011504
      7.61892      3.35398     -6.80782        -0.000000      0.024806     -0.011504
      1.52378     11.88361     -1.43783        -0.000000     -0.185893      0.125170
      1.52378     10.49948     -7.08818        -0.000000     -0.185893      0.125170
      4.57135     11.88361     -1.43783         0.000000     -0.185893      0.125170
      4.57135     10.49948     -7.08818         0.000000     -0.185893      0.125170
      7.61892     11.88361     -1.43783         0.000000     -0.185893      0.125170
      7.61892     10.49948     -7.08818        -0.000000     -0.185893      0.125170
      0.00000      5.15297     -4.21252        -0.000000      0.185893     -0.125170
      0.00000      3.76884     -9.86287         0.000000      0.185893     -0.125170
      3.04757      5.15297     -4.21252         0.000000      0.185893     -0.125170
      3.04757      3.76884     -9.86287         0.000000      0.185893     -0.125170
      6.09513      5.15297     -4.21252        -0.000000      0.185893     -0.125170
      6.09513      3.76884     -9.86287         0.000000      0.185893     -0.125170
      1.52378      7.48298     -3.16870        -0.000000     -0.043461     -0.124685
      1.52378      6.09885     -8.81904        -0.000000     -0.043461     -0.124685
      4.57135      7.48298     -3.16870        -0.000000     -0.043461     -0.124685
      4.57135      6.09885     -8.81904         0.000000     -0.043461     -0.124685
      7.61892      7.48298     -3.16870        -0.000000     -0.043461     -0.124685
      7.61892      6.09885     -8.81904        -0.000000     -0.043461     -0.124685
      0.00000      9.55360     -2.48165        -0.000000      0.043461      0.124685
      0.00000      8.16947     -8.13200         0.000000      0.043461      0.124685
      3.04757      9.55360     -2.48165         0.000000      0.043461      0.124685
      3.04757      8.16947     -8.13200        -0.000000      0.043461      0.124685
      6.09513      9.55360     -2.48165        -0.000000      0.043461      0.124685
      6.09513      8.16947     -8.13200        -0.000000      0.043461      0.124685
      0.00000      8.98435     -5.03796        -0.000000      0.434615     -0.081795
      0.00000      7.60022    -10.68831         0.000000      0.434615     -0.081795
      3.04757      8.98435     -5.03796         0.000000      0.434615     -0.081795
      3.04757      7.60022    -10.68831        -0.000000      0.434615     -0.081795
      6.09513      8.98435     -5.03796        -0.000000      0.434615     -0.081795
      6.09513      7.60022    -10.68831         0.000000      0.434615     -0.081795
      1.52378      8.05223     -0.61239        -0.000000     -0.434615      0.081795
      1.52378      6.66810     -6.26274        -0.000000     -0.434615      0.081795
      4.57135      8.05223     -0.61239        -0.000000     -0.434615      0.081795
      4.57135      6.66810     -6.26274        -0.000000     -0.434615      0.081795
      7.61892      8.05223     -0.61239         0.000000     -0.434615      0.081795
      7.61892      6.66810     -6.26274        -0.000000     -0.434615      0.081795
      0.00000      5.74338     -1.43783         0.000000     -0.185893      0.125170
      0.00000      4.35925     -7.08818         0.000000     -0.185893      0.125170
      3.04757      5.74338     -1.43783        -0.000000     -0.185893      0.125170
      3.04757      4.35925     -7.08818         0.000000     -0.185893      0.125170
      6.09513      5.74338     -1.43783         0.000000     -0.185893      0.125170
      6.09513      4.35925     -7.08818        -0.000000     -0.185893      0.125170
      1.52378     -0.98727     -4.21252        -0.000000      0.185893     -0.125170
      1.52378     -2.37140     -9.86287         0.000000      0.185893     -0.125170
      4.57135     -0.98727     -4.21252         0.000000      0.185893     -0.125170
      4.57135     -2.37140     -9.86287        -0.000000      0.185893     -0.125170
      7.61892     -0.98727     -4.21252        -0.000000      0.185893     -0.125170
      7.61892     -2.37140     -9.86287        -0.000000      0.185893     -0.125170
      0.00000      1.34274     -3.16870         0.000000     -0.043461     -0.124685
      0.00000     -0.04139     -8.81904        -0.000000     -0.043461     -0.124685
      3.04757      1.34274     -3.16870         0.000000     -0.043461     -0.124685
      3.04757     -0.04139     -8.81904        -0.000000     -0.043461     -0.124685
      6.09513      1.34274     -3.16870        -0.000000     -0.043461     -0.124685
      6.09513     -0.04139     -8.81904        -0.000000     -0.043461     -0.124685
      1.52378      3.41336     -2.48165         0.000000      0.043461      0.124685
      1.52378      2.02923     -8.13200        -0.000000      0.043461      0.124685
      4.57135      3.41336     -2.48165        -0.000000      0.043461      0.124685
      4.57135      2.02923     -8.13200         0.000000      0.043461      0.124685
      7.61892      3.41336     -2.48165        -0.000000      0.043461      0.124685
      7.61892      2.02923     -8.13200         0.000000      0.043461      0.124685
      1.52378      2.84411     -5.03796        -0.000000      0.434615     -0.081795
      1.52378      1.45998    -10.68831         0.000000      0.434615     -0.081795
      4.57135      2.84411     -5.03796        -0.000000      0.434615     -0.081795
      4.57135      1.45998    -10.68831        -0.000000      0.434615     -0.081795
      7.61892      2.84411     -5.03796        -0.000000      0.434615     -0.081795
      7.61892      1.45998    -10.68831         0.000000      0.434615     -0.081795
      0.00000      1.91199     -0.61239        -0.000000     -0.434615      0.081795
      0.00000      0.52786     -6.26274         0.000000     -0.434615      0.081795
      3.04757      1.91199     -0.61239         0.000000     -0.434615      0.081795
      3.04757      0.52786     -6.26274        -0.000000     -0.434615      0.081795
      6.09513      1.91199     -0.61239         0.000000     -0.434615      0.081795
      6.09513      0.52786     -6.26274        -0.000000     -0.434615      0.081795
 -----------------------------------------------------------------------------------
    total drift:                               -0.000006      0.000033      0.000005


--------------------------------------------------------------------------------------------------------



  FREE ENERGIE OF THE ION-ELECTRON SYSTEM (eV)
  ---------------------------------------------------
  free  energy   TOTEN  =      -989.01704237 eV

  energy  without entropy=     -989.01704237  energy(sigma->0) =     -989.01704237
 


--------------------------------------------------------------------------------------------------------


    POTLOK:  cpu time      1.9604: real time      1.9685


--------------------------------------------------------------------------------------------------------


 writing wavefunctions
     LOOP+:  cpu time 122157.6440: real time 122145.8025
    4ORBIT:  cpu time      0.0000: real time      0.0000

 total amount of memory used by VASP MPI-rank0 16312939. kBytes
=======================================================================

   base      :      30000. kBytes
   nonlr-proj:      47047. kBytes
   fftplans  :      51012. kBytes
   grid      :      90980. kBytes
   one-center:       1866. kBytes
   HF        :        129. kBytes
   wavefun   :   15862635. kBytes
   fock_wrk  :     229270. kBytes
 
  
  
 General timing and accounting informations for this job:
 ========================================================
  
                  Total CPU time used (sec):   122229.234
                            User time (sec):   122163.703
                          System time (sec):       65.530
                         Elapsed time (sec):   122219.885
  
                   Maximum memory used (kb):    24900480.
                   Average memory used (kb):          N/A
  
                          Minor page faults:     16966353
                          Major page faults:            4
                 Voluntary context switches:      2235178
