<?xml version="1.0" encoding="ISO-8859-1"?>
<modeling>
 <generator>
  <i name="program" type="string">vasp </i>
  <i name="version" type="string">6.4.2  </i>
  <i name="subversion" type="string">20Jul23 (build Nov 12 2023 22:16:35) complex                          parallel </i>
  <i name="platform" type="string">LinuxNV </i>
  <i name="date" type="string">2025 03 12 </i>
  <i name="time" type="string">18:13:04 </i>
 </generator>
 <incar>
  <i type="int" name="ISTART">     0</i>
  <i type="string" name="PREC">Normal</i>
  <i type="string" name="ALGO">All</i>
  <i type="int" name="ISPIN">     1</i>
  <i type="int" name="ICHARG">     0</i>
  <i type="int" name="NELM">   500</i>
  <i type="int" name="IBRION">    -1</i>
  <i name="EDIFF">      0.00001000</i>
  <i name="EDIFFG">     -0.00500000</i>
  <i type="int" name="NSW">     0</i>
  <i type="int" name="ISIF">     2</i>
  <i name="ENCUT">    450.00000000</i>
  <i type="string" name="LREAL">Auto</i>
  <i type="logical" name="LPLANE"> T  </i>
  <i name="TIME">      0.40000000</i>
  <i type="int" name="ISMEAR">     0</i>
  <i name="SIGMA">      0.05000000</i>
  <i type="logical" name="LWAVE"> T  </i>
  <i type="logical" name="LCHARG"> T  </i>
  <i name="HFSCREEN">      0.18000000</i>
  <i type="logical" name="LHFCALC"> T  </i>
  <i type="int" name="LMAXFOCK">     4</i>
  <i name="AEXX">      0.35000000</i>
  <i type="string" name="PRECFOCK">Fast</i>
 </incar>
 <primitive_cell>
  <structure name="primitive_cell" >
   <crystal>
    <varray name="basis" >
     <v>      -1.52378368       6.14023671       0.00000000 </v>
     <v>       1.52378368       6.14023671       0.00000000 </v>
     <v>       0.00000000      -1.38413089      -5.65034886 </v>
    </varray>
    <i name="volume">    105.73376294 </i>
    <varray name="rec_basis" >
     <v>      -0.32813057       0.08143009      -0.01994742 </v>
     <v>       0.32813057       0.08143009      -0.01994742 </v>
     <v>       0.00000000       0.00000000      -0.17698022 </v>
    </varray>
   </crystal>
   <varray name="positions" >
    <v>       0.65902118       0.65902118       0.31318037 </v>
    <v>       0.34097882       0.34097882       0.68681963 </v>
    <v>       0.09108678       0.09108678       0.79515070 </v>
    <v>       0.90891322       0.90891322       0.20484930 </v>
    <v>       0.49636465       0.49636465       0.25446751 </v>
    <v>       0.50363535       0.50363535       0.74553249 </v>
    <v>       0.17254688       0.17254688       0.56079647 </v>
    <v>       0.82745312       0.82745312       0.43920353 </v>
    <v>       0.83209082       0.83209082       0.89161937 </v>
    <v>       0.16790918       0.16790918       0.10838063 </v>
   </varray>
  </structure>
  <varray name="primitive_index" >
   <v type="int" >        1 </v>
   <v type="int" >        7 </v>
   <v type="int" >       13 </v>
   <v type="int" >       19 </v>
   <v type="int" >       85 </v>
   <v type="int" >       55 </v>
   <v type="int" >       61 </v>
   <v type="int" >       67 </v>
   <v type="int" >       74 </v>
   <v type="int" >       79 </v>
  </varray>
 </primitive_cell>
 <kpoints>
  <generation param="Gamma">
   <v type="int" name="divisions">       2        4        4 </v>
   <v name="usershift">      0.00000000       0.00000000       0.00000000 </v>
   <v name="genvec1">      0.50000000       0.00000000       0.00000000 </v>
   <v name="genvec2">      0.00000000       0.25000000       0.00000000 </v>
   <v name="genvec3">      0.00000000       0.00000000       0.25000000 </v>
   <v name="shift">      0.00000000       0.00000000       0.00000000 </v>
  </generation>
  <varray name="kpointlist" >
   <v>       0.00000000       0.00000000       0.00000000 </v>
   <v>       0.50000000       0.00000000       0.00000000 </v>
   <v>       0.00000000       0.25000000       0.00000000 </v>
   <v>       0.50000000       0.25000000       0.00000000 </v>
   <v>       0.00000000       0.50000000       0.00000000 </v>
   <v>       0.50000000       0.50000000       0.00000000 </v>
   <v>       0.00000000       0.00000000       0.25000000 </v>
   <v>       0.50000000       0.00000000       0.25000000 </v>
   <v>       0.00000000       0.25000000       0.25000000 </v>
   <v>       0.50000000       0.25000000       0.25000000 </v>
   <v>       0.00000000       0.50000000       0.25000000 </v>
   <v>       0.50000000       0.50000000       0.25000000 </v>
   <v>       0.00000000       0.00000000       0.50000000 </v>
   <v>       0.50000000       0.00000000       0.50000000 </v>
   <v>       0.00000000       0.25000000       0.50000000 </v>
   <v>       0.50000000       0.25000000       0.50000000 </v>
   <v>       0.00000000       0.50000000       0.50000000 </v>
   <v>       0.50000000       0.50000000       0.50000000 </v>
  </varray>
  <varray name="weights" >
   <v>       0.03125000 </v>
   <v>       0.03125000 </v>
   <v>       0.06250000 </v>
   <v>       0.06250000 </v>
   <v>       0.03125000 </v>
   <v>       0.03125000 </v>
   <v>       0.06250000 </v>
   <v>       0.06250000 </v>
   <v>       0.12500000 </v>
   <v>       0.12500000 </v>
   <v>       0.06250000 </v>
   <v>       0.06250000 </v>
   <v>       0.03125000 </v>
   <v>       0.03125000 </v>
   <v>       0.06250000 </v>
   <v>       0.06250000 </v>
   <v>       0.03125000 </v>
   <v>       0.03125000 </v>
  </varray>
 </kpoints>
 <parameters>
  <separator name="general" >
   <i type="string" name="SYSTEM">unknown system</i>
   <i type="logical" name="LCOMPAT"> F  </i>
  </separator>
  <separator name="electronic" >
   <i type="string" name="PREC">normal</i>
   <i name="ENMAX">    450.00000000</i>
   <i name="ENAUG">    605.39200000</i>
   <i name="EDIFF">      0.00001000</i>
   <i type="int" name="IALGO">    58</i>
   <i type="int" name="IWAVPR">    10</i>
   <i type="int" name="NBANDS">   633</i>
   <i type="int" name="NBANDSLOW">    -1</i>
   <i type="int" name="NBANDSHIGH">    -1</i>
   <i name="NELECT">   1056.00000000</i>
   <i type="int" name="TURBO">     0</i>
   <i type="int" name="IRESTART">     0</i>
   <i type="int" name="NREBOOT">     0</i>
   <i type="int" name="NMIN">     0</i>
   <i name="EREF">      0.00000000</i>
   <separator name="electronic smearing" >
    <i type="int" name="ISMEAR">     0</i>
    <i name="SIGMA">      0.05000000</i>
    <i name="KSPACING">      0.50000000</i>
    <i type="logical" name="KGAMMA"> T  </i>
    <i type="logical" name="KBLOWUP"> T  </i>
   </separator>
   <separator name="electronic projectors" >
    <i type="logical" name="LREAL"> T  </i>
    <v name="ROPT">     -0.00050000     -0.00050000</v>
    <i type="int" name="LMAXPAW">  -100</i>
    <i type="int" name="LMAXMIX">     2</i>
    <i type="logical" name="NLSPLINE"> F  </i>
   </separator>
   <separator name="electronic startup" >
    <i type="int" name="ISTART">     0</i>
    <i type="int" name="ICHARG">     0</i>
    <i type="int" name="INIWAV">     1</i>
   </separator>
   <separator name="electronic spin" >
    <i type="int" name="ISPIN">     1</i>
    <i type="logical" name="LNONCOLLINEAR"> F  </i>
    <v name="MAGMOM">      1.00000000      1.00000000      1.00000000      1.00000000      1.00000000      1.00000000      1.00000000      1.00000000      1.00000000      1.00000000      1.00000000      1.00000000      1.00000000      1.00000000      1.00000000      1.00000000      1.00000000      1.00000000      1.00000000      1.00000000
      1.00000000      1.00000000      1.00000000      1.00000000      1.00000000      1.00000000      1.00000000      1.00000000      1.00000000      1.00000000      1.00000000      1.00000000      1.00000000      1.00000000      1.00000000      1.00000000      1.00000000      1.00000000      1.00000000      1.00000000
      1.00000000      1.00000000      1.00000000      1.00000000      1.00000000      1.00000000      1.00000000      1.00000000      1.00000000      1.00000000      1.00000000      1.00000000      1.00000000      1.00000000      1.00000000      1.00000000      1.00000000      1.00000000      1.00000000      1.00000000
      1.00000000      1.00000000      1.00000000      1.00000000      1.00000000      1.00000000      1.00000000      1.00000000      1.00000000      1.00000000      1.00000000      1.00000000      1.00000000      1.00000000      1.00000000      1.00000000      1.00000000      1.00000000      1.00000000      1.00000000
      1.00000000      1.00000000      1.00000000      1.00000000      1.00000000      1.00000000      1.00000000      1.00000000      1.00000000      1.00000000      1.00000000      1.00000000      1.00000000      1.00000000      1.00000000      1.00000000      1.00000000      1.00000000      1.00000000      1.00000000
      1.00000000      1.00000000      1.00000000      1.00000000      1.00000000      1.00000000      1.00000000      1.00000000      1.00000000      1.00000000      1.00000000      1.00000000      1.00000000      1.00000000      1.00000000      1.00000000      1.00000000      1.00000000      1.00000000      1.00000000
</v>
    <i name="NUPDOWN">     -1.00000000</i>
    <i type="logical" name="LSORBIT"> F  </i>
    <v name="SAXIS">      0.00000000      0.00000000      1.00000000</v>
    <i type="logical" name="LSPIRAL"> F  </i>
    <v name="QSPIRAL">      0.00000000      0.00000000      0.00000000</v>
    <i type="logical" name="LZEROZ"> F  </i>
   </separator>
   <separator name="electronic exchange-correlation" >
    <i type="logical" name="LASPH"> F  </i>
    <i type="logical" name="LMETAGGA"> F  </i>
   </separator>
   <separator name="electronic convergence" >
    <i type="int" name="NELM">   500</i>
    <i type="int" name="NELMDL">    -5</i>
    <i type="int" name="NELMIN">     2</i>
    <i name="ENINI">    450.00000000</i>
    <separator name="electronic convergence detail" >
     <i type="logical" name="LDIAG"> T  </i>
     <i type="logical" name="LSUBROT"> F  </i>
     <i name="WEIMIN">      0.00000000</i>
     <i name="EBREAK">      0.00000000</i>
     <i name="DEPER">      0.30000000</i>
     <i type="int" name="NRMM">     4</i>
     <i name="TIME">      0.40000000</i>
    </separator>
   </separator>
   <separator name="electronic mixer" >
    <i name="AMIX">      0.40000000</i>
    <i name="BMIX">      1.00000000</i>
    <i name="AMIN">      0.10000000</i>
    <i name="AMIX_MAG">      1.60000000</i>
    <i name="BMIX_MAG">      1.00000000</i>
    <separator name="electronic mixer details" >
     <i type="int" name="IMIX">     4</i>
     <i type="logical" name="MIXFIRST"> F  </i>
     <i type="int" name="MAXMIX">   -45</i>
     <i name="WC">    100.00000000</i>
     <i type="int" name="INIMIX">     1</i>
     <i type="int" name="MIXPRE">     1</i>
     <i type="int" name="MREMOVE">     5</i>
    </separator>
   </separator>
   <separator name="electronic dipolcorrection" >
    <i type="logical" name="LDIPOL"> F  </i>
    <i type="logical" name="LMONO"> F  </i>
    <i type="int" name="IDIPOL">     0</i>
    <i name="EPSILON">      1.00000000</i>
    <v name="DIPOL">   -100.00000000   -100.00000000   -100.00000000</v>
    <i name="EFIELD">      0.00000000</i>
   </separator>
  </separator>
  <separator name="grids" >
   <i type="int" name="NGX">    64</i>
   <i type="int" name="NGY">    48</i>
   <i type="int" name="NGZ">    60</i>
   <i type="int" name="NGXF">   128</i>
   <i type="int" name="NGYF">    96</i>
   <i type="int" name="NGZF">   120</i>
   <i type="logical" name="ADDGRID"> F  </i>
  </separator>
  <separator name="ionic" >
   <i type="int" name="NSW">     0</i>
   <i type="int" name="IBRION">    -1</i>
   <i type="int" name="MDALGO">     0</i>
   <i type="int" name="ISIF">     2</i>
   <i name="PSTRESS">      0.00000000</i>
   <i name="EDIFFG">     -0.00500000</i>
   <i type="int" name="NFREE">     0</i>
   <i name="POTIM">      0.50000000</i>
   <i name="SMASS">     -3.00000000</i>
   <i name="SCALEE">      1.00000000</i>
  </separator>
  <separator name="ionic md" >
   <i name="TEBEG">      0.00010000</i>
   <i name="TEEND">      0.00010000</i>
   <i type="int" name="NBLOCK">     1</i>
   <i type="int" name="KBLOCK">     1</i>
   <i type="int" name="NPACO">   256</i>
   <i name="APACO">     10.00000000</i>
  </separator>
  <separator name="symmetry" >
   <i type="int" name="ISYM">     3</i>
   <i name="SYMPREC">      0.00001000</i>
  </separator>
  <separator name="dos" >
   <i type="int" name="LORBIT">     0</i>
   <v name="RWIGS">     -1.00000000     -1.00000000</v>
   <i type="int" name="NEDOS">   301</i>
   <i name="EMIN">     10.00000000</i>
   <i name="EMAX">    -10.00000000</i>
   <i name="EFERMI">      0.00000000</i>
  </separator>
  <separator name="writing" >
   <i type="int" name="NWRITE">     2</i>
   <i type="logical" name="LWAVE"> T  </i>
   <i type="logical" name="LDOWNSAMPLE"> F  </i>
   <i type="logical" name="LCHARG"> T  </i>
   <i type="logical" name="LPARD"> F  </i>
   <i type="logical" name="LVTOT"> F  </i>
   <i type="logical" name="LVHAR"> F  </i>
   <i type="logical" name="LELF"> F  </i>
   <i type="logical" name="LOPTICS"> F  </i>
   <v name="STM">      0.00000000      0.00000000      0.00000000      0.00000000      0.00000000      0.00000000      0.00000000</v>
  </separator>
  <separator name="performance" >
   <i type="int" name="NPAR">     1</i>
   <i type="int" name="NSIM">     4</i>
   <i type="int" name="NBLK">    -1</i>
   <i type="logical" name="LPLANE"> T  </i>
   <i type="logical" name="LSCALAPACK"> T  </i>
   <i type="logical" name="LSCAAWARE"> F  </i>
   <i type="logical" name="LSCALU"> F  </i>
   <i type="logical" name="LASYNC"> F  </i>
   <i type="logical" name="LORBITALREAL"> F  </i>
  </separator>
  <separator name="miscellaneous" >
   <i type="int" name="IDIOT">     3</i>
   <i type="int" name="PHON_NSTRUCT">    -1</i>
   <i type="logical" name="LMUSIC"> F  </i>
   <v name="POMASS">     69.72300000     16.00000000</v>
   <v name="DARWINR">      0.00000000      0.00000000</v>
   <v name="DARWINV">      1.00000000      1.00000000</v>
   <i type="logical" name="LCORR"> T  </i>
  </separator>
  <i type="logical" name="GGA_COMPAT"> T  </i>
  <i type="logical" name="LBERRY"> F  </i>
  <i type="int" name="ICORELEVEL">     0</i>
  <i type="logical" name="LDAU"> F  </i>
  <i type="int" name="I_CONSTRAINED_M">     0</i>
  <separator name="electronic exchange-correlation" >
   <i type="string" name="GGA">--</i>
   <i type="int" name="VOSKOWN">     0</i>
   <i type="logical" name="LHFCALC"> T  </i>
   <i type="string" name="PRECFOCK">fast</i>
   <i type="logical" name="LSYMGRAD"> F  </i>
   <i type="logical" name="LHFONE"> F  </i>
   <i type="logical" name="LRHFCALC"> F  </i>
   <i type="logical" name="LTHOMAS"> F  </i>
   <i type="logical" name="LMODELHF"> F  </i>
   <i type="logical" name="LFOCKACE"> T  </i>
   <i name="ENCUT4O">     -1.00000000</i>
   <i type="int" name="EXXOEP">     0</i>
   <i type="int" name="FOURORBIT">     0</i>
   <i name="AEXX">      0.35000000</i>
   <i name="HFALPHA">     -1.00000000</i>
   <i name="MCALPHA">      0.00000000</i>
   <i name="ALDAX">      0.65000000</i>
   <i name="AGGAX">      0.65000000</i>
   <i name="ALDAC">      1.00000000</i>
   <i name="AGGAC">      1.00000000</i>
   <i type="int" name="NKREDX">     1</i>
   <i type="int" name="NKREDY">     1</i>
   <i type="int" name="NKREDZ">     1</i>
   <i type="logical" name="SHIFTRED"> F  </i>
   <i type="logical" name="ODDONLY"> F  </i>
   <i type="logical" name="EVENONLY"> F  </i>
   <i type="int" name="LMAXFOCK">     4</i>
   <i type="int" name="NMAXFOCKAE">     1</i>
   <i type="logical" name="LFOCKAEDFT"> F  </i>
   <i name="HFSCREEN">      0.18000000</i>
   <i name="HFSCREENC">      0.18000000</i>
   <i type="int" name="NBANDSGWLOW">     1</i>
  </separator>
  <separator name="vdW DFT" >
   <i type="logical" name="LUSE_VDW"> F  </i>
   <i type="int" name="IVDW_NL">     1</i>
   <i type="logical" name="LSPIN_VDW"> F  </i>
   <i name="Zab_VDW">     -0.84910000</i>
   <i name="PARAM1">      0.12340000</i>
   <i name="PARAM2">      1.00000000</i>
   <i name="PARAM3">      0.00000000</i>
  </separator>
  <separator name="model GW" >
   <i type="int" name="MODEL_GW">     0</i>
   <i name="MODEL_EPS0">      6.34402578</i>
   <i name="MODEL_ALPHA">      1.00000000</i>
  </separator>
  <separator name="linear response parameters" >
   <i type="logical" name="LEPSILON"> F  </i>
   <i type="logical" name="LRPA"> F  </i>
   <i type="logical" name="LNABLA"> F  </i>
   <i type="logical" name="LVEL"> F  </i>
   <i name="CSHIFT">      0.10000000</i>
   <i name="OMEGAMAX">     -1.00000000</i>
   <i name="DEG_THRESHOLD">      0.00200000</i>
   <i name="RTIME">     -0.10000000</i>
   <i name="WPLASMAI">      0.00000000</i>
   <v name="DFIELD">      0.00000000      0.00000000      0.00000000</v>
   <v name="WPLASMA">      0.00000000      0.00000000      0.00000000      0.00000000      0.00000000      0.00000000      0.00000000      0.00000000      0.00000000</v>
  </separator>
  <separator name="orbital magnetization" >
   <i type="logical" name="NUCIND"> F  </i>
   <v name="MAGPOS">      0.00000000      0.00000000      0.00000000</v>
   <i type="logical" name="LNICSALL"> T  </i>
   <i type="logical" name="ORBITALMAG"> F  </i>
   <i type="logical" name="LMAGBLOCH"> F  </i>
   <i type="logical" name="LCHIMAG"> F  </i>
   <i type="logical" name="LGAUGE"> T  </i>
   <i type="int" name="MAGATOM">     0</i>
   <v name="MAGDIPOL">      0.00000000      0.00000000      0.00000000</v>
   <v name="AVECCONST">      0.00000000      0.00000000      0.00000000</v>
  </separator>
  <separator name="response functions" >
   <i type="logical" name="LALL_IN_ONE"> F  </i>
   <i type="int" name="IALL_IN_ONE">    -1</i>
   <i type="int" name="NBANDS_WAVE">    -1</i>
   <i type="logical" name="LFINITE_TEMPERATURE"> F  </i>
   <i type="logical" name="LADDER"> F  </i>
   <i type="logical" name="LRPAFORCE"> F  </i>
   <i type="logical" name="LFXC"> F  </i>
   <i type="logical" name="LHARTREE"> T  </i>
   <i type="int" name="IBSE">     0</i>
   <v type="int" name="KPOINT">    -1     0     0     0</v>
   <i type="logical" name="LTCTC"> F  </i>
   <i type="logical" name="LTCTE"> F  </i>
   <i type="logical" name="LTETE"> F  </i>
   <i type="logical" name="LTRIPLET"> F  </i>
   <i type="logical" name="LFXCEPS"> F  </i>
   <i type="logical" name="LFXHEG"> F  </i>
   <i type="int" name="NATURALO">     2</i>
   <i type="logical" name="LHOLEGF"> F  </i>
   <i type="logical" name="L2ORDER"> F  </i>
   <i type="logical" name="LDMP1"> F  </i>
   <i type="logical" name="LMP2LT"> F  </i>
   <i type="logical" name="LSMP2LT"> F  </i>
   <i type="logical" name="LGWLF"> F  </i>
   <i name="ENCUTGW">     -1.60000002</i>
   <i name="ENCUTGWSOFT">     -1.60000002</i>
   <i name="ENCUTLF">     -1.00000000</i>
   <i type="logical" name="LESF_SPLINES"> F  </i>
   <i type="int" name="LMAXMP2">    -1</i>
   <i name="SCISSOR">      0.00000000</i>
   <i type="int" name="NOMEGA">     0</i>
   <i type="int" name="NOMEGAR">     0</i>
   <i type="int" name="NBANDSGW">    -1</i>
   <i type="int" name="NBANDSO">    -1</i>
   <i type="int" name="NBANDSV">    -1</i>
   <i type="int" name="NELMGW">     1</i>
   <i type="int" name="NELMHF">     1</i>
   <i type="int" name="DIM">     3</i>
   <i type="int" name="IESPILON">     4</i>
   <i type="int" name="ANTIRES">     0</i>
   <i name="OMEGAMAX">    -30.00000000</i>
   <i name="OMEGAMIN">    -30.00000000</i>
   <i name="OMEGATL">   -200.00000000</i>
   <i type="int" name="OMEGAGRID">     0</i>
   <i name="CSHIFT">     -0.10000000</i>
   <i type="logical" name="LSELFENERGY"> F  </i>
   <i type="logical" name="LSPECTRAL"> F  </i>
   <i type="logical" name="LSPECTRALGW"> F  </i>
   <i type="logical" name="LSINGLES"> F  </i>
   <i type="logical" name="LFERMIGW"> F  </i>
   <i type="logical" name="ODDONLYGW"> F  </i>
   <i type="logical" name="EVENONLYGW"> F  </i>
   <i type="int" name="NKREDLFX">     1</i>
   <i type="int" name="NKREDLFY">     1</i>
   <i type="int" name="NKREDLFZ">     1</i>
   <i type="int" name="MAXMEM">  2800</i>
   <i type="int" name="TELESCOPE">     0</i>
   <i type="int" name="NTAUPAR">    -1</i>
   <i type="int" name="NOMEGAPAR">    -1</i>
   <i name="DAMP_NEWTON">      0.80000001</i>
   <i name="LAMBDA">      1.00000000</i>
  </separator>
  <separator name="External order field" >
   <i name="OFIELD_KAPPA">      0.00000000</i>
   <v name="OFIELD_K">      0.00000000      0.00000000      0.00000000</v>
   <i name="OFIELD_Q6_NEAR">      0.00000000</i>
   <i name="OFIELD_Q6_FAR">      0.00000000</i>
   <i name="OFIELD_A">      0.00000000</i>
  </separator>
  <separator name="optional k-points parameters" >
   <i type="int" name="KPOINTS_OPT_MODE">     1</i>
   <i type="logical" name="LKPOINTS_OPT"> F  </i>
  </separator>
 </parameters>
 <atominfo>
  <atoms>     120 </atoms>
  <types>       2 </types>
  <array name="atoms" >
   <dimension dim="1">ion</dimension>
   <field type="string">element</field>
   <field type="int">atomtype</field>
   <set>
    <rc><c>Ga</c><c>   1</c></rc>
    <rc><c>Ga</c><c>   1</c></rc>
    <rc><c>Ga</c><c>   1</c></rc>
    <rc><c>Ga</c><c>   1</c></rc>
    <rc><c>Ga</c><c>   1</c></rc>
    <rc><c>Ga</c><c>   1</c></rc>
    <rc><c>Ga</c><c>   1</c></rc>
    <rc><c>Ga</c><c>   1</c></rc>
    <rc><c>Ga</c><c>   1</c></rc>
    <rc><c>Ga</c><c>   1</c></rc>
    <rc><c>Ga</c><c>   1</c></rc>
    <rc><c>Ga</c><c>   1</c></rc>
    <rc><c>Ga</c><c>   1</c></rc>
    <rc><c>Ga</c><c>   1</c></rc>
    <rc><c>Ga</c><c>   1</c></rc>
    <rc><c>Ga</c><c>   1</c></rc>
    <rc><c>Ga</c><c>   1</c></rc>
    <rc><c>Ga</c><c>   1</c></rc>
    <rc><c>Ga</c><c>   1</c></rc>
    <rc><c>Ga</c><c>   1</c></rc>
    <rc><c>Ga</c><c>   1</c></rc>
    <rc><c>Ga</c><c>   1</c></rc>
    <rc><c>Ga</c><c>   1</c></rc>
    <rc><c>Ga</c><c>   1</c></rc>
    <rc><c>Ga</c><c>   1</c></rc>
    <rc><c>Ga</c><c>   1</c></rc>
    <rc><c>Ga</c><c>   1</c></rc>
    <rc><c>Ga</c><c>   1</c></rc>
    <rc><c>Ga</c><c>   1</c></rc>
    <rc><c>Ga</c><c>   1</c></rc>
    <rc><c>Ga</c><c>   1</c></rc>
    <rc><c>Ga</c><c>   1</c></rc>
    <rc><c>Ga</c><c>   1</c></rc>
    <rc><c>Ga</c><c>   1</c></rc>
    <rc><c>Ga</c><c>   1</c></rc>
    <rc><c>Ga</c><c>   1</c></rc>
    <rc><c>Ga</c><c>   1</c></rc>
    <rc><c>Ga</c><c>   1</c></rc>
    <rc><c>Ga</c><c>   1</c></rc>
    <rc><c>Ga</c><c>   1</c></rc>
    <rc><c>Ga</c><c>   1</c></rc>
    <rc><c>Ga</c><c>   1</c></rc>
    <rc><c>Ga</c><c>   1</c></rc>
    <rc><c>Ga</c><c>   1</c></rc>
    <rc><c>Ga</c><c>   1</c></rc>
    <rc><c>Ga</c><c>   1</c></rc>
    <rc><c>Ga</c><c>   1</c></rc>
    <rc><c>Ga</c><c>   1</c></rc>
    <rc><c>O </c><c>   2</c></rc>
    <rc><c>O </c><c>   2</c></rc>
    <rc><c>O </c><c>   2</c></rc>
    <rc><c>O </c><c>   2</c></rc>
    <rc><c>O </c><c>   2</c></rc>
    <rc><c>O </c><c>   2</c></rc>
    <rc><c>O </c><c>   2</c></rc>
    <rc><c>O </c><c>   2</c></rc>
    <rc><c>O </c><c>   2</c></rc>
    <rc><c>O </c><c>   2</c></rc>
    <rc><c>O </c><c>   2</c></rc>
    <rc><c>O </c><c>   2</c></rc>
    <rc><c>O </c><c>   2</c></rc>
    <rc><c>O </c><c>   2</c></rc>
    <rc><c>O </c><c>   2</c></rc>
    <rc><c>O </c><c>   2</c></rc>
    <rc><c>O </c><c>   2</c></rc>
    <rc><c>O </c><c>   2</c></rc>
    <rc><c>O </c><c>   2</c></rc>
    <rc><c>O </c><c>   2</c></rc>
    <rc><c>O </c><c>   2</c></rc>
    <rc><c>O </c><c>   2</c></rc>
    <rc><c>O </c><c>   2</c></rc>
    <rc><c>O </c><c>   2</c></rc>
    <rc><c>O </c><c>   2</c></rc>
    <rc><c>O </c><c>   2</c></rc>
    <rc><c>O </c><c>   2</c></rc>
    <rc><c>O </c><c>   2</c></rc>
    <rc><c>O </c><c>   2</c></rc>
    <rc><c>O </c><c>   2</c></rc>
    <rc><c>O </c><c>   2</c></rc>
    <rc><c>O </c><c>   2</c></rc>
    <rc><c>O </c><c>   2</c></rc>
    <rc><c>O </c><c>   2</c></rc>
    <rc><c>O </c><c>   2</c></rc>
    <rc><c>O </c><c>   2</c></rc>
    <rc><c>O </c><c>   2</c></rc>
    <rc><c>O </c><c>   2</c></rc>
    <rc><c>O </c><c>   2</c></rc>
    <rc><c>O </c><c>   2</c></rc>
    <rc><c>O </c><c>   2</c></rc>
    <rc><c>O </c><c>   2</c></rc>
    <rc><c>O </c><c>   2</c></rc>
    <rc><c>O </c><c>   2</c></rc>
    <rc><c>O </c><c>   2</c></rc>
    <rc><c>O </c><c>   2</c></rc>
    <rc><c>O </c><c>   2</c></rc>
    <rc><c>O </c><c>   2</c></rc>
    <rc><c>O </c><c>   2</c></rc>
    <rc><c>O </c><c>   2</c></rc>
    <rc><c>O </c><c>   2</c></rc>
    <rc><c>O </c><c>   2</c></rc>
    <rc><c>O </c><c>   2</c></rc>
    <rc><c>O </c><c>   2</c></rc>
    <rc><c>O </c><c>   2</c></rc>
    <rc><c>O </c><c>   2</c></rc>
    <rc><c>O </c><c>   2</c></rc>
    <rc><c>O </c><c>   2</c></rc>
    <rc><c>O </c><c>   2</c></rc>
    <rc><c>O </c><c>   2</c></rc>
    <rc><c>O </c><c>   2</c></rc>
    <rc><c>O </c><c>   2</c></rc>
    <rc><c>O </c><c>   2</c></rc>
    <rc><c>O </c><c>   2</c></rc>
    <rc><c>O </c><c>   2</c></rc>
    <rc><c>O </c><c>   2</c></rc>
    <rc><c>O </c><c>   2</c></rc>
    <rc><c>O </c><c>   2</c></rc>
    <rc><c>O </c><c>   2</c></rc>
    <rc><c>O </c><c>   2</c></rc>
    <rc><c>O </c><c>   2</c></rc>
    <rc><c>O </c><c>   2</c></rc>
   </set>
  </array>
  <array name="atomtypes" >
   <dimension dim="1">type</dimension>
   <field type="int">atomspertype</field>
   <field type="string">element</field>
   <field>mass</field>
   <field>valence</field>
   <field type="string">pseudopotential</field>
   <set>
    <rc><c>  48</c><c>Ga</c><c>     69.72300000</c><c>     13.00000000</c><c>  PAW_PBE Ga_d 06Jul2010                </c></rc>
    <rc><c>  72</c><c>O </c><c>     16.00000000</c><c>      6.00000000</c><c>  PAW_PBE O 08Apr2002                   </c></rc>
   </set>
  </array>
 </atominfo>
 <structure name="initialpos" >
  <crystal>
   <varray name="basis" >
    <v>       0.00000000      12.28047342       0.00000000 </v>
    <v>       9.14270205       0.00000000       0.00000000 </v>
    <v>       0.00000000      -2.76826177     -11.30069772 </v>
   </varray>
   <i name="volume">   1268.80515525 </i>
   <varray name="rec_basis" >
    <v>       0.00000000       0.08143009      -0.01994742 </v>
    <v>       0.10937686      -0.00000000       0.00000000 </v>
    <v>       0.00000000       0.00000000      -0.08849011 </v>
   </varray>
  </crystal>
  <varray name="positions" >
   <v>       0.65902118       0.00000000       0.15659018 </v>
   <v>       0.65902118       0.00000000       0.65659018 </v>
   <v>       0.65902118       0.33333333       0.15659018 </v>
   <v>       0.65902118       0.33333333       0.65659018 </v>
   <v>       0.65902118       0.66666667       0.15659018 </v>
   <v>       0.65902118       0.66666667       0.65659018 </v>
   <v>       0.84097882       0.16666667       0.34340982 </v>
   <v>       0.84097882       0.16666667       0.84340982 </v>
   <v>       0.84097882       0.50000000       0.34340982 </v>
   <v>       0.84097882       0.50000000       0.84340982 </v>
   <v>       0.84097882       0.83333333       0.34340982 </v>
   <v>       0.84097882       0.83333333       0.84340982 </v>
   <v>       0.59108678       0.16666667       0.39757535 </v>
   <v>       0.59108678       0.16666667       0.89757535 </v>
   <v>       0.59108678       0.50000000       0.39757535 </v>
   <v>       0.59108678       0.50000000       0.89757535 </v>
   <v>       0.59108678       0.83333333       0.39757535 </v>
   <v>       0.59108678       0.83333333       0.89757535 </v>
   <v>       0.90891322       0.00000000       0.10242465 </v>
   <v>       0.90891322       0.00000000       0.60242465 </v>
   <v>       0.90891322       0.33333333       0.10242465 </v>
   <v>       0.90891322       0.33333333       0.60242465 </v>
   <v>       0.90891322       0.66666667       0.10242465 </v>
   <v>       0.90891322       0.66666667       0.60242465 </v>
   <v>       0.15902118       0.16666667       0.15659018 </v>
   <v>       0.15902118       0.16666667       0.65659018 </v>
   <v>       0.15902118       0.50000000       0.15659018 </v>
   <v>       0.15902118       0.50000000       0.65659018 </v>
   <v>       0.15902118       0.83333333       0.15659018 </v>
   <v>       0.15902118       0.83333333       0.65659018 </v>
   <v>       0.34097882       0.00000000       0.34340982 </v>
   <v>       0.34097882       0.00000000       0.84340982 </v>
   <v>       0.34097882       0.33333333       0.34340982 </v>
   <v>       0.34097882       0.33333333       0.84340982 </v>
   <v>       0.34097882       0.66666667       0.34340982 </v>
   <v>       0.34097882       0.66666667       0.84340982 </v>
   <v>       0.09108678       0.00000000       0.39757535 </v>
   <v>       0.09108678       0.00000000       0.89757535 </v>
   <v>       0.09108678       0.33333333       0.39757535 </v>
   <v>       0.09108678       0.33333333       0.89757535 </v>
   <v>       0.09108678       0.66666667       0.39757535 </v>
   <v>       0.09108678       0.66666667       0.89757535 </v>
   <v>       0.40891322       0.16666667       0.10242465 </v>
   <v>       0.40891322       0.16666667       0.60242465 </v>
   <v>       0.40891322       0.50000000       0.10242465 </v>
   <v>       0.40891322       0.50000000       0.60242465 </v>
   <v>       0.40891322       0.83333333       0.10242465 </v>
   <v>       0.40891322       0.83333333       0.60242465 </v>
   <v>       0.99636465       0.16666667       0.12723376 </v>
   <v>       0.99636465       0.16666667       0.62723376 </v>
   <v>       0.99636465       0.50000000       0.12723376 </v>
   <v>       0.99636465       0.50000000       0.62723376 </v>
   <v>       0.99636465       0.83333333       0.12723376 </v>
   <v>       0.99636465       0.83333333       0.62723376 </v>
   <v>       0.50363535       0.00000000       0.37276624 </v>
   <v>       0.50363535       0.00000000       0.87276624 </v>
   <v>       0.50363535       0.33333333       0.37276624 </v>
   <v>       0.50363535       0.33333333       0.87276624 </v>
   <v>       0.50363535       0.66666667       0.37276624 </v>
   <v>       0.50363535       0.66666667       0.87276624 </v>
   <v>       0.67254688       0.16666667       0.28039823 </v>
   <v>       0.67254688       0.16666667       0.78039823 </v>
   <v>       0.67254688       0.50000000       0.28039823 </v>
   <v>       0.67254688       0.50000000       0.78039823 </v>
   <v>       0.67254688       0.83333333       0.28039823 </v>
   <v>       0.67254688       0.83333333       0.78039823 </v>
   <v>       0.82745312       0.00000000       0.21960177 </v>
   <v>       0.82745312       0.00000000       0.71960177 </v>
   <v>       0.82745312       0.33333333       0.21960177 </v>
   <v>       0.82745312       0.33333333       0.71960177 </v>
   <v>       0.82745312       0.66666667       0.21960177 </v>
   <v>       0.82745312       0.66666667       0.71960177 </v>
   <v>       0.83209082       0.00000000       0.44580968 </v>
   <v>       0.83209082       0.00000000       0.94580968 </v>
   <v>       0.83209082       0.33333333       0.44580968 </v>
   <v>       0.83209082       0.33333333       0.94580968 </v>
   <v>       0.83209082       0.66666667       0.44580968 </v>
   <v>       0.83209082       0.66666667       0.94580968 </v>
   <v>       0.66790918       0.16666667       0.05419032 </v>
   <v>       0.66790918       0.16666667       0.55419032 </v>
   <v>       0.66790918       0.50000000       0.05419032 </v>
   <v>       0.66790918       0.50000000       0.55419032 </v>
   <v>       0.66790918       0.83333333       0.05419032 </v>
   <v>       0.66790918       0.83333333       0.55419032 </v>
   <v>       0.49636465       0.00000000       0.12723376 </v>
   <v>       0.49636465       0.00000000       0.62723376 </v>
   <v>       0.49636465       0.33333333       0.12723376 </v>
   <v>       0.49636465       0.33333333       0.62723376 </v>
   <v>       0.49636465       0.66666667       0.12723376 </v>
   <v>       0.49636465       0.66666667       0.62723376 </v>
   <v>       0.00363535       0.16666667       0.37276624 </v>
   <v>       0.00363535       0.16666667       0.87276624 </v>
   <v>       0.00363535       0.50000000       0.37276624 </v>
   <v>       0.00363535       0.50000000       0.87276624 </v>
   <v>       0.00363535       0.83333333       0.37276624 </v>
   <v>       0.00363535       0.83333333       0.87276624 </v>
   <v>       0.17254688       0.00000000       0.28039823 </v>
   <v>       0.17254688       0.00000000       0.78039823 </v>
   <v>       0.17254688       0.33333333       0.28039823 </v>
   <v>       0.17254688       0.33333333       0.78039823 </v>
   <v>       0.17254688       0.66666667       0.28039823 </v>
   <v>       0.17254688       0.66666667       0.78039823 </v>
   <v>       0.32745312       0.16666667       0.21960177 </v>
   <v>       0.32745312       0.16666667       0.71960177 </v>
   <v>       0.32745312       0.50000000       0.21960177 </v>
   <v>       0.32745312       0.50000000       0.71960177 </v>
   <v>       0.32745312       0.83333333       0.21960177 </v>
   <v>       0.32745312       0.83333333       0.71960177 </v>
   <v>       0.33209082       0.16666667       0.44580968 </v>
   <v>       0.33209082       0.16666667       0.94580968 </v>
   <v>       0.33209082       0.50000000       0.44580968 </v>
   <v>       0.33209082       0.50000000       0.94580968 </v>
   <v>       0.33209082       0.83333333       0.44580968 </v>
   <v>       0.33209082       0.83333333       0.94580968 </v>
   <v>       0.16790918       0.00000000       0.05419032 </v>
   <v>       0.16790918       0.00000000       0.55419032 </v>
   <v>       0.16790918       0.33333333       0.05419032 </v>
   <v>       0.16790918       0.33333333       0.55419032 </v>
   <v>       0.16790918       0.66666667       0.05419032 </v>
   <v>       0.16790918       0.66666667       0.55419032 </v>
  </varray>
 </structure>
 <calculation>
  <scstep>
   <time name="total">    9.23    9.24</time>
   <energy>
    <i name="alphaZ">   5537.53060054 </i>
    <i name="ewald"> -88891.04517456 </i>
    <i name="hartreedc">  -2100.49040983 </i>
    <i name="XCdc">   2806.50487146 </i>
    <i name="pawpsdc">  56087.69325291 </i>
    <i name="pawaedc"> -87887.74360080 </i>
    <i name="eentropy">     -0.00602335 </i>
    <i name="bandstr"> -40737.83621877 </i>
    <i name="atom"> 133860.07490555 </i>
    <i name="e_fr_energy"> -21325.31779684 </i>
    <i name="e_wo_entrp"> -21325.31177348 </i>
    <i name="e_0_energy"> -21325.31478516 </i>
   </energy>
  </scstep>
  <scstep>
   <time name="total">    7.90    7.90</time>
   <energy>
    <i name="e_fr_energy"> -65445.54992157 </i>
    <i name="e_wo_entrp"> -65445.52799595 </i>
    <i name="e_0_energy"> -65445.53895876 </i>
   </energy>
  </scstep>
  <scstep>
   <time name="total">    8.18    8.17</time>
   <energy>
    <i name="e_fr_energy"> -69885.03637790 </i>
    <i name="e_wo_entrp"> -69884.96038896 </i>
    <i name="e_0_energy"> -69884.99838343 </i>
   </energy>
  </scstep>
  <scstep>
   <time name="total">    9.01    9.01</time>
   <energy>
    <i name="e_fr_energy"> -70391.22351848 </i>
    <i name="e_wo_entrp"> -70391.15445505 </i>
    <i name="e_0_energy"> -70391.18898677 </i>
   </energy>
  </scstep>
  <scstep>
   <time name="total"> 2326.73 2326.27</time>
   <energy>
    <i name="e_fr_energy"> -37328.54641349 </i>
    <i name="e_wo_entrp"> -37328.51129682 </i>
    <i name="e_0_energy"> -37328.52885516 </i>
   </energy>
  </scstep>
  <scstep>
   <time name="total"> 4618.14 4617.29</time>
   <energy>
    <i name="e_fr_energy">  14219.66094347 </i>
    <i name="e_wo_entrp">  14219.68615651 </i>
    <i name="e_0_energy">  14219.67354999 </i>
   </energy>
  </scstep>
  <scstep>
   <time name="total"> 5137.19 5136.08</time>
   <energy>
    <i name="e_fr_energy">   2364.90409277 </i>
    <i name="e_wo_entrp">   2364.97622968 </i>
    <i name="e_0_energy">   2364.94016123 </i>
   </energy>
  </scstep>
  <scstep>
   <time name="total"> 4915.28 4914.24</time>
   <energy>
    <i name="e_fr_energy">    946.41300250 </i>
    <i name="e_wo_entrp">    946.53624764 </i>
    <i name="e_0_energy">    946.47462507 </i>
   </energy>
  </scstep>
  <scstep>
   <time name="total"> 5077.27 5076.24</time>
   <energy>
    <i name="e_fr_energy">    284.32264172 </i>
    <i name="e_wo_entrp">    284.40838798 </i>
    <i name="e_0_energy">    284.36551485 </i>
   </energy>
  </scstep>
  <scstep>
   <time name="total"> 4645.62 4644.71</time>
   <energy>
    <i name="e_fr_energy">    159.41176184 </i>
    <i name="e_wo_entrp">    159.46522747 </i>
    <i name="e_0_energy">    159.43849466 </i>
   </energy>
  </scstep>
  <scstep>
   <time name="total"> 4631.74 4630.89</time>
   <energy>
    <i name="e_fr_energy">   -126.55037064 </i>
    <i name="e_wo_entrp">   -126.52463869 </i>
    <i name="e_0_energy">   -126.53750466 </i>
   </energy>
  </scstep>
  <scstep>
   <time name="total"> 4612.76 4611.76</time>
   <energy>
    <i name="e_fr_energy">   -667.72655067 </i>
    <i name="e_wo_entrp">   -667.71467745 </i>
    <i name="e_0_energy">   -667.72061406 </i>
   </energy>
  </scstep>
  <scstep>
   <time name="total"> 4605.53 4604.50</time>
   <energy>
    <i name="e_fr_energy">   -874.96351687 </i>
    <i name="e_wo_entrp">   -874.95564607 </i>
    <i name="e_0_energy">   -874.95958147 </i>
   </energy>
  </scstep>
  <scstep>
   <time name="total"> 4600.09 4599.10</time>
   <energy>
    <i name="e_fr_energy">   -941.57749733 </i>
    <i name="e_wo_entrp">   -941.57482236 </i>
    <i name="e_0_energy">   -941.57615985 </i>
   </energy>
  </scstep>
  <scstep>
   <time name="total"> 4597.94 4596.95</time>
   <energy>
    <i name="e_fr_energy">   -971.59820644 </i>
    <i name="e_wo_entrp">   -971.59820644 </i>
    <i name="e_0_energy">   -971.59820644 </i>
   </energy>
  </scstep>
  <scstep>
   <time name="total"> 4595.44 4594.56</time>
   <energy>
    <i name="e_fr_energy">   -982.69570876 </i>
    <i name="e_wo_entrp">   -982.69570876 </i>
    <i name="e_0_energy">   -982.69570876 </i>
   </energy>
  </scstep>
  <scstep>
   <time name="total"> 4597.50 4596.54</time>
   <energy>
    <i name="e_fr_energy">   -986.97624662 </i>
    <i name="e_wo_entrp">   -986.97624662 </i>
    <i name="e_0_energy">   -986.97624662 </i>
   </energy>
  </scstep>
  <scstep>
   <time name="total"> 4598.67 4597.63</time>
   <energy>
    <i name="e_fr_energy">   -988.38701570 </i>
    <i name="e_wo_entrp">   -988.38701570 </i>
    <i name="e_0_energy">   -988.38701570 </i>
   </energy>
  </scstep>
  <scstep>
   <time name="total"> 4597.18 4596.19</time>
   <energy>
    <i name="e_fr_energy">   -988.80421891 </i>
    <i name="e_wo_entrp">   -988.80421891 </i>
    <i name="e_0_energy">   -988.80421891 </i>
   </energy>
  </scstep>
  <scstep>
   <time name="total"> 4594.39 4593.65</time>
   <energy>
    <i name="e_fr_energy">   -988.95371454 </i>
    <i name="e_wo_entrp">   -988.95371454 </i>
    <i name="e_0_energy">   -988.95371454 </i>
   </energy>
  </scstep>
  <scstep>
   <time name="total"> 4597.58 4597.46</time>
   <energy>
    <i name="e_fr_energy">   -988.99636738 </i>
    <i name="e_wo_entrp">   -988.99636738 </i>
    <i name="e_0_energy">   -988.99636738 </i>
   </energy>
  </scstep>
  <scstep>
   <time name="total"> 4595.67 4595.67</time>
   <energy>
    <i name="e_fr_energy">   -989.01022127 </i>
    <i name="e_wo_entrp">   -989.01022127 </i>
    <i name="e_0_energy">   -989.01022127 </i>
   </energy>
  </scstep>
  <scstep>
   <time name="total"> 4595.96 4595.79</time>
   <energy>
    <i name="e_fr_energy">   -989.01463822 </i>
    <i name="e_wo_entrp">   -989.01463822 </i>
    <i name="e_0_energy">   -989.01463822 </i>
   </energy>
  </scstep>
  <scstep>
   <time name="total"> 4596.86 4596.63</time>
   <energy>
    <i name="e_fr_energy">   -989.01620933 </i>
    <i name="e_wo_entrp">   -989.01620933 </i>
    <i name="e_0_energy">   -989.01620933 </i>
   </energy>
  </scstep>
  <scstep>
   <time name="total"> 4597.28 4596.95</time>
   <energy>
    <i name="e_fr_energy">   -989.01676681 </i>
    <i name="e_wo_entrp">   -989.01676681 </i>
    <i name="e_0_energy">   -989.01676681 </i>
   </energy>
  </scstep>
  <scstep>
   <time name="total"> 4596.74 4596.49</time>
   <energy>
    <i name="e_fr_energy">   -989.01694950 </i>
    <i name="e_wo_entrp">   -989.01694950 </i>
    <i name="e_0_energy">   -989.01694950 </i>
   </energy>
  </scstep>
  <scstep>
   <time name="total"> 4594.24 4594.02</time>
   <energy>
    <i name="e_fr_energy">   -989.01701501 </i>
    <i name="e_wo_entrp">   -989.01701501 </i>
    <i name="e_0_energy">   -989.01701501 </i>
   </energy>
  </scstep>
  <scstep>
   <time name="total"> 4596.32 4596.10</time>
   <energy>
    <i name="e_fr_energy">   -989.01703551 </i>
    <i name="e_wo_entrp">   -989.01703551 </i>
    <i name="e_0_energy">   -989.01703551 </i>
   </energy>
  </scstep>
  <scstep>
   <time name="total"> 6890.66 6890.46</time>
   <energy>
    <i name="alphaZ">   5537.53060054 </i>
    <i name="ewald"> -88891.04517456 </i>
    <i name="hartreedc"> -33885.32527383 </i>
    <i name="XCdc">   2799.91200922 </i>
    <i name="pawpsdc"> 121532.31354642 </i>
    <i name="pawaedc">-137029.24482845 </i>
    <i name="eentropy">     -0.00000000 </i>
    <i name="bandstr">  -9232.78793218 </i>
    <i name="atom"> 133860.07490555 </i>
    <i name="e_fr_energy">   -989.01704237 </i>
    <i name="e_wo_entrp">   -989.01704237 </i>
    <i name="e_0_energy">   -989.01704237 </i>
   </energy>
  </scstep>
  <structure>
   <crystal>
    <varray name="basis" >
     <v>       0.00000000      12.28047342       0.00000000 </v>
     <v>       9.14270205       0.00000000       0.00000000 </v>
     <v>       0.00000000      -2.76826177     -11.30069772 </v>
    </varray>
    <i name="volume">   1268.80515525 </i>
    <varray name="rec_basis" >
     <v>       0.00000000       0.08143009      -0.01994742 </v>
     <v>       0.10937686      -0.00000000       0.00000000 </v>
     <v>       0.00000000       0.00000000      -0.08849011 </v>
    </varray>
   </crystal>
   <varray name="positions" >
    <v>       0.65902118       0.00000000       0.15659018 </v>
    <v>       0.65902118       0.00000000       0.65659018 </v>
    <v>       0.65902118       0.33333333       0.15659018 </v>
    <v>       0.65902118       0.33333333       0.65659018 </v>
    <v>       0.65902118       0.66666667       0.15659018 </v>
    <v>       0.65902118       0.66666667       0.65659018 </v>
    <v>       0.84097882       0.16666667       0.34340982 </v>
    <v>       0.84097882       0.16666667       0.84340982 </v>
    <v>       0.84097882       0.50000000       0.34340982 </v>
    <v>       0.84097882       0.50000000       0.84340982 </v>
    <v>       0.84097882       0.83333333       0.34340982 </v>
    <v>       0.84097882       0.83333333       0.84340982 </v>
    <v>       0.59108678       0.16666667       0.39757535 </v>
    <v>       0.59108678       0.16666667       0.89757535 </v>
    <v>       0.59108678       0.50000000       0.39757535 </v>
    <v>       0.59108678       0.50000000       0.89757535 </v>
    <v>       0.59108678       0.83333333       0.39757535 </v>
    <v>       0.59108678       0.83333333       0.89757535 </v>
    <v>       0.90891322       0.00000000       0.10242465 </v>
    <v>       0.90891322       0.00000000       0.60242465 </v>
    <v>       0.90891322       0.33333333       0.10242465 </v>
    <v>       0.90891322       0.33333333       0.60242465 </v>
    <v>       0.90891322       0.66666667       0.10242465 </v>
    <v>       0.90891322       0.66666667       0.60242465 </v>
    <v>       0.15902118       0.16666667       0.15659018 </v>
    <v>       0.15902118       0.16666667       0.65659018 </v>
    <v>       0.15902118       0.50000000       0.15659018 </v>
    <v>       0.15902118       0.50000000       0.65659018 </v>
    <v>       0.15902118       0.83333333       0.15659018 </v>
    <v>       0.15902118       0.83333333       0.65659018 </v>
    <v>       0.34097882       0.00000000       0.34340982 </v>
    <v>       0.34097882       0.00000000       0.84340982 </v>
    <v>       0.34097882       0.33333333       0.34340982 </v>
    <v>       0.34097882       0.33333333       0.84340982 </v>
    <v>       0.34097882       0.66666667       0.34340982 </v>
    <v>       0.34097882       0.66666667       0.84340982 </v>
    <v>       0.09108678       0.00000000       0.39757535 </v>
    <v>       0.09108678       0.00000000       0.89757535 </v>
    <v>       0.09108678       0.33333333       0.39757535 </v>
    <v>       0.09108678       0.33333333       0.89757535 </v>
    <v>       0.09108678       0.66666667       0.39757535 </v>
    <v>       0.09108678       0.66666667       0.89757535 </v>
    <v>       0.40891322       0.16666667       0.10242465 </v>
    <v>       0.40891322       0.16666667       0.60242465 </v>
    <v>       0.40891322       0.50000000       0.10242465 </v>
    <v>       0.40891322       0.50000000       0.60242465 </v>
    <v>       0.40891322       0.83333333       0.10242465 </v>
    <v>       0.40891322       0.83333333       0.60242465 </v>
    <v>       0.99636465       0.16666667       0.12723376 </v>
    <v>       0.99636465       0.16666667       0.62723376 </v>
    <v>       0.99636465       0.50000000       0.12723376 </v>
    <v>       0.99636465       0.50000000       0.62723376 </v>
    <v>       0.99636465       0.83333333       0.12723376 </v>
    <v>       0.99636465       0.83333333       0.62723376 </v>
    <v>       0.50363535       0.00000000       0.37276624 </v>
    <v>       0.50363535       0.00000000       0.87276624 </v>
    <v>       0.50363535       0.33333333       0.37276624 </v>
    <v>       0.50363535       0.33333333       0.87276624 </v>
    <v>       0.50363535       0.66666667       0.37276624 </v>
    <v>       0.50363535       0.66666667       0.87276624 </v>
    <v>       0.67254688       0.16666667       0.28039823 </v>
    <v>       0.67254688       0.16666667       0.78039823 </v>
    <v>       0.67254688       0.50000000       0.28039823 </v>
    <v>       0.67254688       0.50000000       0.78039823 </v>
    <v>       0.67254688       0.83333333       0.28039823 </v>
    <v>       0.67254688       0.83333333       0.78039823 </v>
    <v>       0.82745312       0.00000000       0.21960177 </v>
    <v>       0.82745312       0.00000000       0.71960177 </v>
    <v>       0.82745312       0.33333333       0.21960177 </v>
    <v>       0.82745312       0.33333333       0.71960177 </v>
    <v>       0.82745312       0.66666667       0.21960177 </v>
    <v>       0.82745312       0.66666667       0.71960177 </v>
    <v>       0.83209082       0.00000000       0.44580968 </v>
    <v>       0.83209082       0.00000000       0.94580968 </v>
    <v>       0.83209082       0.33333333       0.44580968 </v>
    <v>       0.83209082       0.33333333       0.94580968 </v>
    <v>       0.83209082       0.66666667       0.44580968 </v>
    <v>       0.83209082       0.66666667       0.94580968 </v>
    <v>       0.66790918       0.16666667       0.05419032 </v>
    <v>       0.66790918       0.16666667       0.55419032 </v>
    <v>       0.66790918       0.50000000       0.05419032 </v>
    <v>       0.66790918       0.50000000       0.55419032 </v>
    <v>       0.66790918       0.83333333       0.05419032 </v>
    <v>       0.66790918       0.83333333       0.55419032 </v>
    <v>       0.49636465       0.00000000       0.12723376 </v>
    <v>       0.49636465       0.00000000       0.62723376 </v>
    <v>       0.49636465       0.33333333       0.12723376 </v>
    <v>       0.49636465       0.33333333       0.62723376 </v>
    <v>       0.49636465       0.66666667       0.12723376 </v>
    <v>       0.49636465       0.66666667       0.62723376 </v>
    <v>       0.00363535       0.16666667       0.37276624 </v>
    <v>       0.00363535       0.16666667       0.87276624 </v>
    <v>       0.00363535       0.50000000       0.37276624 </v>
    <v>       0.00363535       0.50000000       0.87276624 </v>
    <v>       0.00363535       0.83333333       0.37276624 </v>
    <v>       0.00363535       0.83333333       0.87276624 </v>
    <v>       0.17254688       0.00000000       0.28039823 </v>
    <v>       0.17254688       0.00000000       0.78039823 </v>
    <v>       0.17254688       0.33333333       0.28039823 </v>
    <v>       0.17254688       0.33333333       0.78039823 </v>
    <v>       0.17254688       0.66666667       0.28039823 </v>
    <v>       0.17254688       0.66666667       0.78039823 </v>
    <v>       0.32745312       0.16666667       0.21960177 </v>
    <v>       0.32745312       0.16666667       0.71960177 </v>
    <v>       0.32745312       0.50000000       0.21960177 </v>
    <v>       0.32745312       0.50000000       0.71960177 </v>
    <v>       0.32745312       0.83333333       0.21960177 </v>
    <v>       0.32745312       0.83333333       0.71960177 </v>
    <v>       0.33209082       0.16666667       0.44580968 </v>
    <v>       0.33209082       0.16666667       0.94580968 </v>
    <v>       0.33209082       0.50000000       0.44580968 </v>
    <v>       0.33209082       0.50000000       0.94580968 </v>
    <v>       0.33209082       0.83333333       0.44580968 </v>
    <v>       0.33209082       0.83333333       0.94580968 </v>
    <v>       0.16790918       0.00000000       0.05419032 </v>
    <v>       0.16790918       0.00000000       0.55419032 </v>
    <v>       0.16790918       0.33333333       0.05419032 </v>
    <v>       0.16790918       0.33333333       0.55419032 </v>
    <v>       0.16790918       0.66666667       0.05419032 </v>
    <v>       0.16790918       0.66666667       0.55419032 </v>
   </varray>
  </structure>
  <varray name="forces" >
   <v>      -0.00000000       0.07725908       0.00535965 </v>
   <v>      -0.00000000       0.07725908       0.00535965 </v>
   <v>      -0.00000000       0.07725908       0.00535965 </v>
   <v>      -0.00000000       0.07725908       0.00535965 </v>
   <v>       0.00000000       0.07725908       0.00535965 </v>
   <v>      -0.00000000       0.07725908       0.00535965 </v>
   <v>       0.00000000      -0.07725908      -0.00535965 </v>
   <v>       0.00000000      -0.07725908      -0.00535965 </v>
   <v>      -0.00000000      -0.07725908      -0.00535965 </v>
   <v>      -0.00000000      -0.07725908      -0.00535965 </v>
   <v>       0.00000000      -0.07725908      -0.00535965 </v>
   <v>       0.00000000      -0.07725908      -0.00535965 </v>
   <v>      -0.00000000      -0.02480630       0.01150419 </v>
   <v>      -0.00000000      -0.02480630       0.01150419 </v>
   <v>       0.00000000      -0.02480630       0.01150419 </v>
   <v>      -0.00000000      -0.02480630       0.01150419 </v>
   <v>       0.00000000      -0.02480630       0.01150419 </v>
   <v>       0.00000000      -0.02480630       0.01150419 </v>
   <v>       0.00000000       0.02480630      -0.01150419 </v>
   <v>       0.00000000       0.02480630      -0.01150419 </v>
   <v>      -0.00000000       0.02480630      -0.01150419 </v>
   <v>      -0.00000000       0.02480630      -0.01150419 </v>
   <v>      -0.00000000       0.02480630      -0.01150419 </v>
   <v>       0.00000000       0.02480630      -0.01150419 </v>
   <v>      -0.00000000       0.07725908       0.00535965 </v>
   <v>       0.00000000       0.07725908       0.00535965 </v>
   <v>      -0.00000000       0.07725908       0.00535965 </v>
   <v>       0.00000000       0.07725908       0.00535965 </v>
   <v>      -0.00000000       0.07725908       0.00535965 </v>
   <v>       0.00000000       0.07725908       0.00535965 </v>
   <v>       0.00000000      -0.07725908      -0.00535965 </v>
   <v>       0.00000000      -0.07725908      -0.00535965 </v>
   <v>      -0.00000000      -0.07725908      -0.00535965 </v>
   <v>      -0.00000000      -0.07725908      -0.00535965 </v>
   <v>      -0.00000000      -0.07725908      -0.00535965 </v>
   <v>      -0.00000000      -0.07725908      -0.00535965 </v>
   <v>       0.00000000      -0.02480630       0.01150419 </v>
   <v>      -0.00000000      -0.02480630       0.01150419 </v>
   <v>       0.00000000      -0.02480630       0.01150419 </v>
   <v>      -0.00000000      -0.02480630       0.01150419 </v>
   <v>      -0.00000000      -0.02480630       0.01150419 </v>
   <v>      -0.00000000      -0.02480630       0.01150419 </v>
   <v>       0.00000000       0.02480630      -0.01150419 </v>
   <v>       0.00000000       0.02480630      -0.01150419 </v>
   <v>      -0.00000000       0.02480630      -0.01150419 </v>
   <v>      -0.00000000       0.02480630      -0.01150419 </v>
   <v>       0.00000000       0.02480630      -0.01150419 </v>
   <v>      -0.00000000       0.02480630      -0.01150419 </v>
   <v>      -0.00000000      -0.18589260       0.12517007 </v>
   <v>      -0.00000000      -0.18589260       0.12517007 </v>
   <v>       0.00000000      -0.18589260       0.12517007 </v>
   <v>       0.00000000      -0.18589260       0.12517007 </v>
   <v>       0.00000000      -0.18589260       0.12517007 </v>
   <v>      -0.00000000      -0.18589260       0.12517007 </v>
   <v>      -0.00000000       0.18589260      -0.12517007 </v>
   <v>       0.00000000       0.18589260      -0.12517007 </v>
   <v>       0.00000000       0.18589260      -0.12517007 </v>
   <v>       0.00000000       0.18589260      -0.12517007 </v>
   <v>      -0.00000000       0.18589260      -0.12517007 </v>
   <v>       0.00000000       0.18589260      -0.12517007 </v>
   <v>      -0.00000000      -0.04346087      -0.12468541 </v>
   <v>      -0.00000000      -0.04346087      -0.12468541 </v>
   <v>      -0.00000000      -0.04346087      -0.12468541 </v>
   <v>       0.00000000      -0.04346087      -0.12468541 </v>
   <v>      -0.00000000      -0.04346087      -0.12468541 </v>
   <v>      -0.00000000      -0.04346087      -0.12468541 </v>
   <v>      -0.00000000       0.04346087       0.12468541 </v>
   <v>       0.00000000       0.04346087       0.12468541 </v>
   <v>       0.00000000       0.04346087       0.12468541 </v>
   <v>      -0.00000000       0.04346087       0.12468541 </v>
   <v>      -0.00000000       0.04346087       0.12468541 </v>
   <v>      -0.00000000       0.04346087       0.12468541 </v>
   <v>      -0.00000000       0.43461467      -0.08179498 </v>
   <v>       0.00000000       0.43461467      -0.08179498 </v>
   <v>       0.00000000       0.43461467      -0.08179498 </v>
   <v>      -0.00000000       0.43461467      -0.08179498 </v>
   <v>      -0.00000000       0.43461467      -0.08179498 </v>
   <v>       0.00000000       0.43461467      -0.08179498 </v>
   <v>      -0.00000000      -0.43461467       0.08179498 </v>
   <v>      -0.00000000      -0.43461467       0.08179498 </v>
   <v>      -0.00000000      -0.43461467       0.08179498 </v>
   <v>      -0.00000000      -0.43461467       0.08179498 </v>
   <v>       0.00000000      -0.43461467       0.08179498 </v>
   <v>      -0.00000000      -0.43461467       0.08179498 </v>
   <v>       0.00000000      -0.18589260       0.12517007 </v>
   <v>       0.00000000      -0.18589260       0.12517007 </v>
   <v>      -0.00000000      -0.18589260       0.12517007 </v>
   <v>       0.00000000      -0.18589260       0.12517007 </v>
   <v>       0.00000000      -0.18589260       0.12517007 </v>
   <v>      -0.00000000      -0.18589260       0.12517007 </v>
   <v>      -0.00000000       0.18589260      -0.12517007 </v>
   <v>       0.00000000       0.18589260      -0.12517007 </v>
   <v>       0.00000000       0.18589260      -0.12517007 </v>
   <v>      -0.00000000       0.18589260      -0.12517007 </v>
   <v>      -0.00000000       0.18589260      -0.12517007 </v>
   <v>      -0.00000000       0.18589260      -0.12517007 </v>
   <v>       0.00000000      -0.04346087      -0.12468541 </v>
   <v>      -0.00000000      -0.04346087      -0.12468541 </v>
   <v>       0.00000000      -0.04346087      -0.12468541 </v>
   <v>      -0.00000000      -0.04346087      -0.12468541 </v>
   <v>      -0.00000000      -0.04346087      -0.12468541 </v>
   <v>      -0.00000000      -0.04346087      -0.12468541 </v>
   <v>       0.00000000       0.04346087       0.12468541 </v>
   <v>      -0.00000000       0.04346087       0.12468541 </v>
   <v>      -0.00000000       0.04346087       0.12468541 </v>
   <v>       0.00000000       0.04346087       0.12468541 </v>
   <v>      -0.00000000       0.04346087       0.12468541 </v>
   <v>       0.00000000       0.04346087       0.12468541 </v>
   <v>      -0.00000000       0.43461467      -0.08179498 </v>
   <v>       0.00000000       0.43461467      -0.08179498 </v>
   <v>      -0.00000000       0.43461467      -0.08179498 </v>
   <v>      -0.00000000       0.43461467      -0.08179498 </v>
   <v>      -0.00000000       0.43461467      -0.08179498 </v>
   <v>       0.00000000       0.43461467      -0.08179498 </v>
   <v>      -0.00000000      -0.43461467       0.08179498 </v>
   <v>       0.00000000      -0.43461467       0.08179498 </v>
   <v>       0.00000000      -0.43461467       0.08179498 </v>
   <v>      -0.00000000      -0.43461467       0.08179498 </v>
   <v>       0.00000000      -0.43461467       0.08179498 </v>
   <v>      -0.00000000      -0.43461467       0.08179498 </v>
  </varray>
  <varray name="stress" >
   <v>     -61.42545678       0.00000000       0.00000000 </v>
   <v>       0.00000000     -57.13510139       2.00091952 </v>
   <v>       0.00000000       2.00091977     -54.43496215 </v>
  </varray>
  <energy>
   <i name="e_fr_energy">   -989.01704237 </i>
   <i name="e_wo_entrp">   -989.01704237 </i>
   <i name="e_0_energy">   -989.01704237 </i>
  </energy>
  <time name="totalsc">****************</time>
  <eigenvalues>
   <array>
    <dimension dim="1">band</dimension>
    <dimension dim="2">kpoint</dimension>
    <dimension dim="3">spin</dimension>
    <field>eigene</field>
    <field>occ</field>
    <set>
     <set comment="spin 1">
      <set comment="kpoint 1">
       <r>  -19.0553    1.0000 </r>
       <r>  -18.7764    1.0000 </r>
       <r>  -18.7094    1.0000 </r>
       <r>  -18.6468    1.0000 </r>
       <r>  -18.5154    1.0000 </r>
       <r>  -18.3599    1.0000 </r>
       <r>  -18.3599    1.0000 </r>
       <r>  -18.2954    1.0000 </r>
       <r>  -18.2164    1.0000 </r>
       <r>  -18.1830    1.0000 </r>
       <r>  -18.1829    1.0000 </r>
       <r>  -18.0958    1.0000 </r>
       <r>  -18.0958    1.0000 </r>
       <r>  -18.0726    1.0000 </r>
       <r>  -18.0726    1.0000 </r>
       <r>  -18.0722    1.0000 </r>
       <r>  -18.0722    1.0000 </r>
       <r>  -18.0363    1.0000 </r>
       <r>  -17.9123    1.0000 </r>
       <r>  -17.9122    1.0000 </r>
       <r>  -17.9001    1.0000 </r>
       <r>  -17.8940    1.0000 </r>
       <r>  -17.8921    1.0000 </r>
       <r>  -17.8885    1.0000 </r>
       <r>  -17.8885    1.0000 </r>
       <r>  -17.8775    1.0000 </r>
       <r>  -17.7607    1.0000 </r>
       <r>  -17.7607    1.0000 </r>
       <r>  -17.7511    1.0000 </r>
       <r>  -17.7326    1.0000 </r>
       <r>  -17.7326    1.0000 </r>
       <r>  -17.7157    1.0000 </r>
       <r>  -17.7052    1.0000 </r>
       <r>  -17.7052    1.0000 </r>
       <r>  -17.6677    1.0000 </r>
       <r>  -17.6676    1.0000 </r>
       <r>  -17.6505    1.0000 </r>
       <r>  -17.6505    1.0000 </r>
       <r>  -17.6362    1.0000 </r>
       <r>  -17.5517    1.0000 </r>
       <r>  -17.5517    1.0000 </r>
       <r>  -17.5489    1.0000 </r>
       <r>  -17.5489    1.0000 </r>
       <r>  -17.5464    1.0000 </r>
       <r>  -17.5358    1.0000 </r>
       <r>  -17.5358    1.0000 </r>
       <r>  -17.5157    1.0000 </r>
       <r>  -17.5157    1.0000 </r>
       <r>  -17.4484    1.0000 </r>
       <r>  -17.4067    1.0000 </r>
       <r>  -17.4067    1.0000 </r>
       <r>  -17.3910    1.0000 </r>
       <r>  -17.3762    1.0000 </r>
       <r>  -17.3762    1.0000 </r>
       <r>  -17.3004    1.0000 </r>
       <r>  -17.3003    1.0000 </r>
       <r>  -17.2954    1.0000 </r>
       <r>  -17.2954    1.0000 </r>
       <r>  -17.2821    1.0000 </r>
       <r>  -17.2821    1.0000 </r>
       <r>  -17.2750    1.0000 </r>
       <r>  -17.2750    1.0000 </r>
       <r>  -17.2688    1.0000 </r>
       <r>  -17.2688    1.0000 </r>
       <r>  -17.2621    1.0000 </r>
       <r>  -17.2621    1.0000 </r>
       <r>  -17.2588    1.0000 </r>
       <r>  -17.2556    1.0000 </r>
       <r>  -17.2393    1.0000 </r>
       <r>  -17.2389    1.0000 </r>
       <r>  -17.1775    1.0000 </r>
       <r>  -17.1491    1.0000 </r>
       <r>  -13.4632    1.0000 </r>
       <r>  -13.4603    1.0000 </r>
       <r>  -13.4554    1.0000 </r>
       <r>  -13.4222    1.0000 </r>
       <r>  -13.4184    1.0000 </r>
       <r>  -13.4172    1.0000 </r>
       <r>  -13.4152    1.0000 </r>
       <r>  -13.4123    1.0000 </r>
       <r>  -13.4117    1.0000 </r>
       <r>  -13.4104    1.0000 </r>
       <r>  -13.4066    1.0000 </r>
       <r>  -13.4063    1.0000 </r>
       <r>  -13.4018    1.0000 </r>
       <r>  -13.3915    1.0000 </r>
       <r>  -13.3676    1.0000 </r>
       <r>  -13.3676    1.0000 </r>
       <r>  -13.3639    1.0000 </r>
       <r>  -13.3546    1.0000 </r>
       <r>  -13.3546    1.0000 </r>
       <r>  -13.3503    1.0000 </r>
       <r>  -13.3503    1.0000 </r>
       <r>  -13.3485    1.0000 </r>
       <r>  -13.3485    1.0000 </r>
       <r>  -13.3460    1.0000 </r>
       <r>  -13.3459    1.0000 </r>
       <r>  -13.3413    1.0000 </r>
       <r>  -13.3413    1.0000 </r>
       <r>  -13.3413    1.0000 </r>
       <r>  -13.3413    1.0000 </r>
       <r>  -13.3390    1.0000 </r>
       <r>  -13.3390    1.0000 </r>
       <r>  -13.3302    1.0000 </r>
       <r>  -13.3302    1.0000 </r>
       <r>  -13.3210    1.0000 </r>
       <r>  -13.3210    1.0000 </r>
       <r>  -13.3193    1.0000 </r>
       <r>  -13.3193    1.0000 </r>
       <r>  -13.3189    1.0000 </r>
       <r>  -13.3180    1.0000 </r>
       <r>  -13.3162    1.0000 </r>
       <r>  -13.3162    1.0000 </r>
       <r>  -13.3149    1.0000 </r>
       <r>  -13.3106    1.0000 </r>
       <r>  -13.3106    1.0000 </r>
       <r>  -13.3099    1.0000 </r>
       <r>  -13.3094    1.0000 </r>
       <r>  -13.3094    1.0000 </r>
       <r>  -13.3054    1.0000 </r>
       <r>  -13.3015    1.0000 </r>
       <r>  -13.3015    1.0000 </r>
       <r>  -13.3008    1.0000 </r>
       <r>  -13.3008    1.0000 </r>
       <r>  -13.2966    1.0000 </r>
       <r>  -13.2966    1.0000 </r>
       <r>  -13.2955    1.0000 </r>
       <r>  -13.2885    1.0000 </r>
       <r>  -13.2870    1.0000 </r>
       <r>  -13.2854    1.0000 </r>
       <r>  -13.2854    1.0000 </r>
       <r>  -13.2810    1.0000 </r>
       <r>  -13.2569    1.0000 </r>
       <r>  -13.2550    1.0000 </r>
       <r>  -13.2550    1.0000 </r>
       <r>  -13.2517    1.0000 </r>
       <r>  -13.2309    1.0000 </r>
       <r>  -13.2276    1.0000 </r>
       <r>  -13.2198    1.0000 </r>
       <r>  -13.2164    1.0000 </r>
       <r>  -13.2127    1.0000 </r>
       <r>  -13.1992    1.0000 </r>
       <r>  -13.1992    1.0000 </r>
       <r>  -13.1986    1.0000 </r>
       <r>  -13.1986    1.0000 </r>
       <r>  -13.1945    1.0000 </r>
       <r>  -13.1945    1.0000 </r>
       <r>  -13.1934    1.0000 </r>
       <r>  -13.1934    1.0000 </r>
       <r>  -13.1892    1.0000 </r>
       <r>  -13.1892    1.0000 </r>
       <r>  -13.1861    1.0000 </r>
       <r>  -13.1861    1.0000 </r>
       <r>  -13.1760    1.0000 </r>
       <r>  -13.1760    1.0000 </r>
       <r>  -13.1740    1.0000 </r>
       <r>  -13.1740    1.0000 </r>
       <r>  -13.1727    1.0000 </r>
       <r>  -13.1716    1.0000 </r>
       <r>  -13.1716    1.0000 </r>
       <r>  -13.1708    1.0000 </r>
       <r>  -13.1708    1.0000 </r>
       <r>  -13.1700    1.0000 </r>
       <r>  -13.1700    1.0000 </r>
       <r>  -13.1679    1.0000 </r>
       <r>  -13.1652    1.0000 </r>
       <r>  -13.1625    1.0000 </r>
       <r>  -13.1602    1.0000 </r>
       <r>  -13.1602    1.0000 </r>
       <r>  -13.1591    1.0000 </r>
       <r>  -13.1591    1.0000 </r>
       <r>  -13.1570    1.0000 </r>
       <r>  -13.1570    1.0000 </r>
       <r>  -13.1541    1.0000 </r>
       <r>  -13.1540    1.0000 </r>
       <r>  -13.1523    1.0000 </r>
       <r>  -13.1523    1.0000 </r>
       <r>  -13.1433    1.0000 </r>
       <r>  -13.1419    1.0000 </r>
       <r>  -13.1419    1.0000 </r>
       <r>  -13.1416    1.0000 </r>
       <r>  -13.1416    1.0000 </r>
       <r>  -13.1385    1.0000 </r>
       <r>  -13.1385    1.0000 </r>
       <r>  -13.1304    1.0000 </r>
       <r>  -13.1304    1.0000 </r>
       <r>  -13.1150    1.0000 </r>
       <r>  -13.1150    1.0000 </r>
       <r>  -13.1141    1.0000 </r>
       <r>  -13.1141    1.0000 </r>
       <r>  -13.1077    1.0000 </r>
       <r>  -13.1077    1.0000 </r>
       <r>  -13.1007    1.0000 </r>
       <r>  -13.0931    1.0000 </r>
       <r>  -13.0931    1.0000 </r>
       <r>  -13.0792    1.0000 </r>
       <r>  -13.0788    1.0000 </r>
       <r>  -13.0779    1.0000 </r>
       <r>  -13.0778    1.0000 </r>
       <r>  -13.0648    1.0000 </r>
       <r>  -13.0571    1.0000 </r>
       <r>  -13.0571    1.0000 </r>
       <r>  -13.0570    1.0000 </r>
       <r>  -13.0557    1.0000 </r>
       <r>  -13.0546    1.0000 </r>
       <r>  -13.0541    1.0000 </r>
       <r>  -13.0541    1.0000 </r>
       <r>  -13.0514    1.0000 </r>
       <r>  -13.0513    1.0000 </r>
       <r>  -13.0486    1.0000 </r>
       <r>  -13.0445    1.0000 </r>
       <r>  -13.0445    1.0000 </r>
       <r>  -13.0430    1.0000 </r>
       <r>  -13.0430    1.0000 </r>
       <r>  -13.0424    1.0000 </r>
       <r>  -13.0424    1.0000 </r>
       <r>  -13.0408    1.0000 </r>
       <r>  -13.0302    1.0000 </r>
       <r>  -13.0302    1.0000 </r>
       <r>  -13.0220    1.0000 </r>
       <r>  -13.0220    1.0000 </r>
       <r>  -13.0214    1.0000 </r>
       <r>  -13.0208    1.0000 </r>
       <r>  -13.0104    1.0000 </r>
       <r>  -13.0103    1.0000 </r>
       <r>  -13.0101    1.0000 </r>
       <r>  -13.0101    1.0000 </r>
       <r>  -13.0097    1.0000 </r>
       <r>  -13.0097    1.0000 </r>
       <r>  -13.0071    1.0000 </r>
       <r>  -13.0071    1.0000 </r>
       <r>  -12.9981    1.0000 </r>
       <r>  -12.9981    1.0000 </r>
       <r>  -12.9974    1.0000 </r>
       <r>  -12.9974    1.0000 </r>
       <r>  -12.9955    1.0000 </r>
       <r>  -12.9955    1.0000 </r>
       <r>  -12.9935    1.0000 </r>
       <r>  -12.9934    1.0000 </r>
       <r>  -12.9934    1.0000 </r>
       <r>  -12.9908    1.0000 </r>
       <r>  -12.9884    1.0000 </r>
       <r>  -12.9879    1.0000 </r>
       <r>  -12.9879    1.0000 </r>
       <r>  -12.9867    1.0000 </r>
       <r>  -12.9739    1.0000 </r>
       <r>  -12.9739    1.0000 </r>
       <r>  -12.9711    1.0000 </r>
       <r>  -12.9582    1.0000 </r>
       <r>  -12.9581    1.0000 </r>
       <r>  -12.9581    1.0000 </r>
       <r>  -12.9452    1.0000 </r>
       <r>  -12.9452    1.0000 </r>
       <r>  -12.9436    1.0000 </r>
       <r>  -12.9414    1.0000 </r>
       <r>  -12.9402    1.0000 </r>
       <r>  -12.9391    1.0000 </r>
       <r>  -12.9348    1.0000 </r>
       <r>  -12.9299    1.0000 </r>
       <r>  -12.9299    1.0000 </r>
       <r>  -12.9290    1.0000 </r>
       <r>  -12.9290    1.0000 </r>
       <r>  -12.9266    1.0000 </r>
       <r>  -12.9091    1.0000 </r>
       <r>  -12.9091    1.0000 </r>
       <r>  -12.8723    1.0000 </r>
       <r>  -12.8551    1.0000 </r>
       <r>  -12.8470    1.0000 </r>
       <r>  -12.8470    1.0000 </r>
       <r>  -12.8106    1.0000 </r>
       <r>  -12.8085    1.0000 </r>
       <r>  -12.7868    1.0000 </r>
       <r>  -12.7868    1.0000 </r>
       <r>  -12.7774    1.0000 </r>
       <r>  -12.7414    1.0000 </r>
       <r>  -12.6973    1.0000 </r>
       <r>  -12.6733    1.0000 </r>
       <r>  -12.6733    1.0000 </r>
       <r>  -12.6424    1.0000 </r>
       <r>  -12.6218    1.0000 </r>
       <r>  -12.6218    1.0000 </r>
       <r>  -12.6057    1.0000 </r>
       <r>  -12.6057    1.0000 </r>
       <r>  -12.5962    1.0000 </r>
       <r>  -12.5962    1.0000 </r>
       <r>  -12.5657    1.0000 </r>
       <r>  -12.5409    1.0000 </r>
       <r>  -12.5409    1.0000 </r>
       <r>  -12.5042    1.0000 </r>
       <r>  -12.5042    1.0000 </r>
       <r>  -12.3497    1.0000 </r>
       <r>  -12.3496    1.0000 </r>
       <r>  -12.3444    1.0000 </r>
       <r>  -12.3444    1.0000 </r>
       <r>  -12.3054    1.0000 </r>
       <r>  -12.3003    1.0000 </r>
       <r>  -12.3002    1.0000 </r>
       <r>  -12.2876    1.0000 </r>
       <r>  -12.2876    1.0000 </r>
       <r>  -12.2844    1.0000 </r>
       <r>  -12.2844    1.0000 </r>
       <r>  -12.2746    1.0000 </r>
       <r>  -12.2251    1.0000 </r>
       <r>  -12.2250    1.0000 </r>
       <r>  -12.2065    1.0000 </r>
       <r>  -12.2065    1.0000 </r>
       <r>  -12.1916    1.0000 </r>
       <r>  -12.1916    1.0000 </r>
       <r>  -12.1232    1.0000 </r>
       <r>  -12.1102    1.0000 </r>
       <r>  -12.1102    1.0000 </r>
       <r>  -11.9718    1.0000 </r>
       <r>   -5.3783    1.0000 </r>
       <r>   -5.3661    1.0000 </r>
       <r>   -5.0663    1.0000 </r>
       <r>   -5.0663    1.0000 </r>
       <r>   -4.7413    1.0000 </r>
       <r>   -4.7413    1.0000 </r>
       <r>   -4.6510    1.0000 </r>
       <r>   -4.6510    1.0000 </r>
       <r>   -4.6120    1.0000 </r>
       <r>   -4.6120    1.0000 </r>
       <r>   -4.5541    1.0000 </r>
       <r>   -4.4327    1.0000 </r>
       <r>   -4.4327    1.0000 </r>
       <r>   -4.4276    1.0000 </r>
       <r>   -4.4276    1.0000 </r>
       <r>   -4.4273    1.0000 </r>
       <r>   -4.4273    1.0000 </r>
       <r>   -4.3949    1.0000 </r>
       <r>   -4.2636    1.0000 </r>
       <r>   -4.2126    1.0000 </r>
       <r>   -4.0836    1.0000 </r>
       <r>   -4.0836    1.0000 </r>
       <r>   -3.9589    1.0000 </r>
       <r>   -3.9475    1.0000 </r>
       <r>   -3.9475    1.0000 </r>
       <r>   -3.9398    1.0000 </r>
       <r>   -3.9398    1.0000 </r>
       <r>   -3.7917    1.0000 </r>
       <r>   -3.7917    1.0000 </r>
       <r>   -3.7270    1.0000 </r>
       <r>   -3.7221    1.0000 </r>
       <r>   -3.7221    1.0000 </r>
       <r>   -3.6971    1.0000 </r>
       <r>   -3.6971    1.0000 </r>
       <r>   -3.4216    1.0000 </r>
       <r>   -3.4133    1.0000 </r>
       <r>   -3.4133    1.0000 </r>
       <r>   -3.3760    1.0000 </r>
       <r>   -3.3638    1.0000 </r>
       <r>   -3.3638    1.0000 </r>
       <r>   -3.3597    1.0000 </r>
       <r>   -3.3597    1.0000 </r>
       <r>   -3.0700    1.0000 </r>
       <r>   -3.0543    1.0000 </r>
       <r>   -2.9468    1.0000 </r>
       <r>   -2.9468    1.0000 </r>
       <r>   -2.8121    1.0000 </r>
       <r>   -2.7003    1.0000 </r>
       <r>   -2.7003    1.0000 </r>
       <r>   -2.6894    1.0000 </r>
       <r>   -2.6894    1.0000 </r>
       <r>   -2.5792    1.0000 </r>
       <r>   -2.5792    1.0000 </r>
       <r>   -2.5196    1.0000 </r>
       <r>   -2.5196    1.0000 </r>
       <r>   -2.5015    1.0000 </r>
       <r>   -2.4982    1.0000 </r>
       <r>   -2.4495    1.0000 </r>
       <r>   -2.4495    1.0000 </r>
       <r>   -2.4452    1.0000 </r>
       <r>   -2.1957    1.0000 </r>
       <r>   -2.1957    1.0000 </r>
       <r>   -2.1837    1.0000 </r>
       <r>   -2.1837    1.0000 </r>
       <r>   -2.0652    1.0000 </r>
       <r>   -2.0651    1.0000 </r>
       <r>   -1.9694    1.0000 </r>
       <r>   -1.9694    1.0000 </r>
       <r>   -1.8956    1.0000 </r>
       <r>   -1.8956    1.0000 </r>
       <r>   -1.8666    1.0000 </r>
       <r>   -1.8579    1.0000 </r>
       <r>   -1.7994    1.0000 </r>
       <r>   -1.7994    1.0000 </r>
       <r>   -1.7985    1.0000 </r>
       <r>   -1.7985    1.0000 </r>
       <r>   -1.6911    1.0000 </r>
       <r>   -1.6911    1.0000 </r>
       <r>   -1.5583    1.0000 </r>
       <r>   -1.5583    1.0000 </r>
       <r>   -1.4226    1.0000 </r>
       <r>   -1.4225    1.0000 </r>
       <r>   -1.4014    1.0000 </r>
       <r>   -1.3293    1.0000 </r>
       <r>   -1.3293    1.0000 </r>
       <r>   -1.2887    1.0000 </r>
       <r>   -1.2629    1.0000 </r>
       <r>   -1.1900    1.0000 </r>
       <r>   -1.1900    1.0000 </r>
       <r>   -1.1598    1.0000 </r>
       <r>   -1.0981    1.0000 </r>
       <r>   -1.0981    1.0000 </r>
       <r>   -1.0765    1.0000 </r>
       <r>   -1.0765    1.0000 </r>
       <r>   -0.9092    1.0000 </r>
       <r>   -0.8212    1.0000 </r>
       <r>   -0.8212    1.0000 </r>
       <r>   -0.8184    1.0000 </r>
       <r>   -0.8129    1.0000 </r>
       <r>   -0.7893    1.0000 </r>
       <r>   -0.7893    1.0000 </r>
       <r>   -0.7418    1.0000 </r>
       <r>   -0.7322    1.0000 </r>
       <r>   -0.7322    1.0000 </r>
       <r>   -0.6945    1.0000 </r>
       <r>   -0.6409    1.0000 </r>
       <r>   -0.5956    1.0000 </r>
       <r>   -0.4881    1.0000 </r>
       <r>   -0.4808    1.0000 </r>
       <r>   -0.4711    1.0000 </r>
       <r>   -0.4711    1.0000 </r>
       <r>   -0.4659    1.0000 </r>
       <r>   -0.4659    1.0000 </r>
       <r>   -0.4370    1.0000 </r>
       <r>   -0.4370    1.0000 </r>
       <r>   -0.4276    1.0000 </r>
       <r>   -0.4276    1.0000 </r>
       <r>   -0.3747    1.0000 </r>
       <r>   -0.3747    1.0000 </r>
       <r>   -0.3307    1.0000 </r>
       <r>   -0.2938    1.0000 </r>
       <r>   -0.2918    1.0000 </r>
       <r>   -0.2727    1.0000 </r>
       <r>   -0.2726    1.0000 </r>
       <r>   -0.2137    1.0000 </r>
       <r>   -0.2137    1.0000 </r>
       <r>   -0.1832    1.0000 </r>
       <r>   -0.1436    1.0000 </r>
       <r>   -0.1218    1.0000 </r>
       <r>   -0.1218    1.0000 </r>
       <r>   -0.0965    1.0000 </r>
       <r>   -0.0843    1.0000 </r>
       <r>   -0.0752    1.0000 </r>
       <r>    0.0305    1.0000 </r>
       <r>    0.0796    1.0000 </r>
       <r>    0.1610    1.0000 </r>
       <r>    0.2152    1.0000 </r>
       <r>    0.2153    1.0000 </r>
       <r>    0.2289    1.0000 </r>
       <r>    0.3387    1.0000 </r>
       <r>    0.3387    1.0000 </r>
       <r>    0.3637    1.0000 </r>
       <r>    0.4046    1.0000 </r>
       <r>    0.4046    1.0000 </r>
       <r>    0.4331    1.0000 </r>
       <r>    0.4590    1.0000 </r>
       <r>    0.4689    1.0000 </r>
       <r>    0.4737    1.0000 </r>
       <r>    0.5070    1.0000 </r>
       <r>    0.5070    1.0000 </r>
       <r>    0.5214    1.0000 </r>
       <r>    0.5963    1.0000 </r>
       <r>    0.5963    1.0000 </r>
       <r>    0.6023    1.0000 </r>
       <r>    0.6023    1.0000 </r>
       <r>    0.6636    1.0000 </r>
       <r>    0.6636    1.0000 </r>
       <r>    0.6739    1.0000 </r>
       <r>    0.6739    1.0000 </r>
       <r>    0.7197    1.0000 </r>
       <r>    0.7198    1.0000 </r>
       <r>    0.7286    1.0000 </r>
       <r>    0.7286    1.0000 </r>
       <r>    0.7313    1.0000 </r>
       <r>    0.7643    1.0000 </r>
       <r>    0.7643    1.0000 </r>
       <r>    0.7658    1.0000 </r>
       <r>    0.8064    1.0000 </r>
       <r>    0.9753    1.0000 </r>
       <r>    0.9753    1.0000 </r>
       <r>    1.0155    1.0000 </r>
       <r>    1.0155    1.0000 </r>
       <r>    1.0269    1.0000 </r>
       <r>    1.0269    1.0000 </r>
       <r>    1.0726    1.0000 </r>
       <r>    1.0726    1.0000 </r>
       <r>    1.1055    1.0000 </r>
       <r>    1.1080    1.0000 </r>
       <r>    1.1436    1.0000 </r>
       <r>    1.1569    1.0000 </r>
       <r>    1.1570    1.0000 </r>
       <r>    1.1621    1.0000 </r>
       <r>    1.1621    1.0000 </r>
       <r>    1.1638    1.0000 </r>
       <r>    1.1638    1.0000 </r>
       <r>    1.2623    1.0000 </r>
       <r>    1.2791    1.0000 </r>
       <r>    1.3019    1.0000 </r>
       <r>    1.3113    1.0000 </r>
       <r>    1.3161    1.0000 </r>
       <r>    1.3346    1.0000 </r>
       <r>    1.3372    1.0000 </r>
       <r>    1.3372    1.0000 </r>
       <r>    1.3524    1.0000 </r>
       <r>    1.3554    1.0000 </r>
       <r>    1.3840    1.0000 </r>
       <r>    1.3840    1.0000 </r>
       <r>    1.4018    1.0000 </r>
       <r>    1.4018    1.0000 </r>
       <r>    1.4062    1.0000 </r>
       <r>    1.4351    1.0000 </r>
       <r>    1.4941    1.0000 </r>
       <r>    1.5105    1.0000 </r>
       <r>    1.5105    1.0000 </r>
       <r>    1.5430    1.0000 </r>
       <r>    1.5430    1.0000 </r>
       <r>    1.5601    1.0000 </r>
       <r>    1.5857    1.0000 </r>
       <r>    1.6598    1.0000 </r>
       <r>    1.6673    1.0000 </r>
       <r>    1.7051    1.0000 </r>
       <r>    1.7051    1.0000 </r>
       <r>    1.7573    1.0000 </r>
       <r>    1.7573    1.0000 </r>
       <r>    1.8792    1.0000 </r>
       <r>    1.8831    1.0000 </r>
       <r>    6.8490    0.0000 </r>
       <r>    9.1178    0.0000 </r>
       <r>    9.3423    0.0000 </r>
       <r>    9.3689    0.0000 </r>
       <r>    9.4611    0.0000 </r>
       <r>    9.8167    0.0000 </r>
       <r>    9.9386    0.0000 </r>
       <r>   10.3868    0.0000 </r>
       <r>   10.4154    0.0000 </r>
       <r>   10.4155    0.0000 </r>
       <r>   10.4280    0.0000 </r>
       <r>   10.5474    0.0000 </r>
       <r>   10.5474    0.0000 </r>
       <r>   10.7140    0.0000 </r>
       <r>   10.7170    0.0000 </r>
       <r>   10.9223    0.0000 </r>
       <r>   10.9223    0.0000 </r>
       <r>   10.9966    0.0000 </r>
       <r>   10.9966    0.0000 </r>
       <r>   11.0119    0.0000 </r>
       <r>   11.0340    0.0000 </r>
       <r>   11.0341    0.0000 </r>
       <r>   11.1018    0.0000 </r>
       <r>   11.1032    0.0000 </r>
       <r>   11.3053    0.0000 </r>
       <r>   11.3370    0.0000 </r>
       <r>   11.3868    0.0000 </r>
       <r>   11.4969    0.0000 </r>
       <r>   11.4973    0.0000 </r>
       <r>   11.5852    0.0000 </r>
       <r>   11.6007    0.0000 </r>
       <r>   11.6803    0.0000 </r>
       <r>   11.6811    0.0000 </r>
       <r>   11.7295    0.0000 </r>
       <r>   11.9045    0.0000 </r>
       <r>   11.9066    0.0000 </r>
       <r>   12.0530    0.0000 </r>
       <r>   12.2556    0.0000 </r>
       <r>   12.2633    0.0000 </r>
       <r>   12.3277    0.0000 </r>
       <r>   12.3343    0.0000 </r>
       <r>   12.5314    0.0000 </r>
       <r>   12.5352    0.0000 </r>
       <r>   12.5810    0.0000 </r>
       <r>   12.6205    0.0000 </r>
       <r>   12.6213    0.0000 </r>
       <r>   12.7928    0.0000 </r>
       <r>   12.9681    0.0000 </r>
       <r>   13.3280    0.0000 </r>
       <r>   13.3354    0.0000 </r>
       <r>   13.3531    0.0000 </r>
       <r>   13.3630    0.0000 </r>
       <r>   13.3700    0.0000 </r>
       <r>   13.5474    0.0000 </r>
       <r>   13.6310    0.0000 </r>
       <r>   13.6936    0.0000 </r>
       <r>   14.2853    0.0000 </r>
       <r>   14.3057    0.0000 </r>
       <r>   14.4008    0.0000 </r>
       <r>   14.4351    0.0000 </r>
       <r>   14.4561    0.0000 </r>
       <r>   14.5201    0.0000 </r>
       <r>   14.5988    0.0000 </r>
       <r>   14.6652    0.0000 </r>
       <r>   14.7017    0.0000 </r>
       <r>   14.7884    0.0000 </r>
       <r>   14.8683    0.0000 </r>
       <r>   14.9590    0.0000 </r>
       <r>   15.0223    0.0000 </r>
       <r>   15.0693    0.0000 </r>
       <r>   15.4448    0.0000 </r>
       <r>   15.4978    0.0000 </r>
       <r>   15.5291    0.0000 </r>
       <r>   15.5759    0.0000 </r>
       <r>   15.5917    0.0000 </r>
       <r>   15.6259    0.0000 </r>
       <r>   15.6734    0.0000 </r>
       <r>   15.7206    0.0000 </r>
       <r>   15.7552    0.0000 </r>
       <r>   16.0944    0.0000 </r>
[...]
       <r>   -12.3152    90.9200   593.0362 </r>
       <r>   -12.1758   126.6256   610.6831 </r>
       <r>   -12.0365    87.6869   622.9034 </r>
       <r>   -11.8971     7.8470   623.9969 </r>
       <r>   -11.7577     0.0219   624.0000 </r>
       <r>   -11.6184     0.0000   624.0000 </r>
       <r>   -11.4790     0.0000   624.0000 </r>
       <r>   -11.3397     0.0000   624.0000 </r>
       <r>   -11.2003     0.0000   624.0000 </r>
       <r>   -11.0609     0.0000   624.0000 </r>
       <r>   -10.9216     0.0000   624.0000 </r>
       <r>   -10.7822     0.0000   624.0000 </r>
       <r>   -10.6428     0.0000   624.0000 </r>
       <r>   -10.5035     0.0000   624.0000 </r>
       <r>   -10.3641     0.0000   624.0000 </r>
       <r>   -10.2248     0.0000   624.0000 </r>
       <r>   -10.0854     0.0000   624.0000 </r>
       <r>    -9.9460     0.0000   624.0000 </r>
       <r>    -9.8067     0.0000   624.0000 </r>
       <r>    -9.6673     0.0000   624.0000 </r>
       <r>    -9.5279     0.0000   624.0000 </r>
       <r>    -9.3886     0.0000   624.0000 </r>
       <r>    -9.2492     0.0000   624.0000 </r>
       <r>    -9.1099     0.0000   624.0000 </r>
       <r>    -8.9705     0.0000   624.0000 </r>
       <r>    -8.8311     0.0000   624.0000 </r>
       <r>    -8.6918     0.0000   624.0000 </r>
       <r>    -8.5524     0.0000   624.0000 </r>
       <r>    -8.4130     0.0000   624.0000 </r>
       <r>    -8.2737     0.0000   624.0000 </r>
       <r>    -8.1343     0.0000   624.0000 </r>
       <r>    -7.9950     0.0000   624.0000 </r>
       <r>    -7.8556     0.0000   624.0000 </r>
       <r>    -7.7162     0.0000   624.0000 </r>
       <r>    -7.5769     0.0000   624.0000 </r>
       <r>    -7.4375     0.0000   624.0000 </r>
       <r>    -7.2981     0.0000   624.0000 </r>
       <r>    -7.1588     0.0000   624.0000 </r>
       <r>    -7.0194     0.0000   624.0000 </r>
       <r>    -6.8801     0.0000   624.0000 </r>
       <r>    -6.7407     0.0000   624.0000 </r>
       <r>    -6.6013     0.0000   624.0000 </r>
       <r>    -6.4620     0.0000   624.0000 </r>
       <r>    -6.3226     0.0000   624.0000 </r>
       <r>    -6.1832     0.0000   624.0000 </r>
       <r>    -6.0439     0.0000   624.0000 </r>
       <r>    -5.9045     0.0000   624.0000 </r>
       <r>    -5.7652     0.0000   624.0000 </r>
       <r>    -5.6258     0.0000   624.0000 </r>
       <r>    -5.4864     0.0025   624.0003 </r>
       <r>    -5.3471     3.4567   624.4821 </r>
       <r>    -5.2077    11.0593   626.0233 </r>
       <r>    -5.0683    20.2160   628.8407 </r>
       <r>    -4.9290    31.4329   633.2213 </r>
       <r>    -4.7896    31.7940   637.6522 </r>
       <r>    -4.6503    37.7311   642.9105 </r>
       <r>    -4.5109    43.9583   649.0366 </r>
       <r>    -4.3715    53.2826   656.4622 </r>
       <r>    -4.2322    59.1747   664.7090 </r>
       <r>    -4.0928    48.3190   671.4428 </r>
       <r>    -3.9534    45.0045   677.7148 </r>
       <r>    -3.8141    45.3686   684.0374 </r>
       <r>    -3.6747    27.2275   687.8319 </r>
       <r>    -3.5354    26.3641   691.5061 </r>
       <r>    -3.3960    33.4347   696.1657 </r>
       <r>    -3.2566    41.8961   702.0044 </r>
       <r>    -3.1173    32.4600   706.5281 </r>
       <r>    -2.9779    34.3750   711.3187 </r>
       <r>    -2.8385    38.8749   716.7364 </r>
       <r>    -2.6992    38.2430   722.0661 </r>
       <r>    -2.5598    32.2045   726.5542 </r>
       <r>    -2.4204    48.1185   733.2601 </r>
       <r>    -2.2811    41.1311   738.9922 </r>
       <r>    -2.1417    39.4456   744.4895 </r>
       <r>    -2.0024    61.7965   753.1016 </r>
       <r>    -1.8630    62.3135   761.7857 </r>
       <r>    -1.7236    51.9135   769.0205 </r>
       <r>    -1.5843    66.8844   778.3417 </r>
       <r>    -1.4449    65.3993   787.4559 </r>
       <r>    -1.3055    62.1986   796.1241 </r>
       <r>    -1.1662    55.1019   803.8033 </r>
       <r>    -1.0268    65.8804   812.9845 </r>
       <r>    -0.8875    64.1979   821.9313 </r>
       <r>    -0.7481    69.1029   831.5617 </r>
       <r>    -0.6087    63.1891   840.3679 </r>
       <r>    -0.4694    55.6826   848.1279 </r>
       <r>    -0.3300    72.6942   858.2588 </r>
       <r>    -0.1906    96.4783   871.7042 </r>
       <r>    -0.0513    84.7356   883.5132 </r>
       <r>     0.0881    69.3022   893.1714 </r>
       <r>     0.2274    60.7555   901.6384 </r>
       <r>     0.3668    71.9516   911.6658 </r>
       <r>     0.5062    87.0584   923.7985 </r>
       <r>     0.6455    88.0206   936.0652 </r>
       <r>     0.7849    83.9880   947.7700 </r>
       <r>     0.9243   101.7780   961.9541 </r>
       <r>     1.0636   121.4642   978.8816 </r>
       <r>     1.2030   138.5734   998.1936 </r>
       <r>     1.3423   124.2462  1015.5089 </r>
       <r>     1.4817   122.6871  1032.6069 </r>
       <r>     1.6211    62.7611  1041.3534 </r>
       <r>     1.7604    56.0209  1049.1606 </r>
       <r>     1.8998    46.4115  1055.6287 </r>
       <r>     2.0392     2.6643  1056.0000 </r>
       <r>     2.1785     0.0001  1056.0000 </r>
       <r>     2.3179     0.0000  1056.0000 </r>
       <r>     2.4572     0.0000  1056.0000 </r>
       <r>     2.5966     0.0000  1056.0000 </r>
       <r>     2.7360     0.0000  1056.0000 </r>
       <r>     2.8753     0.0000  1056.0000 </r>
       <r>     3.0147     0.0000  1056.0000 </r>
       <r>     3.1541     0.0000  1056.0000 </r>
       <r>     3.2934     0.0000  1056.0000 </r>
       <r>     3.4328     0.0000  1056.0000 </r>
       <r>     3.5721     0.0000  1056.0000 </r>
       <r>     3.7115     0.0000  1056.0000 </r>
       <r>     3.8509     0.0000  1056.0000 </r>
       <r>     3.9902     0.0000  1056.0000 </r>
       <r>     4.1296     0.0000  1056.0000 </r>
       <r>     4.2690     0.0000  1056.0000 </r>
       <r>     4.4083     0.0000  1056.0000 </r>
       <r>     4.5477     0.0000  1056.0000 </r>
       <r>     4.6870     0.0000  1056.0000 </r>
       <r>     4.8264     0.0000  1056.0000 </r>
       <r>     4.9658     0.0000  1056.0000 </r>
       <r>     5.1051     0.0000  1056.0000 </r>
       <r>     5.2445     0.0000  1056.0000 </r>
       <r>     5.3839     0.0000  1056.0000 </r>
       <r>     5.5232     0.0000  1056.0000 </r>
       <r>     5.6626     0.0000  1056.0000 </r>
       <r>     5.8019     0.0000  1056.0000 </r>
       <r>     5.9413     0.0000  1056.0000 </r>
       <r>     6.0807     0.0000  1056.0000 </r>
       <r>     6.2200     0.0000  1056.0000 </r>
       <r>     6.3594     0.0000  1056.0000 </r>
       <r>     6.4988     0.0000  1056.0000 </r>
       <r>     6.6381     0.0000  1056.0000 </r>
       <r>     6.7775     0.0097  1056.0013 </r>
       <r>     6.9168     0.4265  1056.0608 </r>
       <r>     7.0562     0.0756  1056.0713 </r>
       <r>     7.1956     0.9696  1056.2065 </r>
       <r>     7.3349     0.7597  1056.3123 </r>
       <r>     7.4743     1.0997  1056.4656 </r>
       <r>     7.6137     0.7688  1056.5727 </r>
       <r>     7.7530     2.1516  1056.8726 </r>
       <r>     7.8924     0.7188  1056.9727 </r>
       <r>     8.0317     4.5268  1057.6036 </r>
       <r>     8.1711     3.1056  1058.0364 </r>
       <r>     8.3105     2.9579  1058.4486 </r>
       <r>     8.4498     2.6107  1058.8125 </r>
       <r>     8.5892     1.3931  1059.0066 </r>
       <r>     8.7286     4.8226  1059.6787 </r>
       <r>     8.8679     5.6319  1060.4636 </r>
       <r>     9.0073     4.2402  1061.0545 </r>
       <r>     9.1466     1.9949  1061.3325 </r>
       <r>     9.2860     4.0144  1061.8920 </r>
       <r>     9.4254     7.7648  1062.9741 </r>
       <r>     9.5647    12.1820  1064.6718 </r>
       <r>     9.7041     9.1115  1065.9416 </r>
       <r>     9.8435     6.7546  1066.8829 </r>
       <r>     9.9828     5.9439  1067.7113 </r>
       <r>    10.1222    11.0008  1069.2444 </r>
       <r>    10.2615    15.5175  1071.4070 </r>
       <r>    10.4009    13.6925  1073.3152 </r>
       <r>    10.5403    26.5616  1077.0169 </r>
       <r>    10.6796    31.3055  1081.3797 </r>
       <r>    10.8190    27.2062  1085.1712 </r>
       <r>    10.9584    34.6396  1089.9987 </r>
       <r>    11.0977    37.0978  1095.1688 </r>
       <r>    11.2371    24.6823  1098.6086 </r>
       <r>    11.3765    27.9315  1102.5012 </r>
       <r>    11.5158    44.9580  1108.7666 </r>
       <r>    11.6552    38.9036  1114.1883 </r>
       <r>    11.7945    36.2772  1119.2440 </r>
       <r>    11.9339    29.8916  1123.4098 </r>
       <r>    12.0733    32.8688  1127.9905 </r>
       <r>    12.2126    25.0780  1131.4854 </r>
       <r>    12.3520    24.3239  1134.8753 </r>
       <r>    12.4914    27.3009  1138.6800 </r>
       <r>    12.6307    31.8571  1143.1197 </r>
       <r>    12.7701    30.6488  1147.3910 </r>
       <r>    12.9094    27.6405  1151.2430 </r>
       <r>    13.0488    24.5034  1154.6579 </r>
       <r>    13.1882    18.5779  1157.2470 </r>
       <r>    13.3275    21.8000  1160.2851 </r>
       <r>    13.4669    10.2798  1161.7177 </r>
       <r>    13.6063     8.9257  1162.9616 </r>
       <r>    13.7456    13.9413  1164.9045 </r>
       <r>    13.8850    18.4452  1167.4750 </r>
       <r>    14.0243    23.4002  1170.7362 </r>
       <r>    14.1637    21.6125  1173.7481 </r>
       <r>    14.3031    21.9977  1176.8138 </r>
       <r>    14.4424    26.2777  1180.4759 </r>
       <r>    14.5818    24.8276  1183.9360 </r>
       <r>    14.7212    20.6319  1186.8113 </r>
       <r>    14.8605    20.4503  1189.6613 </r>
       <r>    14.9999    14.5928  1191.6950 </r>
       <r>    15.1392    15.6205  1193.8719 </r>
       <r>    15.2786    15.7347  1196.0647 </r>
       <r>    15.4180    22.1126  1199.1464 </r>
       <r>    15.5573    28.3911  1203.1031 </r>
       <r>    15.6967    26.0554  1206.7342 </r>
       <r>    15.8361    30.7810  1211.0239 </r>
       <r>    15.9754    29.7334  1215.1676 </r>
       <r>    16.1148    30.8394  1219.4655 </r>
       <r>    16.2541    32.4840  1223.9926 </r>
       <r>    16.3935    28.8829  1228.0177 </r>
       <r>    16.5329    25.8298  1231.6175 </r>
       <r>    16.6722    22.6359  1234.7721 </r>
       <r>    16.8116    19.6197  1237.5063 </r>
       <r>    16.9510    23.9130  1240.8389 </r>
       <r>    17.0903    24.9566  1244.3169 </r>
       <r>    17.2297    22.4976  1247.4522 </r>
       <r>    17.3690    22.1456  1250.5385 </r>
       <r>    17.5084    16.7805  1252.8771 </r>
       <r>    17.6478    20.5508  1255.7411 </r>
       <r>    17.7871    18.1474  1258.2701 </r>
       <r>    17.9265    14.6515  1260.3120 </r>
       <r>    18.0659    11.4913  1261.9135 </r>
       <r>    18.2052    10.3198  1263.3517 </r>
       <r>    18.3446     5.8433  1264.1660 </r>
       <r>    18.4839     5.1648  1264.8858 </r>
       <r>    18.6233     2.9624  1265.2986 </r>
       <r>    18.7627     0.6004  1265.3823 </r>
       <r>    18.9020     2.3962  1265.7162 </r>
       <r>    19.0414     2.0282  1265.9989 </r>
       <r>    19.1808     0.0079  1266.0000 </r>
       <r>    19.3201     0.0000  1266.0000 </r>
       <r>    19.4595     0.0000  1266.0000 </r>
       <r>    19.5988     0.0000  1266.0000 </r>
       <r>    19.7382     0.0000  1266.0000 </r>
       <r>    19.8776     0.0000  1266.0000 </r>
       <r>    20.0169     0.0000  1266.0000 </r>
       <r>    20.1563     0.0000  1266.0000 </r>
       <r>    20.2957     0.0000  1266.0000 </r>
       <r>    20.4350     0.0000  1266.0000 </r>
       <r>    20.5744     0.0000  1266.0000 </r>
       <r>    20.7137     0.0000  1266.0000 </r>
       <r>    20.8531     0.0000  1266.0000 </r>
      </set>
     </set>
    </array>
   </total>
  </dos>
 </calculation>
 <structure name="finalpos" >
  <crystal>
   <varray name="basis" >
    <v>       0.00000000      12.28047342       0.00000000 </v>
    <v>       9.14270205       0.00000000       0.00000000 </v>
    <v>       0.00000000      -2.76826177     -11.30069772 </v>
   </varray>
   <i name="volume">   1268.80515525 </i>
   <varray name="rec_basis" >
    <v>       0.00000000       0.08143009      -0.01994742 </v>
    <v>       0.10937686      -0.00000000       0.00000000 </v>
    <v>       0.00000000       0.00000000      -0.08849011 </v>
   </varray>
  </crystal>
  <varray name="positions" >
   <v>       0.65902118       0.00000000       0.15659018 </v>
   <v>       0.65902118       0.00000000       0.65659018 </v>
   <v>       0.65902118       0.33333333       0.15659018 </v>
   <v>       0.65902118       0.33333333       0.65659018 </v>
   <v>       0.65902118       0.66666667       0.15659018 </v>
   <v>       0.65902118       0.66666667       0.65659018 </v>
   <v>       0.84097882       0.16666667       0.34340982 </v>
   <v>       0.84097882       0.16666667       0.84340982 </v>
   <v>       0.84097882       0.50000000       0.34340982 </v>
   <v>       0.84097882       0.50000000       0.84340982 </v>
   <v>       0.84097882       0.83333333       0.34340982 </v>
   <v>       0.84097882       0.83333333       0.84340982 </v>
   <v>       0.59108678       0.16666667       0.39757535 </v>
   <v>       0.59108678       0.16666667       0.89757535 </v>
   <v>       0.59108678       0.50000000       0.39757535 </v>
   <v>       0.59108678       0.50000000       0.89757535 </v>
   <v>       0.59108678       0.83333333       0.39757535 </v>
   <v>       0.59108678       0.83333333       0.89757535 </v>
   <v>       0.90891322       0.00000000       0.10242465 </v>
   <v>       0.90891322       0.00000000       0.60242465 </v>
   <v>       0.90891322       0.33333333       0.10242465 </v>
   <v>       0.90891322       0.33333333       0.60242465 </v>
   <v>       0.90891322       0.66666667       0.10242465 </v>
   <v>       0.90891322       0.66666667       0.60242465 </v>
   <v>       0.15902118       0.16666667       0.15659018 </v>
   <v>       0.15902118       0.16666667       0.65659018 </v>
   <v>       0.15902118       0.50000000       0.15659018 </v>
   <v>       0.15902118       0.50000000       0.65659018 </v>
   <v>       0.15902118       0.83333333       0.15659018 </v>
   <v>       0.15902118       0.83333333       0.65659018 </v>
   <v>       0.34097882       0.00000000       0.34340982 </v>
   <v>       0.34097882       0.00000000       0.84340982 </v>
   <v>       0.34097882       0.33333333       0.34340982 </v>
   <v>       0.34097882       0.33333333       0.84340982 </v>
   <v>       0.34097882       0.66666667       0.34340982 </v>
   <v>       0.34097882       0.66666667       0.84340982 </v>
   <v>       0.09108678       0.00000000       0.39757535 </v>
   <v>       0.09108678       0.00000000       0.89757535 </v>
   <v>       0.09108678       0.33333333       0.39757535 </v>
   <v>       0.09108678       0.33333333       0.89757535 </v>
   <v>       0.09108678       0.66666667       0.39757535 </v>
   <v>       0.09108678       0.66666667       0.89757535 </v>
   <v>       0.40891322       0.16666667       0.10242465 </v>
   <v>       0.40891322       0.16666667       0.60242465 </v>
   <v>       0.40891322       0.50000000       0.10242465 </v>
   <v>       0.40891322       0.50000000       0.60242465 </v>
   <v>       0.40891322       0.83333333       0.10242465 </v>
   <v>       0.40891322       0.83333333       0.60242465 </v>
   <v>       0.99636465       0.16666667       0.12723376 </v>
   <v>       0.99636465       0.16666667       0.62723376 </v>
   <v>       0.99636465       0.50000000       0.12723376 </v>
   <v>       0.99636465       0.50000000       0.62723376 </v>
   <v>       0.99636465       0.83333333       0.12723376 </v>
   <v>       0.99636465       0.83333333       0.62723376 </v>
   <v>       0.50363535       0.00000000       0.37276624 </v>
   <v>       0.50363535       0.00000000       0.87276624 </v>
   <v>       0.50363535       0.33333333       0.37276624 </v>
   <v>       0.50363535       0.33333333       0.87276624 </v>
   <v>       0.50363535       0.66666667       0.37276624 </v>
   <v>       0.50363535       0.66666667       0.87276624 </v>
   <v>       0.67254688       0.16666667       0.28039823 </v>
   <v>       0.67254688       0.16666667       0.78039823 </v>
   <v>       0.67254688       0.50000000       0.28039823 </v>
   <v>       0.67254688       0.50000000       0.78039823 </v>
   <v>       0.67254688       0.83333333       0.28039823 </v>
   <v>       0.67254688       0.83333333       0.78039823 </v>
   <v>       0.82745312       0.00000000       0.21960177 </v>
   <v>       0.82745312       0.00000000       0.71960177 </v>
   <v>       0.82745312       0.33333333       0.21960177 </v>
   <v>       0.82745312       0.33333333       0.71960177 </v>
   <v>       0.82745312       0.66666667       0.21960177 </v>
   <v>       0.82745312       0.66666667       0.71960177 </v>
   <v>       0.83209082       0.00000000       0.44580968 </v>
   <v>       0.83209082       0.00000000       0.94580968 </v>
   <v>       0.83209082       0.33333333       0.44580968 </v>
   <v>       0.83209082       0.33333333       0.94580968 </v>
   <v>       0.83209082       0.66666667       0.44580968 </v>
   <v>       0.83209082       0.66666667       0.94580968 </v>
   <v>       0.66790918       0.16666667       0.05419032 </v>
   <v>       0.66790918       0.16666667       0.55419032 </v>
   <v>       0.66790918       0.50000000       0.05419032 </v>
   <v>       0.66790918       0.50000000       0.55419032 </v>
   <v>       0.66790918       0.83333333       0.05419032 </v>
   <v>       0.66790918       0.83333333       0.55419032 </v>
   <v>       0.49636465       0.00000000       0.12723376 </v>
   <v>       0.49636465       0.00000000       0.62723376 </v>
   <v>       0.49636465       0.33333333       0.12723376 </v>
   <v>       0.49636465       0.33333333       0.62723376 </v>
   <v>       0.49636465       0.66666667       0.12723376 </v>
   <v>       0.49636465       0.66666667       0.62723376 </v>
   <v>       0.00363535       0.16666667       0.37276624 </v>
   <v>       0.00363535       0.16666667       0.87276624 </v>
   <v>       0.00363535       0.50000000       0.37276624 </v>
   <v>       0.00363535       0.50000000       0.87276624 </v>
   <v>       0.00363535       0.83333333       0.37276624 </v>
   <v>       0.00363535       0.83333333       0.87276624 </v>
   <v>       0.17254688       0.00000000       0.28039823 </v>
   <v>       0.17254688       0.00000000       0.78039823 </v>
   <v>       0.17254688       0.33333333       0.28039823 </v>
   <v>       0.17254688       0.33333333       0.78039823 </v>
   <v>       0.17254688       0.66666667       0.28039823 </v>
   <v>       0.17254688       0.66666667       0.78039823 </v>
   <v>       0.32745312       0.16666667       0.21960177 </v>
   <v>       0.32745312       0.16666667       0.71960177 </v>
   <v>       0.32745312       0.50000000       0.21960177 </v>
   <v>       0.32745312       0.50000000       0.71960177 </v>
   <v>       0.32745312       0.83333333       0.21960177 </v>
   <v>       0.32745312       0.83333333       0.71960177 </v>
   <v>       0.33209082       0.16666667       0.44580968 </v>
   <v>       0.33209082       0.16666667       0.94580968 </v>
   <v>       0.33209082       0.50000000       0.44580968 </v>
   <v>       0.33209082       0.50000000       0.94580968 </v>
   <v>       0.33209082       0.83333333       0.44580968 </v>
   <v>       0.33209082       0.83333333       0.94580968 </v>
   <v>       0.16790918       0.00000000       0.05419032 </v>
   <v>       0.16790918       0.00000000       0.55419032 </v>
   <v>       0.16790918       0.33333333       0.05419032 </v>
   <v>       0.16790918       0.33333333       0.55419032 </v>
   <v>       0.16790918       0.66666667       0.05419032 </v>
   <v>       0.16790918       0.66666667       0.55419032 </v>
  </varray>
 </structure>
</modeling>
