 running    4 mpi-ranks, on    1 nodes
 distrk:  each k-point on    1 cores,    4 groups
 distr:  one band on    1 cores,    1 groups
 OpenACC runtime initialized ...    4 GPUs detected
 vasp.6.4.2 20Jul23 (build Nov 12 2023 22:16:35) complex                         
 POSCAR found type information on POSCAR GaO N 
 POSCAR found :  3 types and     120 ions
 scaLAPACK will be used selectively (only on CPU)
 LDA part: xc-table for Pade appr. of Perdew
 POSCAR, INCAR and KPOINTS ok, starting setup
 FFT: planning ... GRIDC
 FFT: planning ... GRID_SOFT
 FFT: planning ... GRID
 WAVECAR not read
 initial charge from wavefunction
 entering main loop
       N       E                     dE             d eps       ncg     rms          ort
DAV:   1    -0.184347843481E+05   -0.18435E+05   -0.54203E+05  5064   0.746E+03
DAV:   2    -0.624157320777E+05   -0.43981E+05   -0.42676E+05  5064   0.119E+03
DAV:   3    -0.669491376206E+05   -0.45334E+04   -0.40462E+04  5064   0.349E+02
DAV:   4    -0.674904467700E+05   -0.54131E+03   -0.45632E+03  5064   0.103E+02
DAV:   5    -0.373794245709E+05    0.30111E+05   -0.71676E+02  5064   0.530E+01
 gam= 0.000 g(H,U,f)=  0.690E+05 0.352E+05 0.595E+04 ort(H,U,f) = 0.000E+00 0.000E+00 0.000E+00
SDA:   6     0.193995243345E+05    0.56779E+05   -0.71676E+02  5064   0.110E+06 0.000E+00
 gam= 0.000 trial= 0.400  step= 0.263 mean= 0.400
 gam= 0.239 g(H,U,f)=  0.179E+05 0.786E+04 0.568E+03 ort(H,U,f) = 0.141E+05-0.155E+04 0.305E+03
CGA:   7     0.569525072799E+04   -0.13704E+05   -0.14497E+05  5064   0.264E+05 0.129E+05
 gam= 0.239 trial= 0.393  step= 0.203 mean= 0.393
 gam= 0.673 g(H,U,f)=  0.533E+04 0.753E+04 0.487E+04 ort(H,U,f) = 0.164E+04-0.766E+04-0.605E+04
CGA:   8     0.145214949710E+04   -0.42431E+04   -0.29819E+04  5064   0.177E+05-0.121E+05
 gam= 0.673 trial= 0.384  step= 0.138 mean= 0.384
 gam= 0.498 g(H,U,f)=  0.510E+04 0.357E+04 0.168E+03 ort(H,U,f) = 0.856E+03-0.261E+04-0.321E+03
CGA:   9     0.106512497925E+04   -0.38702E+03   -0.66137E+03  5064   0.883E+04-0.208E+04
 gam= 0.498 trial= 0.371  step= 0.159 mean= 0.371
 gam= 0.621 g(H,U,f)=  0.273E+04 0.273E+04 0.363E+02 ort(H,U,f) = 0.863E+02-0.125E+04-0.216E+02
CGA:  10     0.233381545038E+03   -0.83174E+03   -0.61960E+03  5064   0.549E+04-0.119E+04
 gam= 0.621 trial= 0.361  step= 0.234 mean= 0.361
 gam= 0.481 g(H,U,f)=  0.148E+04 0.114E+04 0.202E+02 ort(H,U,f) =-0.257E+03 0.255E+02-0.980E+01
CGA:  11    -0.290979421283E+03   -0.52436E+03   -0.55615E+03  5064   0.264E+04-0.241E+03
 gam= 0.481 trial= 0.354  step= 0.289 mean= 0.354
 gam= 0.296 g(H,U,f)=  0.679E+03 0.100E+03 0.118E+01 ort(H,U,f) =-0.494E+02 0.202E+03 0.717E+00
CGA:  12    -0.637323822204E+03   -0.34634E+03   -0.36396E+03  5064   0.781E+03 0.153E+03
 gam= 0.296 trial= 0.351  step= 0.428 mean= 0.351
 gam= 0.326 g(H,U,f)=  0.223E+03 0.308E+02 0.754E+00 ort(H,U,f) = 0.349E+01 0.379E+02 0.444E+00
CGA:  13    -0.816667800716E+03   -0.17934E+03   -0.17692E+03  5064   0.254E+03 0.418E+02
 gam= 0.326 trial= 0.355  step= 0.595 mean= 0.355
 gam= 0.453 g(H,U,f)=  0.104E+03 0.116E+02 0.365E-04 ort(H,U,f) =-0.184E+02 0.141E+02 0.122E-03
CGA:  14    -0.895327668605E+03   -0.78660E+02   -0.79680E+02  5064   0.115E+03-0.431E+01
 gam= 0.453 trial= 0.367  step= 0.542 mean= 0.367
 gam= 0.448 g(H,U,f)=  0.403E+02 0.656E+01 0.474E+01 ort(H,U,f) =-0.944E+01 0.114E+02 0.992E+01
CGA:  15    -0.927253924877E+03   -0.31926E+02   -0.30708E+02  5064   0.516E+02 0.119E+02
 gam= 0.448 trial= 0.376  step= 0.620 mean= 0.376
 gam= 0.534 g(H,U,f)=  0.253E+02 0.228E+01 0.625E-08 ort(H,U,f) =-0.108E+02 0.288E+01-0.532E-06
CGA:  16    -0.943057640351E+03   -0.15804E+02   -0.17659E+02  5064   0.275E+02-0.796E+01
 gam= 0.534 trial= 0.388  step= 0.492 mean= 0.388
 gam= 0.383 g(H,U,f)=  0.966E+01 0.897E+00 0.122E-10 ort(H,U,f) =-0.121E+01 0.125E+01-0.485E-10
CGA:  17    -0.948794087862E+03   -0.57364E+01   -0.57283E+01  5064   0.106E+02 0.421E-01
 gam= 0.383 trial= 0.393  step= 0.594 mean= 0.393
 gam= 0.494 g(H,U,f)=  0.460E+01 0.614E+00 0.332E-03 ort(H,U,f) =-0.112E+01 0.537E+00 0.258E-02
CGA:  18    -0.951887259949E+03   -0.30932E+01   -0.31407E+01  5064   0.522E+01-0.581E+00
 gam= 0.494 trial= 0.403  step= 0.612 mean= 0.403
 gam= 0.717 g(H,U,f)=  0.284E+01 0.898E+00 0.854E-03 ort(H,U,f) =-0.342E+00 0.727E-01-0.126E-01
CGA:  19    -0.953353800520E+03   -0.14665E+01   -0.15091E+01  5064   0.374E+01-0.282E+00
 gam= 0.717 trial= 0.414  step= 0.499 mean= 0.414
 gam= 0.611 g(H,U,f)=  0.203E+01 0.247E+00 0.283E-02 ort(H,U,f) =-0.730E+00 0.496E+00-0.112E-01
CGA:  20    -0.954221880018E+03   -0.86808E+00   -0.88171E+00  5064   0.228E+01-0.245E+00
 gam= 0.611 trial= 0.418  step= 0.325 mean= 0.418
 gam= 0.682 g(H,U,f)=  0.130E+01 0.259E+00 0.347E-02 ort(H,U,f) = 0.155E+00-0.205E+00 0.278E-02
CGA:  21    -0.954583683374E+03   -0.36180E+00   -0.34737E+00  5064   0.156E+01-0.479E-01
 gam= 0.682 trial= 0.413  step= 0.278 mean= 0.413
 gam= 0.691 g(H,U,f)=  0.721E+00 0.350E+00 0.555E-02 ort(H,U,f) = 0.224E+00-0.209E+00-0.730E-02
CGA:  22    -0.954797851189E+03   -0.21417E+00   -0.21224E+00  5064   0.108E+01 0.748E-02
 gam= 0.691 trial= 0.407  step= 0.275 mean= 0.407
 gam= 0.572 g(H,U,f)=  0.431E+00 0.182E+00 0.303E-02 ort(H,U,f) =-0.334E-01 0.400E-01-0.271E-02
CGA:  23    -0.954945342666E+03   -0.14749E+00   -0.14893E+00  5064   0.616E+00 0.390E-02
 gam= 0.572 trial= 0.400  step= 0.297 mean= 0.400
 gam= 0.578 g(H,U,f)=  0.282E+00 0.711E-01 0.218E-02 ort(H,U,f) =-0.565E-01 0.601E-01 0.125E-03
CGA:  24    -0.955036291199E+03   -0.90949E-01   -0.91889E-01  5064   0.356E+00 0.371E-02
 gam= 0.578 trial= 0.395  step= 0.359 mean= 0.395
 gam= 0.700 g(H,U,f)=  0.203E+00 0.436E-01 0.201E-02 ort(H,U,f) =-0.284E-01 0.289E-01 0.219E-02
CGA:  25    -0.955100336830E+03   -0.64046E-01   -0.64158E-01  5064   0.249E+00 0.277E-02
 gam= 0.700 trial= 0.393  step= 0.377 mean= 0.393
 gam= 0.732 g(H,U,f)=  0.161E+00 0.196E-01 0.107E-02 ort(H,U,f) =-0.181E-01 0.159E-01 0.253E-02
CGA:  26    -0.955147608088E+03   -0.47271E-01   -0.47275E-01  5064   0.182E+00 0.343E-03
 gam= 0.732 trial= 0.392  step= 0.337 mean= 0.392
 gam= 0.661 g(H,U,f)=  0.105E+00 0.152E-01 0.605E-03 ort(H,U,f) =-0.140E-02-0.670E-03 0.166E-02
CGA:  27    -0.955178408329E+03   -0.30800E-01   -0.30753E-01  5064   0.120E+00-0.407E-03
 gam= 0.661 trial= 0.389  step= 0.306 mean= 0.389
 gam= 0.698 g(H,U,f)=  0.638E-01 0.196E-01 0.624E-03 ort(H,U,f) =-0.465E-02 0.328E-02 0.113E-02
CGA:  28    -0.955196855289E+03   -0.18447E-01   -0.18379E-01  5064   0.840E-01-0.241E-03
 gam= 0.698 trial= 0.385  step= 0.304 mean= 0.385
 gam= 0.715 g(H,U,f)=  0.465E-01 0.130E-01 0.529E-03 ort(H,U,f) =-0.123E-01 0.112E-01 0.100E-02
CGA:  29    -0.955209626305E+03   -0.12771E-01   -0.12750E-01  5064   0.600E-01-0.110E-03
 gam= 0.715 trial= 0.381  step= 0.296 mean= 0.381
 gam= 0.595 g(H,U,f)=  0.304E-01 0.503E-02 0.305E-03 ort(H,U,f) =-0.706E-02 0.638E-02 0.737E-03
CGA:  30    -0.955218470175E+03   -0.88439E-02   -0.88606E-02  5064   0.357E-01 0.576E-04
 gam= 0.595 trial= 0.377  step= 0.316 mean= 0.377
 gam= 0.609 g(H,U,f)=  0.176E-01 0.399E-02 0.165E-03 ort(H,U,f) =-0.871E-03 0.506E-03 0.443E-03
CGA:  31    -0.955224109561E+03   -0.56394E-02   -0.56465E-02  5064   0.217E-01 0.787E-04
 gam= 0.609 trial= 0.374  step= 0.375 mean= 0.374
 gam= 0.730 g(H,U,f)=  0.116E-01 0.420E-02 0.107E-03 ort(H,U,f) =-0.164E-02 0.137E-02 0.314E-03
CGA:  32    -0.955228200297E+03   -0.40907E-02   -0.40907E-02  5064   0.159E-01 0.461E-04
 gam= 0.730 trial= 0.374  step= 0.399 mean= 0.374
 gam= 0.743 g(H,U,f)=  0.928E-02 0.244E-02 0.769E-04 ort(H,U,f) =-0.300E-02 0.271E-02 0.280E-03
CGA:  33    -0.955231371505E+03   -0.31712E-02   -0.31715E-02  5064   0.118E-01-0.649E-05
 gam= 0.743 trial= 0.375  step= 0.371 mean= 0.375
 gam= 0.731 g(H,U,f)=  0.709E-02 0.147E-02 0.563E-04 ort(H,U,f) =-0.189E-02 0.162E-02 0.236E-03
CGA:  34    -0.955233556265E+03   -0.21848E-02   -0.21846E-02  5064   0.862E-02-0.354E-04
 gam= 0.731 trial= 0.375  step= 0.361 mean= 0.375
 gam= 0.825 g(H,U,f)=  0.549E-02 0.157E-02 0.443E-04 ort(H,U,f) =-0.102E-02 0.828E-03 0.175E-03
CGA:  35    -0.955235107080E+03   -0.15508E-02   -0.15506E-02  5064   0.711E-02-0.190E-04
 gam= 0.825 trial= 0.374  step= 0.354 mean= 0.374
 gam= 0.817 g(H,U,f)=  0.446E-02 0.132E-02 0.266E-04 ort(H,U,f) =-0.103E-02 0.922E-03 0.117E-03
CGA:  36    -0.955236363618E+03   -0.12565E-02   -0.12565E-02  5064   0.581E-02 0.415E-05
 gam= 0.817 trial= 0.373  step= 0.321 mean= 0.373
 gam= 0.000 g(H,U,f)=  0.310E-02 0.918E-03 0.104E-04 ort(H,U,f) =-0.846E-03 0.833E-03 0.460E-04
SDA:  37    -0.955237294736E+03   -0.93112E-03   -0.93210E-03  5064   0.403E-02 0.327E-04
 gam= 0.000 trial= 0.371  step= 0.705 mean= 0.371
 gam= 0.302 g(H,U,f)=  0.846E-03 0.361E-03 0.750E-05 ort(H,U,f) =-0.318E-03 0.355E-03 0.546E-05
CGA:  38    -0.955238720622E+03   -0.14259E-02   -0.14188E-02  5064   0.122E-02 0.422E-04
 gam= 0.302 trial= 0.387  step= 0.998 mean= 0.387
 gam= 0.647 g(H,U,f)=  0.616E-03 0.160E-03 0.948E-05 ort(H,U,f) =-0.296E-03 0.296E-03 0.100E-04
CGA:  39    -0.955239336535E+03   -0.61591E-03   -0.61299E-03  5064   0.786E-03 0.948E-05
 gam= 0.647 trial= 0.418  step= 0.677 mean= 0.418
 gam= 0.581 g(H,U,f)=  0.351E-03 0.949E-04 0.106E-04 ort(H,U,f) =-0.255E-03 0.228E-03 0.165E-04
CGA:  40    -0.955239603225E+03   -0.26669E-03   -0.26814E-03  5064   0.457E-03-0.112E-04
 gam= 0.581 trial= 0.431  step= 0.924 mean= 0.431
 gam= 0.701 g(H,U,f)=  0.252E-03 0.573E-04 0.107E-04 ort(H,U,f) =-0.130E-03 0.115E-03 0.199E-04
CGA:  41    -0.955239812468E+03   -0.20924E-03   -0.20799E-03  5064   0.320E-03 0.511E-05
 gam= 0.701 trial= 0.456  step= 0.804 mean= 0.456
 gam= 0.746 g(H,U,f)=  0.179E-03 0.506E-04 0.913E-05 ort(H,U,f) =-0.954E-04 0.792E-04 0.225E-04
CGA:  42    -0.955239943753E+03   -0.13129E-03   -0.13020E-03  5064   0.239E-03 0.630E-05
 gam= 0.746 trial= 0.473  step= 0.991 mean= 0.473
 gam= 0.878 g(H,U,f)=  0.171E-03 0.337E-04 0.518E-05 ort(H,U,f) =-0.763E-04 0.569E-04 0.195E-04
CGA:  43    -0.955240064512E+03   -0.12076E-03   -0.12074E-03  5064   0.210E-03 0.104E-06
 gam= 0.878 trial= 0.499  step= 0.781 mean= 0.499
 gam= 0.580 g(H,U,f)=  0.102E-03 0.171E-04 0.205E-05 ort(H,U,f) =-0.528E-04 0.376E-04 0.140E-04
CGA:  44    -0.955240146214E+03   -0.81702E-04   -0.81878E-04  5064   0.122E-03-0.121E-05
 gam= 0.580 trial= 0.513  step= 0.699 mean= 0.513
 gam= 0.492 g(H,U,f)=  0.526E-04 0.657E-05 0.656E-06 ort(H,U,f) =-0.216E-04 0.153E-04 0.572E-05
CGA:  45    -0.955240188436E+03   -0.42221E-04   -0.42275E-04  5064   0.598E-04-0.562E-06
 gam= 0.492 trial= 0.522  step= 0.641 mean= 0.522
 gam= 0.398 g(H,U,f)=  0.212E-04 0.249E-05 0.178E-06 ort(H,U,f) =-0.827E-05 0.564E-05 0.177E-05
CGA:  46    -0.955240207486E+03   -0.19051E-04   -0.19103E-04  5064   0.238E-04-0.864E-06
 gam= 0.398 trial= 0.528  step= 0.636 mean= 0.528
 gam= 0.424 g(H,U,f)=  0.908E-05 0.991E-06 0.341E-07 ort(H,U,f) =-0.309E-05 0.208E-05 0.383E-06
CGA:  47    -0.955240214914E+03   -0.74277E-05   -0.74624E-05  5064   0.101E-04-0.632E-06
 gam= 0.424 trial= 0.534  step= 0.593 mean= 0.534
 final diagonalization
   1 F= -.95524021E+03 E0= -.95522840E+03  d E =-.236234E-01
 writing wavefunctions
Warning: ieee_invalid is signaling
Warning: ieee_divide_by_zero is signaling
Warning: ieee_underflow is signaling
Warning: ieee_inexact is signaling
FORTRAN STOP
Warning: ieee_invalid is signaling
Warning: ieee_divide_by_zero is signaling
Warning: ieee_underflow is signaling
Warning: ieee_inexact is signaling
FORTRAN STOP
Warning: ieee_invalid is signaling
Warning: ieee_divide_by_zero is signaling
Warning: ieee_underflow is signaling
Warning: ieee_inexact is signaling
FORTRAN STOP
Warning: ieee_invalid is signaling
Warning: ieee_divide_by_zero is signaling
Warning: ieee_underflow is signaling
Warning: ieee_inexact is signaling
FORTRAN STOP
