       N       E                     dE             d eps       ncg     rms          ort
DAV:   1    -0.184347843481E+05   -0.18435E+05   -0.54203E+05  5064   0.746E+03
DAV:   2    -0.624157320777E+05   -0.43981E+05   -0.42676E+05  5064   0.119E+03
DAV:   3    -0.669491376206E+05   -0.45334E+04   -0.40462E+04  5064   0.349E+02
DAV:   4    -0.674904467700E+05   -0.54131E+03   -0.45632E+03  5064   0.103E+02
DAV:   5    -0.373794245709E+05    0.30111E+05   -0.71676E+02  5064   0.530E+01
SDA:   6     0.193995243345E+05    0.56779E+05   -0.71676E+02  5064   0.110E+06 0.000E+00
CGA:   7     0.569525072799E+04   -0.13704E+05   -0.14497E+05  5064   0.264E+05 0.129E+05
CGA:   8     0.145214949710E+04   -0.42431E+04   -0.29819E+04  5064   0.177E+05-0.121E+05
CGA:   9     0.106512497925E+04   -0.38702E+03   -0.66137E+03  5064   0.883E+04-0.208E+04
CGA:  10     0.233381545038E+03   -0.83174E+03   -0.61960E+03  5064   0.549E+04-0.119E+04
CGA:  11    -0.290979421283E+03   -0.52436E+03   -0.55615E+03  5064   0.264E+04-0.241E+03
CGA:  12    -0.637323822204E+03   -0.34634E+03   -0.36396E+03  5064   0.781E+03 0.153E+03
CGA:  13    -0.816667800716E+03   -0.17934E+03   -0.17692E+03  5064   0.254E+03 0.418E+02
CGA:  14    -0.895327668605E+03   -0.78660E+02   -0.79680E+02  5064   0.115E+03-0.431E+01
CGA:  15    -0.927253924877E+03   -0.31926E+02   -0.30708E+02  5064   0.516E+02 0.119E+02
CGA:  16    -0.943057640351E+03   -0.15804E+02   -0.17659E+02  5064   0.275E+02-0.796E+01
CGA:  17    -0.948794087862E+03   -0.57364E+01   -0.57283E+01  5064   0.106E+02 0.421E-01
CGA:  18    -0.951887259949E+03   -0.30932E+01   -0.31407E+01  5064   0.522E+01-0.581E+00
CGA:  19    -0.953353800520E+03   -0.14665E+01   -0.15091E+01  5064   0.374E+01-0.282E+00
CGA:  20    -0.954221880018E+03   -0.86808E+00   -0.88171E+00  5064   0.228E+01-0.245E+00
CGA:  21    -0.954583683374E+03   -0.36180E+00   -0.34737E+00  5064   0.156E+01-0.479E-01
CGA:  22    -0.954797851189E+03   -0.21417E+00   -0.21224E+00  5064   0.108E+01 0.748E-02
CGA:  23    -0.954945342666E+03   -0.14749E+00   -0.14893E+00  5064   0.616E+00 0.390E-02
CGA:  24    -0.955036291199E+03   -0.90949E-01   -0.91889E-01  5064   0.356E+00 0.371E-02
CGA:  25    -0.955100336830E+03   -0.64046E-01   -0.64158E-01  5064   0.249E+00 0.277E-02
CGA:  26    -0.955147608088E+03   -0.47271E-01   -0.47275E-01  5064   0.182E+00 0.343E-03
CGA:  27    -0.955178408329E+03   -0.30800E-01   -0.30753E-01  5064   0.120E+00-0.407E-03
CGA:  28    -0.955196855289E+03   -0.18447E-01   -0.18379E-01  5064   0.840E-01-0.241E-03
CGA:  29    -0.955209626305E+03   -0.12771E-01   -0.12750E-01  5064   0.600E-01-0.110E-03
CGA:  30    -0.955218470175E+03   -0.88439E-02   -0.88606E-02  5064   0.357E-01 0.576E-04
CGA:  31    -0.955224109561E+03   -0.56394E-02   -0.56465E-02  5064   0.217E-01 0.787E-04
CGA:  32    -0.955228200297E+03   -0.40907E-02   -0.40907E-02  5064   0.159E-01 0.461E-04
CGA:  33    -0.955231371505E+03   -0.31712E-02   -0.31715E-02  5064   0.118E-01-0.649E-05
CGA:  34    -0.955233556265E+03   -0.21848E-02   -0.21846E-02  5064   0.862E-02-0.354E-04
CGA:  35    -0.955235107080E+03   -0.15508E-02   -0.15506E-02  5064   0.711E-02-0.190E-04
CGA:  36    -0.955236363618E+03   -0.12565E-02   -0.12565E-02  5064   0.581E-02 0.415E-05
SDA:  37    -0.955237294736E+03   -0.93112E-03   -0.93210E-03  5064   0.403E-02 0.327E-04
CGA:  38    -0.955238720622E+03   -0.14259E-02   -0.14188E-02  5064   0.122E-02 0.422E-04
CGA:  39    -0.955239336535E+03   -0.61591E-03   -0.61299E-03  5064   0.786E-03 0.948E-05
CGA:  40    -0.955239603225E+03   -0.26669E-03   -0.26814E-03  5064   0.457E-03-0.112E-04
CGA:  41    -0.955239812468E+03   -0.20924E-03   -0.20799E-03  5064   0.320E-03 0.511E-05
CGA:  42    -0.955239943753E+03   -0.13129E-03   -0.13020E-03  5064   0.239E-03 0.630E-05
CGA:  43    -0.955240064512E+03   -0.12076E-03   -0.12074E-03  5064   0.210E-03 0.104E-06
CGA:  44    -0.955240146214E+03   -0.81702E-04   -0.81878E-04  5064   0.122E-03-0.121E-05
CGA:  45    -0.955240188436E+03   -0.42221E-04   -0.42275E-04  5064   0.598E-04-0.562E-06
CGA:  46    -0.955240207486E+03   -0.19051E-04   -0.19103E-04  5064   0.238E-04-0.864E-06
CGA:  47    -0.955240214914E+03   -0.74277E-05   -0.74624E-05  5064   0.101E-04-0.632E-06
   1 F= -.95524021E+03 E0= -.95522840E+03  d E =-.236234E-01
