 vasp.6.4.2 20Jul23 (build Nov 12 2023 22:16:35) complex                         
 executed on              LinuxNV date 2025.03.22  11:13:38
 running    4 mpi-ranks, on    1 nodes
 distrk:  each k-point on    1 cores,    4 groups
 distr:  one band on NCORE=   1 cores,    1 groups
 OpenACC runtime initialized ...    4 GPUs detected


--------------------------------------------------------------------------------------------------------


 INCAR:
   PREC = Normal
   ENCUT = 450
   NELM = 500
   IBRION = -1
   ISPIN = 1
   NSW = 0
   ISIF = 2
   EDIFF = 1E-5
   EDIFFG = -5E-3
   ISTART = 0
   ICHARG = 0
   ISMEAR = 0
   SIGMA = 0.05
   LWAVE = .T.
   LCHARG = .T.
   LREAL = Auto
   LPLANE = .TRUE.
   NPAR = 1
   KPAR = 4
   NCORE = 1
   ALGO = All
   LHFCALC = .TRUE.
   HSE06 = .TRUE.
   HFSCREEN = 0.2
   TIME = 0.4
   AEXX = 0.32
   LMAXFOCK = 4
   PRECFOCK = Fast

 POTCAR:    PAW_PBE Ga_d 06Jul2010                
 POTCAR:    PAW_PBE O 08Apr2002                   
 POTCAR:    PAW_PBE N 08Apr2002                   
 POTCAR:    PAW_PBE Ga_d 06Jul2010                
   SHA256 =  a60ddf36e14f00ea098d9e3914b3745f1b7105e68786148f49ae384e44b4226c Ga_d/POTCAR           
   COPYR  = (c) Copyright 06Jul2010 Georg Kresse                                                    
   COPYR  = This file is part of the software VASP. Any use, copying, and all other rights are regul
   COPYR  = If you do not have a valid VASP license, you may not use, copy or distribute this file. 
   VRHFIN =Ga: s2p1                                                                                 
   LEXCH  = PE                                                                                      
   EATOM  =  2148.8298 eV,  157.9345 Ry                                                             
                                                                                                    
   TITEL  = PAW_PBE Ga_d 06Jul2010                                                                  
   LULTRA =        F    use ultrasoft PP ?                                                          
   IUNSCR =        1    unscreen: 0-lin 1-nonlin 2-no                                               
   RPACOR =    1.700    partial core radius                                                         
   POMASS =   69.723; ZVAL   =   13.000    mass and valenz                                          
   RCORE  =    2.300    outmost cutoff radius                                                       
   RWIGS  =    2.300; RWIGS  =    1.217    wigner-seitz radius (au A)                               
   ENMAX  =  282.691; ENMIN  =  212.018 eV                                                          
   ICORE  =        3    local potential                                                             
   LCOR   =        T    correct aug charges                                                         
   LPAW   =        T    paw PP                                                                      
   EAUG   =  490.690                                                                                
   DEXC   =    0.000                                                                                
   RMAX   =    2.341    core radius for proj-oper                                                   
   RAUG   =    1.300    factor for augmentation sphere                                              
   RDEP   =    2.413    radius for radial grids                                                     
   RDEPT  =    1.856    core radius for aug-charge                                                  
                                                                                                    
   Atomic configuration                                                                             
    9 entries                                                                                       
     n  l   j            E        occ.                                                              
     1  0  0.50    -10228.7831   2.0000                                                             
     2  0  0.50     -1262.1604   2.0000                                                             
     2  1  1.50     -1098.6333   6.0000                                                             
     3  0  0.50      -148.1110   2.0000                                                             
     3  1  1.50       -98.8436   6.0000                                                             
     3  2  2.50       -19.1549  10.0000                                                             
     4  0  0.50        -8.9483   2.0000                                                             
     4  1  0.50        -2.5791   1.0000                                                             
     4  3  2.50        -2.7416   0.0000                                                             
   Description                                                                                      
     l       E           TYP  RCUT    TYP  RCUT                                                     
     2    -19.1549037     23  2.300                                                                 
     2     -5.4423304     23  2.300                                                                 
     0     -8.9483111     23  2.300                                                                 
     0     68.0291300     23  2.300                                                                 
     1     -2.5790802     23  2.100                                                                 
     1     81.6349560     23  2.300                                                                 
     3      6.8029130     23  2.300                                                                 
  local pseudopotential read in
  partial core-charges read in
  partial kinetic energy density read in
  atomic valenz-charges read in
  non local Contribution for L=            2  read in
    real space projection operators read in
  non local Contribution for L=            2  read in
    real space projection operators read in
  non local Contribution for L=            0  read in
    real space projection operators read in
  non local Contribution for L=            0  read in
    real space projection operators read in
  non local Contribution for L=            1  read in
    real space projection operators read in
  non local Contribution for L=            1  read in
    real space projection operators read in
    PAW grid and wavefunctions read in
 
   number of l-projection  operators is LMAX  =            6
   number of lm-projection operators is LMMAX =           18
 
 POTCAR:    PAW_PBE O 08Apr2002                   
   SHA256 =  818f92134a0a090dccd8ba1447fa70422a3b330e708bb4f08108d8ae51209ddf O/POTCAR              
   COPYR  = (c) Copyright 08Apr2002 Georg Kresse                                                    
   COPYR  = This file is part of the software VASP. Any use, copying, and all other rights are regul
   COPYR  = If you do not have a valid VASP license, you may not use, copy or distribute this file. 
   VRHFIN =O: s2p4                                                                                  
   LEXCH  = PE                                                                                      
   EATOM  =   432.3788 eV,   31.7789 Ry                                                             
                                                                                                    
   TITEL  = PAW_PBE O 08Apr2002                                                                     
   LULTRA =        F    use ultrasoft PP ?                                                          
   IUNSCR =        1    unscreen: 0-lin 1-nonlin 2-no                                               
   RPACOR =    1.200    partial core radius                                                         
   POMASS =   16.000; ZVAL   =    6.000    mass and valenz                                          
   RCORE  =    1.520    outmost cutoff radius                                                       
   RWIGS  =    1.550; RWIGS  =    0.820    wigner-seitz radius (au A)                               
   ENMAX  =  400.000; ENMIN  =  300.000 eV                                                          
   ICORE  =        2    local potential                                                             
   LCOR   =        T    correct aug charges                                                         
   LPAW   =        T    paw PP                                                                      
   EAUG   =  605.392                                                                                
   DEXC   =    0.000                                                                                
   RMAX   =    1.553    core radius for proj-oper                                                   
   RAUG   =    1.300    factor for augmentation sphere                                              
   RDEP   =    1.550    radius for radial grids                                                     
   RDEPT  =    1.329    core radius for aug-charge                                                  
                                                                                                    
   Atomic configuration                                                                             
    4 entries                                                                                       
     n  l   j            E        occ.                                                              
     1  0  0.50      -514.6923   2.0000                                                             
     2  0  0.50       -23.9615   2.0000                                                             
     2  1  0.50        -9.0305   4.0000                                                             
     3  2  1.50        -9.5241   0.0000                                                             
   Description                                                                                      
     l       E           TYP  RCUT    TYP  RCUT                                                     
     0    -23.9615318     23  1.200                                                                 
     0     -9.5240782     23  1.200                                                                 
     1     -9.0304911     23  1.520                                                                 
     1      8.1634956     23  1.520                                                                 
     2     -9.5240782      7  1.500                                                                 
  local pseudopotential read in
  partial core-charges read in
  partial kinetic energy density read in
  kinetic energy density of atom read in
  atomic valenz-charges read in
  non local Contribution for L=            0  read in
    real space projection operators read in
  non local Contribution for L=            0  read in
    real space projection operators read in
  non local Contribution for L=            1  read in
    real space projection operators read in
  non local Contribution for L=            1  read in
    real space projection operators read in
    PAW grid and wavefunctions read in
 
   number of l-projection  operators is LMAX  =            4
   number of lm-projection operators is LMMAX =            8
 
 POTCAR:    PAW_PBE N 08Apr2002                   
   SHA256 =  e053789ff3a61a86a1b75d8a110fcc91f86041011e7b0817c7c99e4e8a6349d7 N/POTCAR              
   COPYR  = (c) Copyright 08Apr2002 Georg Kresse                                                    
   COPYR  = This file is part of the software VASP. Any use, copying, and all other rights are regul
   COPYR  = If you do not have a valid VASP license, you may not use, copy or distribute this file. 
   VRHFIN =N: s2p3                                                                                  
   LEXCH  = PE                                                                                      
   EATOM  =   264.5486 eV,   19.4438 Ry                                                             
                                                                                                    
   TITEL  = PAW_PBE N 08Apr2002                                                                     
   LULTRA =        F    use ultrasoft PP ?                                                          
   IUNSCR =        1    unscreen: 0-lin 1-nonlin 2-no                                               
   RPACOR =    1.200    partial core radius                                                         
   POMASS =   14.001; ZVAL   =    5.000    mass and valenz                                          
   RCORE  =    1.500    outmost cutoff radius                                                       
   RWIGS  =    1.400; RWIGS  =    0.741    wigner-seitz radius (au A)                               
   ENMAX  =  400.000; ENMIN  =  300.000 eV                                                          
   ICORE  =        2    local potential                                                             
   LCOR   =        T    correct aug charges                                                         
   LPAW   =        T    paw PP                                                                      
   EAUG   =  627.112                                                                                
   DEXC   =    0.000                                                                                
   RMAX   =    1.529    core radius for proj-oper                                                   
   RAUG   =    1.300    factor for augmentation sphere                                              
   RDEP   =    1.514    radius for radial grids                                                     
   RDEPT  =    1.338    core radius for aug-charge                                                  
                                                                                                    
   Atomic configuration                                                                             
    4 entries                                                                                       
     n  l   j            E        occ.                                                              
     1  0  0.50      -384.7179   2.0000                                                             
     2  0  0.50       -18.5828   2.0000                                                             
     2  1  0.50        -7.0898   3.0000                                                             
     3  2  1.50        -6.8029   0.0000                                                             
   Description                                                                                      
     l       E           TYP  RCUT    TYP  RCUT                                                     
     0    -18.5828119     23  1.200                                                                 
     0    -13.5018863     23  1.200                                                                 
     1     -7.0897853     23  1.500                                                                 
     1      9.5240782     23  1.500                                                                 
     2     -6.8029130      7  1.500                                                                 
  local pseudopotential read in
  partial core-charges read in
  partial kinetic energy density read in
  atomic valenz-charges read in
  non local Contribution for L=            0  read in
    real space projection operators read in
  non local Contribution for L=            0  read in
    real space projection operators read in
  non local Contribution for L=            1  read in
    real space projection operators read in
  non local Contribution for L=            1  read in
    real space projection operators read in
    PAW grid and wavefunctions read in
 
   number of l-projection  operators is LMAX  =            4
   number of lm-projection operators is LMMAX =            8
 
 Optimization of the real space projectors (new method)

 maximal supplied QI-value         = 16.25
 optimisation between [QCUT,QGAM] = [ 10.73, 21.61] = [ 32.22,130.83] Ry 
 Optimized for a Real-space Cutoff    1.42 Angstroem

   l    n(q)    QCUT    max X(q) W(low)/X(q) W(high)/X(q)  e(spline) 
   2      8    10.726     7.143    0.22E-03    0.16E-03    0.73E-07
   2      8    10.726     5.586    0.40E-03    0.26E-03    0.10E-06
   0      9    10.726    12.382    0.25E-04    0.21E-05    0.37E-07
   0      9    10.726     6.622    0.42E-04    0.48E-05    0.77E-07
   1      9    10.726     7.935    0.27E-03    0.13E-04    0.16E-06
   1      9    10.726     2.425    0.23E-03    0.15E-04    0.14E-06
 Optimization of the real space projectors (new method)

 maximal supplied QI-value         = 24.76
 optimisation between [QCUT,QGAM] = [ 10.64, 21.54] = [ 31.73,129.89] Ry 
 Optimized for a Real-space Cutoff    1.23 Angstroem

   l    n(q)    QCUT    max X(q) W(low)/X(q) W(high)/X(q)  e(spline) 
   0      8    10.645    20.381    0.38E-03    0.60E-03    0.15E-06
   0      8    10.645    15.268    0.40E-03    0.65E-03    0.17E-06
   1      7    10.645     5.964    0.30E-03    0.63E-03    0.18E-06
   1      7    10.645     5.382    0.24E-03    0.53E-03    0.16E-06
 Optimization of the real space projectors (new method)

 maximal supplied QI-value         = 25.13
 optimisation between [QCUT,QGAM] = [ 10.81, 21.61] = [ 32.71,130.83] Ry 
 Optimized for a Real-space Cutoff    1.23 Angstroem

   l    n(q)    QCUT    max X(q) W(low)/X(q) W(high)/X(q)  e(spline) 
   0      8    10.807    79.467    0.34E-03    0.68E-03    0.21E-06
   0      8    10.807    66.151    0.34E-03    0.67E-03    0.21E-06
   1      7    10.807    14.030    0.45E-03    0.13E-02    0.11E-05
   1      7    10.807     9.831    0.48E-03    0.13E-02    0.11E-05
  PAW_PBE Ga_d 06Jul2010                :
 energy of atom  1       EATOM=-2148.8298
 kinetic energy error for atom=    0.0038 (will be added to EATOM!!)
  PAW_PBE O 08Apr2002                   :
 energy of atom  2       EATOM= -432.3788
 kinetic energy error for atom=    0.0389 (will be added to EATOM!!)
  PAW_PBE N 08Apr2002                   :
 energy of atom  3       EATOM= -264.5486
 kinetic energy error for atom=    0.0253 (will be added to EATOM!!)
 
 
 POSCAR: Ga48 O72
  positions in direct lattice
  velocities in cartesian coordinates
 exchange correlation table for  LEXCH =        8
   RHO(1)=    0.500       N(1)  =     2000
   RHO(2)=  100.500       N(2)  =     4000
 


--------------------------------------------------------------------------------------------------------


 ion  position               nearest neighbor table
   1  0.659  0.000  0.157-  85 1.94  83 1.95  79 1.95  67 2.02  61 2.07  65 2.07
   2  0.659  0.000  0.657-  86 1.95  84 1.95  80 1.95  68 2.02  62 2.08  66 2.08
   3  0.660  0.334  0.156-  87 1.94  81 1.95  79 1.95  69 2.02  63 2.07  61 2.08
   4  0.659  0.333  0.657-  88 1.94  82 1.95  80 1.95  70 2.02  62 2.08  64 2.08
   5  0.660  0.666  0.156-  89 1.94  81 1.95  83 1.95  71 2.02  63 2.07  65 2.08
   6  0.659  0.667  0.657-  90 1.94  82 1.95  84 1.95  72 2.02  66 2.08  64 2.08
   7  0.840  0.167  0.344-  91 1.93  73 1.95  75 1.95  61 2.02  69 2.08  67 2.08
   8  0.841  0.167  0.843-  92 1.94  76 1.95  74 1.95  62 2.02  70 2.07  68 2.08
   9  0.841  0.500  0.344-  93 1.94  77 1.95  75 1.95  63 2.02  71 2.08  69 2.08
  10  0.841  0.500  0.843-  94 1.95  78 1.95  76 1.95  64 2.03  72 2.07  70 2.07
  11  0.840  0.833  0.344-  95 1.93  73 1.95  77 1.95  65 2.02  71 2.08  67 2.08
  12  0.841  0.833  0.843-  96 1.94  78 1.95  74 1.95  66 2.02  72 2.07  68 2.08
  13  0.591  0.166  0.397-  80 1.84  57 1.84  55 1.85  61 1.87
  14  0.591  0.167  0.898-  79 1.84  58 1.85  56 1.85  62 1.87
  15  0.592  0.500  0.398-  82 1.84  59 1.84  57 1.84  63 1.87
  16  0.591  0.500  0.898-  81 1.84  60 1.85  58 1.85  64 1.87
  17  0.591  0.834  0.397-  84 1.84  59 1.84  55 1.85  65 1.87
  18  0.591  0.833  0.898-  83 1.84  60 1.85  56 1.85  66 1.87
  19  0.908  0.000  0.102-  74 1.84  53 1.85  49 1.85  67 1.87
  20  0.909  0.000  0.602-  73 1.84  54 1.85  50 1.85  68 1.88
  21  0.908  0.334  0.102-  76 1.84  51 1.85  49 1.85  69 1.87
  22  0.909  0.333  0.602-  75 1.84  50 1.85  52 1.85  70 1.87
  23  0.908  0.666  0.102-  78 1.84  51 1.85  53 1.85  71 1.87
  24  0.909  0.667  0.602-  77 1.84  54 1.85  52 1.85  72 1.87
  25  0.161  0.165  0.160- 116 1.97  49 1.97 114 1.98 120 2.02 102 2.04  98 2.09
  26  0.158  0.166  0.656-  50 1.94 115 1.95 117 1.95 103 2.03  97 2.08  99 2.08
  27  0.159  0.500  0.158-  51 1.95 116 1.96 118 1.96 104 2.03 100 2.06  98 2.06
  28  0.159  0.500  0.657-  52 1.94 117 1.95 119 1.95 105 2.03 101 2.08  99 2.08
  29  0.161  0.835  0.160- 118 1.97  53 1.97 114 1.98 120 2.02 106 2.04 100 2.09
  30  0.158  0.834  0.656-  54 1.94 115 1.95 119 1.95 107 2.03  97 2.08 101 2.08
  31  0.340  0.000  0.341-  55 1.95 108 1.97 112 1.97 120 2.00 106 2.10 102 2.10
  32  0.341  0.000  0.843-  56 1.95 109 1.95 113 1.95  97 2.02 103 2.07 107 2.07
  33  0.342  0.334  0.343-  57 1.94 110 1.95 108 1.96  98 2.03 102 2.05 104 2.07
  34  0.341  0.334  0.843-  58 1.95 109 1.95 111 1.95  99 2.02 105 2.07 103 2.08
  35  0.342  0.666  0.343-  59 1.94 110 1.95 112 1.96 100 2.03 106 2.05 104 2.07
  36  0.341  0.666  0.843-  60 1.95 113 1.95 111 1.95 101 2.02 105 2.07 107 2.08
  37  0.091  0.000  0.395- 115 1.86  95 1.86  91 1.86 120 1.87
  38  0.090  0.000  0.897- 114 1.84  96 1.85  92 1.85  97 1.87
  39  0.090  0.333  0.398- 117 1.84  91 1.85  93 1.85  98 1.87
  40  0.091  0.333  0.899- 116 1.84  92 1.85  94 1.85  99 1.88
  41  0.090  0.667  0.398- 119 1.84  95 1.85  93 1.85 100 1.87
  42  0.091  0.667  0.899- 118 1.84  96 1.85  94 1.85 101 1.88
  43  0.410  0.167  0.102- 109 1.84  87 1.85  85 1.85 102 1.86
  44  0.409  0.167  0.603- 108 1.84  88 1.85  86 1.85 103 1.87
  45  0.409  0.500  0.102- 111 1.84  89 1.85  87 1.85 104 1.87
  46  0.409  0.500  0.602- 110 1.84  90 1.85  88 1.85 105 1.87
  47  0.410  0.833  0.102- 113 1.84  89 1.85  85 1.85 106 1.86
  48  0.409  0.833  0.603- 112 1.84  90 1.85  86 1.85 107 1.87
  49  0.996  0.167  0.126-  19 1.85  21 1.85  25 1.97
  50  0.996  0.167  0.628-  22 1.85  20 1.85  26 1.94
  51  0.996  0.500  0.128-  21 1.85  23 1.85  27 1.95
  52  0.996  0.500  0.627-  22 1.85  24 1.85  28 1.94
  53  0.996  0.833  0.126-  19 1.85  23 1.85  29 1.97
  54  0.996  0.833  0.628-  24 1.85  20 1.85  30 1.94
  55  0.503  0.000  0.372-  13 1.85  17 1.85  31 1.95
  56  0.503  0.000  0.872-  14 1.85  18 1.85  32 1.95
  57  0.504  0.334  0.373-  13 1.84  15 1.84  33 1.94
  58  0.503  0.333  0.873-  14 1.85  16 1.85  34 1.95
  59  0.504  0.666  0.373-  17 1.84  15 1.84  35 1.94
  60  0.503  0.667  0.873-  18 1.85  16 1.85  36 1.95
  61  0.672  0.167  0.280-  13 1.87   7 2.02   1 2.07   3 2.08
  62  0.672  0.167  0.780-  14 1.87   8 2.02   4 2.08   2 2.08
  63  0.673  0.500  0.280-  15 1.87   9 2.02   3 2.07   5 2.07
  64  0.673  0.500  0.781-  16 1.87  10 2.03   4 2.08   6 2.08
  65  0.672  0.833  0.280-  17 1.87  11 2.02   1 2.07   5 2.08
  66  0.672  0.833  0.780-  18 1.87  12 2.02   6 2.08   2 2.08
  67  0.827  0.000  0.220-  19 1.87   1 2.02  11 2.08   7 2.08
  68  0.827  0.000  0.719-  20 1.88   2 2.02  12 2.08   8 2.08
  69  0.827  0.333  0.220-  21 1.87   3 2.02   9 2.08   7 2.08
  70  0.827  0.333  0.720-  22 1.87   4 2.02  10 2.07   8 2.07
  71  0.827  0.667  0.220-  23 1.87   5 2.02   9 2.08  11 2.08
  72  0.827  0.667  0.720-  24 1.87   6 2.02  10 2.07  12 2.07
  73  0.830  0.000  0.446-  20 1.84  11 1.95   7 1.95
  74  0.832  0.000  0.946-  19 1.84  12 1.95   8 1.95
  75  0.831  0.334  0.446-  22 1.84   9 1.95   7 1.95
  76  0.832  0.333  0.946-  21 1.84   8 1.95  10 1.95
  77  0.831  0.666  0.446-  24 1.84   9 1.95  11 1.95
  78  0.832  0.667  0.946-  23 1.84  12 1.95  10 1.95
  79  0.668  0.167  0.054-  14 1.84   1 1.95   3 1.95
  80  0.667  0.167  0.554-  13 1.84   2 1.95   4 1.95
  81  0.669  0.500  0.054-  16 1.84   5 1.95   3 1.95
  82  0.668  0.500  0.555-  15 1.84   6 1.95   4 1.95
  83  0.668  0.833  0.054-  18 1.84   1 1.95   5 1.95
  84  0.667  0.833  0.554-  17 1.84   2 1.95   6 1.95
  85  0.497  0.000  0.126-  43 1.85  47 1.85   1 1.94
  86  0.496  0.000  0.628-  44 1.85  48 1.85   2 1.95
  87  0.498  0.334  0.126-  43 1.85  45 1.85   3 1.94
  88  0.496  0.333  0.628-  44 1.85  46 1.85   4 1.94
  89  0.498  0.666  0.126-  47 1.85  45 1.85   5 1.94
  90  0.496  0.667  0.628-  48 1.85  46 1.85   6 1.94
  91  0.002  0.167  0.374-  39 1.85  37 1.86   7 1.93
  92  0.003  0.167  0.873-  38 1.85  40 1.85   8 1.94
  93  0.003  0.500  0.373-  39 1.85  41 1.85   9 1.94
  94  0.004  0.500  0.873-  40 1.85  42 1.85  10 1.95
  95  0.002  0.833  0.374-  41 1.85  37 1.86  11 1.93
  96  0.003  0.833  0.873-  38 1.85  42 1.85  12 1.94
  97  0.172  0.000  0.780-  38 1.87  32 2.02  26 2.08  30 2.08
  98  0.173  0.335  0.282-  39 1.87  33 2.03  27 2.06  25 2.09
  99  0.172  0.333  0.781-  40 1.88  34 2.02  28 2.08  26 2.08
 100  0.173  0.665  0.282-  41 1.87  35 2.03  27 2.06  29 2.09
 101  0.172  0.667  0.781-  42 1.88  36 2.02  28 2.08  30 2.08
 102  0.331  0.171  0.219-  43 1.86  25 2.04  33 2.05  31 2.10
 103  0.327  0.166  0.719-  44 1.87  26 2.03  32 2.07  34 2.08
 104  0.328  0.500  0.219-  45 1.87  27 2.03  35 2.07  33 2.07
 105  0.327  0.500  0.720-  46 1.87  28 2.03  36 2.07  34 2.07
 106  0.331  0.829  0.219-  47 1.86  29 2.04  35 2.05  31 2.10
 107  0.327  0.834  0.719-  48 1.87  30 2.03  32 2.07  36 2.08
 108  0.334  0.167  0.446-  44 1.84  33 1.96  31 1.97
 109  0.332  0.167  0.945-  43 1.84  34 1.95  32 1.95
 110  0.333  0.500  0.446-  46 1.84  35 1.95  33 1.95
 111  0.332  0.500  0.946-  45 1.84  36 1.95  34 1.95
 112  0.334  0.833  0.446-  48 1.84  35 1.96  31 1.97
 113  0.332  0.833  0.945-  47 1.84  36 1.95  32 1.95
 114  0.170  0.000  0.052-  38 1.84  29 1.98  25 1.98
 115  0.166  0.000  0.554-  37 1.86  30 1.95  26 1.95
 116  0.167  0.332  0.056-  40 1.84  27 1.96  25 1.97
 117  0.168  0.333  0.554-  39 1.84  26 1.95  28 1.95
 118  0.167  0.668  0.056-  42 1.84  27 1.96  29 1.97
 119  0.168  0.667  0.554-  41 1.84  30 1.95  28 1.95
 120  0.173  0.000  0.278-  37 1.87  31 2.00  25 2.02  29 2.02
 
  LATTYP: Found a simple monoclinic cell.
 ALAT       =    11.6348202465
 B/A-ratio  =     0.7858051831
 C/A-ratio  =     1.0554931797
 COS(beta)  =    -0.2379290539
  
  Lattice vectors:
  
 A1 = (   0.0000000000,  -2.7682617730, -11.3006977184)
 A2 = (  -9.1427020537,   0.0000000000,   0.0000000000)
 A3 = (   0.0000000000,  12.2804734172,   0.0000000000)


Analysis of symmetry for initial positions (statically):
=====================================================================
 Subroutine PRICEL returns:
 Original cell was already a primitive cell.
 

 Routine SETGRP: Setting up the symmetry group for a 
 simple monoclinic supercell.


 Subroutine GETGRP returns: Found  2 space group operations
 (whereof  2 operations were pure point group operations)
 out of a pool of  4 trial point group operations.


The static configuration has the point symmetry C_1h.


Analysis of symmetry for dynamics (positions and initial velocities):
=====================================================================
 Subroutine PRICEL returns:
 Original cell was already a primitive cell.
 

 Routine SETGRP: Setting up the symmetry group for a 
 simple monoclinic supercell.


 Subroutine GETGRP returns: Found  2 space group operations
 (whereof  2 operations were pure point group operations)
 out of a pool of  4 trial point group operations.


The dynamic configuration has the point symmetry C_1h.


 Subroutine INISYM returns: Found  2 space group operations
 (whereof  2 operations are pure point group operations),
 and found     1 'primitive' translations


----------------------------------------------------------------------------------------

                                     Primitive cell                                     

  volume of cell :    1268.8052

  direct lattice vectors                    reciprocal lattice vectors
     0.000000000 12.280473417  0.000000000     0.000000000  0.081430085 -0.019947423
     9.142702054  0.000000000  0.000000000     0.109376855 -0.000000000  0.000000000
     0.000000000 -2.768261773-11.300697718     0.000000000  0.000000000 -0.088490111

  length of vectors
    12.280473417  9.142702054 11.634820246     0.083837691  0.109376855  0.088490111

  position of ions in fractional coordinates (direct lattice)
     0.659389674  0.000000000  0.156603685
     0.659118758  0.000000000  0.656570147
     0.659639021  0.333595162  0.156439090
     0.659058155  0.333344687  0.656713761
     0.659639021  0.666404838  0.156439090
     0.659058155  0.666655313  0.656713761
     0.840184952  0.166841545  0.343967893
     0.840760470  0.166716316  0.843290064
     0.840858469  0.500000000  0.343640519
     0.841185052  0.500000000  0.843360001
     0.840184952  0.833158455  0.343967893
     0.840760470  0.833283684  0.843290064
     0.590526868  0.166494666  0.397261901
     0.591027271  0.166707669  0.897580789
     0.592298309  0.500000000  0.397933387
     0.591132502  0.500000000  0.897702376
     0.590526868  0.833505334  0.397261901
     0.591027271  0.833292331  0.897580789
     0.908076878  0.000000000  0.102409652
     0.908706582  0.000000000  0.602058359
     0.908441553  0.333569452  0.102429868
     0.908544034  0.333463523  0.602289120
     0.908441553  0.666430548  0.102429868
     0.908544034  0.666536477  0.602289120
     0.160595648  0.164762133  0.159748474
     0.158323696  0.166457204  0.655968461
     0.158689484  0.500000000  0.157509179
     0.158650826  0.500000000  0.656894307
     0.160595648  0.835237867  0.159748474
     0.158323696  0.833542796  0.655968461
     0.339947609  0.000000000  0.341167877
     0.340535880  0.000000000  0.842921243
     0.341780594  0.334126602  0.342688956
     0.340626335  0.333516247  0.843063022
     0.341780594  0.665873398  0.342688956
     0.340626335  0.666483753  0.843063022
     0.091198427  0.000000000  0.394661391
     0.090332795  0.000000000  0.896659990
     0.090428728  0.333014799  0.397824519
     0.091447999  0.332991048  0.898691522
     0.090428728  0.666985201  0.397824519
     0.091447999  0.667008952  0.898691522
     0.410422886  0.167320544  0.101515517
     0.409099993  0.166676190  0.602910488
     0.409170988  0.500000000  0.102295035
     0.408867169  0.500000000  0.602405178
     0.410422886  0.832679456  0.101515517
     0.409099993  0.833323810  0.602910488
     0.995684315  0.166607582  0.125717808
     0.995798189  0.166836997  0.627780487
     0.995878009  0.500000000  0.127531334
     0.996080909  0.500000000  0.627471681
     0.995684315  0.833392418  0.125717808
     0.995798189  0.833163003  0.627780487
     0.502804666  0.000000000  0.372229531
     0.503483408  0.000000000  0.872483009
     0.504455950  0.333983376  0.372999719
     0.503473480  0.333383602  0.872576603
     0.504455950  0.666016624  0.372999719
     0.503473480  0.666616398  0.872576603
     0.672127525  0.166611446  0.280173571
     0.672421187  0.166682752  0.780367136
     0.672819617  0.500000000  0.280116794
     0.672518537  0.500000000  0.780540320
     0.672127525  0.833388554  0.280173571
     0.672421187  0.833317248  0.780367136
     0.827276363  0.000000000  0.219934982
     0.827288922  0.000000000  0.719480596
     0.827364006  0.333277854  0.219790613
     0.827324067  0.333385844  0.719688307
     0.827364006  0.666722146  0.219790613
     0.827324067  0.666614156  0.719688307
     0.830489377  0.000000000  0.446039067
     0.831679984  0.000000000  0.945605799
     0.830687927  0.333788374  0.446084599
     0.831917220  0.333390379  0.945699365
     0.830687927  0.666211626  0.446084599
     0.831917220  0.666609621  0.945699365
     0.668278056  0.166657886  0.054004665
     0.667195544  0.166582565  0.554045119
     0.669097793  0.500000000  0.053852497
     0.668100952  0.500000000  0.554737378
     0.668278056  0.833342114  0.054004665
     0.667195544  0.833417435  0.554045119
     0.496998596  0.000000000  0.126357445
     0.496430561  0.000000000  0.628086166
     0.497505439  0.334198497  0.126117858
     0.496431612  0.333353347  0.628024380
     0.497505439  0.665801503  0.126117858
     0.496431612  0.666646653  0.628024380
     0.001870249  0.167349714  0.374490326
     0.003239843  0.166804685  0.872750908
     0.003107966  0.500000000  0.373334001
     0.004061671  0.500000000  0.873394556
     0.001870249  0.832650286  0.374490326
     0.003239843  0.833195315  0.872750908
     0.172167864  0.000000000  0.779987097
     0.172866748  0.335466401  0.281681593
     0.172315460  0.333092583  0.780777281
     0.172866748  0.664533599  0.281681593
     0.172315460  0.666907417  0.780777281
     0.330837795  0.171145998  0.218990622
     0.327028484  0.166490354  0.719241796
     0.327829753  0.500000000  0.219248352
     0.327275358  0.500000000  0.719554111
     0.330837795  0.828854002  0.218990622
     0.327028484  0.833509646  0.719241796
     0.333967595  0.167483870  0.445850450
     0.332392574  0.166760859  0.945378267
     0.333295267  0.500000000  0.445874780
     0.331674195  0.500000000  0.945836121
     0.333967595  0.832516130  0.445850450
     0.332392574  0.833239141  0.945378267
     0.170358763  0.000000000  0.051965683
     0.165812820  0.000000000  0.553638749
     0.167134725  0.332249826  0.055739521
     0.167727389  0.333456831  0.554420833
     0.167134725  0.667750174  0.055739521
     0.167727389  0.666543169  0.554420833
     0.173402081  0.000000000  0.278357084

  ion indices of the primitive-cell ions
   primitive index   ion index
                 1           1
                 2           2
                 3           3
                 4           4
                 5           5
                 6           6
                 7           7
                 8           8
                 9           9
                10          10
                11          11
                12          12
                13          13
                14          14
                15          15
                16          16
                17          17
                18          18
                19          19
                20          20
                21          21
                22          22
                23          23
                24          24
                25          25
                26          26
                27          27
                28          28
                29          29
                30          30
                31          31
                32          32
                33          33
                34          34
                35          35
                36          36
                37          37
                38          38
                39          39
                40          40
                41          41
                42          42
                43          43
                44          44
                45          45
                46          46
                47          47
                48          48
                49          49
                50          50
                51          51
                52          52
                53          53
                54          54
                55          55
                56          56
                57          57
                58          58
                59          59
                60          60
                61          61
                62          62
                63          63
                64          64
                65          65
                66          66
                67          67
                68          68
                69          69
                70          70
                71          71
                72          72
                73          73
                74          74
                75          75
                76          76
                77          77
                78          78
                79          79
                80          80
                81          81
                82          82
                83          83
                84          84
                85          85
                86          86
                87          87
                88          88
                89          89
                90          90
                91          91
                92          92
                93          93
                94          94
                95          95
                96          96
                97          97
                98          98
                99          99
               100         100
               101         101
               102         102
               103         103
               104         104
               105         105
               106         106
               107         107
               108         108
               109         109
               110         110
               111         111
               112         112
               113         113
               114         114
               115         115
               116         116
               117         117
               118         118
               119         119
               120         120

----------------------------------------------------------------------------------------

 
 
 KPOINTS: Automatic mesh                          

Automatic generation of k-mesh.
 Grid dimensions read from file:
 generate k-points for:    2    2    2

 Generating k-lattice:

  Cartesian coordinates                     Fractional coordinates (reciprocal lattice)
     0.000000000  0.040715043 -0.009973711     0.500000000  0.000000000  0.000000000
     0.054688428 -0.000000000  0.000000000     0.000000000  0.500000000  0.000000000
     0.000000000  0.000000000 -0.044245056     0.000000000  0.000000000  0.500000000

  Length of vectors
     0.041918846  0.054688428  0.044245056

  Shift w.r.t. Gamma in fractional coordinates (k-lattice)
     0.000000000  0.000000000  0.000000000

 
 Subroutine IBZKPT returns following result:
 ===========================================
 
 Found      8 irreducible k-points:
 
 Following reciprocal coordinates:
            Coordinates               Weight
  0.000000  0.000000  0.000000      1.000000
  0.500000  0.000000  0.000000      1.000000
  0.000000  0.500000  0.000000      1.000000
  0.500000  0.500000  0.000000      1.000000
  0.000000  0.000000  0.500000      1.000000
  0.500000  0.000000  0.500000      1.000000
  0.000000  0.500000  0.500000      1.000000
  0.500000  0.500000  0.500000      1.000000
 
 Following cartesian coordinates:
            Coordinates               Weight
  0.000000  0.000000 -0.000000      1.000000
  0.000000  0.040715 -0.009974      1.000000
  0.054688  0.000000 -0.000000      1.000000
  0.054688  0.040715 -0.009974      1.000000
  0.000000  0.000000 -0.044245      1.000000
  0.000000  0.040715 -0.054219      1.000000
  0.054688  0.000000 -0.044245      1.000000
  0.054688  0.040715 -0.054219      1.000000
 
 
 Subroutine IBZKPT_HF returns following result:
 ==============================================
 
 Found      8 k-points in 1st BZ
 the following      8 k-points will be used (e.g. in the exchange kernel)
 Following reciprocal coordinates:   # in IRBZ
  0.000000  0.000000  0.000000    0.12500000   1 t-inv F
  0.500000  0.000000  0.000000    0.12500000   2 t-inv F
  0.000000  0.500000  0.000000    0.12500000   3 t-inv F
  0.500000  0.500000  0.000000    0.12500000   4 t-inv F
  0.000000  0.000000  0.500000    0.12500000   5 t-inv F
  0.500000  0.000000  0.500000    0.12500000   6 t-inv F
  0.000000  0.500000  0.500000    0.12500000   7 t-inv F
  0.500000  0.500000  0.500000    0.12500000   8 t-inv F


--------------------------------------------------------------------------------------------------------




 Dimension of arrays:
   k-points           NKPTS =      8   k-points in BZ     NKDIM =      8   number of bands    NBANDS=    633
   number of dos      NEDOS =    301   number of ions     NIONS =    120
   non local maximal  LDIM  =      6   non local SUM 2l+1 LMDIM =     18
   total plane-waves  NPLWV = 184320
   max r-space proj   IRMAX =   1800   max aug-charges    IRDMAX=   5704
   dimension x,y,z NGX =    64 NGY =   48 NGZ =   60
   dimension x,y,z NGXF=   128 NGYF=   96 NGZF=  120
   support grid    NGXF=   128 NGYF=   96 NGZF=  120
   ions per type =              48  71   1
   NGX,Y,Z   is equivalent  to a cutoff of   8.66,  8.73,  8.57 a.u.
   NGXF,Y,Z  is equivalent  to a cutoff of  17.33, 17.46, 17.15 a.u.

 SYSTEM =  unknown system                          
 POSCAR =  Ga48 O72                                

 Startparameter for this run:
   NWRITE =      2    write-flag & timer
   PREC   = normal    normal or accurate (medium, high low for compatibility)
   ISTART =      0    job   : 0-new  1-cont  2-samecut
   ICHARG =      0    charge: 1-file 2-atom 10-const
   ISPIN  =      1    spin polarized calculation?
   LNONCOLLINEAR =      F non collinear calculations
   LSORBIT =      F    spin-orbit coupling
   INIWAV =      1    electr: 0-lowe 1-rand  2-diag
   LASPH  =      F    aspherical Exc in radial PAW
 Electronic Relaxation 1
   ENCUT  =  450.0 eV  33.07 Ry    5.75 a.u.  21.24 15.81 20.12*2*pi/ulx,y,z
   ENINI  =  450.0     initial cutoff
   ENAUG  =  627.1 eV  augmentation charge cutoff
   NELM   =    500;   NELMIN=  2; NELMDL= -5     # of ELM steps 
   EDIFF  = 0.1E-04   stopping-criterion for ELM
   LREAL  =      T    real-space projection
   NLSPLINE    = F    spline interpolate recip. space projectors
   LCOMPAT=      F    compatible to vasp.4.4
   GGA_COMPAT  = T    GGA compatible to vasp.4.4-vasp.4.6
   LMAXPAW     = -100 max onsite density
   LMAXMIX     =    2 max onsite mixed and CHGCAR
   VOSKOWN=      0    Vosko Wilk Nusair interpolation
   ROPT   =   -0.00050  -0.00050  -0.00050
 Ionic relaxation
   EDIFFG = -.5E-02   stopping-criterion for IOM
   NSW    =      0    number of steps for IOM
   NBLOCK =      1;   KBLOCK =      1    inner block; outer block 
   IBRION =     -1    ionic relax: 0-MD 1-quasi-New 2-CG
   NFREE  =      0    steps in history (QN), initial steepest desc. (CG)
   ISIF   =      2    stress and relaxation
   IWAVPR =     10    prediction:  0-non 1-charg 2-wave 3-comb
   ISYM   =      3    0-nonsym 1-usesym 2-fastsym
   LCORR  =      T    Harris-Foulkes like correction to forces

   POTIM  = 0.5000    time-step for ionic-motion
   TEIN   =    0.0    initial temperature
   TEBEG  =    0.0;   TEEND  =   0.0 temperature during run
   SMASS  =  -3.00    Nose mass-parameter (am)
   estimated Nose-frequenzy (Omega)   =  0.10E-29 period in steps = 0.13E+47 mass=  -0.345E-26a.u.
   SCALEE = 1.0000    scale energy and forces
   NPACO  =    256;   APACO  = 10.0  distance and # of slots for P.C.
   PSTRESS=    0.0 pullay stress

  Mass of Ions in am
   POMASS =  69.72 16.00 14.00
  Ionic Valenz
   ZVAL   =  13.00  6.00  5.00
  Atomic Wigner-Seitz radii
   RWIGS  =  -1.00 -1.00 -1.00
  virtual crystal weights 
   VCA    =   1.00  1.00  1.00
   NELECT =    1055.0000    total number of electrons
   NUPDOWN=      -1.0000    fix difference up-down

 DOS related values:
   EMIN   =  10.00;   EMAX   =-10.00  energy-range for DOS
   EFERMI =   0.00;   METHOD = LEGACY      
   ISMEAR =     0;   SIGMA  =   0.05  broadening in eV -4-tet -1-fermi 0-gaus

 Electronic relaxation 2 (details)
   IALGO  =     58    algorithm
   LDIAG  =      T    sub-space diagonalisation (order eigenvalues)
   LSUBROT=      F    optimize rotation matrix (better conditioning)
   TURBO    =      0    0=normal 1=particle mesh
   IRESTART =      0    0=no restart 2=restart with 2 vectors
   NREBOOT  =      0    no. of reboots
   NMIN     =      0    reboot dimension
   EREF     =   0.00    reference energy to select bands
   IMIX   =      4    mixing-type and parameters
     AMIX     =   0.40;   BMIX     =  1.00
     AMIX_MAG =   1.60;   BMIX_MAG =  1.00
     AMIN     =   0.10
     WC   =   100.;   INIMIX=   1;  MIXPRE=   1;  MAXMIX= -45

 Intra band minimization:
   WEIMIN = 0.0000     energy-eigenvalue tresh-hold
   EBREAK =  0.39E-08  absolut break condition
   DEPER  =   0.30     relativ break condition  

   TIME   =   0.40     timestep for ELM

  volume/ion in A,a.u.               =      10.57        71.35
  Fermi-wavevector in a.u.,A,eV,Ry     =   1.539433  2.909106 32.243803  2.369853
  Thomas-Fermi vector in A             =   2.645661
 
 Write flags
   LWAVE        =      T    write WAVECAR
   LDOWNSAMPLE  =      F    k-point downsampling of WAVECAR
   LCHARG       =      T    write CHGCAR
   LVTOT        =      F    write LOCPOT, total local potential
   LVHAR        =      F    write LOCPOT, Hartree potential only
   LELF         =      F    write electronic localiz. function (ELF)
   LORBIT       =      0    0 simple, 1 ext, 2 COOP (PROOUT), +10 PAW based schemes


 Dipole corrections
   LMONO  =      F    monopole corrections only (constant potential shift)
   LDIPOL =      F    correct potential (dipole corrections)
   IDIPOL =      0    1-x, 2-y, 3-z, 4-all directions 
   EPSILON=  1.0000000 bulk dielectric constant

 Exchange correlation treatment:
   GGA     =    --    GGA type
   LEXCH   =     8    internal setting for exchange type
   LIBXC   =     F    Libxc                    
   VOSKOWN =     0    Vosko Wilk Nusair interpolation
   EXXOEP  =     0    0=HF, 1=EXX-LHF (local Hartree Fock) 2=EXX OEP
   LHFCALC =     T    Hartree Fock is set to
   LSYMGRAD=     F    symmetrize gradient (conserves proper symmetry)
   PRECFOCK=fast      Normal, Fast or Accurate (Low or Medium for compatibility)
   LRHFCALC=     F    long range Hartree Fock
   LRSCOR  =     F    long range correlation only (use DFT for short range part)
   LTHOMAS =     F    Thomas Fermi screening in HF
   LMODELHF=     F    short range full HF, long range fraction AEXX
   FOCKCORR=     1    mode to apply convergence corrections
   LFOCKACE=     T    use Adeptively-Compressed-Exchange operator
   ENCUT4O =  -1.0   cutoff for four orbital integrals eV
   LMAXFOCK=     4    L truncation for augmentation on plane wave grid
   LMAXFOCKAE=  -1    L truncation for all-electron charge restoration on plane wave grid
   NMAXFOCKAE=   1    number of basis functions for all-electron charge restoration
   LFOCKAEDFT=     F  apply the AE augmentation even for DFT
   NKREDX  =     1    reduce k-point grid by
   NKREDY  =     1    reduce k-point grid by
   NKREDZ  =     1    reduce k-point grid by
   SHIFTRED=     F    shift reduced grid of Gamma
   HFKIDENT=     F    idential grid for each k-point
   ODDONLY =     F    use only odd q-grid points
   EVENONLY=     F    use only even q-grid points
   HFALPHA =   -1.0000 decay constant for conv. correction
   MCALPHA =    0.0000 extent of test-charge in conv. correction in multipole expansion
   AEXX    =    0.3200 exact exchange contribution
   HFSCREEN=    0.2000 screening length (either q_TF or 0.3 A-1)
   HFSCREENC=   0.2000 screening length for correlation (either q_TF or 0.3 A-1)
   HFRCUT  =    0.0000 spherical cutoff for potential kernel
   ALDAX   =    0.6800 LDA exchange part
   AGGAX   =    0.6800 GGA exchange part
   ALDAC   =    1.0000 LDA correlation
   AGGAC   =    1.0000 GGA correlation
   ENCUTFOCK=  -1.0 apply spherical cutoff to Coloumb kernel
   NBANDSGWLOW=     1    first orbital included in HF term
   NBLOCK_FOCK=    64    blocking factor in FOCK_ACC

 Linear response parameters
   LEPSILON=     F    determine dielectric tensor
   LRPA    =     F    only Hartree local field effects (RPA)
   LNABLA  =     F    use nabla operator in PAW spheres
   LVEL    =     F    velocity operator in full k-point grid
   CSHIFT  =0.1000    complex shift for real part using Kramers Kronig
   OMEGAMAX=  -1.0    maximum frequency
   DEG_THRESHOLD= 0.2000000E-02 threshold for treating states as degnerate
   RTIME   =   -0.100 relaxation time in fs
  (WPLASMAI=    0.000 imaginary part of plasma frequency in eV, 0.658/RTIME)
   DFIELD  = 0.0000000 0.0000000 0.0000000 field for delta impulse in time
 
  Optional k-point grid parameters
   LKPOINTS_OPT  =     F    use optional k-point grid
   KPOINTS_OPT_MODE=     1    mode for optional k-point grid
 
 Orbital magnetization related:
   ORBITALMAG=     F  switch on orbital magnetization
   LCHIMAG   =     F  perturbation theory with respect to B field
   DQ        =  0.001000  dq finite difference perturbation B field
   LLRAUG    =     F  two centre corrections for induced B field
   LBONE     =     F  B-component reconstruction in AE one-centre
   LVGVCALC  =     T  calculate vGv susceptibility
   LVGVAPPL  =     F  apply vGv susceptibility instead of pGv for G=0

 Random number generation:
   RANDOM_GENERATOR = DEFAULT
   PCG_SEED         = not used


--------------------------------------------------------------------------------------------------------


 Static calculation
 charge density and potential will be updated during run
 non-spin polarized calculation
 Conjugate gradient for all bands (Freysoldt, et al. PRB 79, 241103 (2009))
 preconditioned conjugated gradient                                        
 perform sub-space diagonalisation
    before iterative eigenvector-optimisation
 modified Broyden-mixing scheme, WC =      100.0
 initial mixing is a Kerker type mixing with AMIX =  0.4000 and BMIX =      1.0000
 Hartree-type preconditioning will be used
 using additional bands           105
 real space projection scheme for non local part
 use partial core corrections
 no Harris-corrections to forces 
 use gradient corrections 
 use of overlap-Matrix (Vanderbilt PP)
 Gauss-broadening in eV      SIGMA  =   0.05


--------------------------------------------------------------------------------------------------------


  energy-cutoff  :      450.00
  volume of cell :     1268.81
      direct lattice vectors                 reciprocal lattice vectors
     0.000000000 12.280473417  0.000000000     0.000000000  0.081430085 -0.019947423
     9.142702054  0.000000000  0.000000000     0.109376855 -0.000000000  0.000000000
     0.000000000 -2.768261773-11.300697718     0.000000000  0.000000000 -0.088490111

  length of vectors
    12.280473417  9.142702054 11.634820246     0.083837691  0.109376855  0.088490111


 
 k-points in units of 2pi/SCALE and weight: Automatic mesh                          
   0.00000000  0.00000000 -0.00000000       0.125
   0.00000000  0.04071504 -0.00997371       0.125
   0.05468843  0.00000000 -0.00000000       0.125
   0.05468843  0.04071504 -0.00997371       0.125
   0.00000000  0.00000000 -0.04424506       0.125
   0.00000000  0.04071504 -0.05421877       0.125
   0.05468843  0.00000000 -0.04424506       0.125
   0.05468843  0.04071504 -0.05421877       0.125
 
 k-points in reciprocal lattice and weights: Automatic mesh                          
   0.00000000  0.00000000  0.00000000       0.125
   0.50000000  0.00000000  0.00000000       0.125
   0.00000000  0.50000000  0.00000000       0.125
   0.50000000  0.50000000  0.00000000       0.125
   0.00000000  0.00000000  0.50000000       0.125
   0.50000000  0.00000000  0.50000000       0.125
   0.00000000  0.50000000  0.50000000       0.125
   0.50000000  0.50000000  0.50000000       0.125
 
 position of ions in fractional coordinates (direct lattice) 
   0.65938967  0.00000000  0.15660368
   0.65911876  0.00000000  0.65657015
   0.65963902  0.33359516  0.15643909
   0.65905815  0.33334469  0.65671376
   0.65963902  0.66640484  0.15643909
   0.65905815  0.66665531  0.65671376
   0.84018495  0.16684154  0.34396789
   0.84076047  0.16671632  0.84329006
   0.84085847  0.50000000  0.34364052
   0.84118505  0.50000000  0.84336000
   0.84018495  0.83315846  0.34396789
   0.84076047  0.83328368  0.84329006
   0.59052687  0.16649467  0.39726190
   0.59102727  0.16670767  0.89758079
   0.59229831  0.50000000  0.39793339
   0.59113250  0.50000000  0.89770238
   0.59052687  0.83350533  0.39726190
   0.59102727  0.83329233  0.89758079
   0.90807688  0.00000000  0.10240965
   0.90870658  0.00000000  0.60205836
   0.90844155  0.33356945  0.10242987
   0.90854403  0.33346352  0.60228912
   0.90844155  0.66643055  0.10242987
   0.90854403  0.66653648  0.60228912
   0.16059565  0.16476213  0.15974847
   0.15832370  0.16645720  0.65596846
   0.15868948  0.50000000  0.15750918
   0.15865083  0.50000000  0.65689431
   0.16059565  0.83523787  0.15974847
   0.15832370  0.83354280  0.65596846
   0.33994761  0.00000000  0.34116788
   0.34053588  0.00000000  0.84292124
   0.34178059  0.33412660  0.34268896
   0.34062633  0.33351625  0.84306302
   0.34178059  0.66587340  0.34268896
   0.34062633  0.66648375  0.84306302
   0.09119843  0.00000000  0.39466139
   0.09033280  0.00000000  0.89665999
   0.09042873  0.33301480  0.39782452
   0.09144800  0.33299105  0.89869152
   0.09042873  0.66698520  0.39782452
   0.09144800  0.66700895  0.89869152
   0.41042289  0.16732054  0.10151552
   0.40909999  0.16667619  0.60291049
   0.40917099  0.50000000  0.10229504
   0.40886717  0.50000000  0.60240518
   0.41042289  0.83267946  0.10151552
   0.40909999  0.83332381  0.60291049
   0.99568432  0.16660758  0.12571781
   0.99579819  0.16683700  0.62778049
   0.99587801  0.50000000  0.12753133
   0.99608091  0.50000000  0.62747168
   0.99568432  0.83339242  0.12571781
   0.99579819  0.83316300  0.62778049
   0.50280467  0.00000000  0.37222953
   0.50348341  0.00000000  0.87248301
   0.50445595  0.33398338  0.37299972
   0.50347348  0.33338360  0.87257660
   0.50445595  0.66601662  0.37299972
   0.50347348  0.66661640  0.87257660
   0.67212753  0.16661145  0.28017357
   0.67242119  0.16668275  0.78036714
   0.67281962  0.50000000  0.28011679
   0.67251854  0.50000000  0.78054032
   0.67212753  0.83338855  0.28017357
   0.67242119  0.83331725  0.78036714
   0.82727636  0.00000000  0.21993498
   0.82728892  0.00000000  0.71948060
   0.82736401  0.33327785  0.21979061
   0.82732407  0.33338584  0.71968831
   0.82736401  0.66672215  0.21979061
   0.82732407  0.66661416  0.71968831
   0.83048938  0.00000000  0.44603907
   0.83167998  0.00000000  0.94560580
   0.83068793  0.33378837  0.44608460
   0.83191722  0.33339038  0.94569937
   0.83068793  0.66621163  0.44608460
   0.83191722  0.66660962  0.94569937
   0.66827806  0.16665789  0.05400467
   0.66719554  0.16658256  0.55404512
   0.66909779  0.50000000  0.05385250
   0.66810095  0.50000000  0.55473738
   0.66827806  0.83334211  0.05400467
   0.66719554  0.83341744  0.55404512
   0.49699860  0.00000000  0.12635745
   0.49643056  0.00000000  0.62808617
   0.49750544  0.33419850  0.12611786
   0.49643161  0.33335335  0.62802438
   0.49750544  0.66580150  0.12611786
   0.49643161  0.66664665  0.62802438
   0.00187025  0.16734971  0.37449033
   0.00323984  0.16680469  0.87275091
   0.00310797  0.50000000  0.37333400
   0.00406167  0.50000000  0.87339456
   0.00187025  0.83265029  0.37449033
   0.00323984  0.83319531  0.87275091
   0.17216786  0.00000000  0.77998710
   0.17286675  0.33546640  0.28168159
   0.17231546  0.33309258  0.78077728
   0.17286675  0.66453360  0.28168159
   0.17231546  0.66690742  0.78077728
   0.33083779  0.17114600  0.21899062
   0.32702848  0.16649035  0.71924180
   0.32782975  0.50000000  0.21924835
   0.32727536  0.50000000  0.71955411
   0.33083779  0.82885400  0.21899062
   0.32702848  0.83350965  0.71924180
   0.33396760  0.16748387  0.44585045
   0.33239257  0.16676086  0.94537827
   0.33329527  0.50000000  0.44587478
   0.33167420  0.50000000  0.94583612
   0.33396760  0.83251613  0.44585045
   0.33239257  0.83323914  0.94537827
   0.17035876  0.00000000  0.05196568
   0.16581282  0.00000000  0.55363875
   0.16713473  0.33224983  0.05573952
   0.16772739  0.33345683  0.55442083
   0.16713473  0.66775017  0.05573952
   0.16772739  0.66654317  0.55442083
   0.17340208  0.00000000  0.27835708
 
 position of ions in cartesian coordinates  (Angst):
   0.00000000  7.66409737 -1.76973090
   0.00000000  6.27673234 -7.41970077
   3.04996117  7.66761511 -1.76787086
   3.04767115  6.27559055 -7.42132370
   6.09274088  7.66761511 -1.76787086
   6.09503090  6.27559055 -7.42132370
   1.52538253  9.36567580 -3.88707719
   1.52423760  7.99048895 -9.52976610
   4.57135103  9.37485316 -3.88337763
   4.57135103  7.99550942 -9.53055643
   7.61731952  9.36567580 -3.88707719
   7.61846445  7.99048895 -9.52976610
   1.52221112  6.15222457 -4.48933666
   1.52415855  4.77335611-10.14328918
   4.57135103  6.17211986 -4.49692492
   4.57135103  4.77431180-10.14466319
   7.62049093  6.15222457 -4.48933666
   7.61854351  4.77335611-10.14328918
   0.00000000 10.86811723 -1.15730052
   0.00000000  9.49269189 -6.80367952
   3.04972611 10.87253966 -1.15752897
   3.04875764  9.49005690 -6.80628729
   6.09297594 10.87253966 -1.15752897
   6.09394442  9.49005690 -6.80628729
   1.50637109  1.52996499 -1.80526921
   1.52186862  0.12839753 -7.41290129
   4.57135103  1.51275535 -1.77996362
   4.57135103  0.12985185 -7.42336400
   7.63633097  1.52996499 -1.80526921
   7.62083343  0.12839753 -7.41290129
   0.00000000  3.23027558 -3.85543505
   0.00000000  1.84851517 -9.52559817
   3.05481997  3.24857476 -3.87262430
   3.04923967  1.84923351 -9.52720037
   6.08788208  3.24857476 -3.87262430
   6.09346238  1.84923351 -9.52720037
   0.00000000  0.02743381 -4.45994908
   0.00000000 -1.37286008-10.13288350
   3.04465509  0.00922519 -4.49569463
   3.04443793 -1.36478866-10.15584123
   6.09804697  0.00922519 -4.49569463
   6.09826412 -1.36478866-10.15584123
   1.52976188  4.75916582 -1.14719617
   1.52387074  3.35492753 -6.81330918
   4.57135103  4.74163400 -1.15600527
   4.57135103  3.35346717 -6.80759883
   7.61294017  4.75916582 -1.14719617
   7.61883131  3.35492753 -6.81330918
   1.52324348 11.87945497 -1.42069894
   1.52534096 10.49101247 -7.09435751
   4.57135103 11.87681329 -1.44119306
   4.57135103 10.49533926 -7.09086779
   7.61945858 11.87945497 -1.42069894
   7.61736110 10.49101247 -7.09435751
   0.00000000  5.14425056 -4.20645341
   0.00000000  3.76775325 -9.85966675
   3.05351050  5.16239702 -4.21515707
   3.04802694  3.76737223 -9.86072442
   6.08919156  5.16239702 -4.21515707
   6.09467511  3.76737223 -9.86072442
   1.52327881  7.47845042 -3.16615683
   1.52393074  6.09739000 -8.81869312
   4.57135103  7.48710681 -3.16551521
   4.57135103  6.09810609 -8.82065021
   7.61942324  7.47845042 -3.16615683
   7.61877132  6.09739000 -8.81869312
   0.00000000  9.55050778 -2.48541875
   0.00000000  8.16778899 -8.13063273
   3.04706012  9.55198373 -2.48378728
   3.04804744  8.16764559 -8.13298001
   6.09564193  9.55198373 -2.48378728
   6.09465462  8.16764559 -8.13298001
   0.00000000  8.96404982 -5.04055267
   0.00000000  7.59573955-10.68600529
   3.05172765  8.96636207 -5.04106721
   3.04808890  7.59839391-10.68706266
   6.09097440  8.96636207 -5.04106721
   6.09461315  7.59839391-10.68706266
   1.52370340  8.05727185 -0.61029040
   1.52301475  6.65973522 -6.26109642
   4.57135103  8.06775986 -0.60857079
   4.57135103  6.66893770 -6.26891942
   7.61899865  8.05727185 -0.61029040
   7.61968730  6.65973522 -6.26109642
   0.00000000  5.75358756 -1.42792729
   0.00000000  4.35769538 -7.09781191
   3.05547728  5.76047507 -1.42521979
   3.04775033  4.35787933 -7.09711368
   6.08722477  5.76047507 -1.42521979
   6.09495172  4.35787933 -7.09711368
   1.53002857 -1.01371971 -4.23200198
   1.52504554 -2.37621617 -9.86269420
   4.57135103 -0.99531895 -4.21893469
   4.57135103 -2.36790552 -9.86996787
   7.61267348 -1.01371971 -4.23200198
   7.61765652 -2.37621617 -9.86269420
   0.00000000 -0.04490559 -8.81439841
   3.06706935  1.34311711 -3.18319853
   3.04536625 -0.04528047 -8.82332804
   6.07563270  1.34311711 -3.18319853
   6.09733581 -0.04528047 -8.82332804
   1.56473687  3.45662138 -2.47474682
   1.52217171  2.02501504 -8.12793412
   4.57135103  3.41896773 -2.47765935
   4.57135103  2.02718219 -8.13146350
   7.57796518  3.45662138 -2.47474682
   7.62053035  2.02501504 -8.12793412
   1.53125512  2.86704942 -5.03842116
   1.52464485  1.46488365-10.68343402
   4.57135103  2.85872556 -5.03869611
   4.57135103  1.45479416-10.68860810
   7.61144693  2.86704942 -5.03842116
   7.61805720  1.46488365-10.68343402
   0.00000000  1.94823165 -0.58724847
   0.00000000  0.50364295 -6.25650415
   3.03766117  1.89819196 -0.62989548
   3.04869645  0.52498974 -6.26534224
   6.10504088  1.89819196 -0.62989548
   6.09400560  0.52498974 -6.26534224
   0.00000000  1.35889437 -3.14562926
 


--------------------------------------------------------------------------------------------------------


 k-point   1 :   0.0000 0.0000 0.0000  plane waves:   27533
 k-point   2 :   0.5000 0.0000 0.0000  plane waves:   27522
 k-point   3 :   0.0000 0.5000 0.0000  plane waves:   27488
 k-point   4 :   0.5000 0.5000 0.0000  plane waves:   27488
 k-point   5 :   0.0000 0.0000 0.5000  plane waves:   27482
 k-point   6 :   0.5000 0.0000 0.5000  plane waves:   27476
 k-point   7 :   0.0000 0.5000 0.5000  plane waves:   27468
 k-point   8 :   0.5000 0.5000 0.5000  plane waves:   27564

 maximum and minimum number of plane-waves per node :     27564    27468

 maximum number of plane-waves:     27564
 maximum index in each direction: 
   IXMAX=   21   IYMAX=   15   IZMAX=   20
   IXMIN=  -21   IYMIN=  -16   IZMIN=  -20


 serial   3D FFT for wavefunctions
 parallel 3D FFT for charge:
    minimum data exchange during FFTs selected (reduces bandwidth)


 FFT grid for exact exchange (Hartree Fock) 
  NGX = 48; NGY = 36; NGZ = 48

 
 Radii for the augmentation spheres in the non-local exchange
 for species   1 augmentation radius   1.392 (default was   1.031)
       energy cutoff for augmentation   1800.0
 for species   2 augmentation radius   0.974 (default was   0.722)
       energy cutoff for augmentation   1800.0
 for species   3 augmentation radius   0.957 (default was   0.709)
       energy cutoff for augmentation   1800.0
 Maximum index for augmentation-charges in exchange           745
  SETUP_FOCK is finished

 total amount of memory used by VASP MPI-rank0  7269062. kBytes
=======================================================================

   base      :      30000. kBytes
   nonlr-proj:      32957. kBytes
   fftplans  :      51012. kBytes
   grid      :     102973. kBytes
   one-center:       1866. kBytes
   HF        :        194. kBytes
   wavefun   :    7050060. kBytes
 
     INWAV:  cpu time      0.0000: real time      0.0001
 Broyden mixing: mesh for mixing (old mesh)
   NGX = 43   NGY = 31   NGZ = 41
  (NGX  =128   NGY  = 96   NGZ  =120)
  gives a total of  54653 points

 charge density for first step will be calculated from the start-wavefunctions


--------------------------------------------------------------------------------------------------------


 Maximum index for non-local projection operator          1715
 Maximum index for augmentation-charges          5353 (set IRDMAX)


--------------------------------------------------------------------------------------------------------


 initial charge from wavefunction
 First call to EWALD:  gamma=   0.164
 Maximum number of real-space cells 3x 3x 3
 Maximum number of reciprocal cells 3x 2x 3

    FEWALD:  cpu time      0.1528: real time      0.1528


--------------------------------------- Ionic step        1  -------------------------------------------




--------------------------------------- Iteration      1(   1)  ---------------------------------------


    POTLOK:  cpu time      0.0321: real time      0.0321
    SETDIJ:  cpu time      0.2634: real time      0.2634
    TRIAL :  cpu time      2.9006: real time      2.9177
    CORREC:  cpu time      0.0015: real time      0.0015
    --------------------------------------------
      LOOP:  cpu time      4.0875: real time      4.1043

 eigenvalue-minimisations  : 10608
 total energy-change (2. order) :-0.1843478E+05  (-0.5420336E+05)
 number of electron    1054.9999345 magnetization 
 augmentation part      122.1117165 magnetization 

 Free energy of the ion-electron system (eV)
  ---------------------------------------------------
  alpha Z        PSCENC =      5530.94812622
  Ewald energy   TEWEN  =    -88767.09076828
  -Hartree energ DENC   =     -2111.07663853
  -exchange      EXHF   =         0.00000000
  -V(xc)+E(xc)   XCENC  =      2801.99690311
  PAW double counting   =     59811.91199313   -89014.54151948
  entropy T*S    EENTRO =        -0.00963891
  eigenvalues    EBANDS =    -40420.91559801
  atomic energy  EATOM  =    133733.99279260
  ---------------------------------------------------
  free energy    TOTEN  =    -18434.78434814 eV

  energy without entropy =   -18434.77470923  energy(sigma->0) =   -18434.77952869
  exchange ACFDT corr.  =         0.00000000  see jH, gK, PRB 81, 115126


--------------------------------------------------------------------------------------------------------




--------------------------------------- Iteration      1(   2)  ---------------------------------------


    TRIAL :  cpu time      3.1995: real time      3.1991
    CORREC:  cpu time      0.0016: real time      0.0016
    --------------------------------------------
      LOOP:  cpu time      3.2014: real time      3.2017

 eigenvalue-minimisations  : 13616
 total energy-change (2. order) :-0.4398095E+05  (-0.4267614E+05)
 number of electron    1054.9999345 magnetization 
 augmentation part      122.1117165 magnetization 

 Free energy of the ion-electron system (eV)
  ---------------------------------------------------
  alpha Z        PSCENC =      5530.94812622
  Ewald energy   TEWEN  =    -88767.09076828
  -Hartree energ DENC   =     -2111.07663853
  -exchange      EXHF   =         0.00000000
  -V(xc)+E(xc)   XCENC  =      2801.99690311
  PAW double counting   =     59811.91199313   -89014.54151948
  entropy T*S    EENTRO =        -0.02041979
  eigenvalues    EBANDS =    -84401.85254673
  atomic energy  EATOM  =    133733.99279260
  ---------------------------------------------------
  free energy    TOTEN  =    -62415.73207774 eV

  energy without entropy =   -62415.71165796  energy(sigma->0) =   -62415.72186785
  exchange ACFDT corr.  =         0.00000000  see jH, gK, PRB 81, 115126


--------------------------------------------------------------------------------------------------------




--------------------------------------- Iteration      1(   3)  ---------------------------------------


    TRIAL :  cpu time      3.3304: real time      3.3299
    CORREC:  cpu time      0.0017: real time      0.0017
    --------------------------------------------
      LOOP:  cpu time      3.3322: real time      3.3322

 eigenvalue-minimisations  : 14440
 total energy-change (2. order) :-0.4533406E+04  (-0.4046176E+04)
 number of electron    1054.9999345 magnetization 
 augmentation part      122.1117165 magnetization 

 Free energy of the ion-electron system (eV)
  ---------------------------------------------------
  alpha Z        PSCENC =      5530.94812622
  Ewald energy   TEWEN  =    -88767.09076828
  -Hartree energ DENC   =     -2111.07663853
  -exchange      EXHF   =         0.00000000
  -V(xc)+E(xc)   XCENC  =      2801.99690311
  PAW double counting   =     59811.91199313   -89014.54151948
  entropy T*S    EENTRO =        -0.04034676
  eigenvalues    EBANDS =    -88935.23816263
  atomic energy  EATOM  =    133733.99279260
  ---------------------------------------------------
  free energy    TOTEN  =    -66949.13762061 eV

  energy without entropy =   -66949.09727385  energy(sigma->0) =   -66949.11744723
  exchange ACFDT corr.  =         0.00000000  see jH, gK, PRB 81, 115126


--------------------------------------------------------------------------------------------------------




--------------------------------------- Iteration      1(   4)  ---------------------------------------


    TRIAL :  cpu time      3.7126: real time      3.7121
    CORREC:  cpu time      0.0017: real time      0.0017
    --------------------------------------------
      LOOP:  cpu time      3.7143: real time      3.7143

 eigenvalue-minimisations  : 17112
 total energy-change (2. order) :-0.5413091E+03  (-0.4563169E+03)
 number of electron    1054.9999345 magnetization 
 augmentation part      122.1117165 magnetization 

 Free energy of the ion-electron system (eV)
  ---------------------------------------------------
  alpha Z        PSCENC =      5530.94812622
  Ewald energy   TEWEN  =    -88767.09076828
  -Hartree energ DENC   =     -2111.07663853
  -exchange      EXHF   =         0.00000000
  -V(xc)+E(xc)   XCENC  =      2801.99690311
  PAW double counting   =     59811.91199313   -89014.54151948
  entropy T*S    EENTRO =        -0.03682968
  eigenvalues    EBANDS =    -89476.55082907
  atomic energy  EATOM  =    133733.99279260
  ---------------------------------------------------
  free energy    TOTEN  =    -67490.44676997 eV

  energy without entropy =   -67490.40994029  energy(sigma->0) =   -67490.42835513
  exchange ACFDT corr.  =         0.00000000  see jH, gK, PRB 81, 115126


--------------------------------------------------------------------------------------------------------




--------------------------------------- Iteration      1(   5)  ---------------------------------------


    POTLOK:  cpu time      1.3713: real time      1.3711
    SETDIJ:  cpu time      0.4730: real time      0.4729
    TRIAL :  cpu time    234.0049: real time    233.9684
    CORREC:  cpu time      0.0016: real time      0.0016
    CHARGE:  cpu time      0.2076: real time      0.2076
    --------------------------------------------
      LOOP:  cpu time    236.0585: real time    236.0223

 eigenvalue-minimisations  : 18990
 total energy-change (2. order) : 0.3011102E+05  (-0.7167583E+02)
 number of electron    1054.9998067 magnetization 
 augmentation part      493.2671437 magnetization 

 Free energy of the ion-electron system (eV)
  ---------------------------------------------------
  alpha Z        PSCENC =      5530.94812622
  Ewald energy   TEWEN  =    -88767.09076828
  -Hartree energ DENC   =     -2111.07663853
  -exchange      EXHF   =      4658.82210354
  -V(xc)+E(xc)   XCENC  =      1936.95412152
  PAW double counting   =     60454.48155832   -62530.12757622
  entropy T*S    EENTRO =        -0.01741312
  eigenvalues    EBANDS =    -90286.31087696
  atomic energy  EATOM  =    133733.99279260
  ---------------------------------------------------
  free energy    TOTEN  =    -37379.42457091 eV

  energy without entropy =   -37379.40715778  energy(sigma->0) =   -37379.41586434
  exchange ACFDT corr.  =        -0.06000529  see jH, gK, PRB 81, 115126


--------------------------------------------------------------------------------------------------------




--------------------------------------- Iteration      1(   6)  ---------------------------------------


    POTLOK:  cpu time      1.4176: real time      1.4174
    SETDIJ:  cpu time      0.4708: real time      0.4707
    TRIAL :  cpu time    232.5296: real time    232.5001
    CORREC:  cpu time    235.0128: real time    234.9817
    CHARGE:  cpu time      0.2064: real time      0.2064
    --------------------------------------------
      LOOP:  cpu time    469.6376: real time    469.5770

 eigenvalue-minimisations  :     0
 total energy-change (2. order) : 0.5677895E+05  (-0.1449678E+05)
 number of electron    1054.9998199 magnetization 
 augmentation part      488.4591806 magnetization 

 Free energy of the ion-electron system (eV)
  ---------------------------------------------------
  alpha Z        PSCENC =      5530.94812622
  Ewald energy   TEWEN  =    -88767.09076828
  -Hartree energ DENC   =    -65845.66716773
  -exchange      EXHF   =      4765.68705853
  -V(xc)+E(xc)   XCENC  =      3728.38557392
  PAW double counting   =    144671.75677543  -169211.21468788
  entropy T*S    EENTRO =        -0.01547804
  eigenvalues    EBANDS =     50792.74404482
  atomic energy  EATOM  =    133733.99279260
  ---------------------------------------------------
  free energy    TOTEN  =     19399.52433453 eV

  energy without entropy =    19399.53981256  energy(sigma->0) =    19399.53207355
  exchange ACFDT corr.  =        -0.05459211  see jH, gK, PRB 81, 115126


--------------------------------------------------------------------------------------------------------




--------------------------------------- Iteration      1(   7)  ---------------------------------------


    POTLOK:  cpu time      1.4900: real time      1.4898
    SETDIJ:  cpu time      0.4694: real time      0.4693
    TRIAL :  cpu time    232.8075: real time    232.7774
    CORREC:  cpu time    235.4498: real time    235.4141
    CHARGE:  cpu time      0.2171: real time      0.2170
    --------------------------------------------
      LOOP:  cpu time    470.4342: real time    470.3685

 eigenvalue-minimisations  :     0
 total energy-change (2. order) :-0.1370427E+05  (-0.2981944E+04)
 number of electron    1054.9998111 magnetization 
 augmentation part      467.0233526 magnetization 

 Free energy of the ion-electron system (eV)
  ---------------------------------------------------
  alpha Z        PSCENC =      5530.94812622
  Ewald energy   TEWEN  =    -88767.09076828
  -Hartree energ DENC   =    -45663.94625497
  -exchange      EXHF   =      4185.38314738
  -V(xc)+E(xc)   XCENC  =      3203.09930623
  PAW double counting   =    128799.60243827  -148835.32190895
  entropy T*S    EENTRO =        -0.04114402
  eigenvalues    EBANDS =     13508.59932753
  atomic energy  EATOM  =    133733.99279260
  ---------------------------------------------------
  free energy    TOTEN  =      5695.25072799 eV

  energy without entropy =     5695.29187201  energy(sigma->0) =     5695.27130000
  exchange ACFDT corr.  =      -192.47976341  see jH, gK, PRB 81, 115126


--------------------------------------------------------------------------------------------------------




--------------------------------------- Iteration      1(   8)  ---------------------------------------


    POTLOK:  cpu time      1.5190: real time      1.5188
    SETDIJ:  cpu time      0.4696: real time      0.4695
    TRIAL :  cpu time    233.6519: real time    233.6149
    CORREC:  cpu time    235.8525: real time    235.8292
    CHARGE:  cpu time      0.2240: real time      0.2240
    --------------------------------------------
      LOOP:  cpu time    471.7173: real time    471.6621

 eigenvalue-minimisations  :     0
 total energy-change (2. order) :-0.4243101E+04  (-0.6613678E+03)
 number of electron    1054.9998348 magnetization 
 augmentation part      450.8421331 magnetization 

 Free energy of the ion-electron system (eV)
  ---------------------------------------------------
  alpha Z        PSCENC =      5530.94812622
  Ewald energy   TEWEN  =    -88767.09076828
  -Hartree energ DENC   =    -37174.16561789
  -exchange      EXHF   =      3921.46136198
  -V(xc)+E(xc)   XCENC  =      2986.96325237
  PAW double counting   =    124959.09844639  -142361.08425105
  entropy T*S    EENTRO =        -0.02846452
  eigenvalues    EBANDS =     -1377.93270123
  atomic energy  EATOM  =    133733.99279260
  ---------------------------------------------------
  free energy    TOTEN  =      1452.14949710 eV

  energy without entropy =     1452.17796161  energy(sigma->0) =     1452.16372935
  exchange ACFDT corr.  =      -169.60641338  see jH, gK, PRB 81, 115126


--------------------------------------------------------------------------------------------------------




--------------------------------------- Iteration      1(   9)  ---------------------------------------


    POTLOK:  cpu time      1.5000: real time      1.4997
    SETDIJ:  cpu time      0.4703: real time      0.4702
    TRIAL :  cpu time    233.0090: real time    232.9780
    CORREC:  cpu time    235.1553: real time    235.1192
    CHARGE:  cpu time      0.2097: real time      0.2097
    --------------------------------------------
      LOOP:  cpu time    470.3455: real time    470.2784

 eigenvalue-minimisations  :     0
 total energy-change (2. order) :-0.3870245E+03  (-0.6195967E+03)
 number of electron    1054.9998393 magnetization 
 augmentation part      443.4464773 magnetization 

 Free energy of the ion-electron system (eV)
  ---------------------------------------------------
  alpha Z        PSCENC =      5530.94812622
  Ewald energy   TEWEN  =    -88767.09076828
  -Hartree energ DENC   =    -34185.90742526
  -exchange      EXHF   =      3795.57588110
  -V(xc)+E(xc)   XCENC  =      2888.61990034
  PAW double counting   =    123091.39527916  -138834.26944021
  entropy T*S    EENTRO =        -0.04569506
  eigenvalues    EBANDS =     -6188.11090192
  atomic energy  EATOM  =    133733.99279260
  ---------------------------------------------------
  free energy    TOTEN  =      1065.12497925 eV

  energy without entropy =     1065.17067431  energy(sigma->0) =     1065.14782678
  exchange ACFDT corr.  =      -118.35454271  see jH, gK, PRB 81, 115126


--------------------------------------------------------------------------------------------------------




--------------------------------------- Iteration      1(  10)  ---------------------------------------


    POTLOK:  cpu time      1.5380: real time      1.5378
    SETDIJ:  cpu time      0.4692: real time      0.4691
    TRIAL :  cpu time    233.1067: real time    233.0705
    CORREC:  cpu time    234.8775: real time    234.8454
    CHARGE:  cpu time      0.2129: real time      0.2129
    --------------------------------------------
      LOOP:  cpu time    470.2060: real time    470.1377

 eigenvalue-minimisations  :     0
 total energy-change (2. order) :-0.8317434E+03  (-0.5561538E+03)
 number of electron    1054.9998357 magnetization 
 augmentation part      446.1897095 magnetization 

 Free energy of the ion-electron system (eV)
  ---------------------------------------------------
  alpha Z        PSCENC =      5530.94812622
  Ewald energy   TEWEN  =    -88767.09076828
  -Hartree energ DENC   =    -32291.41001575
  -exchange      EXHF   =      3726.80335553
  -V(xc)+E(xc)   XCENC  =      2839.00358825
  PAW double counting   =    121209.20450799  -136201.27396033
  entropy T*S    EENTRO =        -0.01972468
  eigenvalues    EBANDS =     -9546.75038614
  atomic energy  EATOM  =    133733.99279260
  ---------------------------------------------------
  free energy    TOTEN  =       233.38154504 eV

  energy without entropy =      233.40126971  energy(sigma->0) =      233.39140738
  exchange ACFDT corr.  =      -136.82680161  see jH, gK, PRB 81, 115126


--------------------------------------------------------------------------------------------------------




--------------------------------------- Iteration      1(  11)  ---------------------------------------


    POTLOK:  cpu time      1.4929: real time      1.4927
    SETDIJ:  cpu time      0.4674: real time      0.4673
    TRIAL :  cpu time    232.9248: real time    232.8917
    CORREC:  cpu time    234.3390: real time    234.3072
    CHARGE:  cpu time      0.2130: real time      0.2130
    --------------------------------------------
      LOOP:  cpu time    469.4388: real time    469.3738

 eigenvalue-minimisations  :     0
 total energy-change (2. order) :-0.5243610E+03  (-0.3639568E+03)
[...]
   -.843E-05 0.615E+02 -.310E+02   -.104E-12 -.592E+02 0.329E+02   0.000E+00 -.203E+01 -.170E+01
   0.759E-04 0.566E+02 -.352E+02   0.769E-13 -.544E+02 0.369E+02   0.000E+00 -.197E+01 -.174E+01
   -.941E+01 0.629E+02 -.305E+02   0.914E+01 -.611E+02 0.320E+02   0.253E+00 -.157E+01 -.136E+01
   -.623E+01 0.606E+02 -.454E+02   0.623E+01 -.582E+02 0.464E+02   0.164E-01 -.205E+01 -.108E+01
   0.490E+01 -.356E+02 0.183E+02   -.481E+01 0.441E+02 -.209E+02   -.121E+00 -.721E+01 0.222E+01
   0.341E+00 -.218E+02 0.163E+02   -.358E+00 0.291E+02 -.204E+02   0.177E-01 -.624E+01 0.357E+01
   -.107E-03 -.249E+02 0.168E+02   -.106E-12 0.324E+02 -.206E+02   0.000E+00 -.643E+01 0.321E+01
   -.175E-04 -.220E+02 0.171E+02   -.110E-12 0.293E+02 -.211E+02   0.000E+00 -.626E+01 0.339E+01
   -.490E+01 -.356E+02 0.183E+02   0.481E+01 0.441E+02 -.209E+02   0.121E+00 -.721E+01 0.222E+01
   -.341E+00 -.218E+02 0.163E+02   0.358E+00 0.291E+02 -.204E+02   -.177E-01 -.624E+01 0.357E+01
   0.877E-05 0.269E+02 -.139E+02   -.475E-15 -.342E+02 0.174E+02   0.000E+00 0.622E+01 -.302E+01
   -.501E-05 0.208E+02 -.166E+02   -.711E-14 -.282E+02 0.204E+02   0.000E+00 0.637E+01 -.334E+01
   0.556E+00 0.226E+02 -.133E+02   -.384E+00 -.300E+02 0.169E+02   -.152E+00 0.634E+01 -.315E+01
   -.710E-01 0.208E+02 -.167E+02   0.776E-01 -.281E+02 0.205E+02   -.780E-04 0.633E+01 -.332E+01
   -.556E+00 0.226E+02 -.133E+02   0.384E+00 -.300E+02 0.169E+02   0.152E+00 0.634E+01 -.315E+01
   0.710E-01 0.208E+02 -.167E+02   -.776E-01 -.281E+02 0.205E+02   0.780E-04 0.633E+01 -.332E+01
   0.680E+00 0.674E+02 0.365E+02   -.589E+00 -.656E+02 -.317E+02   -.774E-01 -.158E+01 -.412E+01
   0.703E+00 0.661E+02 0.371E+02   -.753E+00 -.642E+02 -.324E+02   0.483E-01 -.166E+01 -.404E+01
   -.244E-04 0.685E+02 0.357E+02   -.483E-13 -.667E+02 -.309E+02   0.000E+00 -.158E+01 -.413E+01
   0.215E-06 0.655E+02 0.375E+02   -.379E-13 -.635E+02 -.329E+02   0.000E+00 -.178E+01 -.400E+01
   -.680E+00 0.674E+02 0.365E+02   0.589E+00 -.656E+02 -.317E+02   0.774E-01 -.158E+01 -.412E+01
   -.703E+00 0.661E+02 0.371E+02   0.753E+00 -.642E+02 -.324E+02   -.483E-01 -.166E+01 -.404E+01
   0.399E-04 -.773E+02 -.331E+02   0.200E-13 0.754E+02 0.280E+02   0.000E+00 0.160E+01 0.437E+01
   0.124E-05 -.692E+02 -.362E+02   0.422E-13 0.674E+02 0.315E+02   0.000E+00 0.153E+01 0.400E+01
   0.365E+01 -.748E+02 -.346E+02   -.374E+01 0.730E+02 0.297E+02   0.725E-01 0.155E+01 0.425E+01
   0.581E+00 -.694E+02 -.354E+02   -.615E+00 0.675E+02 0.308E+02   0.325E-01 0.164E+01 0.402E+01
   -.365E+01 -.748E+02 -.346E+02   0.374E+01 0.730E+02 0.297E+02   -.725E-01 0.155E+01 0.425E+01
   -.581E+00 -.694E+02 -.354E+02   0.615E+00 0.675E+02 0.308E+02   -.325E-01 0.164E+01 0.402E+01
   0.144E-04 0.117E+03 0.618E+02   0.106E-13 -.130E+03 -.582E+02   0.000E+00 0.111E+02 -.303E+01
   0.571E-04 0.115E+03 0.660E+02   0.200E-14 -.127E+03 -.625E+02   0.000E+00 0.108E+02 -.305E+01
   0.162E+01 0.119E+03 0.630E+02   -.159E+01 -.131E+03 -.595E+02   -.233E-01 0.111E+02 -.300E+01
   0.116E+01 0.115E+03 0.644E+02   -.119E+01 -.128E+03 -.609E+02   0.198E-01 0.109E+02 -.304E+01
   -.162E+01 0.119E+03 0.630E+02   0.159E+01 -.131E+03 -.595E+02   0.233E-01 0.111E+02 -.300E+01
   -.116E+01 0.115E+03 0.644E+02   0.119E+01 -.128E+03 -.609E+02   -.198E-01 0.109E+02 -.304E+01
   0.111E+01 -.123E+03 -.626E+02   -.113E+01 0.135E+03 0.591E+02   0.175E-01 -.109E+02 0.300E+01
   0.624E+00 -.117E+03 -.637E+02   -.549E+00 0.130E+03 0.603E+02   -.622E-01 -.107E+02 0.292E+01
   -.276E-04 -.123E+03 -.640E+02   -.102E-12 0.136E+03 0.605E+02   0.000E+00 -.111E+02 0.295E+01
   0.309E-05 -.117E+03 -.623E+02   -.286E-13 0.130E+03 0.588E+02   0.000E+00 -.108E+02 0.305E+01
   -.111E+01 -.123E+03 -.626E+02   0.113E+01 0.135E+03 0.591E+02   -.175E-01 -.109E+02 0.300E+01
   -.624E+00 -.117E+03 -.637E+02   0.549E+00 0.130E+03 0.603E+02   0.622E-01 -.107E+02 0.292E+01
   0.158E-04 -.825E+01 0.153E+02   0.754E-13 0.154E+02 -.189E+02   0.000E+00 -.619E+01 0.314E+01
   -.458E-04 -.123E+02 0.998E+01   0.595E-13 0.197E+02 -.141E+02   0.000E+00 -.641E+01 0.355E+01
   -.699E+00 -.126E+02 0.129E+02   0.830E+00 0.198E+02 -.164E+02   -.125E+00 -.627E+01 0.297E+01
   0.431E+00 -.134E+02 0.128E+02   -.349E+00 0.207E+02 -.169E+02   -.675E-01 -.633E+01 0.352E+01
   0.699E+00 -.126E+02 0.129E+02   -.830E+00 0.198E+02 -.164E+02   0.125E+00 -.627E+01 0.297E+01
   -.431E+00 -.134E+02 0.128E+02   0.349E+00 0.207E+02 -.169E+02   0.675E-01 -.633E+01 0.352E+01
   0.102E+02 0.221E+01 -.124E+02   -.111E+02 -.908E+01 0.149E+02   0.728E+00 0.601E+01 -.213E+01
   -.835E+00 0.134E+02 -.859E+01   0.109E+01 -.207E+02 0.123E+02   -.219E+00 0.631E+01 -.325E+01
   -.238E-04 0.960E+01 -.145E+02   0.321E-13 -.166E+02 0.180E+02   0.000E+00 0.607E+01 -.306E+01
   -.477E-04 0.134E+02 -.123E+02   0.267E-13 -.207E+02 0.162E+02   0.000E+00 0.622E+01 -.335E+01
   -.102E+02 0.221E+01 -.124E+02   0.111E+02 -.908E+01 0.149E+02   -.728E+00 0.601E+01 -.213E+01
   0.835E+00 0.134E+02 -.859E+01   -.109E+01 -.207E+02 0.123E+02   0.219E+00 0.631E+01 -.325E+01
   0.564E-05 0.644E+02 0.381E+02   -.196E-13 -.624E+02 -.335E+02   0.000E+00 -.176E+01 -.402E+01
   0.109E+02 0.666E+02 0.388E+02   -.108E+02 -.645E+02 -.342E+02   -.153E+00 -.183E+01 -.397E+01
   0.149E+01 0.678E+02 0.376E+02   -.167E+01 -.660E+02 -.327E+02   0.154E+00 -.153E+01 -.414E+01
   -.109E+02 0.666E+02 0.388E+02   0.108E+02 -.645E+02 -.342E+02   0.153E+00 -.183E+01 -.397E+01
   -.149E+01 0.678E+02 0.376E+02   0.167E+01 -.660E+02 -.327E+02   -.154E+00 -.153E+01 -.414E+01
   0.893E+01 -.502E+02 -.353E+02   -.902E+01 0.478E+02 0.306E+02   -.343E-02 0.190E+01 0.397E+01
   0.618E+00 -.606E+02 -.425E+02   -.546E+00 0.583E+02 0.377E+02   -.589E-01 0.196E+01 0.412E+01
   -.353E-04 -.583E+02 -.430E+02   -.355E-13 0.560E+02 0.387E+02   0.000E+00 0.193E+01 0.367E+01
   0.136E-04 -.629E+02 -.416E+02   -.887E-13 0.610E+02 0.371E+02   0.000E+00 0.169E+01 0.388E+01
   -.893E+01 -.502E+02 -.353E+02   0.902E+01 0.478E+02 0.306E+02   0.343E-02 0.190E+01 0.397E+01
   -.618E+00 -.606E+02 -.425E+02   0.546E+00 0.583E+02 0.377E+02   0.589E-01 0.196E+01 0.412E+01
   0.103E+02 0.128E+03 0.549E+02   -.104E+02 -.139E+03 -.512E+02   0.175E-01 0.976E+01 -.304E+01
   0.153E+01 0.128E+03 0.651E+02   -.164E+01 -.141E+03 -.617E+02   0.107E+00 0.110E+02 -.293E+01
   0.373E-04 0.126E+03 0.628E+02   0.237E-13 -.138E+03 -.592E+02   0.000E+00 0.108E+02 -.306E+01
   0.222E-04 0.127E+03 0.639E+02   -.307E-13 -.140E+03 -.604E+02   0.000E+00 0.109E+02 -.301E+01
   -.103E+02 0.128E+03 0.549E+02   0.104E+02 -.139E+03 -.512E+02   -.175E-01 0.976E+01 -.304E+01
   -.153E+01 0.128E+03 0.651E+02   0.164E+01 -.141E+03 -.617E+02   -.107E+00 0.110E+02 -.293E+01
   0.313E-03 -.119E+03 -.469E+02   0.715E-13 0.132E+03 0.427E+02   0.000E+00 -.114E+02 0.347E+01
   -.139E-04 -.122E+03 -.788E+02   -.709E-14 0.134E+03 0.765E+02   0.000E+00 -.101E+02 0.207E+01
   0.702E+01 -.115E+03 -.592E+02   -.739E+01 0.127E+03 0.555E+02   0.306E+00 -.104E+02 0.317E+01
   0.175E+01 -.125E+03 -.676E+02   -.160E+01 0.138E+03 0.642E+02   -.132E+00 -.109E+02 0.296E+01
   -.702E+01 -.115E+03 -.592E+02   0.739E+01 0.127E+03 0.555E+02   -.306E+00 -.104E+02 0.317E+01
   -.175E+01 -.125E+03 -.676E+02   0.160E+01 0.138E+03 0.642E+02   0.132E+00 -.109E+02 0.296E+01
   0.982E-03 0.595E+02 0.399E+02   0.338E-13 -.583E+02 -.378E+02   0.000E+00 -.126E+01 -.213E+01
 -----------------------------------------------------------------------------------------------
   -.824E-03 0.276E+01 -.542E+01   0.206E-12 0.198E-11 0.000E+00   0.000E+00 -.228E+01 0.460E+01
 
 
 POSITION                                       TOTAL-FORCE (eV/Angst)
 -----------------------------------------------------------------------------------
      0.00000      7.66410     -1.76973         0.000000      0.085248      0.023128
      0.00000      6.27673     -7.41970         0.000000      0.062429      0.001174
      3.04996      7.66762     -1.76787        -0.003080      0.076822      0.023761
      3.04767      6.27559     -7.42132        -0.012518      0.065740     -0.008515
      6.09274      7.66762     -1.76787         0.003080      0.076822      0.023761
      6.09503      6.27559     -7.42132         0.012518      0.065740     -0.008515
      1.52538      9.36568     -3.88708        -0.017715     -0.099792     -0.017197
      1.52424      7.99049     -9.52977        -0.009628     -0.073738     -0.006390
      4.57135      9.37485     -3.88338         0.000000     -0.098311     -0.013472
      4.57135      7.99551     -9.53056         0.000000     -0.078498     -0.001633
      7.61732      9.36568     -3.88708         0.017715     -0.099792     -0.017197
      7.61846      7.99049     -9.52977         0.009628     -0.073738     -0.006390
      1.52221      6.15222     -4.48934         0.015976      0.010541     -0.025974
      1.52416      4.77336    -10.14329        -0.011438     -0.028595      0.033744
      4.57135      6.17212     -4.49692         0.000000     -0.016387      0.000435
      4.57135      4.77431    -10.14466         0.000000     -0.025342      0.035098
      7.62049      6.15222     -4.48934        -0.015976      0.010541     -0.025974
      7.61854      4.77336    -10.14329         0.011438     -0.028595      0.033744
      0.00000     10.86812     -1.15730         0.000000     -0.013401      0.057514
      0.00000      9.49269     -6.80368         0.000000      0.008373     -0.027535
      3.04973     10.87254     -1.15753        -0.001116      0.010969      0.024586
      3.04876      9.49006     -6.80629        -0.011944      0.011107     -0.041658
      6.09298     10.87254     -1.15753         0.001116      0.010969      0.024586
      6.09394      9.49006     -6.80629         0.011944      0.011107     -0.041658
      1.50637      1.52996     -1.80527         0.446992      0.090813      0.560319
      1.52187      0.12840     -7.41290        -0.006476      0.047486     -0.012751
      4.57135      1.51276     -1.77996         0.000000      0.056020      0.102976
      4.57135      0.12985     -7.42336         0.000000      0.054715     -0.015778
      7.63633      1.52996     -1.80527        -0.446992      0.090813      0.560319
      7.62083      0.12840     -7.41290         0.006476      0.047486     -0.012751
      0.00000      3.23028     -3.85544         0.000000      0.652205     -0.313455
      0.00000      1.84852     -9.52560         0.000000     -0.045091     -0.018369
      3.05482      3.24857     -3.87262         0.066774      0.018049     -0.066773
      3.04924      1.84923     -9.52720        -0.018718     -0.056018     -0.012199
      6.08788      3.24857     -3.87262        -0.066774      0.018049     -0.066773
      6.09346      1.84923     -9.52720         0.018718     -0.056018     -0.012199
      0.00000      0.02743     -4.45995         0.000000     -0.523689     -0.506839
      0.00000     -1.37286    -10.13288         0.000000     -0.052945      0.071189
      3.04466      0.00923     -4.49569         0.034637     -0.085744     -0.067627
      3.04444     -1.36479    -10.15584        -0.010789     -0.055728      0.044781
      6.09805      0.00923     -4.49569        -0.034637     -0.085744     -0.067627
      6.09826     -1.36479    -10.15584         0.010789     -0.055728      0.044781
      1.52976      4.75917     -1.14720         0.003024      0.091773      0.104291
      1.52387      3.35493     -6.81331        -0.014823      0.072167     -0.100323
      4.57135      4.74163     -1.15601         0.000000      0.057271      0.032383
      4.57135      3.35347     -6.80760         0.000000      0.055032     -0.064380
      7.61294      4.75917     -1.14720        -0.003024      0.091773      0.104291
      7.61883      3.35493     -6.81331         0.014823      0.072167     -0.100323
      1.52324     11.87945     -1.42070        -0.066428     -0.080300     -0.007956
      1.52534     10.49101     -7.09436         0.004953     -0.156985      0.134697
      4.57135     11.87681     -1.44119         0.000000     -0.145743      0.089141
      4.57135     10.49534     -7.09087         0.000000     -0.159755      0.130511
      7.61946     11.87945     -1.42070         0.066428     -0.080300     -0.007956
      7.61736     10.49101     -7.09436        -0.004953     -0.156985      0.134697
      0.00000      5.14425     -4.20645         0.000000      0.106648     -0.079376
      0.00000      3.76775     -9.85967         0.000000      0.170840     -0.132218
      3.05351      5.16240     -4.21516        -0.011008      0.140511     -0.096861
      3.04803      3.76737     -9.86072         0.006879      0.167556     -0.127670
      6.08919      5.16240     -4.21516         0.011008      0.140511     -0.096861
      6.09468      3.76737     -9.86072        -0.006879      0.167556     -0.127670
      1.52328      7.47845     -3.16616        -0.001892     -0.039870     -0.114927
      1.52393      6.09739     -8.81869         0.007201     -0.029955     -0.112459
      4.57135      7.48711     -3.16552         0.000000     -0.034702     -0.114209
      4.57135      6.09811     -8.82065         0.000000     -0.032738     -0.108313
      7.61942      7.47845     -3.16616         0.001892     -0.039870     -0.114927
      7.61877      6.09739     -8.81869        -0.007201     -0.029955     -0.112459
      0.00000      9.55051     -2.48542         0.000000      0.046208      0.119629
      0.00000      8.16779     -8.13063         0.000000      0.031279      0.112909
      3.04706      9.55198     -2.48379         0.000237      0.046751      0.112318
      3.04805      8.16765     -8.13298         0.005981      0.036125      0.113302
      6.09564      9.55198     -2.48379        -0.000237      0.046751      0.112318
      6.09465      8.16765     -8.13298        -0.005981      0.036125      0.113302
      0.00000      8.96405     -5.04055         0.000000      0.414831     -0.056253
      0.00000      7.59574    -10.68601         0.000000      0.398849     -0.087993
      3.05173      8.96636     -5.04107        -0.003629      0.422357     -0.053537
      3.04809      7.59839    -10.68706         0.001014      0.404792     -0.096518
      6.09097      8.96636     -5.04107         0.003629      0.422357     -0.053537
      6.09461      7.59839    -10.68706        -0.001014      0.404792     -0.096518
      1.52370      8.05727     -0.61029         0.002342     -0.401809      0.053652
      1.52301      6.65974     -6.26110         0.001461     -0.395511      0.084696
      4.57135      8.06776     -0.60857         0.000000     -0.412482      0.049506
      4.57135      6.66894     -6.26892         0.000000     -0.398544      0.091971
      7.61900      8.05727     -0.61029        -0.002342     -0.401809      0.053652
      7.61969      6.65974     -6.26110        -0.001461     -0.395511      0.084696
      0.00000      5.75359     -1.42793         0.000000     -0.202691      0.094192
      0.00000      4.35770     -7.09781         0.000000     -0.196109      0.160831
      3.05548      5.76048     -1.42522        -0.020596     -0.208392      0.093061
      3.04775      4.35788     -7.09711         0.001475     -0.194327      0.152155
      6.08722      5.76048     -1.42522         0.020596     -0.208392      0.093061
      6.09495      4.35788     -7.09711        -0.001475     -0.194327      0.152155
      1.53003     -1.01372     -4.23200        -0.036939      0.301950     -0.058838
      1.52505     -2.37622     -9.86269        -0.007344      0.197907     -0.127464
      4.57135     -0.99532     -4.21893         0.000000      0.196151     -0.101279
      4.57135     -2.36791     -9.86997         0.000000      0.180359     -0.132894
      7.61267     -1.01372     -4.23200         0.036939      0.301950     -0.058838
      7.61766     -2.37622     -9.86269         0.007344      0.197907     -0.127464
      0.00000     -0.04491     -8.81440         0.000000     -0.032431     -0.106194
      3.06707      1.34312     -3.18320        -0.140278     -0.021491     -0.101705
      3.04537     -0.04528     -8.82333         0.011891     -0.028868     -0.111282
      6.07563      1.34312     -3.18320         0.140278     -0.021491     -0.101705
      6.09734     -0.04528     -8.82333        -0.011891     -0.028868     -0.111282
      1.56474      3.45662     -2.47475        -0.126228     -0.145819      0.011156
      1.52217      2.02502     -8.12793         0.002432      0.030099      0.135468
      4.57135      3.41897     -2.47766         0.000000      0.013100      0.076836
      4.57135      2.02718     -8.13146         0.000000      0.020951      0.117404
      7.57797      3.45662     -2.47475         0.126228     -0.145819      0.011156
      7.62053      2.02502     -8.12793        -0.002432      0.030099      0.135468
      1.53126      2.86705     -5.03842        -0.079513      0.270171      0.093241
      1.52464      1.46488    -10.68343         0.013937      0.397908     -0.089702
      4.57135      2.85873     -5.03870         0.000000      0.374257     -0.024776
      4.57135      1.45479    -10.68861         0.000000      0.390601     -0.087085
      7.61145      2.86705     -5.03842         0.079513      0.270171      0.093241
      7.61806      1.46488    -10.68343        -0.013937      0.397908     -0.089702
      0.00000      1.94823     -0.58725         0.000000     -0.434907     -0.158545
      0.00000      0.50364     -6.25650         0.000000     -0.344385      0.140191
      3.03766      1.89819     -0.62990        -0.007389     -0.368495      0.020947
      3.04870      0.52499     -6.26534        -0.006083     -0.394126      0.103379
      6.10504      1.89819     -0.62990         0.007389     -0.368495      0.020947
      6.09401      0.52499     -6.26534         0.006083     -0.394126      0.103379
      0.00000      1.35889     -3.14563         0.000000     -0.219278     -0.238872
 -----------------------------------------------------------------------------------
    total drift:                               -0.000824      0.043615      0.013152


--------------------------------------------------------------------------------------------------------



  FREE ENERGIE OF THE ION-ELECTRON SYSTEM (eV)
  ---------------------------------------------------
  free  energy   TOTEN  =      -955.24021491 eV

  energy  without entropy=     -955.21659150  energy(sigma->0) =     -955.22840321
 


--------------------------------------------------------------------------------------------------------


    POTLOK:  cpu time      1.9432: real time      1.9494


--------------------------------------------------------------------------------------------------------


 writing wavefunctions
     LOOP+:  cpu time  20754.2900: real time  20751.6858
    4ORBIT:  cpu time      0.0000: real time      0.0000

 total amount of memory used by VASP MPI-rank0  7512480. kBytes
=======================================================================

   base      :      30000. kBytes
   nonlr-proj:      47105. kBytes
   fftplans  :      51012. kBytes
   grid      :     102973. kBytes
   one-center:       1866. kBytes
   HF        :        194. kBytes
   wavefun   :    7050060. kBytes
   fock_wrk  :     229270. kBytes
 
  
  
 General timing and accounting informations for this job:
 ========================================================
  
                  Total CPU time used (sec):    20786.113
                            User time (sec):    20768.423
                          System time (sec):       17.690
                         Elapsed time (sec):    20785.183
  
                   Maximum memory used (kb):    13312448.
                   Average memory used (kb):          N/A
  
                          Minor page faults:      4455653
                          Major page faults:            7
                 Voluntary context switches:       380946
