<?xml version="1.0" encoding="ISO-8859-1"?>
<modeling>
 <generator>
  <i name="program" type="string">vasp </i>
  <i name="version" type="string">6.4.2  </i>
  <i name="subversion" type="string">20Jul23 (build Nov 12 2023 22:16:35) complex                          parallel </i>
  <i name="platform" type="string">LinuxNV </i>
  <i name="date" type="string">2025 03 22 </i>
  <i name="time" type="string">11:13:38 </i>
 </generator>
 <incar>
  <i type="int" name="ISTART">     0</i>
  <i type="string" name="PREC">Normal</i>
  <i type="string" name="ALGO">All</i>
  <i type="int" name="ISPIN">     1</i>
  <i type="int" name="ICHARG">     0</i>
  <i type="int" name="NELM">   500</i>
  <i type="int" name="IBRION">    -1</i>
  <i name="EDIFF">      0.00001000</i>
  <i name="EDIFFG">     -0.00500000</i>
  <i type="int" name="NSW">     0</i>
  <i type="int" name="ISIF">     2</i>
  <i name="ENCUT">    450.00000000</i>
  <i type="string" name="LREAL">Auto</i>
  <i type="logical" name="LPLANE"> T  </i>
  <i name="TIME">      0.40000000</i>
  <i type="int" name="ISMEAR">     0</i>
  <i name="SIGMA">      0.05000000</i>
  <i type="logical" name="LWAVE"> T  </i>
  <i type="logical" name="LCHARG"> T  </i>
  <i name="HFSCREEN">      0.20000000</i>
  <i type="logical" name="LHFCALC"> T  </i>
  <i type="int" name="LMAXFOCK">     4</i>
  <i name="AEXX">      0.32000000</i>
  <i type="string" name="PRECFOCK">Fast</i>
 </incar>
 <primitive_cell>
  <structure name="primitive_cell" >
   <crystal>
    <varray name="basis" >
     <v>       0.00000000      12.28047342       0.00000000 </v>
     <v>       9.14270205       0.00000000       0.00000000 </v>
     <v>       0.00000000      -2.76826177     -11.30069772 </v>
    </varray>
    <i name="volume">   1268.80515525 </i>
    <varray name="rec_basis" >
     <v>       0.00000000       0.08143009      -0.01994742 </v>
     <v>       0.10937686      -0.00000000       0.00000000 </v>
     <v>       0.00000000       0.00000000      -0.08849011 </v>
    </varray>
   </crystal>
   <varray name="positions" >
    <v>       0.65938967       0.00000000       0.15660368 </v>
    <v>       0.65911876       0.00000000       0.65657015 </v>
    <v>       0.65963902       0.33359516       0.15643909 </v>
    <v>       0.65905815       0.33334469       0.65671376 </v>
    <v>       0.65963902       0.66640484       0.15643909 </v>
    <v>       0.65905815       0.66665531       0.65671376 </v>
    <v>       0.84018495       0.16684154       0.34396789 </v>
    <v>       0.84076047       0.16671632       0.84329006 </v>
    <v>       0.84085847       0.50000000       0.34364052 </v>
    <v>       0.84118505       0.50000000       0.84336000 </v>
    <v>       0.84018495       0.83315846       0.34396789 </v>
    <v>       0.84076047       0.83328368       0.84329006 </v>
    <v>       0.59052687       0.16649467       0.39726190 </v>
    <v>       0.59102727       0.16670767       0.89758079 </v>
    <v>       0.59229831       0.50000000       0.39793339 </v>
    <v>       0.59113250       0.50000000       0.89770238 </v>
    <v>       0.59052687       0.83350533       0.39726190 </v>
    <v>       0.59102727       0.83329233       0.89758079 </v>
    <v>       0.90807688       0.00000000       0.10240965 </v>
    <v>       0.90870658       0.00000000       0.60205836 </v>
    <v>       0.90844155       0.33356945       0.10242987 </v>
    <v>       0.90854403       0.33346352       0.60228912 </v>
    <v>       0.90844155       0.66643055       0.10242987 </v>
    <v>       0.90854403       0.66653648       0.60228912 </v>
    <v>       0.16059565       0.16476213       0.15974847 </v>
    <v>       0.15832370       0.16645720       0.65596846 </v>
    <v>       0.15868948       0.50000000       0.15750918 </v>
    <v>       0.15865083       0.50000000       0.65689431 </v>
    <v>       0.16059565       0.83523787       0.15974847 </v>
    <v>       0.15832370       0.83354280       0.65596846 </v>
    <v>       0.33994761       0.00000000       0.34116788 </v>
    <v>       0.34053588       0.00000000       0.84292124 </v>
    <v>       0.34178059       0.33412660       0.34268896 </v>
    <v>       0.34062633       0.33351625       0.84306302 </v>
    <v>       0.34178059       0.66587340       0.34268896 </v>
    <v>       0.34062633       0.66648375       0.84306302 </v>
    <v>       0.09119843       0.00000000       0.39466139 </v>
    <v>       0.09033280       0.00000000       0.89665999 </v>
    <v>       0.09042873       0.33301480       0.39782452 </v>
    <v>       0.09144800       0.33299105       0.89869152 </v>
    <v>       0.09042873       0.66698520       0.39782452 </v>
    <v>       0.09144800       0.66700895       0.89869152 </v>
    <v>       0.41042289       0.16732054       0.10151552 </v>
    <v>       0.40909999       0.16667619       0.60291049 </v>
    <v>       0.40917099       0.50000000       0.10229504 </v>
    <v>       0.40886717       0.50000000       0.60240518 </v>
    <v>       0.41042289       0.83267946       0.10151552 </v>
    <v>       0.40909999       0.83332381       0.60291049 </v>
    <v>       0.99568432       0.16660758       0.12571781 </v>
    <v>       0.99579819       0.16683700       0.62778049 </v>
    <v>       0.99587801       0.50000000       0.12753133 </v>
    <v>       0.99608091       0.50000000       0.62747168 </v>
    <v>       0.99568432       0.83339242       0.12571781 </v>
    <v>       0.99579819       0.83316300       0.62778049 </v>
    <v>       0.50280467       0.00000000       0.37222953 </v>
    <v>       0.50348341       0.00000000       0.87248301 </v>
    <v>       0.50445595       0.33398338       0.37299972 </v>
    <v>       0.50347348       0.33338360       0.87257660 </v>
    <v>       0.50445595       0.66601662       0.37299972 </v>
    <v>       0.50347348       0.66661640       0.87257660 </v>
    <v>       0.67212753       0.16661145       0.28017357 </v>
    <v>       0.67242119       0.16668275       0.78036714 </v>
    <v>       0.67281962       0.50000000       0.28011679 </v>
    <v>       0.67251854       0.50000000       0.78054032 </v>
    <v>       0.67212753       0.83338855       0.28017357 </v>
    <v>       0.67242119       0.83331725       0.78036714 </v>
    <v>       0.82727636       0.00000000       0.21993498 </v>
    <v>       0.82728892       0.00000000       0.71948060 </v>
    <v>       0.82736401       0.33327785       0.21979061 </v>
    <v>       0.82732407       0.33338584       0.71968831 </v>
    <v>       0.82736401       0.66672215       0.21979061 </v>
    <v>       0.82732407       0.66661416       0.71968831 </v>
    <v>       0.83048938       0.00000000       0.44603907 </v>
    <v>       0.83167998       0.00000000       0.94560580 </v>
    <v>       0.83068793       0.33378837       0.44608460 </v>
    <v>       0.83191722       0.33339038       0.94569937 </v>
    <v>       0.83068793       0.66621163       0.44608460 </v>
    <v>       0.83191722       0.66660962       0.94569937 </v>
    <v>       0.66827806       0.16665789       0.05400467 </v>
    <v>       0.66719554       0.16658256       0.55404512 </v>
    <v>       0.66909779       0.50000000       0.05385250 </v>
    <v>       0.66810095       0.50000000       0.55473738 </v>
    <v>       0.66827806       0.83334211       0.05400467 </v>
    <v>       0.66719554       0.83341744       0.55404512 </v>
    <v>       0.49699860       0.00000000       0.12635745 </v>
    <v>       0.49643056       0.00000000       0.62808617 </v>
    <v>       0.49750544       0.33419850       0.12611786 </v>
    <v>       0.49643161       0.33335335       0.62802438 </v>
    <v>       0.49750544       0.66580150       0.12611786 </v>
    <v>       0.49643161       0.66664665       0.62802438 </v>
    <v>       0.00187025       0.16734971       0.37449033 </v>
    <v>       0.00323984       0.16680469       0.87275091 </v>
    <v>       0.00310797       0.50000000       0.37333400 </v>
    <v>       0.00406167       0.50000000       0.87339456 </v>
    <v>       0.00187025       0.83265029       0.37449033 </v>
    <v>       0.00323984       0.83319531       0.87275091 </v>
    <v>       0.17216786       0.00000000       0.77998710 </v>
    <v>       0.17286675       0.33546640       0.28168159 </v>
    <v>       0.17231546       0.33309258       0.78077728 </v>
    <v>       0.17286675       0.66453360       0.28168159 </v>
    <v>       0.17231546       0.66690742       0.78077728 </v>
    <v>       0.33083779       0.17114600       0.21899062 </v>
    <v>       0.32702848       0.16649035       0.71924180 </v>
    <v>       0.32782975       0.50000000       0.21924835 </v>
    <v>       0.32727536       0.50000000       0.71955411 </v>
    <v>       0.33083779       0.82885400       0.21899062 </v>
    <v>       0.32702848       0.83350965       0.71924180 </v>
    <v>       0.33396760       0.16748387       0.44585045 </v>
    <v>       0.33239257       0.16676086       0.94537827 </v>
    <v>       0.33329527       0.50000000       0.44587478 </v>
    <v>       0.33167420       0.50000000       0.94583612 </v>
    <v>       0.33396760       0.83251613       0.44585045 </v>
    <v>       0.33239257       0.83323914       0.94537827 </v>
    <v>       0.17035876       0.00000000       0.05196568 </v>
    <v>       0.16581282       0.00000000       0.55363875 </v>
    <v>       0.16713473       0.33224983       0.05573952 </v>
    <v>       0.16772739       0.33345683       0.55442083 </v>
    <v>       0.16713473       0.66775017       0.05573952 </v>
    <v>       0.16772739       0.66654317       0.55442083 </v>
    <v>       0.17340208       0.00000000       0.27835708 </v>
   </varray>
  </structure>
  <varray name="primitive_index" >
   <v type="int" >        1 </v>
   <v type="int" >        2 </v>
   <v type="int" >        3 </v>
   <v type="int" >        4 </v>
   <v type="int" >        5 </v>
   <v type="int" >        6 </v>
   <v type="int" >        7 </v>
   <v type="int" >        8 </v>
   <v type="int" >        9 </v>
   <v type="int" >       10 </v>
   <v type="int" >       11 </v>
   <v type="int" >       12 </v>
   <v type="int" >       13 </v>
   <v type="int" >       14 </v>
   <v type="int" >       15 </v>
   <v type="int" >       16 </v>
   <v type="int" >       17 </v>
   <v type="int" >       18 </v>
   <v type="int" >       19 </v>
   <v type="int" >       20 </v>
   <v type="int" >       21 </v>
   <v type="int" >       22 </v>
   <v type="int" >       23 </v>
   <v type="int" >       24 </v>
   <v type="int" >       25 </v>
   <v type="int" >       26 </v>
   <v type="int" >       27 </v>
   <v type="int" >       28 </v>
   <v type="int" >       29 </v>
   <v type="int" >       30 </v>
   <v type="int" >       31 </v>
   <v type="int" >       32 </v>
   <v type="int" >       33 </v>
   <v type="int" >       34 </v>
   <v type="int" >       35 </v>
   <v type="int" >       36 </v>
   <v type="int" >       37 </v>
   <v type="int" >       38 </v>
   <v type="int" >       39 </v>
   <v type="int" >       40 </v>
   <v type="int" >       41 </v>
   <v type="int" >       42 </v>
   <v type="int" >       43 </v>
   <v type="int" >       44 </v>
   <v type="int" >       45 </v>
   <v type="int" >       46 </v>
   <v type="int" >       47 </v>
   <v type="int" >       48 </v>
   <v type="int" >       49 </v>
   <v type="int" >       50 </v>
   <v type="int" >       51 </v>
   <v type="int" >       52 </v>
   <v type="int" >       53 </v>
   <v type="int" >       54 </v>
   <v type="int" >       55 </v>
   <v type="int" >       56 </v>
   <v type="int" >       57 </v>
   <v type="int" >       58 </v>
   <v type="int" >       59 </v>
   <v type="int" >       60 </v>
   <v type="int" >       61 </v>
   <v type="int" >       62 </v>
   <v type="int" >       63 </v>
   <v type="int" >       64 </v>
   <v type="int" >       65 </v>
   <v type="int" >       66 </v>
   <v type="int" >       67 </v>
   <v type="int" >       68 </v>
   <v type="int" >       69 </v>
   <v type="int" >       70 </v>
   <v type="int" >       71 </v>
   <v type="int" >       72 </v>
   <v type="int" >       73 </v>
   <v type="int" >       74 </v>
   <v type="int" >       75 </v>
   <v type="int" >       76 </v>
   <v type="int" >       77 </v>
   <v type="int" >       78 </v>
   <v type="int" >       79 </v>
   <v type="int" >       80 </v>
   <v type="int" >       81 </v>
   <v type="int" >       82 </v>
   <v type="int" >       83 </v>
   <v type="int" >       84 </v>
   <v type="int" >       85 </v>
   <v type="int" >       86 </v>
   <v type="int" >       87 </v>
   <v type="int" >       88 </v>
   <v type="int" >       89 </v>
   <v type="int" >       90 </v>
   <v type="int" >       91 </v>
   <v type="int" >       92 </v>
   <v type="int" >       93 </v>
   <v type="int" >       94 </v>
   <v type="int" >       95 </v>
   <v type="int" >       96 </v>
   <v type="int" >       97 </v>
   <v type="int" >       98 </v>
   <v type="int" >       99 </v>
   <v type="int" >      100 </v>
   <v type="int" >      101 </v>
   <v type="int" >      102 </v>
   <v type="int" >      103 </v>
   <v type="int" >      104 </v>
   <v type="int" >      105 </v>
   <v type="int" >      106 </v>
   <v type="int" >      107 </v>
   <v type="int" >      108 </v>
   <v type="int" >      109 </v>
   <v type="int" >      110 </v>
   <v type="int" >      111 </v>
   <v type="int" >      112 </v>
   <v type="int" >      113 </v>
   <v type="int" >      114 </v>
   <v type="int" >      115 </v>
   <v type="int" >      116 </v>
   <v type="int" >      117 </v>
   <v type="int" >      118 </v>
   <v type="int" >      119 </v>
   <v type="int" >      120 </v>
  </varray>
 </primitive_cell>
 <kpoints>
  <generation param="Gamma">
   <v type="int" name="divisions">       2        2        2 </v>
   <v name="usershift">      0.00000000       0.00000000       0.00000000 </v>
   <v name="genvec1">      0.50000000       0.00000000       0.00000000 </v>
   <v name="genvec2">      0.00000000       0.50000000       0.00000000 </v>
   <v name="genvec3">      0.00000000       0.00000000       0.50000000 </v>
   <v name="shift">      0.00000000       0.00000000       0.00000000 </v>
  </generation>
  <varray name="kpointlist" >
   <v>       0.00000000       0.00000000       0.00000000 </v>
   <v>       0.50000000       0.00000000       0.00000000 </v>
   <v>       0.00000000       0.50000000       0.00000000 </v>
   <v>       0.50000000       0.50000000       0.00000000 </v>
   <v>       0.00000000       0.00000000       0.50000000 </v>
   <v>       0.50000000       0.00000000       0.50000000 </v>
   <v>       0.00000000       0.50000000       0.50000000 </v>
   <v>       0.50000000       0.50000000       0.50000000 </v>
  </varray>
  <varray name="weights" >
   <v>       0.12500000 </v>
   <v>       0.12500000 </v>
   <v>       0.12500000 </v>
   <v>       0.12500000 </v>
   <v>       0.12500000 </v>
   <v>       0.12500000 </v>
   <v>       0.12500000 </v>
   <v>       0.12500000 </v>
  </varray>
 </kpoints>
 <parameters>
  <separator name="general" >
   <i type="string" name="SYSTEM">unknown system</i>
   <i type="logical" name="LCOMPAT"> F  </i>
  </separator>
  <separator name="electronic" >
   <i type="string" name="PREC">normal</i>
   <i name="ENMAX">    450.00000000</i>
   <i name="ENAUG">    627.11200000</i>
   <i name="EDIFF">      0.00001000</i>
   <i type="int" name="IALGO">    58</i>
   <i type="int" name="IWAVPR">    10</i>
   <i type="int" name="NBANDS">   633</i>
   <i type="int" name="NBANDSLOW">    -1</i>
   <i type="int" name="NBANDSHIGH">    -1</i>
   <i name="NELECT">   1055.00000000</i>
   <i type="int" name="TURBO">     0</i>
   <i type="int" name="IRESTART">     0</i>
   <i type="int" name="NREBOOT">     0</i>
   <i type="int" name="NMIN">     0</i>
   <i name="EREF">      0.00000000</i>
   <separator name="electronic smearing" >
    <i type="int" name="ISMEAR">     0</i>
    <i name="SIGMA">      0.05000000</i>
    <i name="KSPACING">      0.50000000</i>
    <i type="logical" name="KGAMMA"> T  </i>
    <i type="logical" name="KBLOWUP"> T  </i>
   </separator>
   <separator name="electronic projectors" >
    <i type="logical" name="LREAL"> T  </i>
    <v name="ROPT">     -0.00050000     -0.00050000     -0.00050000</v>
    <i type="int" name="LMAXPAW">  -100</i>
    <i type="int" name="LMAXMIX">     2</i>
    <i type="logical" name="NLSPLINE"> F  </i>
   </separator>
   <separator name="electronic startup" >
    <i type="int" name="ISTART">     0</i>
    <i type="int" name="ICHARG">     0</i>
    <i type="int" name="INIWAV">     1</i>
   </separator>
   <separator name="electronic spin" >
    <i type="int" name="ISPIN">     1</i>
    <i type="logical" name="LNONCOLLINEAR"> F  </i>
    <v name="MAGMOM">      1.00000000      1.00000000      1.00000000      1.00000000      1.00000000      1.00000000      1.00000000      1.00000000      1.00000000      1.00000000      1.00000000      1.00000000      1.00000000      1.00000000      1.00000000      1.00000000      1.00000000      1.00000000      1.00000000      1.00000000
      1.00000000      1.00000000      1.00000000      1.00000000      1.00000000      1.00000000      1.00000000      1.00000000      1.00000000      1.00000000      1.00000000      1.00000000      1.00000000      1.00000000      1.00000000      1.00000000      1.00000000      1.00000000      1.00000000      1.00000000
      1.00000000      1.00000000      1.00000000      1.00000000      1.00000000      1.00000000      1.00000000      1.00000000      1.00000000      1.00000000      1.00000000      1.00000000      1.00000000      1.00000000      1.00000000      1.00000000      1.00000000      1.00000000      1.00000000      1.00000000
      1.00000000      1.00000000      1.00000000      1.00000000      1.00000000      1.00000000      1.00000000      1.00000000      1.00000000      1.00000000      1.00000000      1.00000000      1.00000000      1.00000000      1.00000000      1.00000000      1.00000000      1.00000000      1.00000000      1.00000000
      1.00000000      1.00000000      1.00000000      1.00000000      1.00000000      1.00000000      1.00000000      1.00000000      1.00000000      1.00000000      1.00000000      1.00000000      1.00000000      1.00000000      1.00000000      1.00000000      1.00000000      1.00000000      1.00000000      1.00000000
      1.00000000      1.00000000      1.00000000      1.00000000      1.00000000      1.00000000      1.00000000      1.00000000      1.00000000      1.00000000      1.00000000      1.00000000      1.00000000      1.00000000      1.00000000      1.00000000      1.00000000      1.00000000      1.00000000      1.00000000
</v>
    <i name="NUPDOWN">     -1.00000000</i>
    <i type="logical" name="LSORBIT"> F  </i>
    <v name="SAXIS">      0.00000000      0.00000000      1.00000000</v>
    <i type="logical" name="LSPIRAL"> F  </i>
    <v name="QSPIRAL">      0.00000000      0.00000000      0.00000000</v>
    <i type="logical" name="LZEROZ"> F  </i>
   </separator>
   <separator name="electronic exchange-correlation" >
    <i type="logical" name="LASPH"> F  </i>
    <i type="logical" name="LMETAGGA"> F  </i>
   </separator>
   <separator name="electronic convergence" >
    <i type="int" name="NELM">   500</i>
    <i type="int" name="NELMDL">    -5</i>
    <i type="int" name="NELMIN">     2</i>
    <i name="ENINI">    450.00000000</i>
    <separator name="electronic convergence detail" >
     <i type="logical" name="LDIAG"> T  </i>
     <i type="logical" name="LSUBROT"> F  </i>
     <i name="WEIMIN">      0.00000000</i>
     <i name="EBREAK">      0.00000000</i>
     <i name="DEPER">      0.30000000</i>
     <i type="int" name="NRMM">     4</i>
     <i name="TIME">      0.40000000</i>
    </separator>
   </separator>
   <separator name="electronic mixer" >
    <i name="AMIX">      0.40000000</i>
    <i name="BMIX">      1.00000000</i>
    <i name="AMIN">      0.10000000</i>
    <i name="AMIX_MAG">      1.60000000</i>
    <i name="BMIX_MAG">      1.00000000</i>
    <separator name="electronic mixer details" >
     <i type="int" name="IMIX">     4</i>
     <i type="logical" name="MIXFIRST"> F  </i>
     <i type="int" name="MAXMIX">   -45</i>
     <i name="WC">    100.00000000</i>
     <i type="int" name="INIMIX">     1</i>
     <i type="int" name="MIXPRE">     1</i>
     <i type="int" name="MREMOVE">     5</i>
    </separator>
   </separator>
   <separator name="electronic dipolcorrection" >
    <i type="logical" name="LDIPOL"> F  </i>
    <i type="logical" name="LMONO"> F  </i>
    <i type="int" name="IDIPOL">     0</i>
    <i name="EPSILON">      1.00000000</i>
    <v name="DIPOL">   -100.00000000   -100.00000000   -100.00000000</v>
    <i name="EFIELD">      0.00000000</i>
   </separator>
  </separator>
  <separator name="grids" >
   <i type="int" name="NGX">    64</i>
   <i type="int" name="NGY">    48</i>
   <i type="int" name="NGZ">    60</i>
   <i type="int" name="NGXF">   128</i>
   <i type="int" name="NGYF">    96</i>
   <i type="int" name="NGZF">   120</i>
   <i type="logical" name="ADDGRID"> F  </i>
  </separator>
  <separator name="ionic" >
   <i type="int" name="NSW">     0</i>
   <i type="int" name="IBRION">    -1</i>
   <i type="int" name="MDALGO">     0</i>
   <i type="int" name="ISIF">     2</i>
   <i name="PSTRESS">      0.00000000</i>
   <i name="EDIFFG">     -0.00500000</i>
   <i type="int" name="NFREE">     0</i>
   <i name="POTIM">      0.50000000</i>
   <i name="SMASS">     -3.00000000</i>
   <i name="SCALEE">      1.00000000</i>
  </separator>
  <separator name="ionic md" >
   <i name="TEBEG">      0.00010000</i>
   <i name="TEEND">      0.00010000</i>
   <i type="int" name="NBLOCK">     1</i>
   <i type="int" name="KBLOCK">     1</i>
   <i type="int" name="NPACO">   256</i>
   <i name="APACO">     10.00000000</i>
  </separator>
  <separator name="symmetry" >
   <i type="int" name="ISYM">     3</i>
   <i name="SYMPREC">      0.00001000</i>
  </separator>
  <separator name="dos" >
   <i type="int" name="LORBIT">     0</i>
   <v name="RWIGS">     -1.00000000     -1.00000000     -1.00000000</v>
   <i type="int" name="NEDOS">   301</i>
   <i name="EMIN">     10.00000000</i>
   <i name="EMAX">    -10.00000000</i>
   <i name="EFERMI">      0.00000000</i>
  </separator>
  <separator name="writing" >
   <i type="int" name="NWRITE">     2</i>
   <i type="logical" name="LWAVE"> T  </i>
   <i type="logical" name="LDOWNSAMPLE"> F  </i>
   <i type="logical" name="LCHARG"> T  </i>
   <i type="logical" name="LPARD"> F  </i>
   <i type="logical" name="LVTOT"> F  </i>
   <i type="logical" name="LVHAR"> F  </i>
   <i type="logical" name="LELF"> F  </i>
   <i type="logical" name="LOPTICS"> F  </i>
   <v name="STM">      0.00000000      0.00000000      0.00000000      0.00000000      0.00000000      0.00000000      0.00000000</v>
  </separator>
  <separator name="performance" >
   <i type="int" name="NPAR">     1</i>
   <i type="int" name="NSIM">     4</i>
   <i type="int" name="NBLK">    -1</i>
   <i type="logical" name="LPLANE"> T  </i>
   <i type="logical" name="LSCALAPACK"> T  </i>
   <i type="logical" name="LSCAAWARE"> F  </i>
   <i type="logical" name="LSCALU"> F  </i>
   <i type="logical" name="LASYNC"> F  </i>
   <i type="logical" name="LORBITALREAL"> F  </i>
  </separator>
  <separator name="miscellaneous" >
   <i type="int" name="IDIOT">     3</i>
   <i type="int" name="PHON_NSTRUCT">    -1</i>
   <i type="logical" name="LMUSIC"> F  </i>
   <v name="POMASS">     69.72300000     16.00000000     14.00100000</v>
   <v name="DARWINR">      0.00000000      0.00000000      0.00000000</v>
   <v name="DARWINV">      1.00000000      1.00000000      1.00000000</v>
   <i type="logical" name="LCORR"> T  </i>
  </separator>
  <i type="logical" name="GGA_COMPAT"> T  </i>
  <i type="logical" name="LBERRY"> F  </i>
  <i type="int" name="ICORELEVEL">     0</i>
  <i type="logical" name="LDAU"> F  </i>
  <i type="int" name="I_CONSTRAINED_M">     0</i>
  <separator name="electronic exchange-correlation" >
   <i type="string" name="GGA">--</i>
   <i type="int" name="VOSKOWN">     0</i>
   <i type="logical" name="LHFCALC"> T  </i>
   <i type="string" name="PRECFOCK">fast</i>
   <i type="logical" name="LSYMGRAD"> F  </i>
   <i type="logical" name="LHFONE"> F  </i>
   <i type="logical" name="LRHFCALC"> F  </i>
   <i type="logical" name="LTHOMAS"> F  </i>
   <i type="logical" name="LMODELHF"> F  </i>
   <i type="logical" name="LFOCKACE"> T  </i>
   <i name="ENCUT4O">     -1.00000000</i>
   <i type="int" name="EXXOEP">     0</i>
   <i type="int" name="FOURORBIT">     0</i>
   <i name="AEXX">      0.32000000</i>
   <i name="HFALPHA">     -1.00000000</i>
   <i name="MCALPHA">      0.00000000</i>
   <i name="ALDAX">      0.68000000</i>
   <i name="AGGAX">      0.68000000</i>
   <i name="ALDAC">      1.00000000</i>
   <i name="AGGAC">      1.00000000</i>
   <i type="int" name="NKREDX">     1</i>
   <i type="int" name="NKREDY">     1</i>
   <i type="int" name="NKREDZ">     1</i>
   <i type="logical" name="SHIFTRED"> F  </i>
   <i type="logical" name="ODDONLY"> F  </i>
   <i type="logical" name="EVENONLY"> F  </i>
   <i type="int" name="LMAXFOCK">     4</i>
   <i type="int" name="NMAXFOCKAE">     1</i>
   <i type="logical" name="LFOCKAEDFT"> F  </i>
   <i name="HFSCREEN">      0.20000000</i>
   <i name="HFSCREENC">      0.20000000</i>
   <i type="int" name="NBANDSGWLOW">     1</i>
  </separator>
  <separator name="vdW DFT" >
   <i type="logical" name="LUSE_VDW"> F  </i>
   <i type="int" name="IVDW_NL">     1</i>
   <i type="logical" name="LSPIN_VDW"> F  </i>
   <i name="Zab_VDW">     -0.84910000</i>
   <i name="PARAM1">      0.12340000</i>
   <i name="PARAM2">      1.00000000</i>
   <i name="PARAM3">      0.00000000</i>
  </separator>
  <separator name="model GW" >
   <i type="int" name="MODEL_GW">     0</i>
   <i name="MODEL_EPS0">      6.34402578</i>
   <i name="MODEL_ALPHA">      1.00000000</i>
  </separator>
  <separator name="linear response parameters" >
   <i type="logical" name="LEPSILON"> F  </i>
   <i type="logical" name="LRPA"> F  </i>
   <i type="logical" name="LNABLA"> F  </i>
   <i type="logical" name="LVEL"> F  </i>
   <i name="CSHIFT">      0.10000000</i>
   <i name="OMEGAMAX">     -1.00000000</i>
   <i name="DEG_THRESHOLD">      0.00200000</i>
   <i name="RTIME">     -0.10000000</i>
   <i name="WPLASMAI">      0.00000000</i>
   <v name="DFIELD">      0.00000000      0.00000000      0.00000000</v>
   <v name="WPLASMA">      0.00000000      0.00000000      0.00000000      0.00000000      0.00000000      0.00000000      0.00000000      0.00000000      0.00000000</v>
  </separator>
  <separator name="orbital magnetization" >
   <i type="logical" name="NUCIND"> F  </i>
   <v name="MAGPOS">      0.00000000      0.00000000      0.00000000</v>
   <i type="logical" name="LNICSALL"> T  </i>
   <i type="logical" name="ORBITALMAG"> F  </i>
   <i type="logical" name="LMAGBLOCH"> F  </i>
   <i type="logical" name="LCHIMAG"> F  </i>
   <i type="logical" name="LGAUGE"> T  </i>
   <i type="int" name="MAGATOM">     0</i>
   <v name="MAGDIPOL">      0.00000000      0.00000000      0.00000000</v>
   <v name="AVECCONST">      0.00000000      0.00000000      0.00000000</v>
  </separator>
  <separator name="response functions" >
   <i type="logical" name="LALL_IN_ONE"> F  </i>
   <i type="int" name="IALL_IN_ONE">    -1</i>
   <i type="int" name="NBANDS_WAVE">    -1</i>
   <i type="logical" name="LFINITE_TEMPERATURE"> F  </i>
   <i type="logical" name="LADDER"> F  </i>
   <i type="logical" name="LRPAFORCE"> F  </i>
   <i type="logical" name="LFXC"> F  </i>
   <i type="logical" name="LHARTREE"> T  </i>
   <i type="int" name="IBSE">     0</i>
   <v type="int" name="KPOINT">    -1     0     0     0</v>
   <i type="logical" name="LTCTC"> F  </i>
   <i type="logical" name="LTCTE"> F  </i>
   <i type="logical" name="LTETE"> F  </i>
   <i type="logical" name="LTRIPLET"> F  </i>
   <i type="logical" name="LFXCEPS"> F  </i>
   <i type="logical" name="LFXHEG"> F  </i>
   <i type="int" name="NATURALO">     2</i>
   <i type="logical" name="LHOLEGF"> F  </i>
   <i type="logical" name="L2ORDER"> F  </i>
   <i type="logical" name="LDMP1"> F  </i>
   <i type="logical" name="LMP2LT"> F  </i>
   <i type="logical" name="LSMP2LT"> F  </i>
   <i type="logical" name="LGWLF"> F  </i>
   <i name="ENCUTGW">     -1.60000002</i>
   <i name="ENCUTGWSOFT">     -1.60000002</i>
   <i name="ENCUTLF">     -1.00000000</i>
   <i type="logical" name="LESF_SPLINES"> F  </i>
   <i type="int" name="LMAXMP2">    -1</i>
   <i name="SCISSOR">      0.00000000</i>
   <i type="int" name="NOMEGA">     0</i>
   <i type="int" name="NOMEGAR">     0</i>
   <i type="int" name="NBANDSGW">    -1</i>
   <i type="int" name="NBANDSO">    -1</i>
   <i type="int" name="NBANDSV">    -1</i>
   <i type="int" name="NELMGW">     1</i>
   <i type="int" name="NELMHF">     1</i>
   <i type="int" name="DIM">     3</i>
   <i type="int" name="IESPILON">     4</i>
   <i type="int" name="ANTIRES">     0</i>
   <i name="OMEGAMAX">    -30.00000000</i>
   <i name="OMEGAMIN">    -30.00000000</i>
   <i name="OMEGATL">   -200.00000000</i>
   <i type="int" name="OMEGAGRID">     0</i>
   <i name="CSHIFT">     -0.10000000</i>
   <i type="logical" name="LSELFENERGY"> F  </i>
   <i type="logical" name="LSPECTRAL"> F  </i>
   <i type="logical" name="LSPECTRALGW"> F  </i>
   <i type="logical" name="LSINGLES"> F  </i>
   <i type="logical" name="LFERMIGW"> F  </i>
   <i type="logical" name="ODDONLYGW"> F  </i>
   <i type="logical" name="EVENONLYGW"> F  </i>
   <i type="int" name="NKREDLFX">     1</i>
   <i type="int" name="NKREDLFY">     1</i>
   <i type="int" name="NKREDLFZ">     1</i>
   <i type="int" name="MAXMEM">  2800</i>
   <i type="int" name="TELESCOPE">     0</i>
   <i type="int" name="NTAUPAR">    -1</i>
   <i type="int" name="NOMEGAPAR">    -1</i>
   <i name="DAMP_NEWTON">      0.80000001</i>
   <i name="LAMBDA">      1.00000000</i>
  </separator>
  <separator name="External order field" >
   <i name="OFIELD_KAPPA">      0.00000000</i>
   <v name="OFIELD_K">      0.00000000      0.00000000      0.00000000</v>
   <i name="OFIELD_Q6_NEAR">      0.00000000</i>
   <i name="OFIELD_Q6_FAR">      0.00000000</i>
   <i name="OFIELD_A">      0.00000000</i>
  </separator>
  <separator name="optional k-points parameters" >
   <i type="int" name="KPOINTS_OPT_MODE">     1</i>
   <i type="logical" name="LKPOINTS_OPT"> F  </i>
  </separator>
 </parameters>
 <atominfo>
  <atoms>     120 </atoms>
  <types>       3 </types>
  <array name="atoms" >
   <dimension dim="1">ion</dimension>
   <field type="string">element</field>
   <field type="int">atomtype</field>
   <set>
    <rc><c>Ga</c><c>   1</c></rc>
    <rc><c>Ga</c><c>   1</c></rc>
    <rc><c>Ga</c><c>   1</c></rc>
    <rc><c>Ga</c><c>   1</c></rc>
    <rc><c>Ga</c><c>   1</c></rc>
    <rc><c>Ga</c><c>   1</c></rc>
    <rc><c>Ga</c><c>   1</c></rc>
    <rc><c>Ga</c><c>   1</c></rc>
    <rc><c>Ga</c><c>   1</c></rc>
    <rc><c>Ga</c><c>   1</c></rc>
    <rc><c>Ga</c><c>   1</c></rc>
    <rc><c>Ga</c><c>   1</c></rc>
    <rc><c>Ga</c><c>   1</c></rc>
    <rc><c>Ga</c><c>   1</c></rc>
    <rc><c>Ga</c><c>   1</c></rc>
    <rc><c>Ga</c><c>   1</c></rc>
    <rc><c>Ga</c><c>   1</c></rc>
    <rc><c>Ga</c><c>   1</c></rc>
    <rc><c>Ga</c><c>   1</c></rc>
    <rc><c>Ga</c><c>   1</c></rc>
    <rc><c>Ga</c><c>   1</c></rc>
    <rc><c>Ga</c><c>   1</c></rc>
    <rc><c>Ga</c><c>   1</c></rc>
    <rc><c>Ga</c><c>   1</c></rc>
    <rc><c>Ga</c><c>   1</c></rc>
    <rc><c>Ga</c><c>   1</c></rc>
    <rc><c>Ga</c><c>   1</c></rc>
    <rc><c>Ga</c><c>   1</c></rc>
    <rc><c>Ga</c><c>   1</c></rc>
    <rc><c>Ga</c><c>   1</c></rc>
    <rc><c>Ga</c><c>   1</c></rc>
    <rc><c>Ga</c><c>   1</c></rc>
    <rc><c>Ga</c><c>   1</c></rc>
    <rc><c>Ga</c><c>   1</c></rc>
    <rc><c>Ga</c><c>   1</c></rc>
    <rc><c>Ga</c><c>   1</c></rc>
    <rc><c>Ga</c><c>   1</c></rc>
    <rc><c>Ga</c><c>   1</c></rc>
    <rc><c>Ga</c><c>   1</c></rc>
    <rc><c>Ga</c><c>   1</c></rc>
    <rc><c>Ga</c><c>   1</c></rc>
    <rc><c>Ga</c><c>   1</c></rc>
    <rc><c>Ga</c><c>   1</c></rc>
    <rc><c>Ga</c><c>   1</c></rc>
    <rc><c>Ga</c><c>   1</c></rc>
    <rc><c>Ga</c><c>   1</c></rc>
    <rc><c>Ga</c><c>   1</c></rc>
    <rc><c>Ga</c><c>   1</c></rc>
    <rc><c>O </c><c>   2</c></rc>
    <rc><c>O </c><c>   2</c></rc>
    <rc><c>O </c><c>   2</c></rc>
    <rc><c>O </c><c>   2</c></rc>
    <rc><c>O </c><c>   2</c></rc>
    <rc><c>O </c><c>   2</c></rc>
    <rc><c>O </c><c>   2</c></rc>
    <rc><c>O </c><c>   2</c></rc>
    <rc><c>O </c><c>   2</c></rc>
    <rc><c>O </c><c>   2</c></rc>
    <rc><c>O </c><c>   2</c></rc>
    <rc><c>O </c><c>   2</c></rc>
    <rc><c>O </c><c>   2</c></rc>
    <rc><c>O </c><c>   2</c></rc>
    <rc><c>O </c><c>   2</c></rc>
    <rc><c>O </c><c>   2</c></rc>
    <rc><c>O </c><c>   2</c></rc>
    <rc><c>O </c><c>   2</c></rc>
    <rc><c>O </c><c>   2</c></rc>
    <rc><c>O </c><c>   2</c></rc>
    <rc><c>O </c><c>   2</c></rc>
    <rc><c>O </c><c>   2</c></rc>
    <rc><c>O </c><c>   2</c></rc>
    <rc><c>O </c><c>   2</c></rc>
    <rc><c>O </c><c>   2</c></rc>
    <rc><c>O </c><c>   2</c></rc>
    <rc><c>O </c><c>   2</c></rc>
    <rc><c>O </c><c>   2</c></rc>
    <rc><c>O </c><c>   2</c></rc>
    <rc><c>O </c><c>   2</c></rc>
    <rc><c>O </c><c>   2</c></rc>
    <rc><c>O </c><c>   2</c></rc>
    <rc><c>O </c><c>   2</c></rc>
    <rc><c>O </c><c>   2</c></rc>
    <rc><c>O </c><c>   2</c></rc>
    <rc><c>O </c><c>   2</c></rc>
    <rc><c>O </c><c>   2</c></rc>
    <rc><c>O </c><c>   2</c></rc>
    <rc><c>O </c><c>   2</c></rc>
    <rc><c>O </c><c>   2</c></rc>
    <rc><c>O </c><c>   2</c></rc>
    <rc><c>O </c><c>   2</c></rc>
    <rc><c>O </c><c>   2</c></rc>
    <rc><c>O </c><c>   2</c></rc>
    <rc><c>O </c><c>   2</c></rc>
    <rc><c>O </c><c>   2</c></rc>
    <rc><c>O </c><c>   2</c></rc>
    <rc><c>O </c><c>   2</c></rc>
    <rc><c>O </c><c>   2</c></rc>
    <rc><c>O </c><c>   2</c></rc>
    <rc><c>O </c><c>   2</c></rc>
    <rc><c>O </c><c>   2</c></rc>
    <rc><c>O </c><c>   2</c></rc>
    <rc><c>O </c><c>   2</c></rc>
    <rc><c>O </c><c>   2</c></rc>
    <rc><c>O </c><c>   2</c></rc>
    <rc><c>O </c><c>   2</c></rc>
    <rc><c>O </c><c>   2</c></rc>
    <rc><c>O </c><c>   2</c></rc>
    <rc><c>O </c><c>   2</c></rc>
    <rc><c>O </c><c>   2</c></rc>
    <rc><c>O </c><c>   2</c></rc>
    <rc><c>O </c><c>   2</c></rc>
    <rc><c>O </c><c>   2</c></rc>
    <rc><c>O </c><c>   2</c></rc>
    <rc><c>O </c><c>   2</c></rc>
    <rc><c>O </c><c>   2</c></rc>
    <rc><c>O </c><c>   2</c></rc>
    <rc><c>O </c><c>   2</c></rc>
    <rc><c>O </c><c>   2</c></rc>
    <rc><c>O </c><c>   2</c></rc>
    <rc><c>N </c><c>   3</c></rc>
   </set>
  </array>
  <array name="atomtypes" >
   <dimension dim="1">type</dimension>
   <field type="int">atomspertype</field>
   <field type="string">element</field>
   <field>mass</field>
   <field>valence</field>
   <field type="string">pseudopotential</field>
   <set>
    <rc><c>  48</c><c>Ga</c><c>     69.72300000</c><c>     13.00000000</c><c>  PAW_PBE Ga_d 06Jul2010                </c></rc>
    <rc><c>  71</c><c>O </c><c>     16.00000000</c><c>      6.00000000</c><c>  PAW_PBE O 08Apr2002                   </c></rc>
    <rc><c>   1</c><c>N </c><c>     14.00100000</c><c>      5.00000000</c><c>  PAW_PBE N 08Apr2002                   </c></rc>
   </set>
  </array>
 </atominfo>
 <structure name="initialpos" >
  <crystal>
   <varray name="basis" >
    <v>       0.00000000      12.28047342       0.00000000 </v>
    <v>       9.14270205       0.00000000       0.00000000 </v>
    <v>       0.00000000      -2.76826177     -11.30069772 </v>
   </varray>
   <i name="volume">   1268.80515525 </i>
   <varray name="rec_basis" >
    <v>       0.00000000       0.08143009      -0.01994742 </v>
    <v>       0.10937686      -0.00000000       0.00000000 </v>
    <v>       0.00000000       0.00000000      -0.08849011 </v>
   </varray>
  </crystal>
  <varray name="positions" >
   <v>       0.65938967       0.00000000       0.15660368 </v>
   <v>       0.65911876       0.00000000       0.65657015 </v>
   <v>       0.65963902       0.33359516       0.15643909 </v>
   <v>       0.65905815       0.33334469       0.65671376 </v>
   <v>       0.65963902       0.66640484       0.15643909 </v>
   <v>       0.65905815       0.66665531       0.65671376 </v>
   <v>       0.84018495       0.16684154       0.34396789 </v>
   <v>       0.84076047       0.16671632       0.84329006 </v>
   <v>       0.84085847       0.50000000       0.34364052 </v>
   <v>       0.84118505       0.50000000       0.84336000 </v>
   <v>       0.84018495       0.83315846       0.34396789 </v>
   <v>       0.84076047       0.83328368       0.84329006 </v>
   <v>       0.59052687       0.16649467       0.39726190 </v>
   <v>       0.59102727       0.16670767       0.89758079 </v>
   <v>       0.59229831       0.50000000       0.39793339 </v>
   <v>       0.59113250       0.50000000       0.89770238 </v>
   <v>       0.59052687       0.83350533       0.39726190 </v>
   <v>       0.59102727       0.83329233       0.89758079 </v>
   <v>       0.90807688       0.00000000       0.10240965 </v>
   <v>       0.90870658       0.00000000       0.60205836 </v>
   <v>       0.90844155       0.33356945       0.10242987 </v>
   <v>       0.90854403       0.33346352       0.60228912 </v>
   <v>       0.90844155       0.66643055       0.10242987 </v>
   <v>       0.90854403       0.66653648       0.60228912 </v>
   <v>       0.16059565       0.16476213       0.15974847 </v>
   <v>       0.15832370       0.16645720       0.65596846 </v>
   <v>       0.15868948       0.50000000       0.15750918 </v>
   <v>       0.15865083       0.50000000       0.65689431 </v>
   <v>       0.16059565       0.83523787       0.15974847 </v>
   <v>       0.15832370       0.83354280       0.65596846 </v>
   <v>       0.33994761       0.00000000       0.34116788 </v>
   <v>       0.34053588       0.00000000       0.84292124 </v>
   <v>       0.34178059       0.33412660       0.34268896 </v>
   <v>       0.34062633       0.33351625       0.84306302 </v>
   <v>       0.34178059       0.66587340       0.34268896 </v>
   <v>       0.34062633       0.66648375       0.84306302 </v>
   <v>       0.09119843       0.00000000       0.39466139 </v>
   <v>       0.09033280       0.00000000       0.89665999 </v>
   <v>       0.09042873       0.33301480       0.39782452 </v>
   <v>       0.09144800       0.33299105       0.89869152 </v>
   <v>       0.09042873       0.66698520       0.39782452 </v>
   <v>       0.09144800       0.66700895       0.89869152 </v>
   <v>       0.41042289       0.16732054       0.10151552 </v>
   <v>       0.40909999       0.16667619       0.60291049 </v>
   <v>       0.40917099       0.50000000       0.10229504 </v>
   <v>       0.40886717       0.50000000       0.60240518 </v>
   <v>       0.41042289       0.83267946       0.10151552 </v>
   <v>       0.40909999       0.83332381       0.60291049 </v>
   <v>       0.99568432       0.16660758       0.12571781 </v>
   <v>       0.99579819       0.16683700       0.62778049 </v>
   <v>       0.99587801       0.50000000       0.12753133 </v>
   <v>       0.99608091       0.50000000       0.62747168 </v>
   <v>       0.99568432       0.83339242       0.12571781 </v>
   <v>       0.99579819       0.83316300       0.62778049 </v>
   <v>       0.50280467       0.00000000       0.37222953 </v>
   <v>       0.50348341       0.00000000       0.87248301 </v>
   <v>       0.50445595       0.33398338       0.37299972 </v>
   <v>       0.50347348       0.33338360       0.87257660 </v>
   <v>       0.50445595       0.66601662       0.37299972 </v>
   <v>       0.50347348       0.66661640       0.87257660 </v>
   <v>       0.67212753       0.16661145       0.28017357 </v>
   <v>       0.67242119       0.16668275       0.78036714 </v>
   <v>       0.67281962       0.50000000       0.28011679 </v>
   <v>       0.67251854       0.50000000       0.78054032 </v>
   <v>       0.67212753       0.83338855       0.28017357 </v>
   <v>       0.67242119       0.83331725       0.78036714 </v>
   <v>       0.82727636       0.00000000       0.21993498 </v>
   <v>       0.82728892       0.00000000       0.71948060 </v>
   <v>       0.82736401       0.33327785       0.21979061 </v>
   <v>       0.82732407       0.33338584       0.71968831 </v>
   <v>       0.82736401       0.66672215       0.21979061 </v>
   <v>       0.82732407       0.66661416       0.71968831 </v>
   <v>       0.83048938       0.00000000       0.44603907 </v>
   <v>       0.83167998       0.00000000       0.94560580 </v>
   <v>       0.83068793       0.33378837       0.44608460 </v>
   <v>       0.83191722       0.33339038       0.94569937 </v>
   <v>       0.83068793       0.66621163       0.44608460 </v>
   <v>       0.83191722       0.66660962       0.94569937 </v>
   <v>       0.66827806       0.16665789       0.05400467 </v>
   <v>       0.66719554       0.16658256       0.55404512 </v>
   <v>       0.66909779       0.50000000       0.05385250 </v>
   <v>       0.66810095       0.50000000       0.55473738 </v>
   <v>       0.66827806       0.83334211       0.05400467 </v>
   <v>       0.66719554       0.83341744       0.55404512 </v>
   <v>       0.49699860       0.00000000       0.12635745 </v>
   <v>       0.49643056       0.00000000       0.62808617 </v>
   <v>       0.49750544       0.33419850       0.12611786 </v>
   <v>       0.49643161       0.33335335       0.62802438 </v>
   <v>       0.49750544       0.66580150       0.12611786 </v>
   <v>       0.49643161       0.66664665       0.62802438 </v>
   <v>       0.00187025       0.16734971       0.37449033 </v>
   <v>       0.00323984       0.16680469       0.87275091 </v>
   <v>       0.00310797       0.50000000       0.37333400 </v>
   <v>       0.00406167       0.50000000       0.87339456 </v>
   <v>       0.00187025       0.83265029       0.37449033 </v>
   <v>       0.00323984       0.83319531       0.87275091 </v>
   <v>       0.17216786       0.00000000       0.77998710 </v>
   <v>       0.17286675       0.33546640       0.28168159 </v>
   <v>       0.17231546       0.33309258       0.78077728 </v>
   <v>       0.17286675       0.66453360       0.28168159 </v>
   <v>       0.17231546       0.66690742       0.78077728 </v>
   <v>       0.33083779       0.17114600       0.21899062 </v>
   <v>       0.32702848       0.16649035       0.71924180 </v>
   <v>       0.32782975       0.50000000       0.21924835 </v>
   <v>       0.32727536       0.50000000       0.71955411 </v>
   <v>       0.33083779       0.82885400       0.21899062 </v>
   <v>       0.32702848       0.83350965       0.71924180 </v>
   <v>       0.33396760       0.16748387       0.44585045 </v>
   <v>       0.33239257       0.16676086       0.94537827 </v>
   <v>       0.33329527       0.50000000       0.44587478 </v>
   <v>       0.33167420       0.50000000       0.94583612 </v>
   <v>       0.33396760       0.83251613       0.44585045 </v>
   <v>       0.33239257       0.83323914       0.94537827 </v>
   <v>       0.17035876       0.00000000       0.05196568 </v>
   <v>       0.16581282       0.00000000       0.55363875 </v>
   <v>       0.16713473       0.33224983       0.05573952 </v>
   <v>       0.16772739       0.33345683       0.55442083 </v>
   <v>       0.16713473       0.66775017       0.05573952 </v>
   <v>       0.16772739       0.66654317       0.55442083 </v>
   <v>       0.17340208       0.00000000       0.27835708 </v>
  </varray>
 </structure>
 <calculation>
  <scstep>
   <time name="total">    4.09    4.10</time>
   <energy>
    <i name="alphaZ">   5530.94812622 </i>
    <i name="ewald"> -88767.09076828 </i>
    <i name="hartreedc">  -2111.07663853 </i>
    <i name="XCdc">   2801.99690311 </i>
    <i name="pawpsdc">  59811.91199313 </i>
    <i name="pawaedc"> -89014.54151948 </i>
    <i name="eentropy">     -0.00963891 </i>
    <i name="bandstr"> -40420.91559801 </i>
    <i name="atom"> 133733.99279260 </i>
    <i name="e_fr_energy"> -18434.78434814 </i>
    <i name="e_wo_entrp"> -18434.77470923 </i>
    <i name="e_0_energy"> -18434.77952869 </i>
   </energy>
  </scstep>
  <scstep>
   <time name="total">    3.20    3.20</time>
   <energy>
    <i name="e_fr_energy"> -62415.73207774 </i>
    <i name="e_wo_entrp"> -62415.71165796 </i>
    <i name="e_0_energy"> -62415.72186785 </i>
   </energy>
  </scstep>
  <scstep>
   <time name="total">    3.33    3.33</time>
   <energy>
    <i name="e_fr_energy"> -66949.13762061 </i>
    <i name="e_wo_entrp"> -66949.09727385 </i>
    <i name="e_0_energy"> -66949.11744723 </i>
   </energy>
  </scstep>
  <scstep>
   <time name="total">    3.71    3.71</time>
   <energy>
    <i name="e_fr_energy"> -67490.44676997 </i>
    <i name="e_wo_entrp"> -67490.40994029 </i>
    <i name="e_0_energy"> -67490.42835513 </i>
   </energy>
  </scstep>
  <scstep>
   <time name="total">  236.06  236.02</time>
   <energy>
    <i name="e_fr_energy"> -37379.42457091 </i>
    <i name="e_wo_entrp"> -37379.40715778 </i>
    <i name="e_0_energy"> -37379.41586434 </i>
   </energy>
  </scstep>
  <scstep>
   <time name="total">  469.64  469.58</time>
   <energy>
    <i name="e_fr_energy">  19399.52433453 </i>
    <i name="e_wo_entrp">  19399.53981256 </i>
    <i name="e_0_energy">  19399.53207355 </i>
   </energy>
  </scstep>
  <scstep>
   <time name="total">  470.43  470.37</time>
   <energy>
    <i name="e_fr_energy">   5695.25072799 </i>
    <i name="e_wo_entrp">   5695.29187201 </i>
    <i name="e_0_energy">   5695.27130000 </i>
   </energy>
  </scstep>
  <scstep>
   <time name="total">  471.72  471.66</time>
   <energy>
    <i name="e_fr_energy">   1452.14949710 </i>
    <i name="e_wo_entrp">   1452.17796161 </i>
    <i name="e_0_energy">   1452.16372935 </i>
   </energy>
  </scstep>
  <scstep>
   <time name="total">  470.35  470.28</time>
   <energy>
    <i name="e_fr_energy">   1065.12497925 </i>
    <i name="e_wo_entrp">   1065.17067431 </i>
    <i name="e_0_energy">   1065.14782678 </i>
   </energy>
  </scstep>
  <scstep>
   <time name="total">  470.21  470.14</time>
   <energy>
    <i name="e_fr_energy">    233.38154504 </i>
    <i name="e_wo_entrp">    233.40126971 </i>
    <i name="e_0_energy">    233.39140738 </i>
   </energy>
  </scstep>
  <scstep>
   <time name="total">  469.44  469.37</time>
   <energy>
    <i name="e_fr_energy">   -290.97942128 </i>
    <i name="e_wo_entrp">   -290.97169604 </i>
    <i name="e_0_energy">   -290.97555866 </i>
   </energy>
  </scstep>
  <scstep>
   <time name="total">  468.69  468.62</time>
   <energy>
    <i name="e_fr_energy">   -637.32382220 </i>
    <i name="e_wo_entrp">   -637.31869758 </i>
    <i name="e_0_energy">   -637.32125989 </i>
   </energy>
  </scstep>
  <scstep>
   <time name="total">  468.66  468.60</time>
   <energy>
    <i name="e_fr_energy">   -816.66780072 </i>
    <i name="e_wo_entrp">   -816.66779118 </i>
    <i name="e_0_energy">   -816.66779595 </i>
   </energy>
  </scstep>
  <scstep>
   <time name="total">  468.49  468.43</time>
   <energy>
    <i name="e_fr_energy">   -895.32766861 </i>
    <i name="e_wo_entrp">   -895.32377873 </i>
    <i name="e_0_energy">   -895.32572367 </i>
   </energy>
  </scstep>
  <scstep>
   <time name="total">  468.18  468.11</time>
   <energy>
    <i name="e_fr_energy">   -927.25392488 </i>
    <i name="e_wo_entrp">   -927.25392465 </i>
    <i name="e_0_energy">   -927.25392476 </i>
   </energy>
  </scstep>
  <scstep>
   <time name="total">  468.25  468.19</time>
   <energy>
    <i name="e_fr_energy">   -943.05764035 </i>
    <i name="e_wo_entrp">   -943.05764035 </i>
    <i name="e_0_energy">   -943.05764035 </i>
   </energy>
  </scstep>
  <scstep>
   <time name="total">  468.05  468.00</time>
   <energy>
    <i name="e_fr_energy">   -948.79408786 </i>
    <i name="e_wo_entrp">   -948.79401926 </i>
    <i name="e_0_energy">   -948.79405356 </i>
   </energy>
  </scstep>
  <scstep>
   <time name="total">  468.48  468.41</time>
   <energy>
    <i name="e_fr_energy">   -951.88725995 </i>
    <i name="e_wo_entrp">   -951.87985506 </i>
    <i name="e_0_energy">   -951.88355751 </i>
   </energy>
  </scstep>
  <scstep>
   <time name="total">  468.76  468.69</time>
   <energy>
    <i name="e_fr_energy">   -953.35380052 </i>
    <i name="e_wo_entrp">   -953.33205205 </i>
    <i name="e_0_energy">   -953.34292628 </i>
   </energy>
  </scstep>
  <scstep>
   <time name="total">  468.93  468.86</time>
   <energy>
    <i name="e_fr_energy">   -954.22188002 </i>
    <i name="e_wo_entrp">   -954.19719283 </i>
    <i name="e_0_energy">   -954.20953642 </i>
   </energy>
  </scstep>
  <scstep>
   <time name="total">  468.68  468.61</time>
   <energy>
    <i name="e_fr_energy">   -954.58368337 </i>
    <i name="e_wo_entrp">   -954.55877178 </i>
    <i name="e_0_energy">   -954.57122758 </i>
   </energy>
  </scstep>
  <scstep>
   <time name="total">  468.52  468.47</time>
   <energy>
    <i name="e_fr_energy">   -954.79785119 </i>
    <i name="e_wo_entrp">   -954.77325830 </i>
    <i name="e_0_energy">   -954.78555474 </i>
   </energy>
  </scstep>
  <scstep>
   <time name="total">  468.49  468.41</time>
   <energy>
    <i name="e_fr_energy">   -954.94534267 </i>
    <i name="e_wo_entrp">   -954.92053105 </i>
    <i name="e_0_energy">   -954.93293686 </i>
   </energy>
  </scstep>
  <scstep>
   <time name="total">  468.79  468.73</time>
   <energy>
    <i name="e_fr_energy">   -955.03629120 </i>
    <i name="e_wo_entrp">   -955.01104595 </i>
    <i name="e_0_energy">   -955.02366858 </i>
   </energy>
  </scstep>
  <scstep>
   <time name="total">  468.54  468.47</time>
   <energy>
    <i name="e_fr_energy">   -955.10033683 </i>
    <i name="e_wo_entrp">   -955.07488972 </i>
    <i name="e_0_energy">   -955.08761327 </i>
   </energy>
  </scstep>
  <scstep>
   <time name="total">  468.76  468.69</time>
   <energy>
    <i name="e_fr_energy">   -955.14760809 </i>
    <i name="e_wo_entrp">   -955.12230941 </i>
    <i name="e_0_energy">   -955.13495875 </i>
   </energy>
  </scstep>
  <scstep>
   <time name="total">  468.84  468.76</time>
   <energy>
    <i name="e_fr_energy">   -955.17840833 </i>
    <i name="e_wo_entrp">   -955.15329503 </i>
    <i name="e_0_energy">   -955.16585168 </i>
   </energy>
  </scstep>
  <scstep>
   <time name="total">  468.54  468.47</time>
   <energy>
    <i name="e_fr_energy">   -955.19685529 </i>
    <i name="e_wo_entrp">   -955.17183029 </i>
    <i name="e_0_energy">   -955.18434279 </i>
   </energy>
  </scstep>
  <scstep>
   <time name="total">  468.87  468.80</time>
   <energy>
    <i name="e_fr_energy">   -955.20962631 </i>
    <i name="e_wo_entrp">   -955.18462137 </i>
    <i name="e_0_energy">   -955.19712384 </i>
   </energy>
  </scstep>
  <scstep>
   <time name="total">  468.54  468.48</time>
   <energy>
    <i name="e_fr_energy">   -955.21847018 </i>
    <i name="e_wo_entrp">   -955.19344783 </i>
    <i name="e_0_energy">   -955.20595900 </i>
   </energy>
  </scstep>
  <scstep>
   <time name="total">  468.70  468.65</time>
   <energy>
    <i name="e_fr_energy">   -955.22410956 </i>
    <i name="e_wo_entrp">   -955.19906456 </i>
    <i name="e_0_energy">   -955.21158706 </i>
   </energy>
  </scstep>
  <scstep>
   <time name="total">  468.34  468.28</time>
   <energy>
    <i name="e_fr_energy">   -955.22820030 </i>
    <i name="e_wo_entrp">   -955.20316685 </i>
    <i name="e_0_energy">   -955.21568357 </i>
   </energy>
  </scstep>
  <scstep>
   <time name="total">  468.58  468.51</time>
   <energy>
    <i name="e_fr_energy">   -955.23137151 </i>
    <i name="e_wo_entrp">   -955.20637560 </i>
    <i name="e_0_energy">   -955.21887355 </i>
   </energy>
  </scstep>
  <scstep>
   <time name="total">  468.66  468.60</time>
   <energy>
    <i name="e_fr_energy">   -955.23355626 </i>
    <i name="e_wo_entrp">   -955.20858912 </i>
    <i name="e_0_energy">   -955.22107269 </i>
   </energy>
  </scstep>
  <scstep>
   <time name="total">  468.41  468.36</time>
   <energy>
    <i name="e_fr_energy">   -955.23510708 </i>
    <i name="e_wo_entrp">   -955.21015689 </i>
    <i name="e_0_energy">   -955.22263198 </i>
   </energy>
  </scstep>
  <scstep>
   <time name="total">  468.68  468.62</time>
   <energy>
    <i name="e_fr_energy">   -955.23636362 </i>
    <i name="e_wo_entrp">   -955.21143604 </i>
    <i name="e_0_energy">   -955.22389983 </i>
   </energy>
  </scstep>
  <scstep>
   <time name="total">  468.57  468.52</time>
   <energy>
    <i name="e_fr_energy">   -955.23729474 </i>
    <i name="e_wo_entrp">   -955.21235300 </i>
    <i name="e_0_energy">   -955.22482387 </i>
   </energy>
  </scstep>
  <scstep>
   <time name="total">  468.47  468.41</time>
   <energy>
    <i name="e_fr_energy">   -955.23872062 </i>
    <i name="e_wo_entrp">   -955.21384085 </i>
    <i name="e_0_energy">   -955.22628074 </i>
   </energy>
  </scstep>
  <scstep>
   <time name="total">  468.63  468.57</time>
   <energy>
    <i name="e_fr_energy">   -955.23933654 </i>
    <i name="e_wo_entrp">   -955.21453597 </i>
    <i name="e_0_energy">   -955.22693625 </i>
   </energy>
  </scstep>
  <scstep>
   <time name="total">  468.54  468.48</time>
   <energy>
    <i name="e_fr_energy">   -955.23960323 </i>
    <i name="e_wo_entrp">   -955.21494249 </i>
    <i name="e_0_energy">   -955.22727286 </i>
   </energy>
  </scstep>
  <scstep>
   <time name="total">  468.59  468.53</time>
   <energy>
    <i name="e_fr_energy">   -955.23981247 </i>
    <i name="e_wo_entrp">   -955.21532081 </i>
    <i name="e_0_energy">   -955.22756664 </i>
   </energy>
  </scstep>
  <scstep>
   <time name="total">  468.39  468.33</time>
   <energy>
    <i name="e_fr_energy">   -955.23994375 </i>
    <i name="e_wo_entrp">   -955.21571534 </i>
    <i name="e_0_energy">   -955.22782955 </i>
   </energy>
  </scstep>
  <scstep>
   <time name="total">  468.77  468.70</time>
   <energy>
    <i name="e_fr_energy">   -955.24006451 </i>
    <i name="e_wo_entrp">   -955.21608924 </i>
    <i name="e_0_energy">   -955.22807688 </i>
   </energy>
  </scstep>
  <scstep>
   <time name="total">  469.06  468.99</time>
   <energy>
    <i name="e_fr_energy">   -955.24014621 </i>
    <i name="e_wo_entrp">   -955.21634361 </i>
    <i name="e_0_energy">   -955.22824491 </i>
   </energy>
  </scstep>
  <scstep>
   <time name="total">  468.40  468.34</time>
   <energy>
    <i name="e_fr_energy">   -955.24018844 </i>
    <i name="e_wo_entrp">   -955.21648712 </i>
    <i name="e_0_energy">   -955.22833778 </i>
   </energy>
  </scstep>
  <scstep>
   <time name="total">  468.28  468.23</time>
   <energy>
    <i name="e_fr_energy">   -955.24020749 </i>
    <i name="e_wo_entrp">   -955.21655852 </i>
    <i name="e_0_energy">   -955.22838301 </i>
   </energy>
  </scstep>
  <scstep>
   <time name="total">  698.71  698.62</time>
   <energy>
    <i name="alphaZ">   5530.94812622 </i>
    <i name="ewald"> -88767.09076828 </i>
    <i name="hartreedc"> -33827.50262016 </i>
    <i name="XCdc">   2912.02799943 </i>
    <i name="pawpsdc"> 121346.72743454 </i>
    <i name="pawaedc">-136918.61537271 </i>
    <i name="eentropy">     -0.02362341 </i>
    <i name="bandstr">  -8851.07122190 </i>
    <i name="atom"> 133733.99279260 </i>
    <i name="e_fr_energy">   -955.24021491 </i>
    <i name="e_wo_entrp">   -955.21659150 </i>
    <i name="e_0_energy">   -955.22840321 </i>
   </energy>
  </scstep>
  <structure>
   <crystal>
    <varray name="basis" >
     <v>       0.00000000      12.28047342       0.00000000 </v>
     <v>       9.14270205       0.00000000       0.00000000 </v>
     <v>       0.00000000      -2.76826177     -11.30069772 </v>
    </varray>
    <i name="volume">   1268.80515525 </i>
    <varray name="rec_basis" >
     <v>       0.00000000       0.08143009      -0.01994742 </v>
     <v>       0.10937686      -0.00000000       0.00000000 </v>
     <v>       0.00000000       0.00000000      -0.08849011 </v>
    </varray>
   </crystal>
   <varray name="positions" >
    <v>       0.65938967       0.00000000       0.15660368 </v>
    <v>       0.65911876       0.00000000       0.65657015 </v>
    <v>       0.65963902       0.33359516       0.15643909 </v>
    <v>       0.65905815       0.33334469       0.65671376 </v>
    <v>       0.65963902       0.66640484       0.15643909 </v>
    <v>       0.65905815       0.66665531       0.65671376 </v>
    <v>       0.84018495       0.16684154       0.34396789 </v>
    <v>       0.84076047       0.16671632       0.84329006 </v>
    <v>       0.84085847       0.50000000       0.34364052 </v>
    <v>       0.84118505       0.50000000       0.84336000 </v>
    <v>       0.84018495       0.83315846       0.34396789 </v>
    <v>       0.84076047       0.83328368       0.84329006 </v>
    <v>       0.59052687       0.16649467       0.39726190 </v>
    <v>       0.59102727       0.16670767       0.89758079 </v>
    <v>       0.59229831       0.50000000       0.39793339 </v>
    <v>       0.59113250       0.50000000       0.89770238 </v>
    <v>       0.59052687       0.83350533       0.39726190 </v>
    <v>       0.59102727       0.83329233       0.89758079 </v>
    <v>       0.90807688       0.00000000       0.10240965 </v>
    <v>       0.90870658       0.00000000       0.60205836 </v>
    <v>       0.90844155       0.33356945       0.10242987 </v>
    <v>       0.90854403       0.33346352       0.60228912 </v>
    <v>       0.90844155       0.66643055       0.10242987 </v>
    <v>       0.90854403       0.66653648       0.60228912 </v>
    <v>       0.16059565       0.16476213       0.15974847 </v>
    <v>       0.15832370       0.16645720       0.65596846 </v>
    <v>       0.15868948       0.50000000       0.15750918 </v>
    <v>       0.15865083       0.50000000       0.65689431 </v>
    <v>       0.16059565       0.83523787       0.15974847 </v>
    <v>       0.15832370       0.83354280       0.65596846 </v>
    <v>       0.33994761       0.00000000       0.34116788 </v>
    <v>       0.34053588       0.00000000       0.84292124 </v>
    <v>       0.34178059       0.33412660       0.34268896 </v>
    <v>       0.34062633       0.33351625       0.84306302 </v>
    <v>       0.34178059       0.66587340       0.34268896 </v>
    <v>       0.34062633       0.66648375       0.84306302 </v>
    <v>       0.09119843       0.00000000       0.39466139 </v>
    <v>       0.09033280       0.00000000       0.89665999 </v>
    <v>       0.09042873       0.33301480       0.39782452 </v>
    <v>       0.09144800       0.33299105       0.89869152 </v>
    <v>       0.09042873       0.66698520       0.39782452 </v>
    <v>       0.09144800       0.66700895       0.89869152 </v>
    <v>       0.41042289       0.16732054       0.10151552 </v>
    <v>       0.40909999       0.16667619       0.60291049 </v>
    <v>       0.40917099       0.50000000       0.10229504 </v>
    <v>       0.40886717       0.50000000       0.60240518 </v>
    <v>       0.41042289       0.83267946       0.10151552 </v>
    <v>       0.40909999       0.83332381       0.60291049 </v>
    <v>       0.99568432       0.16660758       0.12571781 </v>
    <v>       0.99579819       0.16683700       0.62778049 </v>
    <v>       0.99587801       0.50000000       0.12753133 </v>
    <v>       0.99608091       0.50000000       0.62747168 </v>
    <v>       0.99568432       0.83339242       0.12571781 </v>
    <v>       0.99579819       0.83316300       0.62778049 </v>
    <v>       0.50280467       0.00000000       0.37222953 </v>
    <v>       0.50348341       0.00000000       0.87248301 </v>
    <v>       0.50445595       0.33398338       0.37299972 </v>
    <v>       0.50347348       0.33338360       0.87257660 </v>
    <v>       0.50445595       0.66601662       0.37299972 </v>
    <v>       0.50347348       0.66661640       0.87257660 </v>
    <v>       0.67212753       0.16661145       0.28017357 </v>
    <v>       0.67242119       0.16668275       0.78036714 </v>
    <v>       0.67281962       0.50000000       0.28011679 </v>
    <v>       0.67251854       0.50000000       0.78054032 </v>
    <v>       0.67212753       0.83338855       0.28017357 </v>
    <v>       0.67242119       0.83331725       0.78036714 </v>
    <v>       0.82727636       0.00000000       0.21993498 </v>
    <v>       0.82728892       0.00000000       0.71948060 </v>
    <v>       0.82736401       0.33327785       0.21979061 </v>
    <v>       0.82732407       0.33338584       0.71968831 </v>
    <v>       0.82736401       0.66672215       0.21979061 </v>
    <v>       0.82732407       0.66661416       0.71968831 </v>
    <v>       0.83048938       0.00000000       0.44603907 </v>
    <v>       0.83167998       0.00000000       0.94560580 </v>
    <v>       0.83068793       0.33378837       0.44608460 </v>
    <v>       0.83191722       0.33339038       0.94569937 </v>
    <v>       0.83068793       0.66621163       0.44608460 </v>
    <v>       0.83191722       0.66660962       0.94569937 </v>
    <v>       0.66827806       0.16665789       0.05400467 </v>
    <v>       0.66719554       0.16658256       0.55404512 </v>
    <v>       0.66909779       0.50000000       0.05385250 </v>
    <v>       0.66810095       0.50000000       0.55473738 </v>
    <v>       0.66827806       0.83334211       0.05400467 </v>
    <v>       0.66719554       0.83341744       0.55404512 </v>
    <v>       0.49699860       0.00000000       0.12635745 </v>
    <v>       0.49643056       0.00000000       0.62808617 </v>
    <v>       0.49750544       0.33419850       0.12611786 </v>
    <v>       0.49643161       0.33335335       0.62802438 </v>
    <v>       0.49750544       0.66580150       0.12611786 </v>
    <v>       0.49643161       0.66664665       0.62802438 </v>
    <v>       0.00187025       0.16734971       0.37449033 </v>
    <v>       0.00323984       0.16680469       0.87275091 </v>
    <v>       0.00310797       0.50000000       0.37333400 </v>
    <v>       0.00406167       0.50000000       0.87339456 </v>
    <v>       0.00187025       0.83265029       0.37449033 </v>
    <v>       0.00323984       0.83319531       0.87275091 </v>
    <v>       0.17216786       0.00000000       0.77998710 </v>
    <v>       0.17286675       0.33546640       0.28168159 </v>
    <v>       0.17231546       0.33309258       0.78077728 </v>
    <v>       0.17286675       0.66453360       0.28168159 </v>
    <v>       0.17231546       0.66690742       0.78077728 </v>
    <v>       0.33083779       0.17114600       0.21899062 </v>
    <v>       0.32702848       0.16649035       0.71924180 </v>
    <v>       0.32782975       0.50000000       0.21924835 </v>
    <v>       0.32727536       0.50000000       0.71955411 </v>
    <v>       0.33083779       0.82885400       0.21899062 </v>
    <v>       0.32702848       0.83350965       0.71924180 </v>
    <v>       0.33396760       0.16748387       0.44585045 </v>
    <v>       0.33239257       0.16676086       0.94537827 </v>
    <v>       0.33329527       0.50000000       0.44587478 </v>
    <v>       0.33167420       0.50000000       0.94583612 </v>
    <v>       0.33396760       0.83251613       0.44585045 </v>
    <v>       0.33239257       0.83323914       0.94537827 </v>
    <v>       0.17035876       0.00000000       0.05196568 </v>
    <v>       0.16581282       0.00000000       0.55363875 </v>
    <v>       0.16713473       0.33224983       0.05573952 </v>
    <v>       0.16772739       0.33345683       0.55442083 </v>
    <v>       0.16713473       0.66775017       0.05573952 </v>
    <v>       0.16772739       0.66654317       0.55442083 </v>
    <v>       0.17340208       0.00000000       0.27835708 </v>
   </varray>
  </structure>
  <varray name="forces" >
   <v>       0.00000000       0.08524816       0.02312818 </v>
   <v>       0.00000000       0.06242922       0.00117445 </v>
   <v>      -0.00308030       0.07682241       0.02376055 </v>
   <v>      -0.01251761       0.06573967      -0.00851531 </v>
   <v>       0.00308030       0.07682241       0.02376055 </v>
   <v>       0.01251761       0.06573967      -0.00851531 </v>
   <v>      -0.01771456      -0.09979202      -0.01719734 </v>
   <v>      -0.00962841      -0.07373808      -0.00638989 </v>
   <v>       0.00000000      -0.09831119      -0.01347162 </v>
   <v>       0.00000000      -0.07849812      -0.00163350 </v>
   <v>       0.01771456      -0.09979202      -0.01719734 </v>
   <v>       0.00962841      -0.07373808      -0.00638989 </v>
   <v>       0.01597606       0.01054060      -0.02597408 </v>
   <v>      -0.01143800      -0.02859456       0.03374376 </v>
   <v>       0.00000000      -0.01638670       0.00043468 </v>
   <v>       0.00000000      -0.02534211       0.03509784 </v>
   <v>      -0.01597606       0.01054060      -0.02597408 </v>
   <v>       0.01143800      -0.02859456       0.03374376 </v>
   <v>       0.00000000      -0.01340052       0.05751439 </v>
   <v>       0.00000000       0.00837347      -0.02753524 </v>
   <v>      -0.00111568       0.01096867       0.02458584 </v>
   <v>      -0.01194381       0.01110702      -0.04165816 </v>
   <v>       0.00111568       0.01096867       0.02458584 </v>
   <v>       0.01194381       0.01110702      -0.04165816 </v>
   <v>       0.44699168       0.09081254       0.56031901 </v>
   <v>      -0.00647552       0.04748592      -0.01275098 </v>
   <v>       0.00000000       0.05601970       0.10297601 </v>
   <v>       0.00000000       0.05471518      -0.01577799 </v>
   <v>      -0.44699168       0.09081254       0.56031901 </v>
   <v>       0.00647552       0.04748592      -0.01275098 </v>
   <v>       0.00000000       0.65220519      -0.31345450 </v>
   <v>       0.00000000      -0.04509113      -0.01836898 </v>
   <v>       0.06677444       0.01804865      -0.06677289 </v>
   <v>      -0.01871757      -0.05601809      -0.01219932 </v>
   <v>      -0.06677444       0.01804865      -0.06677289 </v>
   <v>       0.01871757      -0.05601809      -0.01219932 </v>
   <v>       0.00000000      -0.52368873      -0.50683892 </v>
   <v>       0.00000000      -0.05294483       0.07118878 </v>
   <v>       0.03463681      -0.08574412      -0.06762724 </v>
   <v>      -0.01078887      -0.05572789       0.04478097 </v>
   <v>      -0.03463681      -0.08574412      -0.06762724 </v>
   <v>       0.01078887      -0.05572789       0.04478097 </v>
   <v>       0.00302385       0.09177340       0.10429062 </v>
   <v>      -0.01482305       0.07216720      -0.10032323 </v>
   <v>       0.00000000       0.05727140       0.03238280 </v>
   <v>       0.00000000       0.05503181      -0.06438000 </v>
   <v>      -0.00302385       0.09177340       0.10429062 </v>
   <v>       0.01482305       0.07216720      -0.10032323 </v>
   <v>      -0.06642780      -0.08029997      -0.00795645 </v>
   <v>       0.00495291      -0.15698539       0.13469655 </v>
   <v>       0.00000000      -0.14574271       0.08914099 </v>
   <v>       0.00000000      -0.15975517       0.13051130 </v>
   <v>       0.06642780      -0.08029997      -0.00795645 </v>
   <v>      -0.00495291      -0.15698539       0.13469655 </v>
   <v>       0.00000000       0.10664832      -0.07937556 </v>
   <v>       0.00000000       0.17083974      -0.13221837 </v>
   <v>      -0.01100816       0.14051141      -0.09686074 </v>
   <v>       0.00687935       0.16755559      -0.12766956 </v>
   <v>       0.01100816       0.14051141      -0.09686074 </v>
   <v>      -0.00687935       0.16755559      -0.12766956 </v>
   <v>      -0.00189201      -0.03986977      -0.11492664 </v>
   <v>       0.00720095      -0.02995516      -0.11245893 </v>
   <v>       0.00000000      -0.03470231      -0.11420938 </v>
   <v>       0.00000000      -0.03273771      -0.10831315 </v>
   <v>       0.00189201      -0.03986977      -0.11492664 </v>
   <v>      -0.00720095      -0.02995516      -0.11245893 </v>
   <v>       0.00000000       0.04620848       0.11962864 </v>
   <v>       0.00000000       0.03127855       0.11290883 </v>
   <v>       0.00023678       0.04675091       0.11231813 </v>
   <v>       0.00598132       0.03612455       0.11330229 </v>
   <v>      -0.00023678       0.04675091       0.11231813 </v>
   <v>      -0.00598132       0.03612455       0.11330229 </v>
   <v>       0.00000000       0.41483102      -0.05625263 </v>
   <v>       0.00000000       0.39884854      -0.08799326 </v>
   <v>      -0.00362901       0.42235728      -0.05353728 </v>
   <v>       0.00101447       0.40479192      -0.09651824 </v>
   <v>       0.00362901       0.42235728      -0.05353728 </v>
   <v>      -0.00101447       0.40479192      -0.09651824 </v>
   <v>       0.00234204      -0.40180905       0.05365163 </v>
   <v>       0.00146098      -0.39551068       0.08469582 </v>
   <v>       0.00000000      -0.41248245       0.04950649 </v>
   <v>       0.00000000      -0.39854406       0.09197132 </v>
   <v>      -0.00234204      -0.40180905       0.05365163 </v>
   <v>      -0.00146098      -0.39551068       0.08469582 </v>
   <v>       0.00000000      -0.20269051       0.09419241 </v>
   <v>       0.00000000      -0.19610910       0.16083083 </v>
   <v>      -0.02059588      -0.20839228       0.09306125 </v>
   <v>       0.00147474      -0.19432729       0.15215498 </v>
   <v>       0.02059588      -0.20839228       0.09306125 </v>
   <v>      -0.00147474      -0.19432729       0.15215498 </v>
   <v>      -0.03693870       0.30195008      -0.05883822 </v>
   <v>      -0.00734443       0.19790672      -0.12746404 </v>
   <v>       0.00000000       0.19615131      -0.10127919 </v>
   <v>       0.00000000       0.18035874      -0.13289399 </v>
   <v>       0.03693870       0.30195008      -0.05883822 </v>
   <v>       0.00734443       0.19790672      -0.12746404 </v>
   <v>       0.00000000      -0.03243052      -0.10619437 </v>
   <v>      -0.14027756      -0.02149088      -0.10170506 </v>
   <v>       0.01189149      -0.02886765      -0.11128244 </v>
   <v>       0.14027756      -0.02149088      -0.10170506 </v>
   <v>      -0.01189149      -0.02886765      -0.11128244 </v>
   <v>      -0.12622770      -0.14581870       0.01115574 </v>
   <v>       0.00243186       0.03009901       0.13546767 </v>
   <v>       0.00000000       0.01309988       0.07683554 </v>
   <v>       0.00000000       0.02095118       0.11740426 </v>
   <v>       0.12622770      -0.14581870       0.01115574 </v>
   <v>      -0.00243186       0.03009901       0.13546767 </v>
   <v>      -0.07951304       0.27017096       0.09324118 </v>
   <v>       0.01393717       0.39790815      -0.08970167 </v>
   <v>       0.00000000       0.37425726      -0.02477556 </v>
   <v>       0.00000000       0.39060096      -0.08708500 </v>
   <v>       0.07951304       0.27017096       0.09324118 </v>
   <v>      -0.01393717       0.39790815      -0.08970167 </v>
   <v>       0.00000000      -0.43490727      -0.15854549 </v>
   <v>       0.00000000      -0.34438529       0.14019134 </v>
   <v>      -0.00738933      -0.36849519       0.02094743 </v>
   <v>      -0.00608263      -0.39412590       0.10337894 </v>
   <v>       0.00738933      -0.36849519       0.02094743 </v>
   <v>       0.00608263      -0.39412590       0.10337894 </v>
   <v>       0.00000000      -0.21927769      -0.23887164 </v>
  </varray>
  <varray name="stress" >
   <v>     -49.06809647       0.00000000       0.00000000 </v>
   <v>       0.00000000     -43.13619027       3.13275785 </v>
   <v>       0.00000000       3.13275854     -42.24563283 </v>
  </varray>
  <energy>
   <i name="e_fr_energy">   -955.24021491 </i>
   <i name="e_wo_entrp">   -955.21659150 </i>
   <i name="e_0_energy">   -955.22840321 </i>
  </energy>
  <time name="totalsc">20754.2920751.69</time>
  <eigenvalues>
   <array>
    <dimension dim="1">band</dimension>
    <dimension dim="2">kpoint</dimension>
    <dimension dim="3">spin</dimension>
    <field>eigene</field>
    <field>occ</field>
    <set>
     <set comment="spin 1">
      <set comment="kpoint 1">
       <r>  -18.6410    1.0000 </r>
       <r>  -18.3652    1.0000 </r>
       <r>  -18.2927    1.0000 </r>
       <r>  -18.2333    1.0000 </r>
       <r>  -18.1104    1.0000 </r>
       <r>  -17.9636    1.0000 </r>
       <r>  -17.9370    1.0000 </r>
       <r>  -17.8940    1.0000 </r>
       <r>  -17.8135    1.0000 </r>
       <r>  -17.7857    1.0000 </r>
       <r>  -17.7652    1.0000 </r>
       <r>  -17.7116    1.0000 </r>
       <r>  -17.6750    1.0000 </r>
       <r>  -17.6690    1.0000 </r>
       <r>  -17.6688    1.0000 </r>
       <r>  -17.6630    1.0000 </r>
       <r>  -17.6516    1.0000 </r>
       <r>  -17.5930    1.0000 </r>
       <r>  -17.5078    1.0000 </r>
       <r>  -17.5077    1.0000 </r>
       <r>  -17.4995    1.0000 </r>
       <r>  -17.4849    1.0000 </r>
       <r>  -17.4826    1.0000 </r>
       <r>  -17.4777    1.0000 </r>
       <r>  -17.4746    1.0000 </r>
       <r>  -17.4582    1.0000 </r>
       <r>  -17.3626    1.0000 </r>
       <r>  -17.3623    1.0000 </r>
       <r>  -17.3445    1.0000 </r>
       <r>  -17.3262    1.0000 </r>
       <r>  -17.3150    1.0000 </r>
       <r>  -17.3077    1.0000 </r>
       <r>  -17.2956    1.0000 </r>
       <r>  -17.2930    1.0000 </r>
       <r>  -17.2631    1.0000 </r>
       <r>  -17.2573    1.0000 </r>
       <r>  -17.2425    1.0000 </r>
       <r>  -17.2326    1.0000 </r>
       <r>  -17.2301    1.0000 </r>
       <r>  -17.1990    1.0000 </r>
       <r>  -17.1534    1.0000 </r>
       <r>  -17.1456    1.0000 </r>
       <r>  -17.1437    1.0000 </r>
       <r>  -17.1384    1.0000 </r>
       <r>  -17.1379    1.0000 </r>
       <r>  -17.1120    1.0000 </r>
       <r>  -17.1104    1.0000 </r>
       <r>  -17.0643    1.0000 </r>
       <r>  -17.0191    1.0000 </r>
       <r>  -17.0052    1.0000 </r>
       <r>  -16.9975    1.0000 </r>
       <r>  -16.9748    1.0000 </r>
       <r>  -16.9710    1.0000 </r>
       <r>  -16.9267    1.0000 </r>
       <r>  -16.9223    1.0000 </r>
       <r>  -16.8873    1.0000 </r>
       <r>  -16.8867    1.0000 </r>
       <r>  -16.8832    1.0000 </r>
       <r>  -16.8807    1.0000 </r>
       <r>  -16.8706    1.0000 </r>
       <r>  -16.8677    1.0000 </r>
       <r>  -16.8653    1.0000 </r>
       <r>  -16.8564    1.0000 </r>
       <r>  -16.8551    1.0000 </r>
       <r>  -16.8533    1.0000 </r>
       <r>  -16.8509    1.0000 </r>
       <r>  -16.8500    1.0000 </r>
       <r>  -16.8348    1.0000 </r>
       <r>  -16.8294    1.0000 </r>
       <r>  -16.7745    1.0000 </r>
       <r>  -16.7413    1.0000 </r>
       <r>  -14.0894    1.0000 </r>
       <r>  -13.0355    1.0000 </r>
       <r>  -13.0220    1.0000 </r>
       <r>  -13.0100    1.0000 </r>
       <r>  -13.0004    1.0000 </r>
       <r>  -12.9906    1.0000 </r>
       <r>  -12.9798    1.0000 </r>
       <r>  -12.9783    1.0000 </r>
       <r>  -12.9771    1.0000 </r>
       <r>  -12.9717    1.0000 </r>
       <r>  -12.9618    1.0000 </r>
       <r>  -12.9606    1.0000 </r>
       <r>  -12.9589    1.0000 </r>
       <r>  -12.9579    1.0000 </r>
       <r>  -12.9553    1.0000 </r>
       <r>  -12.9502    1.0000 </r>
       <r>  -12.9383    1.0000 </r>
       <r>  -12.9313    1.0000 </r>
       <r>  -12.9280    1.0000 </r>
       <r>  -12.9216    1.0000 </r>
       <r>  -12.9191    1.0000 </r>
       <r>  -12.9185    1.0000 </r>
       <r>  -12.9157    1.0000 </r>
       <r>  -12.9096    1.0000 </r>
       <r>  -12.9073    1.0000 </r>
       <r>  -12.9060    1.0000 </r>
       <r>  -12.9056    1.0000 </r>
       <r>  -12.9027    1.0000 </r>
       <r>  -12.9005    1.0000 </r>
       <r>  -12.8953    1.0000 </r>
       <r>  -12.8951    1.0000 </r>
       <r>  -12.8923    1.0000 </r>
       <r>  -12.8908    1.0000 </r>
       <r>  -12.8877    1.0000 </r>
       <r>  -12.8861    1.0000 </r>
       <r>  -12.8850    1.0000 </r>
       <r>  -12.8817    1.0000 </r>
       <r>  -12.8809    1.0000 </r>
       <r>  -12.8783    1.0000 </r>
       <r>  -12.8771    1.0000 </r>
       <r>  -12.8768    1.0000 </r>
       <r>  -12.8754    1.0000 </r>
       <r>  -12.8753    1.0000 </r>
       <r>  -12.8690    1.0000 </r>
       <r>  -12.8688    1.0000 </r>
       <r>  -12.8657    1.0000 </r>
       <r>  -12.8624    1.0000 </r>
       <r>  -12.8614    1.0000 </r>
       <r>  -12.8613    1.0000 </r>
       <r>  -12.8587    1.0000 </r>
       <r>  -12.8573    1.0000 </r>
       <r>  -12.8565    1.0000 </r>
       <r>  -12.8552    1.0000 </r>
       <r>  -12.8541    1.0000 </r>
       <r>  -12.8522    1.0000 </r>
       <r>  -12.8493    1.0000 </r>
       <r>  -12.8485    1.0000 </r>
       <r>  -12.8423    1.0000 </r>
       <r>  -12.8409    1.0000 </r>
       <r>  -12.8288    1.0000 </r>
       <r>  -12.8231    1.0000 </r>
       <r>  -12.8182    1.0000 </r>
       <r>  -12.8116    1.0000 </r>
       <r>  -12.8113    1.0000 </r>
       <r>  -12.8094    1.0000 </r>
       <r>  -12.7956    1.0000 </r>
       <r>  -12.7938    1.0000 </r>
       <r>  -12.7875    1.0000 </r>
       <r>  -12.7812    1.0000 </r>
       <r>  -12.7779    1.0000 </r>
       <r>  -12.7775    1.0000 </r>
       <r>  -12.7745    1.0000 </r>
       <r>  -12.7697    1.0000 </r>
       <r>  -12.7689    1.0000 </r>
       <r>  -12.7650    1.0000 </r>
       <r>  -12.7614    1.0000 </r>
       <r>  -12.7596    1.0000 </r>
       <r>  -12.7575    1.0000 </r>
       <r>  -12.7546    1.0000 </r>
       <r>  -12.7512    1.0000 </r>
       <r>  -12.7507    1.0000 </r>
       <r>  -12.7482    1.0000 </r>
       <r>  -12.7466    1.0000 </r>
       <r>  -12.7456    1.0000 </r>
       <r>  -12.7441    1.0000 </r>
       <r>  -12.7432    1.0000 </r>
       <r>  -12.7413    1.0000 </r>
       <r>  -12.7382    1.0000 </r>
       <r>  -12.7380    1.0000 </r>
       <r>  -12.7367    1.0000 </r>
       <r>  -12.7362    1.0000 </r>
       <r>  -12.7322    1.0000 </r>
       <r>  -12.7320    1.0000 </r>
       <r>  -12.7286    1.0000 </r>
       <r>  -12.7281    1.0000 </r>
       <r>  -12.7260    1.0000 </r>
       <r>  -12.7227    1.0000 </r>
       <r>  -12.7224    1.0000 </r>
       <r>  -12.7210    1.0000 </r>
       <r>  -12.7176    1.0000 </r>
       <r>  -12.7175    1.0000 </r>
       <r>  -12.7156    1.0000 </r>
       <r>  -12.7153    1.0000 </r>
       <r>  -12.7142    1.0000 </r>
       <r>  -12.7122    1.0000 </r>
       <r>  -12.7120    1.0000 </r>
       <r>  -12.7100    1.0000 </r>
       <r>  -12.7066    1.0000 </r>
       <r>  -12.7053    1.0000 </r>
       <r>  -12.6996    1.0000 </r>
       <r>  -12.6975    1.0000 </r>
       <r>  -12.6959    1.0000 </r>
       <r>  -12.6911    1.0000 </r>
       <r>  -12.6899    1.0000 </r>
       <r>  -12.6836    1.0000 </r>
       <r>  -12.6806    1.0000 </r>
       <r>  -12.6705    1.0000 </r>
       <r>  -12.6688    1.0000 </r>
       <r>  -12.6681    1.0000 </r>
       <r>  -12.6657    1.0000 </r>
       <r>  -12.6617    1.0000 </r>
       <r>  -12.6592    1.0000 </r>
       <r>  -12.6586    1.0000 </r>
       <r>  -12.6570    1.0000 </r>
       <r>  -12.6566    1.0000 </r>
       <r>  -12.6466    1.0000 </r>
       <r>  -12.6436    1.0000 </r>
       <r>  -12.6389    1.0000 </r>
       <r>  -12.6350    1.0000 </r>
       <r>  -12.6318    1.0000 </r>
       <r>  -12.6289    1.0000 </r>
       <r>  -12.6280    1.0000 </r>
       <r>  -12.6235    1.0000 </r>
       <r>  -12.6223    1.0000 </r>
       <r>  -12.6201    1.0000 </r>
       <r>  -12.6195    1.0000 </r>
       <r>  -12.6157    1.0000 </r>
       <r>  -12.6082    1.0000 </r>
       <r>  -12.6051    1.0000 </r>
       <r>  -12.6050    1.0000 </r>
       <r>  -12.6044    1.0000 </r>
       <r>  -12.6022    1.0000 </r>
[...]
       <r>   -12.0875   118.8949   573.2277 </r>
       <r>   -11.9520    90.4107   585.4790 </r>
       <r>   -11.8164   114.0526   600.9338 </r>
       <r>   -11.6809   120.0809   617.2056 </r>
       <r>   -11.5454    34.3739   621.8635 </r>
       <r>   -11.4099     1.0076   622.0000 </r>
       <r>   -11.2744     0.0000   622.0000 </r>
       <r>   -11.1389     0.0000   622.0000 </r>
       <r>   -11.0034     0.0000   622.0000 </r>
       <r>   -10.8679     0.1596   622.0216 </r>
       <r>   -10.7324    13.5053   623.8517 </r>
       <r>   -10.5969     1.0945   624.0000 </r>
       <r>   -10.4614     0.0000   624.0000 </r>
       <r>   -10.3259     0.0000   624.0000 </r>
       <r>   -10.1904     0.0000   624.0000 </r>
       <r>   -10.0549     0.0000   624.0000 </r>
       <r>    -9.9194     0.0000   624.0000 </r>
       <r>    -9.7838     0.0000   624.0000 </r>
       <r>    -9.6483     0.0000   624.0000 </r>
       <r>    -9.5128     0.0000   624.0000 </r>
       <r>    -9.3773     0.0000   624.0000 </r>
       <r>    -9.2418     0.0000   624.0000 </r>
       <r>    -9.1063     0.0000   624.0000 </r>
       <r>    -8.9708     0.0000   624.0000 </r>
       <r>    -8.8353     0.0000   624.0000 </r>
       <r>    -8.6998     0.0000   624.0000 </r>
       <r>    -8.5643     0.0000   624.0000 </r>
       <r>    -8.4288     0.0000   624.0000 </r>
       <r>    -8.2933     0.0000   624.0000 </r>
       <r>    -8.1578     0.0000   624.0000 </r>
       <r>    -8.0223     0.0000   624.0000 </r>
       <r>    -7.8868     0.0000   624.0000 </r>
       <r>    -7.7512     0.0000   624.0000 </r>
       <r>    -7.6157     0.0000   624.0000 </r>
       <r>    -7.4802     0.0000   624.0000 </r>
       <r>    -7.3447     0.0000   624.0000 </r>
       <r>    -7.2092     0.0000   624.0000 </r>
       <r>    -7.0737     0.0000   624.0000 </r>
       <r>    -6.9382     0.0000   624.0000 </r>
       <r>    -6.8027     0.0000   624.0000 </r>
       <r>    -6.6672     0.0000   624.0000 </r>
       <r>    -6.5317     0.0000   624.0000 </r>
       <r>    -6.3962     0.0000   624.0000 </r>
       <r>    -6.2607     0.0000   624.0000 </r>
       <r>    -6.1252     0.0000   624.0000 </r>
       <r>    -5.9897     0.0000   624.0000 </r>
       <r>    -5.8542     0.0000   624.0000 </r>
       <r>    -5.7187     0.0000   624.0000 </r>
       <r>    -5.5831     0.0000   624.0000 </r>
       <r>    -5.4476     0.0000   624.0000 </r>
       <r>    -5.3121     0.0000   624.0000 </r>
       <r>    -5.1766     0.4846   624.0657 </r>
       <r>    -5.0411     6.9559   625.0082 </r>
       <r>    -4.9056    17.4697   627.3755 </r>
       <r>    -4.7701    20.4354   630.1446 </r>
       <r>    -4.6346    36.1665   635.0454 </r>
       <r>    -4.4991    22.1423   638.0458 </r>
       <r>    -4.3636    53.7378   645.3277 </r>
       <r>    -4.2281    35.6450   650.1578 </r>
       <r>    -4.0926    63.1809   658.7192 </r>
       <r>    -3.9571    54.2713   666.0733 </r>
       <r>    -3.8216    38.1239   671.2394 </r>
       <r>    -3.6861    54.4556   678.6185 </r>
       <r>    -3.5505    43.0984   684.4586 </r>
       <r>    -3.4150    26.9062   688.1045 </r>
       <r>    -3.2795    30.1494   692.1900 </r>
       <r>    -3.1440    29.6856   696.2126 </r>
       <r>    -3.0085    40.8417   701.7469 </r>
       <r>    -2.8730    36.0489   706.6318 </r>
       <r>    -2.7375    37.5879   711.7252 </r>
       <r>    -2.6020    27.3878   715.4364 </r>
       <r>    -2.4665    37.5759   720.5282 </r>
       <r>    -2.3310    39.4964   725.8802 </r>
       <r>    -2.1955    42.2673   731.6077 </r>
       <r>    -2.0600    48.7857   738.2185 </r>
       <r>    -1.9245    30.7270   742.3822 </r>
       <r>    -1.7890    46.3604   748.6643 </r>
       <r>    -1.6535    85.6317   760.2680 </r>
       <r>    -1.5179    64.0590   768.9484 </r>
       <r>    -1.3824    51.1838   775.8841 </r>
       <r>    -1.2469    70.1238   785.3864 </r>
       <r>    -1.1114    58.4689   793.3093 </r>
       <r>    -0.9759    39.4479   798.6547 </r>
       <r>    -0.8404    68.2229   807.8994 </r>
       <r>    -0.7049    74.4833   817.9923 </r>
       <r>    -0.5694    66.7865   827.0423 </r>
       <r>    -0.4339    82.2045   838.1816 </r>
       <r>    -0.2984    53.7437   845.4642 </r>
       <r>    -0.1629    70.8668   855.0671 </r>
       <r>    -0.0274    69.6981   864.5117 </r>
       <r>     0.1081    79.1763   875.2406 </r>
       <r>     0.2436    82.9650   886.4829 </r>
       <r>     0.3791    62.5994   894.9655 </r>
       <r>     0.5146    64.4171   903.6944 </r>
       <r>     0.6502    88.5491   915.6934 </r>
       <r>     0.7857    88.0346   927.6227 </r>
       <r>     0.9212    96.6308   940.7168 </r>
       <r>     1.0567    89.0233   952.7800 </r>
       <r>     1.1922    91.7477   965.2124 </r>
       <r>     1.3277   126.2115   982.3149 </r>
       <r>     1.4632   121.2542   998.7456 </r>
       <r>     1.5987   132.6576  1016.7216 </r>
       <r>     1.7342   104.0717  1030.8240 </r>
       <r>     1.8697    62.5807  1039.3041 </r>
       <r>     2.0052    55.4304  1046.8153 </r>
       <r>     2.1407    46.3514  1053.0962 </r>
       <r>     2.2762     6.6679  1053.9997 </r>
       <r>     2.4117     0.0019  1054.0000 </r>
       <r>     2.5472     0.0000  1054.0000 </r>
       <r>     2.6828     0.0341  1054.0046 </r>
       <r>     2.8183    10.0393  1055.3650 </r>
       <r>     2.9538     4.6850  1055.9999 </r>
       <r>     3.0893     0.0011  1056.0000 </r>
       <r>     3.2248     0.0000  1056.0000 </r>
       <r>     3.3603     0.0000  1056.0000 </r>
       <r>     3.4958     0.0000  1056.0000 </r>
       <r>     3.6313     0.0000  1056.0000 </r>
       <r>     3.7668     0.0000  1056.0000 </r>
       <r>     3.9023     0.0000  1056.0000 </r>
       <r>     4.0378     0.0000  1056.0000 </r>
       <r>     4.1733     0.0000  1056.0000 </r>
       <r>     4.3088     0.0000  1056.0000 </r>
       <r>     4.4443     0.0000  1056.0000 </r>
       <r>     4.5798     0.0000  1056.0000 </r>
       <r>     4.7154     0.0000  1056.0000 </r>
       <r>     4.8509     0.0000  1056.0000 </r>
       <r>     4.9864     0.0000  1056.0000 </r>
       <r>     5.1219     0.0000  1056.0000 </r>
       <r>     5.2574     0.0000  1056.0000 </r>
       <r>     5.3929     0.0000  1056.0000 </r>
       <r>     5.5284     0.0000  1056.0000 </r>
       <r>     5.6639     0.0000  1056.0000 </r>
       <r>     5.7994     0.0000  1056.0000 </r>
       <r>     5.9349     0.0000  1056.0000 </r>
       <r>     6.0704     0.0000  1056.0000 </r>
       <r>     6.2059     0.0000  1056.0000 </r>
       <r>     6.3414     0.0000  1056.0000 </r>
       <r>     6.4769     0.0000  1056.0000 </r>
       <r>     6.6124     0.0000  1056.0000 </r>
       <r>     6.7479     0.1437  1056.0195 </r>
       <r>     6.8835     1.6866  1056.2480 </r>
       <r>     7.0190     0.0146  1056.2500 </r>
       <r>     7.1545     0.0000  1056.2500 </r>
       <r>     7.2900     0.0000  1056.2500 </r>
       <r>     7.4255     0.0000  1056.2500 </r>
       <r>     7.5610     0.2520  1056.2842 </r>
       <r>     7.6965     5.0825  1056.9729 </r>
       <r>     7.8320     2.0436  1057.2498 </r>
       <r>     7.9675     0.8519  1057.3652 </r>
       <r>     8.1030     5.2692  1058.0793 </r>
       <r>     8.2385     1.2599  1058.2500 </r>
       <r>     8.3740     0.0002  1058.2500 </r>
       <r>     8.5095     2.1637  1058.5432 </r>
       <r>     8.6450     8.6359  1059.7134 </r>
       <r>     8.7805     6.2038  1060.5541 </r>
       <r>     8.9161     3.6271  1061.0456 </r>
       <r>     9.0516     6.3263  1061.9028 </r>
       <r>     9.1871     2.9229  1062.2989 </r>
       <r>     9.3226     8.9881  1063.5169 </r>
       <r>     9.4581     8.9936  1064.7355 </r>
       <r>     9.5936     3.3601  1065.1909 </r>
       <r>     9.7291     3.2108  1065.6259 </r>
       <r>     9.8646    15.1685  1067.6814 </r>
       <r>    10.0001    14.0562  1069.5861 </r>
       <r>    10.1356     9.0011  1070.8058 </r>
       <r>    10.2711     7.2881  1071.7934 </r>
       <r>    10.4066    23.4470  1074.9706 </r>
       <r>    10.5421    29.8988  1079.0221 </r>
       <r>    10.6776    39.6651  1084.3969 </r>
       <r>    10.8131    38.8219  1089.6576 </r>
       <r>    10.9487    49.1608  1096.3192 </r>
       <r>    11.0842    21.8922  1099.2857 </r>
       <r>    11.2197    24.2800  1102.5758 </r>
       <r>    11.3552    32.8471  1107.0268 </r>
       <r>    11.4907    29.1515  1110.9770 </r>
       <r>    11.6262    37.3945  1116.0442 </r>
       <r>    11.7617    39.3416  1121.3753 </r>
       <r>    11.8972    33.1813  1125.8715 </r>
       <r>    12.0327    38.0728  1131.0306 </r>
       <r>    12.1682    22.0979  1134.0250 </r>
       <r>    12.3037    30.4212  1138.1473 </r>
       <r>    12.4392    39.3807  1143.4837 </r>
       <r>    12.5747    55.0302  1150.9406 </r>
       <r>    12.7102    44.5101  1156.9720 </r>
       <r>    12.8457    20.5574  1159.7577 </r>
       <r>    12.9812    10.7169  1161.2099 </r>
       <r>    13.1168    11.9994  1162.8359 </r>
       <r>    13.2523    33.6924  1167.4014 </r>
       <r>    13.3878    25.7827  1170.8952 </r>
       <r>    13.5233    35.8703  1175.7558 </r>
       <r>    13.6588    32.6981  1180.1866 </r>
       <r>    13.7943    25.0322  1183.5787 </r>
       <r>    13.9298    32.1599  1187.9365 </r>
       <r>    14.0653    28.7997  1191.8391 </r>
       <r>    14.2008    16.8698  1194.1251 </r>
       <r>    14.3363    25.3150  1197.5554 </r>
       <r>    14.4718    24.1523  1200.8282 </r>
       <r>    14.6073    19.4999  1203.4706 </r>
       <r>    14.7428    20.2207  1206.2106 </r>
       <r>    14.8783    21.5699  1209.1335 </r>
       <r>    15.0138    27.4109  1212.8478 </r>
       <r>    15.1494    28.2724  1216.6789 </r>
       <r>    15.2849    28.8954  1220.5944 </r>
       <r>    15.4204    28.6815  1224.4810 </r>
       <r>    15.5559    24.0241  1227.7364 </r>
       <r>    15.6914    23.6758  1230.9446 </r>
       <r>    15.8269    21.7702  1233.8946 </r>
       <r>    15.9624    27.5700  1237.6305 </r>
       <r>    16.0979    21.8837  1240.5959 </r>
       <r>    16.2334    21.8592  1243.5580 </r>
       <r>    16.3689    21.0863  1246.4153 </r>
       <r>    16.5044    14.5447  1248.3862 </r>
       <r>    16.6399    19.3496  1251.0082 </r>
       <r>    16.7754    17.5589  1253.3875 </r>
       <r>    16.9109    15.5927  1255.5004 </r>
       <r>    17.0464    18.7769  1258.0448 </r>
       <r>    17.1820    14.6908  1260.0355 </r>
       <r>    17.3175    12.4096  1261.7171 </r>
       <r>    17.4530     6.1193  1262.5463 </r>
       <r>    17.5885     3.2993  1262.9934 </r>
       <r>    17.7240     7.6646  1264.0320 </r>
       <r>    17.8595     6.8130  1264.9552 </r>
       <r>    17.9950     0.3329  1265.0003 </r>
       <r>    18.1305     1.5546  1265.2110 </r>
       <r>    18.2660     3.5928  1265.6978 </r>
       <r>    18.4015     2.2163  1265.9982 </r>
       <r>    18.5370     0.0136  1266.0000 </r>
       <r>    18.6725     0.0000  1266.0000 </r>
       <r>    18.8080     0.0000  1266.0000 </r>
       <r>    18.9435     0.0000  1266.0000 </r>
       <r>    19.0790     0.0000  1266.0000 </r>
       <r>    19.2145     0.0000  1266.0000 </r>
       <r>    19.3501     0.0000  1266.0000 </r>
       <r>    19.4856     0.0000  1266.0000 </r>
       <r>    19.6211     0.0000  1266.0000 </r>
       <r>    19.7566     0.0000  1266.0000 </r>
       <r>    19.8921     0.0000  1266.0000 </r>
       <r>    20.0276     0.0000  1266.0000 </r>
       <r>    20.1631     0.0000  1266.0000 </r>
      </set>
     </set>
    </array>
   </total>
  </dos>
 </calculation>
 <structure name="finalpos" >
  <crystal>
   <varray name="basis" >
    <v>       0.00000000      12.28047342       0.00000000 </v>
    <v>       9.14270205       0.00000000       0.00000000 </v>
    <v>       0.00000000      -2.76826177     -11.30069772 </v>
   </varray>
   <i name="volume">   1268.80515525 </i>
   <varray name="rec_basis" >
    <v>       0.00000000       0.08143009      -0.01994742 </v>
    <v>       0.10937686      -0.00000000       0.00000000 </v>
    <v>       0.00000000       0.00000000      -0.08849011 </v>
   </varray>
  </crystal>
  <varray name="positions" >
   <v>       0.65938967       0.00000000       0.15660368 </v>
   <v>       0.65911876       0.00000000       0.65657015 </v>
   <v>       0.65963902       0.33359516       0.15643909 </v>
   <v>       0.65905815       0.33334469       0.65671376 </v>
   <v>       0.65963902       0.66640484       0.15643909 </v>
   <v>       0.65905815       0.66665531       0.65671376 </v>
   <v>       0.84018495       0.16684154       0.34396789 </v>
   <v>       0.84076047       0.16671632       0.84329006 </v>
   <v>       0.84085847       0.50000000       0.34364052 </v>
   <v>       0.84118505       0.50000000       0.84336000 </v>
   <v>       0.84018495       0.83315846       0.34396789 </v>
   <v>       0.84076047       0.83328368       0.84329006 </v>
   <v>       0.59052687       0.16649467       0.39726190 </v>
   <v>       0.59102727       0.16670767       0.89758079 </v>
   <v>       0.59229831       0.50000000       0.39793339 </v>
   <v>       0.59113250       0.50000000       0.89770238 </v>
   <v>       0.59052687       0.83350533       0.39726190 </v>
   <v>       0.59102727       0.83329233       0.89758079 </v>
   <v>       0.90807688       0.00000000       0.10240965 </v>
   <v>       0.90870658       0.00000000       0.60205836 </v>
   <v>       0.90844155       0.33356945       0.10242987 </v>
   <v>       0.90854403       0.33346352       0.60228912 </v>
   <v>       0.90844155       0.66643055       0.10242987 </v>
   <v>       0.90854403       0.66653648       0.60228912 </v>
   <v>       0.16059565       0.16476213       0.15974847 </v>
   <v>       0.15832370       0.16645720       0.65596846 </v>
   <v>       0.15868948       0.50000000       0.15750918 </v>
   <v>       0.15865083       0.50000000       0.65689431 </v>
   <v>       0.16059565       0.83523787       0.15974847 </v>
   <v>       0.15832370       0.83354280       0.65596846 </v>
   <v>       0.33994761       0.00000000       0.34116788 </v>
   <v>       0.34053588       0.00000000       0.84292124 </v>
   <v>       0.34178059       0.33412660       0.34268896 </v>
   <v>       0.34062633       0.33351625       0.84306302 </v>
   <v>       0.34178059       0.66587340       0.34268896 </v>
   <v>       0.34062633       0.66648375       0.84306302 </v>
   <v>       0.09119843       0.00000000       0.39466139 </v>
   <v>       0.09033280       0.00000000       0.89665999 </v>
   <v>       0.09042873       0.33301480       0.39782452 </v>
   <v>       0.09144800       0.33299105       0.89869152 </v>
   <v>       0.09042873       0.66698520       0.39782452 </v>
   <v>       0.09144800       0.66700895       0.89869152 </v>
   <v>       0.41042289       0.16732054       0.10151552 </v>
   <v>       0.40909999       0.16667619       0.60291049 </v>
   <v>       0.40917099       0.50000000       0.10229504 </v>
   <v>       0.40886717       0.50000000       0.60240518 </v>
   <v>       0.41042289       0.83267946       0.10151552 </v>
   <v>       0.40909999       0.83332381       0.60291049 </v>
   <v>       0.99568432       0.16660758       0.12571781 </v>
   <v>       0.99579819       0.16683700       0.62778049 </v>
   <v>       0.99587801       0.50000000       0.12753133 </v>
   <v>       0.99608091       0.50000000       0.62747168 </v>
   <v>       0.99568432       0.83339242       0.12571781 </v>
   <v>       0.99579819       0.83316300       0.62778049 </v>
   <v>       0.50280467       0.00000000       0.37222953 </v>
   <v>       0.50348341       0.00000000       0.87248301 </v>
   <v>       0.50445595       0.33398338       0.37299972 </v>
   <v>       0.50347348       0.33338360       0.87257660 </v>
   <v>       0.50445595       0.66601662       0.37299972 </v>
   <v>       0.50347348       0.66661640       0.87257660 </v>
   <v>       0.67212753       0.16661145       0.28017357 </v>
   <v>       0.67242119       0.16668275       0.78036714 </v>
   <v>       0.67281962       0.50000000       0.28011679 </v>
   <v>       0.67251854       0.50000000       0.78054032 </v>
   <v>       0.67212753       0.83338855       0.28017357 </v>
   <v>       0.67242119       0.83331725       0.78036714 </v>
   <v>       0.82727636       0.00000000       0.21993498 </v>
   <v>       0.82728892       0.00000000       0.71948060 </v>
   <v>       0.82736401       0.33327785       0.21979061 </v>
   <v>       0.82732407       0.33338584       0.71968831 </v>
   <v>       0.82736401       0.66672215       0.21979061 </v>
   <v>       0.82732407       0.66661416       0.71968831 </v>
   <v>       0.83048938       0.00000000       0.44603907 </v>
   <v>       0.83167998       0.00000000       0.94560580 </v>
   <v>       0.83068793       0.33378837       0.44608460 </v>
   <v>       0.83191722       0.33339038       0.94569937 </v>
   <v>       0.83068793       0.66621163       0.44608460 </v>
   <v>       0.83191722       0.66660962       0.94569937 </v>
   <v>       0.66827806       0.16665789       0.05400467 </v>
   <v>       0.66719554       0.16658256       0.55404512 </v>
   <v>       0.66909779       0.50000000       0.05385250 </v>
   <v>       0.66810095       0.50000000       0.55473738 </v>
   <v>       0.66827806       0.83334211       0.05400467 </v>
   <v>       0.66719554       0.83341744       0.55404512 </v>
   <v>       0.49699860       0.00000000       0.12635745 </v>
   <v>       0.49643056       0.00000000       0.62808617 </v>
   <v>       0.49750544       0.33419850       0.12611786 </v>
   <v>       0.49643161       0.33335335       0.62802438 </v>
   <v>       0.49750544       0.66580150       0.12611786 </v>
   <v>       0.49643161       0.66664665       0.62802438 </v>
   <v>       0.00187025       0.16734971       0.37449033 </v>
   <v>       0.00323984       0.16680469       0.87275091 </v>
   <v>       0.00310797       0.50000000       0.37333400 </v>
   <v>       0.00406167       0.50000000       0.87339456 </v>
   <v>       0.00187025       0.83265029       0.37449033 </v>
   <v>       0.00323984       0.83319531       0.87275091 </v>
   <v>       0.17216786       0.00000000       0.77998710 </v>
   <v>       0.17286675       0.33546640       0.28168159 </v>
   <v>       0.17231546       0.33309258       0.78077728 </v>
   <v>       0.17286675       0.66453360       0.28168159 </v>
   <v>       0.17231546       0.66690742       0.78077728 </v>
   <v>       0.33083779       0.17114600       0.21899062 </v>
   <v>       0.32702848       0.16649035       0.71924180 </v>
   <v>       0.32782975       0.50000000       0.21924835 </v>
   <v>       0.32727536       0.50000000       0.71955411 </v>
   <v>       0.33083779       0.82885400       0.21899062 </v>
   <v>       0.32702848       0.83350965       0.71924180 </v>
   <v>       0.33396760       0.16748387       0.44585045 </v>
   <v>       0.33239257       0.16676086       0.94537827 </v>
   <v>       0.33329527       0.50000000       0.44587478 </v>
   <v>       0.33167420       0.50000000       0.94583612 </v>
   <v>       0.33396760       0.83251613       0.44585045 </v>
   <v>       0.33239257       0.83323914       0.94537827 </v>
   <v>       0.17035876       0.00000000       0.05196568 </v>
   <v>       0.16581282       0.00000000       0.55363875 </v>
   <v>       0.16713473       0.33224983       0.05573952 </v>
   <v>       0.16772739       0.33345683       0.55442083 </v>
   <v>       0.16713473       0.66775017       0.05573952 </v>
   <v>       0.16772739       0.66654317       0.55442083 </v>
   <v>       0.17340208       0.00000000       0.27835708 </v>
  </varray>
 </structure>
</modeling>
