       N       E                     dE             d eps       ncg     rms          rms(c)
DAV:   1     0.219518811586E+05    0.21952E+05   -0.32100E+05 10128   0.282E+03
DAV:   2     0.485431539074E+04   -0.17098E+05   -0.16112E+05 10128   0.815E+02
DAV:   3    -0.153918194036E+03   -0.50082E+04   -0.47135E+04 12912   0.320E+02
DAV:   4    -0.779413136333E+03   -0.62549E+03   -0.61220E+03 12504   0.121E+02
DAV:   5    -0.822446855192E+03   -0.43034E+02   -0.42683E+02 14416   0.344E+01    0.606E+01
RMM:   6    -0.710236320513E+03    0.11221E+03   -0.37826E+02 13190   0.235E+01    0.162E+01
RMM:   7    -0.713926652215E+03   -0.36903E+01   -0.63833E+01 13899   0.967E+00    0.129E+01
RMM:   8    -0.713375188763E+03    0.55146E+00   -0.72689E+00 13351   0.430E+00    0.630E+00
RMM:   9    -0.713580010383E+03   -0.20482E+00   -0.32185E+00 13072   0.334E+00    0.346E+00
RMM:  10    -0.713324255795E+03    0.25575E+00   -0.13285E+00 15308   0.164E+00    0.892E-01
RMM:  11    -0.713362758948E+03   -0.38503E-01   -0.50046E-01 14095   0.774E-01    0.539E-01
RMM:  12    -0.713367344141E+03   -0.45852E-02   -0.65733E-02 13859   0.377E-01    0.173E-01
RMM:  13    -0.713368559375E+03   -0.12152E-02   -0.20981E-02 15329   0.189E-01    0.485E-02
RMM:  14    -0.713369110728E+03   -0.55135E-03   -0.53145E-03 15367   0.858E-02    0.294E-02
RMM:  15    -0.713369312923E+03   -0.20220E-03   -0.17212E-03 13454   0.530E-02    0.304E-02
RMM:  16    -0.713369369780E+03   -0.56857E-04   -0.94532E-04 11933   0.303E-02    0.152E-02
RMM:  17    -0.713369385273E+03   -0.15493E-04   -0.24052E-04 10603   0.180E-02    0.512E-03
RMM:  18    -0.713369396221E+03   -0.10948E-04   -0.11002E-04  9527   0.101E-02    0.201E-03
RMM:  19    -0.713369399582E+03   -0.33611E-05   -0.28720E-05  8267   0.727E-03
   1 F= -.71336940E+03 E0= -.71335650E+03  d E =-.713369E+03
       N       E                     dE             d eps       ncg     rms          rms(c)
DAV:   1    -0.713318677651E+03    0.50719E-01   -0.28120E+01 10624   0.742E+00    0.845E-01
RMM:   2    -0.713417289396E+03   -0.98612E-01   -0.10627E+00 13491   0.198E+00    0.280E-01
RMM:   3    -0.713434528229E+03   -0.17239E-01   -0.20264E-01 15432   0.732E-01    0.309E-01
RMM:   4    -0.713434589329E+03   -0.61100E-04   -0.21478E-02 15423   0.242E-01    0.195E-01
RMM:   5    -0.713433763592E+03    0.82574E-03   -0.81616E-03 14753   0.122E-01    0.855E-02
RMM:   6    -0.713433763444E+03    0.14783E-06   -0.12757E-03 15334   0.502E-02    0.486E-02
RMM:   7    -0.713433748031E+03    0.15412E-04   -0.42335E-04 12106   0.247E-02    0.144E-02
RMM:   8    -0.713433754298E+03   -0.62664E-05   -0.11059E-04 10166   0.145E-02    0.615E-03
RMM:   9    -0.713433756997E+03   -0.26990E-05   -0.38429E-05  8943   0.907E-03
   2 F= -.71343376E+03 E0= -.71342085E+03  d E =-.643574E-01
       N       E                     dE             d eps       ncg     rms          rms(c)
DAV:   1    -0.713433165630E+03    0.58867E-03   -0.34026E-01 10840   0.820E-01    0.914E-02
RMM:   2    -0.713434311592E+03   -0.11460E-02   -0.12376E-02 13366   0.217E-01    0.309E-02
RMM:   3    -0.713434513188E+03   -0.20160E-03   -0.23984E-03 15306   0.805E-02    0.333E-02
RMM:   4    -0.713434517397E+03   -0.42081E-05   -0.26008E-04 13190   0.270E-02    0.234E-02
RMM:   5    -0.713434505681E+03    0.11715E-04   -0.10895E-04 10740   0.166E-02    0.104E-02
RMM:   6    -0.713434505525E+03    0.15686E-06   -0.18788E-05  7196   0.761E-03
   3 F= -.71343451E+03 E0= -.71342160E+03  d E =-.651059E-01
       N       E                     dE             d eps       ncg     rms          rms(c)
DAV:   1    -0.713383911180E+03    0.50595E-01   -0.23967E+01 10808   0.675E+00    0.811E-01
RMM:   2    -0.713453965902E+03   -0.70055E-01   -0.75637E-01 12780   0.172E+00    0.241E-01
RMM:   3    -0.713471197333E+03   -0.17231E-01   -0.18932E-01 15165   0.699E-01    0.259E-01
RMM:   4    -0.713471721642E+03   -0.52431E-03   -0.18045E-02 15265   0.220E-01    0.139E-01
RMM:   5    -0.713471469817E+03    0.25182E-03   -0.51352E-03 14649   0.104E-01    0.745E-02
RMM:   6    -0.713471485695E+03   -0.15879E-04   -0.10261E-03 15341   0.453E-02    0.350E-02
RMM:   7    -0.713471494681E+03   -0.89858E-05   -0.29348E-04 11757   0.206E-02    0.124E-02
RMM:   8    -0.713471500602E+03   -0.59213E-05   -0.82167E-05  9600   0.130E-02
   4 F= -.71347150E+03 E0= -.71345860E+03  d E =-.369951E-01
       N       E                     dE             d eps       ncg     rms          rms(c)
DAV:   1    -0.713468798380E+03    0.26963E-02   -0.11848E+00 11392   0.150E+00    0.176E-01
RMM:   2    -0.713472204005E+03   -0.34056E-02   -0.36724E-02 12758   0.378E-01    0.533E-02
RMM:   3    -0.713473026798E+03   -0.82279E-03   -0.91175E-03 15127   0.153E-01    0.570E-02
RMM:   4    -0.713473052696E+03   -0.25898E-04   -0.88390E-04 14704   0.483E-02    0.303E-02
RMM:   5    -0.713473042162E+03    0.10535E-04   -0.26682E-04 12149   0.240E-02    0.180E-02
RMM:   6    -0.713473041807E+03    0.35489E-06   -0.49903E-05  9086   0.110E-02
   5 F= -.71347304E+03 E0= -.71346015E+03  d E =-.385363E-01
       N       E                     dE             d eps       ncg     rms          rms(c)
DAV:   1    -0.713430931793E+03    0.42110E-01   -0.16080E+01 10672   0.559E+00    0.678E-01
RMM:   2    -0.713478497615E+03   -0.47566E-01   -0.51272E-01 12799   0.143E+00    0.201E-01
RMM:   3    -0.713490215973E+03   -0.11718E-01   -0.12791E-01 15233   0.581E-01    0.210E-01
RMM:   4    -0.713490535901E+03   -0.31993E-03   -0.12329E-02 15297   0.184E-01    0.119E-01
RMM:   5    -0.713490298085E+03    0.23782E-03   -0.35167E-03 14595   0.868E-02    0.598E-02
RMM:   6    -0.713490309629E+03   -0.11544E-04   -0.68946E-04 15175   0.379E-02    0.321E-02
RMM:   7    -0.713490309815E+03   -0.18619E-06   -0.19304E-04 11167   0.173E-02    0.116E-02
RMM:   8    -0.713490312695E+03   -0.28802E-05   -0.61694E-05  9202   0.118E-02
   6 F= -.71349031E+03 E0= -.71347741E+03  d E =-.172709E-01
       N       E                     dE             d eps       ncg     rms          rms(c)
DAV:   1    -0.713490316772E+03   -0.69578E-05   -0.37259E-04 14064   0.332E-02    0.304E-03
RMM:   2    -0.713490318232E+03   -0.14595E-05   -0.16764E-05  6262   0.879E-03
   7 F= -.71349032E+03 E0= -.71347741E+03  d E =-.172764E-01
       N       E                     dE             d eps       ncg     rms          rms(c)
DAV:   1    -0.713464094575E+03    0.26222E-01   -0.98073E+00 10736   0.453E+00    0.514E-01
RMM:   2    -0.713494278225E+03   -0.30184E-01   -0.31945E-01 13017   0.116E+00    0.153E-01
RMM:   3    -0.713501655655E+03   -0.73774E-02   -0.77336E-02 15246   0.464E-01    0.154E-01
RMM:   4    -0.713502164167E+03   -0.50851E-03   -0.80630E-03 15402   0.149E-01    0.116E-01
RMM:   5    -0.713501947322E+03    0.21685E-03   -0.22492E-03 14470   0.680E-02    0.515E-02
RMM:   6    -0.713501954913E+03   -0.75917E-05   -0.43976E-04 13979   0.296E-02    0.310E-02
RMM:   7    -0.713501952343E+03    0.25706E-05   -0.12383E-04 10283   0.146E-02    0.109E-02
RMM:   8    -0.713501954210E+03   -0.18673E-05   -0.42634E-05  9011   0.975E-03
   8 F= -.71350195E+03 E0= -.71348907E+03  d E =-.116360E-01
       N       E                     dE             d eps       ncg     rms          rms(c)
DAV:   1    -0.713500951384E+03    0.10010E-02   -0.42034E-01 11424   0.938E-01    0.102E-01
RMM:   2    -0.713502225290E+03   -0.12739E-02   -0.13461E-02 12974   0.235E-01    0.314E-02
RMM:   3    -0.713502535973E+03   -0.31068E-03   -0.32725E-03 15243   0.947E-02    0.325E-02
RMM:   4    -0.713502556531E+03   -0.20558E-04   -0.33350E-04 13437   0.302E-02    0.249E-02
RMM:   5    -0.713502548281E+03    0.82502E-05   -0.12026E-04 11010   0.181E-02    0.133E-02
RMM:   6    -0.713502547533E+03    0.74757E-06   -0.22226E-05  7886   0.774E-03
   9 F= -.71350255E+03 E0= -.71348967E+03  d E =-.122293E-01
       N       E                     dE             d eps       ncg     rms          rms(c)
DAV:   1    -0.713482783249E+03    0.19765E-01   -0.72030E+00 10584   0.378E+00    0.449E-01
RMM:   2    -0.713503960146E+03   -0.21177E-01   -0.22439E-01 12633   0.948E-01    0.134E-01
RMM:   3    -0.713509256769E+03   -0.52966E-02   -0.55845E-02 15123   0.389E-01    0.134E-01
RMM:   4    -0.713509526852E+03   -0.27008E-03   -0.55206E-03 15169   0.123E-01    0.861E-02
RMM:   5    -0.713509450096E+03    0.76756E-04   -0.15609E-03 14667   0.565E-02    0.470E-02
RMM:   6    -0.713509447293E+03    0.28026E-05   -0.28489E-04 13019   0.232E-02    0.218E-02
RMM:   7    -0.713509449612E+03   -0.23186E-05   -0.86708E-05  9596   0.121E-02
  10 F= -.71350945E+03 E0= -.71349658E+03  d E =-.690208E-02
       N       E                     dE             d eps       ncg     rms          rms(c)
DAV:   1    -0.713509377237E+03    0.70056E-04   -0.45932E-02 11552   0.303E-01    0.326E-02
RMM:   2    -0.713509519258E+03   -0.14202E-03   -0.15051E-03 12680   0.772E-02    0.107E-02
RMM:   3    -0.713509551893E+03   -0.32634E-04   -0.36087E-04 13420   0.314E-02    0.120E-02
RMM:   4    -0.713509553739E+03   -0.18467E-05   -0.45006E-05  8528   0.131E-02
  11 F= -.71350955E+03 E0= -.71349669E+03  d E =-.700621E-02
       N       E                     dE             d eps       ncg     rms          rms(c)
DAV:   1    -0.713501501579E+03    0.80503E-02   -0.30110E+00 10512   0.243E+00    0.289E-01
RMM:   2    -0.713510362411E+03   -0.88608E-02   -0.93790E-02 12698   0.611E-01    0.872E-02
RMM:   3    -0.713512449616E+03   -0.20872E-02   -0.22326E-02 14997   0.247E-01    0.866E-02
RMM:   4    -0.713512541621E+03   -0.92005E-04   -0.22866E-03 15013   0.794E-02    0.478E-02
RMM:   5    -0.713512526730E+03    0.14891E-04   -0.58688E-04 13569   0.357E-02    0.283E-02
RMM:   6    -0.713512526003E+03    0.72731E-06   -0.10601E-04 10286   0.155E-02    0.129E-02
RMM:   7    -0.713512527069E+03   -0.10656E-05   -0.34826E-05  8489   0.916E-03
  12 F= -.71351253E+03 E0= -.71349966E+03  d E =-.297333E-02
       N       E                     dE             d eps       ncg     rms          rms(c)
DAV:   1    -0.713512524934E+03    0.10694E-05   -0.41702E-03 11336   0.914E-02    0.859E-03
RMM:   2    -0.713512539357E+03   -0.14423E-04   -0.15260E-04 11415   0.249E-02    0.343E-03
RMM:   3    -0.713512541969E+03   -0.26123E-05   -0.37436E-05  7596   0.110E-02
  13 F= -.71351254E+03 E0= -.71349967E+03  d E =-.298823E-02
       N       E                     dE             d eps       ncg     rms          rms(c)
DAV:   1    -0.713510261485E+03    0.22779E-02   -0.81008E-01 10588   0.129E+00    0.143E-01
RMM:   2    -0.713512785830E+03   -0.25243E-02   -0.26621E-02 13074   0.328E-01    0.450E-02
RMM:   3    -0.713513342494E+03   -0.55666E-03   -0.59775E-03 15214   0.129E-01    0.465E-02
RMM:   4    -0.713513362911E+03   -0.20417E-04   -0.61525E-04 14842   0.418E-02    0.263E-02
RMM:   5    -0.713513355343E+03    0.75683E-05   -0.17328E-04 11627   0.203E-02    0.147E-02
RMM:   6    -0.713513355188E+03    0.15471E-06   -0.30229E-05  8512   0.961E-03
  14 F= -.71351336E+03 E0= -.71350049E+03  d E =-.813220E-03
       N       E                     dE             d eps       ncg     rms          rms(c)
DAV:   1    -0.713513339980E+03    0.15363E-04   -0.37954E-03 10872   0.876E-02    0.106E-02
RMM:   2    -0.713513351834E+03   -0.11854E-04   -0.12438E-04 10851   0.229E-02    0.359E-03
RMM:   3    -0.713513353440E+03   -0.16058E-05   -0.26297E-05  6951   0.103E-02
  15 F= -.71351335E+03 E0= -.71350048E+03  d E =-.811471E-03
       N       E                     dE             d eps       ncg     rms          rms(c)
DAV:   1    -0.713513350316E+03    0.15179E-05   -0.13220E-03 11486   0.519E-02    0.674E-03
RMM:   2    -0.713513355510E+03   -0.51939E-05   -0.54540E-05  8678   0.137E-02
  16 F= -.71351336E+03 E0= -.71350049E+03  d E =-.813541E-03
       N       E                     dE             d eps       ncg     rms          rms(c)
DAV:   1    -0.713513353620E+03   -0.33043E-05   -0.35099E-04 10256   0.269E-02    0.363E-03
RMM:   2    -0.713513354712E+03   -0.10922E-05   -0.12334E-05  5810   0.828E-03
  17 F= -.71351335E+03 E0= -.71350048E+03  d E =-.812744E-03
       N       E                     dE             d eps       ncg     rms          rms(c)
DAV:   1    -0.713513354258E+03   -0.63808E-06   -0.77430E-05  8832   0.162E-02    0.165E-03
RMM:   2    -0.713513355262E+03   -0.10039E-05   -0.10981E-05  5417   0.686E-03
  18 F= -.71351336E+03 E0= -.71350049E+03  d E =-.813293E-03
       N       E                     dE             d eps       ncg     rms          rms(c)
DAV:   1    -0.713512197965E+03    0.11563E-02   -0.38537E-01 10538   0.904E-01    0.975E-02
RMM:   2    -0.713513385845E+03   -0.11879E-02   -0.12529E-02 13084   0.231E-01    0.309E-02
RMM:   3    -0.713513664671E+03   -0.27883E-03   -0.29968E-03 15157   0.920E-02    0.316E-02
RMM:   4    -0.713513677754E+03   -0.13084E-04   -0.30694E-04 13734   0.300E-02    0.182E-02
RMM:   5    -0.713513674710E+03    0.30445E-05   -0.90270E-05 10798   0.163E-02
  19 F= -.71351367E+03 E0= -.71350081E+03  d E =-.319447E-03
       N       E                     dE             d eps       ncg     rms          rms(c)
DAV:   1    -0.713513665848E+03    0.11906E-04   -0.35230E-03 10936   0.866E-02    0.712E-03
RMM:   2    -0.713513676940E+03   -0.11092E-04   -0.11884E-04 11332   0.227E-02    0.408E-03
RMM:   3    -0.713513677923E+03   -0.98319E-06   -0.22378E-05  6653   0.950E-03
  20 F= -.71351368E+03 E0= -.71350081E+03  d E =-.322661E-03
       N       E                     dE             d eps       ncg     rms          rms(c)
DAV:   1    -0.713513672173E+03    0.47670E-05   -0.10087E-03 11456   0.464E-02    0.619E-03
RMM:   2    -0.713513676339E+03   -0.41659E-05   -0.44185E-05  8071   0.126E-02
  21 F= -.71351368E+03 E0= -.71350081E+03  d E =-.321077E-03
       N       E                     dE             d eps       ncg     rms          rms(c)
DAV:   1    -0.713513675137E+03   -0.29641E-05   -0.35787E-04 10366   0.287E-02    0.368E-03
RMM:   2    -0.713513676680E+03   -0.15421E-05   -0.17863E-05  5865   0.103E-02
  22 F= -.71351368E+03 E0= -.71350081E+03  d E =-.321417E-03
       N       E                     dE             d eps       ncg     rms          rms(c)
DAV:   1    -0.713513674331E+03    0.80610E-06   -0.76726E-05  8792   0.167E-02    0.164E-03
RMM:   2    -0.713513675532E+03   -0.12005E-05   -0.12739E-05  5397   0.749E-03
  23 F= -.71351368E+03 E0= -.71350081E+03  d E =-.320270E-03
       N       E                     dE             d eps       ncg     rms          rms(c)
DAV:   1    -0.713513675144E+03   -0.81239E-06   -0.17242E-05  6886   0.116E-02    0.114E-03
RMM:   2    -0.713513675514E+03   -0.36994E-06   -0.39546E-06  5193   0.391E-03
  24 F= -.71351368E+03 E0= -.71350081E+03  d E =-.320251E-03
       N       E                     dE             d eps       ncg     rms          rms(c)
DAV:   1    -0.713513675450E+03   -0.30666E-06   -0.22596E-06  5584   0.526E-03    0.830E-04
RMM:   2    -0.713513675522E+03   -0.71850E-07   -0.93512E-07  4514   0.194E-03
  25 F= -.71351368E+03 E0= -.71350081E+03  d E =-.320260E-03
       N       E                     dE             d eps       ncg     rms          rms(c)
DAV:   1    -0.713513675574E+03   -0.12377E-06   -0.31256E-07  5400   0.259E-03    0.341E-04
RMM:   2    -0.713513675576E+03   -0.14334E-08   -0.52962E-08  1515   0.741E-04
  26 F= -.71351368E+03 E0= -.71350081E+03  d E =-.320313E-03
       N       E                     dE             d eps       ncg     rms          rms(c)
DAV:   1    -0.713513370520E+03    0.30505E-03   -0.11328E-01 10968   0.506E-01    0.490E-02
RMM:   2    -0.713513742772E+03   -0.37225E-03   -0.39013E-03 13413   0.135E-01    0.167E-02
RMM:   3    -0.713513826482E+03   -0.83710E-04   -0.89393E-04 14826   0.517E-02    0.166E-02
RMM:   4    -0.713513832047E+03   -0.55656E-05   -0.10701E-04 11977   0.185E-02    0.104E-02
RMM:   5    -0.713513830692E+03    0.13554E-05   -0.30161E-05  8439   0.111E-02
  27 F= -.71351383E+03 E0= -.71350097E+03  d E =-.155117E-03
       N       E                     dE             d eps       ncg     rms          rms(c)
DAV:   1    -0.713513829707E+03    0.23409E-05   -0.71646E-05 10829   0.143E-02    0.393E-03
RMM:   2    -0.713513830248E+03   -0.54154E-06   -0.72187E-06  5902   0.662E-03
  28 F= -.71351383E+03 E0= -.71350096E+03  d E =-.154673E-03
       N       E                     dE             d eps       ncg     rms          rms(c)
DAV:   1    -0.713513683638E+03    0.14607E-03   -0.65919E-02 11216   0.388E-01    0.370E-02
RMM:   2    -0.713513889977E+03   -0.20634E-03   -0.21691E-03 13220   0.101E-01    0.129E-02
RMM:   3    -0.713513938141E+03   -0.48163E-04   -0.52020E-04 14612   0.399E-02    0.125E-02
RMM:   4    -0.713513942260E+03   -0.41197E-05   -0.65811E-05 10244   0.149E-02
  29 F= -.71351394E+03 E0= -.71350108E+03  d E =-.112012E-03
       N       E                     dE             d eps       ncg     rms          rms(c)
DAV:   1    -0.713513939098E+03   -0.95734E-06   -0.57782E-05  9335   0.231E-02    0.313E-03
RMM:   2    -0.713513940320E+03   -0.12222E-05   -0.14206E-05  5910   0.774E-03
  30 F= -.71351394E+03 E0= -.71350108E+03  d E =-.110072E-03
       N       E                     dE             d eps       ncg     rms          rms(c)
DAV:   1    -0.713513940716E+03   -0.16182E-05   -0.24285E-05  8542   0.123E-02    0.278E-03
RMM:   2    -0.713513941277E+03   -0.56073E-06   -0.68253E-06  5429   0.538E-03
  31 F= -.71351394E+03 E0= -.71350108E+03  d E =-.111029E-03
       N       E                     dE             d eps       ncg     rms          rms(c)
DAV:   1    -0.713513848937E+03    0.91780E-04   -0.42061E-02 11084   0.305E-01    0.313E-02
RMM:   2    -0.713513981573E+03   -0.13264E-03   -0.13996E-03 13039   0.784E-02    0.103E-02
RMM:   3    -0.713514009412E+03   -0.27839E-04   -0.31536E-04 13727   0.311E-02    0.101E-02
RMM:   4    -0.713514011279E+03   -0.18671E-05   -0.43421E-05  8436   0.136E-02
  32 F= -.71351401E+03 E0= -.71350115E+03  d E =-.700024E-04
       N       E                     dE             d eps       ncg     rms          rms(c)
DAV:   1    -0.713514010747E+03   -0.13344E-05   -0.88456E-06  7032   0.155E-02    0.248E-03
RMM:   2    -0.713514011449E+03   -0.70252E-06   -0.79017E-06  5892   0.593E-03
  33 F= -.71351401E+03 E0= -.71350115E+03  d E =-.701722E-04
       N       E                     dE             d eps       ncg     rms          rms(c)
DAV:   1    -0.713514011507E+03   -0.76075E-06   -0.24793E-06  7328   0.884E-03    0.122E-03
RMM:   2    -0.713514011673E+03   -0.16562E-06   -0.19689E-06  5291   0.270E-03
  34 F= -.71351401E+03 E0= -.71350115E+03  d E =-.703961E-04
       N       E                     dE             d eps       ncg     rms          rms(c)
DAV:   1    -0.713514011777E+03   -0.26987E-06   -0.11222E-06  5776   0.520E-03    0.629E-04
RMM:   2    -0.713514011843E+03   -0.65833E-07   -0.81518E-07  5036   0.189E-03
  35 F= -.71351401E+03 E0= -.71350115E+03  d E =-.705662E-04
       N       E                     dE             d eps       ncg     rms          rms(c)
DAV:   1    -0.713514012019E+03   -0.24214E-06   -0.28268E-06  5394   0.392E-03    0.495E-04
RMM:   2    -0.713514012128E+03   -0.10857E-06   -0.12246E-06  5125   0.277E-03
  36 F= -.71351401E+03 E0= -.71350115E+03  d E =-.708510E-04
       N       E                     dE             d eps       ncg     rms          rms(c)
DAV:   1    -0.713513927650E+03    0.84369E-04   -0.38829E-02 11272   0.296E-01    0.286E-02
RMM:   2    -0.713514041461E+03   -0.11381E-03   -0.11883E-03 12890   0.751E-02    0.971E-03
RMM:   3    -0.713514070138E+03   -0.28677E-04   -0.30731E-04 13693   0.310E-02    0.886E-03
RMM:   4    -0.713514072586E+03   -0.24473E-05   -0.40512E-05  7952   0.131E-02
  37 F= -.71351407E+03 E0= -.71350121E+03  d E =-.604577E-04
