<?xml version="1.0" encoding="ISO-8859-1"?>
<modeling>
 <generator>
  <i name="program" type="string">vasp </i>
  <i name="version" type="string">6.4.2  </i>
  <i name="subversion" type="string">20Jul23 (build Nov 12 2023 22:16:35) complex                          parallel </i>
  <i name="platform" type="string">LinuxNV </i>
  <i name="date" type="string">2025 03 23 </i>
  <i name="time" type="string">23:15:32 </i>
 </generator>
 <incar>
  <i type="int" name="ISTART">     0</i>
  <i type="string" name="PREC">Normal</i>
  <i type="string" name="ALGO">Fast</i>
  <i type="int" name="ISPIN">     1</i>
  <i type="int" name="ICHARG">     2</i>
  <i type="int" name="IBRION">     2</i>
  <i name="EDIFF">      0.00001000</i>
  <i name="EDIFFG">     -0.00500000</i>
  <i type="int" name="NSW">   300</i>
  <i type="int" name="ISIF">     2</i>
  <i name="ENCUT">    450.00000000</i>
  <i type="string" name="LREAL">Auto</i>
  <i type="logical" name="LPLANE"> T  </i>
  <i type="int" name="ISMEAR">     0</i>
  <i name="SIGMA">      0.05000000</i>
  <i type="logical" name="LWAVE"> F  </i>
  <i type="logical" name="LCHARG"> F  </i>
 </incar>
 <primitive_cell>
  <structure name="primitive_cell" >
   <crystal>
    <varray name="basis" >
     <v>       0.00000000      12.28047342       0.00000000 </v>
     <v>       9.14270205       0.00000000       0.00000000 </v>
     <v>       0.00000000      -2.76826177     -11.30069772 </v>
    </varray>
    <i name="volume">   1268.80515525 </i>
    <varray name="rec_basis" >
     <v>       0.00000000       0.08143009      -0.01994742 </v>
     <v>       0.10937686      -0.00000000       0.00000000 </v>
     <v>       0.00000000       0.00000000      -0.08849011 </v>
    </varray>
   </crystal>
   <varray name="positions" >
    <v>       0.65883830       0.00000000       0.15736517 </v>
    <v>       0.65883830       0.00000000       0.65736517 </v>
    <v>       0.65883830       0.33333333       0.15736517 </v>
    <v>       0.65883830       0.33333333       0.65736517 </v>
    <v>       0.65883830       0.66666667       0.15736517 </v>
    <v>       0.65883830       0.66666667       0.65736517 </v>
    <v>       0.84116170       0.16666667       0.34263483 </v>
    <v>       0.84116170       0.16666667       0.84263483 </v>
    <v>       0.84116170       0.50000000       0.34263483 </v>
    <v>       0.84116170       0.50000000       0.84263483 </v>
    <v>       0.84116170       0.83333333       0.34263483 </v>
    <v>       0.84116170       0.83333333       0.84263483 </v>
    <v>       0.59047440       0.16666667       0.39739300 </v>
    <v>       0.59047440       0.16666667       0.89739300 </v>
    <v>       0.59047440       0.50000000       0.39739300 </v>
    <v>       0.59047440       0.50000000       0.89739300 </v>
    <v>       0.59047440       0.83333333       0.39739300 </v>
    <v>       0.59047440       0.83333333       0.89739300 </v>
    <v>       0.90952560       0.00000000       0.10260700 </v>
    <v>       0.90952560       0.00000000       0.60260700 </v>
    <v>       0.90952560       0.33333333       0.10260700 </v>
    <v>       0.90952560       0.33333333       0.60260700 </v>
    <v>       0.90952560       0.66666667       0.10260700 </v>
    <v>       0.90952560       0.66666667       0.60260700 </v>
    <v>       0.15883830       0.16666667       0.15736517 </v>
    <v>       0.15883830       0.16666667       0.65736517 </v>
    <v>       0.15883830       0.50000000       0.15736517 </v>
    <v>       0.15883830       0.50000000       0.65736517 </v>
    <v>       0.15883830       0.83333333       0.15736517 </v>
    <v>       0.15883830       0.83333333       0.65736517 </v>
    <v>       0.34116170       0.00000000       0.34263483 </v>
    <v>       0.34116170       0.00000000       0.84263483 </v>
    <v>       0.34116170       0.33333333       0.34263483 </v>
    <v>       0.34116170       0.33333333       0.84263483 </v>
    <v>       0.34116170       0.66666667       0.34263483 </v>
    <v>       0.34116170       0.66666667       0.84263483 </v>
    <v>       0.09047440       0.00000000       0.39739300 </v>
    <v>       0.09047440       0.00000000       0.89739300 </v>
    <v>       0.09047440       0.33333333       0.39739300 </v>
    <v>       0.09047440       0.33333333       0.89739300 </v>
    <v>       0.09047440       0.66666667       0.39739300 </v>
    <v>       0.09047440       0.66666667       0.89739300 </v>
    <v>       0.40952560       0.16666667       0.10260700 </v>
    <v>       0.40952560       0.16666667       0.60260700 </v>
    <v>       0.40952560       0.50000000       0.10260700 </v>
    <v>       0.40952560       0.50000000       0.60260700 </v>
    <v>       0.40952560       0.83333333       0.10260700 </v>
    <v>       0.40952560       0.83333333       0.60260700 </v>
    <v>       0.99646913       0.16666667       0.12833205 </v>
    <v>       0.99646913       0.16666667       0.62833205 </v>
    <v>       0.99646913       0.50000000       0.12833205 </v>
    <v>       0.99646913       0.50000000       0.62833205 </v>
    <v>       0.99646913       0.83333333       0.12833205 </v>
    <v>       0.99646913       0.83333333       0.62833205 </v>
    <v>       0.50353087       0.00000000       0.37166795 </v>
    <v>       0.50353087       0.00000000       0.87166795 </v>
    <v>       0.50353087       0.33333333       0.37166795 </v>
    <v>       0.50353087       0.33333333       0.87166795 </v>
    <v>       0.50353087       0.66666667       0.37166795 </v>
    <v>       0.50353087       0.66666667       0.87166795 </v>
    <v>       0.67337106       0.16666667       0.28161508 </v>
    <v>       0.67337106       0.16666667       0.78161508 </v>
    <v>       0.67337106       0.50000000       0.28161508 </v>
    <v>       0.67337106       0.50000000       0.78161508 </v>
    <v>       0.67337106       0.83333333       0.28161508 </v>
    <v>       0.67337106       0.83333333       0.78161508 </v>
    <v>       0.82662894       0.00000000       0.21838492 </v>
    <v>       0.82662894       0.00000000       0.71838492 </v>
    <v>       0.82662894       0.33333333       0.21838492 </v>
    <v>       0.82662894       0.33333333       0.71838492 </v>
    <v>       0.82662894       0.66666667       0.21838492 </v>
    <v>       0.82662894       0.66666667       0.71838492 </v>
    <v>       0.83549502       0.00000000       0.44542296 </v>
    <v>       0.83549502       0.00000000       0.94542296 </v>
    <v>       0.83549502       0.33333333       0.44542296 </v>
    <v>       0.83549502       0.33333333       0.94542296 </v>
    <v>       0.83549502       0.66666667       0.44542296 </v>
    <v>       0.83549502       0.66666667       0.94542296 </v>
    <v>       0.66450498       0.16666667       0.05457704 </v>
    <v>       0.66450498       0.16666667       0.55457704 </v>
    <v>       0.66450498       0.50000000       0.05457704 </v>
    <v>       0.66450498       0.50000000       0.55457704 </v>
    <v>       0.66450498       0.83333333       0.05457704 </v>
    <v>       0.66450498       0.83333333       0.55457704 </v>
    <v>       0.49646913       0.00000000       0.12833205 </v>
    <v>       0.49646913       0.00000000       0.62833205 </v>
    <v>       0.49646913       0.33333333       0.12833205 </v>
    <v>       0.49646913       0.33333333       0.62833205 </v>
    <v>       0.49646913       0.66666667       0.12833205 </v>
    <v>       0.49646913       0.66666667       0.62833205 </v>
    <v>       0.00353087       0.16666667       0.37166795 </v>
    <v>       0.00353087       0.16666667       0.87166795 </v>
    <v>       0.00353087       0.50000000       0.37166795 </v>
    <v>       0.00353087       0.50000000       0.87166795 </v>
    <v>       0.00353087       0.83333333       0.37166795 </v>
    <v>       0.00353087       0.83333333       0.87166795 </v>
    <v>       0.17337106       0.00000000       0.28161508 </v>
    <v>       0.17337106       0.00000000       0.78161508 </v>
    <v>       0.17337106       0.33333333       0.28161508 </v>
    <v>       0.17337106       0.33333333       0.78161508 </v>
    <v>       0.17337106       0.66666667       0.28161508 </v>
    <v>       0.17337106       0.66666667       0.78161508 </v>
    <v>       0.32662894       0.16666667       0.21838492 </v>
    <v>       0.32662894       0.16666667       0.71838492 </v>
    <v>       0.32662894       0.50000000       0.21838492 </v>
    <v>       0.32662894       0.50000000       0.71838492 </v>
    <v>       0.32662894       0.83333333       0.21838492 </v>
    <v>       0.32662894       0.83333333       0.71838492 </v>
    <v>       0.33549502       0.16666667       0.44542296 </v>
    <v>       0.33549502       0.16666667       0.94542296 </v>
    <v>       0.33549502       0.50000000       0.44542296 </v>
    <v>       0.33549502       0.50000000       0.94542296 </v>
    <v>       0.33549502       0.83333333       0.44542296 </v>
    <v>       0.33549502       0.83333333       0.94542296 </v>
    <v>       0.16450498       0.00000000       0.05457704 </v>
    <v>       0.16450498       0.33333333       0.05457704 </v>
    <v>       0.16450498       0.33333333       0.55457704 </v>
    <v>       0.16450498       0.66666667       0.05457704 </v>
    <v>       0.16450498       0.66666667       0.55457704 </v>
    <v>       0.16450498       0.00000000       0.55457704 </v>
   </varray>
  </structure>
  <varray name="primitive_index" >
   <v type="int" >        1 </v>
   <v type="int" >        2 </v>
   <v type="int" >        3 </v>
   <v type="int" >        4 </v>
   <v type="int" >        5 </v>
   <v type="int" >        6 </v>
   <v type="int" >        7 </v>
   <v type="int" >        8 </v>
   <v type="int" >        9 </v>
   <v type="int" >       10 </v>
   <v type="int" >       11 </v>
   <v type="int" >       12 </v>
   <v type="int" >       13 </v>
   <v type="int" >       14 </v>
   <v type="int" >       15 </v>
   <v type="int" >       16 </v>
   <v type="int" >       17 </v>
   <v type="int" >       18 </v>
   <v type="int" >       19 </v>
   <v type="int" >       20 </v>
   <v type="int" >       21 </v>
   <v type="int" >       22 </v>
   <v type="int" >       23 </v>
   <v type="int" >       24 </v>
   <v type="int" >       25 </v>
   <v type="int" >       26 </v>
   <v type="int" >       27 </v>
   <v type="int" >       28 </v>
   <v type="int" >       29 </v>
   <v type="int" >       30 </v>
   <v type="int" >       31 </v>
   <v type="int" >       32 </v>
   <v type="int" >       33 </v>
   <v type="int" >       34 </v>
   <v type="int" >       35 </v>
   <v type="int" >       36 </v>
   <v type="int" >       37 </v>
   <v type="int" >       38 </v>
   <v type="int" >       39 </v>
   <v type="int" >       40 </v>
   <v type="int" >       41 </v>
   <v type="int" >       42 </v>
   <v type="int" >       43 </v>
   <v type="int" >       44 </v>
   <v type="int" >       45 </v>
   <v type="int" >       46 </v>
   <v type="int" >       47 </v>
   <v type="int" >       48 </v>
   <v type="int" >       49 </v>
   <v type="int" >       50 </v>
   <v type="int" >       51 </v>
   <v type="int" >       52 </v>
   <v type="int" >       53 </v>
   <v type="int" >       54 </v>
   <v type="int" >       55 </v>
   <v type="int" >       56 </v>
   <v type="int" >       57 </v>
   <v type="int" >       58 </v>
   <v type="int" >       59 </v>
   <v type="int" >       60 </v>
   <v type="int" >       61 </v>
   <v type="int" >       62 </v>
   <v type="int" >       63 </v>
   <v type="int" >       64 </v>
   <v type="int" >       65 </v>
   <v type="int" >       66 </v>
   <v type="int" >       67 </v>
   <v type="int" >       68 </v>
   <v type="int" >       69 </v>
   <v type="int" >       70 </v>
   <v type="int" >       71 </v>
   <v type="int" >       72 </v>
   <v type="int" >       73 </v>
   <v type="int" >       74 </v>
   <v type="int" >       75 </v>
   <v type="int" >       76 </v>
   <v type="int" >       77 </v>
   <v type="int" >       78 </v>
   <v type="int" >       79 </v>
   <v type="int" >       80 </v>
   <v type="int" >       81 </v>
   <v type="int" >       82 </v>
   <v type="int" >       83 </v>
   <v type="int" >       84 </v>
   <v type="int" >       85 </v>
   <v type="int" >       86 </v>
   <v type="int" >       87 </v>
   <v type="int" >       88 </v>
   <v type="int" >       89 </v>
   <v type="int" >       90 </v>
   <v type="int" >       91 </v>
   <v type="int" >       92 </v>
   <v type="int" >       93 </v>
   <v type="int" >       94 </v>
   <v type="int" >       95 </v>
   <v type="int" >       96 </v>
   <v type="int" >       97 </v>
   <v type="int" >       98 </v>
   <v type="int" >       99 </v>
   <v type="int" >      100 </v>
   <v type="int" >      101 </v>
   <v type="int" >      102 </v>
   <v type="int" >      103 </v>
   <v type="int" >      104 </v>
   <v type="int" >      105 </v>
   <v type="int" >      106 </v>
   <v type="int" >      107 </v>
   <v type="int" >      108 </v>
   <v type="int" >      109 </v>
   <v type="int" >      110 </v>
   <v type="int" >      111 </v>
   <v type="int" >      112 </v>
   <v type="int" >      113 </v>
   <v type="int" >      114 </v>
   <v type="int" >      115 </v>
   <v type="int" >      116 </v>
   <v type="int" >      117 </v>
   <v type="int" >      118 </v>
   <v type="int" >      119 </v>
   <v type="int" >      120 </v>
  </varray>
 </primitive_cell>
 <kpoints>
  <generation param="Gamma">
   <v type="int" name="divisions">       2        2        2 </v>
   <v name="usershift">      0.00000000       0.00000000       0.00000000 </v>
   <v name="genvec1">      0.50000000       0.00000000       0.00000000 </v>
   <v name="genvec2">      0.00000000       0.50000000       0.00000000 </v>
   <v name="genvec3">      0.00000000       0.00000000       0.50000000 </v>
   <v name="shift">      0.00000000       0.00000000       0.00000000 </v>
  </generation>
  <varray name="kpointlist" >
   <v>       0.00000000       0.00000000       0.00000000 </v>
   <v>       0.50000000       0.00000000       0.00000000 </v>
   <v>       0.00000000       0.50000000       0.00000000 </v>
   <v>       0.50000000       0.50000000       0.00000000 </v>
   <v>       0.00000000       0.00000000       0.50000000 </v>
   <v>       0.50000000       0.00000000       0.50000000 </v>
   <v>       0.00000000       0.50000000       0.50000000 </v>
   <v>       0.50000000       0.50000000       0.50000000 </v>
  </varray>
  <varray name="weights" >
   <v>       0.12500000 </v>
   <v>       0.12500000 </v>
   <v>       0.12500000 </v>
   <v>       0.12500000 </v>
   <v>       0.12500000 </v>
   <v>       0.12500000 </v>
   <v>       0.12500000 </v>
   <v>       0.12500000 </v>
  </varray>
 </kpoints>
 <parameters>
  <separator name="general" >
   <i type="string" name="SYSTEM">unknown system</i>
   <i type="logical" name="LCOMPAT"> F  </i>
  </separator>
  <separator name="electronic" >
   <i type="string" name="PREC">normal</i>
   <i name="ENMAX">    450.00000000</i>
   <i name="ENAUG">    627.11200000</i>
   <i name="EDIFF">      0.00001000</i>
   <i type="int" name="IALGO">    68</i>
   <i type="int" name="IWAVPR">    11</i>
   <i type="int" name="NBANDS">   633</i>
   <i type="int" name="NBANDSLOW">    -1</i>
   <i type="int" name="NBANDSHIGH">    -1</i>
   <i name="NELECT">   1055.00000000</i>
   <i type="int" name="TURBO">     0</i>
   <i type="int" name="IRESTART">     0</i>
   <i type="int" name="NREBOOT">     0</i>
   <i type="int" name="NMIN">     0</i>
   <i name="EREF">      0.00000000</i>
   <separator name="electronic smearing" >
    <i type="int" name="ISMEAR">     0</i>
    <i name="SIGMA">      0.05000000</i>
    <i name="KSPACING">      0.50000000</i>
    <i type="logical" name="KGAMMA"> T  </i>
    <i type="logical" name="KBLOWUP"> T  </i>
   </separator>
   <separator name="electronic projectors" >
    <i type="logical" name="LREAL"> T  </i>
    <v name="ROPT">     -0.00050000     -0.00050000     -0.00050000</v>
    <i type="int" name="LMAXPAW">  -100</i>
    <i type="int" name="LMAXMIX">     2</i>
    <i type="logical" name="NLSPLINE"> F  </i>
   </separator>
   <separator name="electronic startup" >
    <i type="int" name="ISTART">     0</i>
    <i type="int" name="ICHARG">     2</i>
    <i type="int" name="INIWAV">     1</i>
   </separator>
   <separator name="electronic spin" >
    <i type="int" name="ISPIN">     1</i>
    <i type="logical" name="LNONCOLLINEAR"> F  </i>
    <v name="MAGMOM">      1.00000000      1.00000000      1.00000000      1.00000000      1.00000000      1.00000000      1.00000000      1.00000000      1.00000000      1.00000000      1.00000000      1.00000000      1.00000000      1.00000000      1.00000000      1.00000000      1.00000000      1.00000000      1.00000000      1.00000000
      1.00000000      1.00000000      1.00000000      1.00000000      1.00000000      1.00000000      1.00000000      1.00000000      1.00000000      1.00000000      1.00000000      1.00000000      1.00000000      1.00000000      1.00000000      1.00000000      1.00000000      1.00000000      1.00000000      1.00000000
      1.00000000      1.00000000      1.00000000      1.00000000      1.00000000      1.00000000      1.00000000      1.00000000      1.00000000      1.00000000      1.00000000      1.00000000      1.00000000      1.00000000      1.00000000      1.00000000      1.00000000      1.00000000      1.00000000      1.00000000
      1.00000000      1.00000000      1.00000000      1.00000000      1.00000000      1.00000000      1.00000000      1.00000000      1.00000000      1.00000000      1.00000000      1.00000000      1.00000000      1.00000000      1.00000000      1.00000000      1.00000000      1.00000000      1.00000000      1.00000000
      1.00000000      1.00000000      1.00000000      1.00000000      1.00000000      1.00000000      1.00000000      1.00000000      1.00000000      1.00000000      1.00000000      1.00000000      1.00000000      1.00000000      1.00000000      1.00000000      1.00000000      1.00000000      1.00000000      1.00000000
      1.00000000      1.00000000      1.00000000      1.00000000      1.00000000      1.00000000      1.00000000      1.00000000      1.00000000      1.00000000      1.00000000      1.00000000      1.00000000      1.00000000      1.00000000      1.00000000      1.00000000      1.00000000      1.00000000      1.00000000
</v>
    <i name="NUPDOWN">     -1.00000000</i>
    <i type="logical" name="LSORBIT"> F  </i>
    <v name="SAXIS">      0.00000000      0.00000000      1.00000000</v>
    <i type="logical" name="LSPIRAL"> F  </i>
    <v name="QSPIRAL">      0.00000000      0.00000000      0.00000000</v>
    <i type="logical" name="LZEROZ"> F  </i>
   </separator>
   <separator name="electronic exchange-correlation" >
    <i type="logical" name="LASPH"> F  </i>
    <i type="logical" name="LMETAGGA"> F  </i>
   </separator>
   <separator name="electronic convergence" >
    <i type="int" name="NELM">    60</i>
    <i type="int" name="NELMDL">    -5</i>
    <i type="int" name="NELMIN">     2</i>
    <i name="ENINI">    450.00000000</i>
    <separator name="electronic convergence detail" >
     <i type="logical" name="LDIAG"> T  </i>
     <i type="logical" name="LSUBROT"> F  </i>
     <i name="WEIMIN">      0.00100000</i>
     <i name="EBREAK">      0.00000000</i>
     <i name="DEPER">      0.30000000</i>
     <i type="int" name="NRMM">     4</i>
     <i name="TIME">      0.40000000</i>
    </separator>
   </separator>
   <separator name="electronic mixer" >
    <i name="AMIX">      0.40000000</i>
    <i name="BMIX">      1.00000000</i>
    <i name="AMIN">      0.10000000</i>
    <i name="AMIX_MAG">      1.60000000</i>
    <i name="BMIX_MAG">      1.00000000</i>
    <separator name="electronic mixer details" >
     <i type="int" name="IMIX">     4</i>
     <i type="logical" name="MIXFIRST"> F  </i>
     <i type="int" name="MAXMIX">   -45</i>
     <i name="WC">    100.00000000</i>
     <i type="int" name="INIMIX">     1</i>
     <i type="int" name="MIXPRE">     1</i>
     <i type="int" name="MREMOVE">     5</i>
    </separator>
   </separator>
   <separator name="electronic dipolcorrection" >
    <i type="logical" name="LDIPOL"> F  </i>
    <i type="logical" name="LMONO"> F  </i>
    <i type="int" name="IDIPOL">     0</i>
    <i name="EPSILON">      1.00000000</i>
    <v name="DIPOL">   -100.00000000   -100.00000000   -100.00000000</v>
    <i name="EFIELD">      0.00000000</i>
   </separator>
  </separator>
  <separator name="grids" >
   <i type="int" name="NGX">    64</i>
   <i type="int" name="NGY">    48</i>
   <i type="int" name="NGZ">    60</i>
   <i type="int" name="NGXF">   128</i>
   <i type="int" name="NGYF">    96</i>
   <i type="int" name="NGZF">   120</i>
   <i type="logical" name="ADDGRID"> F  </i>
  </separator>
  <separator name="ionic" >
   <i type="int" name="NSW">   300</i>
   <i type="int" name="IBRION">     2</i>
   <i type="int" name="MDALGO">     0</i>
   <i type="int" name="ISIF">     2</i>
   <i name="PSTRESS">      0.00000000</i>
   <i name="EDIFFG">     -0.00500000</i>
   <i type="int" name="NFREE">     1</i>
   <i name="POTIM">      0.50000000</i>
   <i name="SMASS">     -3.00000000</i>
   <i name="SCALEE">      1.00000000</i>
  </separator>
  <separator name="ionic md" >
   <i name="TEBEG">      0.00010000</i>
   <i name="TEEND">      0.00010000</i>
   <i type="int" name="NBLOCK">     1</i>
   <i type="int" name="KBLOCK">   300</i>
   <i type="int" name="NPACO">   256</i>
   <i name="APACO">     10.00000000</i>
  </separator>
  <separator name="symmetry" >
   <i type="int" name="ISYM">     2</i>
   <i name="SYMPREC">      0.00001000</i>
  </separator>
  <separator name="dos" >
   <i type="int" name="LORBIT">     0</i>
   <v name="RWIGS">     -1.00000000     -1.00000000     -1.00000000</v>
   <i type="int" name="NEDOS">   301</i>
   <i name="EMIN">     10.00000000</i>
   <i name="EMAX">    -10.00000000</i>
   <i name="EFERMI">      0.00000000</i>
  </separator>
  <separator name="writing" >
   <i type="int" name="NWRITE">     2</i>
   <i type="logical" name="LWAVE"> F  </i>
   <i type="logical" name="LDOWNSAMPLE"> F  </i>
   <i type="logical" name="LCHARG"> F  </i>
   <i type="logical" name="LPARD"> F  </i>
   <i type="logical" name="LVTOT"> F  </i>
   <i type="logical" name="LVHAR"> F  </i>
   <i type="logical" name="LELF"> F  </i>
   <i type="logical" name="LOPTICS"> F  </i>
   <v name="STM">      0.00000000      0.00000000      0.00000000      0.00000000      0.00000000      0.00000000      0.00000000</v>
  </separator>
  <separator name="performance" >
   <i type="int" name="NPAR">     1</i>
   <i type="int" name="NSIM">     4</i>
   <i type="int" name="NBLK">    -1</i>
   <i type="logical" name="LPLANE"> T  </i>
   <i type="logical" name="LSCALAPACK"> T  </i>
   <i type="logical" name="LSCAAWARE"> F  </i>
   <i type="logical" name="LSCALU"> F  </i>
   <i type="logical" name="LASYNC"> F  </i>
   <i type="logical" name="LORBITALREAL"> F  </i>
  </separator>
  <separator name="miscellaneous" >
   <i type="int" name="IDIOT">     3</i>
   <i type="int" name="PHON_NSTRUCT">    -1</i>
   <i type="logical" name="LMUSIC"> F  </i>
   <v name="POMASS">     69.72300000     16.00000000     14.00100000</v>
   <v name="DARWINR">      0.00000000      0.00000000      0.00000000</v>
   <v name="DARWINV">      1.00000000      1.00000000      1.00000000</v>
   <i type="logical" name="LCORR"> T  </i>
  </separator>
  <i type="logical" name="GGA_COMPAT"> T  </i>
  <i type="logical" name="LBERRY"> F  </i>
  <i type="int" name="ICORELEVEL">     0</i>
  <i type="logical" name="LDAU"> F  </i>
  <i type="int" name="I_CONSTRAINED_M">     0</i>
  <separator name="electronic exchange-correlation" >
   <i type="string" name="GGA">--</i>
   <i type="int" name="VOSKOWN">     0</i>
   <i type="logical" name="LHFCALC"> F  </i>
   <i type="string" name="PRECFOCK"></i>
   <i type="logical" name="LSYMGRAD"> F  </i>
   <i type="logical" name="LHFONE"> F  </i>
   <i type="logical" name="LRHFCALC"> F  </i>
   <i type="logical" name="LTHOMAS"> F  </i>
   <i type="logical" name="LMODELHF"> F  </i>
   <i type="logical" name="LFOCKACE"> F  </i>
   <i name="ENCUT4O">     -1.00000000</i>
   <i type="int" name="EXXOEP">     0</i>
   <i type="int" name="FOURORBIT">     0</i>
   <i name="AEXX">      0.00000000</i>
   <i name="HFALPHA">      0.00000000</i>
   <i name="MCALPHA">      0.00000000</i>
   <i name="ALDAX">      1.00000000</i>
   <i name="AGGAX">      1.00000000</i>
   <i name="ALDAC">      1.00000000</i>
   <i name="AGGAC">      1.00000000</i>
   <i type="int" name="NKREDX">     1</i>
   <i type="int" name="NKREDY">     1</i>
   <i type="int" name="NKREDZ">     1</i>
   <i type="logical" name="SHIFTRED"> F  </i>
   <i type="logical" name="ODDONLY"> F  </i>
   <i type="logical" name="EVENONLY"> F  </i>
   <i type="int" name="LMAXFOCK">     0</i>
   <i type="int" name="NMAXFOCKAE">     0</i>
   <i type="logical" name="LFOCKAEDFT"> F  </i>
   <i name="HFSCREEN">      0.00000000</i>
   <i name="HFSCREENC">      0.00000000</i>
   <i type="int" name="NBANDSGWLOW">     0</i>
  </separator>
  <separator name="vdW DFT" >
   <i type="logical" name="LUSE_VDW"> F  </i>
   <i type="int" name="IVDW_NL">     1</i>
   <i type="logical" name="LSPIN_VDW"> F  </i>
   <i name="Zab_VDW">     -0.84910000</i>
   <i name="PARAM1">      0.12340000</i>
   <i name="PARAM2">      1.00000000</i>
   <i name="PARAM3">      0.00000000</i>
  </separator>
  <separator name="model GW" >
   <i type="int" name="MODEL_GW">     0</i>
   <i name="MODEL_EPS0">      6.34402578</i>
   <i name="MODEL_ALPHA">      1.00000000</i>
  </separator>
  <separator name="linear response parameters" >
   <i type="logical" name="LEPSILON"> F  </i>
   <i type="logical" name="LRPA"> F  </i>
   <i type="logical" name="LNABLA"> F  </i>
   <i type="logical" name="LVEL"> F  </i>
   <i name="CSHIFT">      0.10000000</i>
   <i name="OMEGAMAX">     -1.00000000</i>
   <i name="DEG_THRESHOLD">      0.00200000</i>
   <i name="RTIME">     -0.10000000</i>
   <i name="WPLASMAI">      0.00000000</i>
   <v name="DFIELD">      0.00000000      0.00000000      0.00000000</v>
   <v name="WPLASMA">      0.00000000      0.00000000      0.00000000      0.00000000      0.00000000      0.00000000      0.00000000      0.00000000      0.00000000</v>
  </separator>
  <separator name="orbital magnetization" >
   <i type="logical" name="NUCIND"> F  </i>
   <v name="MAGPOS">      0.00000000      0.00000000      0.00000000</v>
   <i type="logical" name="LNICSALL"> T  </i>
   <i type="logical" name="ORBITALMAG"> F  </i>
   <i type="logical" name="LMAGBLOCH"> F  </i>
   <i type="logical" name="LCHIMAG"> F  </i>
   <i type="logical" name="LGAUGE"> T  </i>
   <i type="int" name="MAGATOM">     0</i>
   <v name="MAGDIPOL">      0.00000000      0.00000000      0.00000000</v>
   <v name="AVECCONST">      0.00000000      0.00000000      0.00000000</v>
  </separator>
  <separator name="response functions" >
   <i type="logical" name="LALL_IN_ONE"> F  </i>
   <i type="int" name="IALL_IN_ONE">    -1</i>
   <i type="int" name="NBANDS_WAVE">    -1</i>
   <i type="logical" name="LFINITE_TEMPERATURE"> F  </i>
   <i type="logical" name="LADDER"> F  </i>
   <i type="logical" name="LRPAFORCE"> F  </i>
   <i type="logical" name="LFXC"> F  </i>
   <i type="logical" name="LHARTREE"> T  </i>
   <i type="int" name="IBSE">     0</i>
   <v type="int" name="KPOINT">    -1     0     0     0</v>
   <i type="logical" name="LTCTC"> F  </i>
   <i type="logical" name="LTCTE"> F  </i>
   <i type="logical" name="LTETE"> F  </i>
   <i type="logical" name="LTRIPLET"> F  </i>
   <i type="logical" name="LFXCEPS"> F  </i>
   <i type="logical" name="LFXHEG"> F  </i>
   <i type="int" name="NATURALO">     2</i>
   <i type="logical" name="LHOLEGF"> F  </i>
   <i type="logical" name="L2ORDER"> F  </i>
   <i type="logical" name="LDMP1"> F  </i>
   <i type="logical" name="LMP2LT"> F  </i>
   <i type="logical" name="LSMP2LT"> F  </i>
   <i type="logical" name="LGWLF"> F  </i>
   <i name="ENCUTGW">     -1.60000002</i>
   <i name="ENCUTGWSOFT">     -1.60000002</i>
   <i name="ENCUTLF">     -1.00000000</i>
   <i type="logical" name="LESF_SPLINES"> F  </i>
   <i type="int" name="LMAXMP2">    -1</i>
   <i name="SCISSOR">      0.00000000</i>
   <i type="int" name="NOMEGA">     0</i>
   <i type="int" name="NOMEGAR">     0</i>
   <i type="int" name="NBANDSGW">    -1</i>
   <i type="int" name="NBANDSO">    -1</i>
   <i type="int" name="NBANDSV">    -1</i>
   <i type="int" name="NELMGW">     1</i>
   <i type="int" name="NELMHF">     1</i>
   <i type="int" name="DIM">     3</i>
   <i type="int" name="IESPILON">     4</i>
   <i type="int" name="ANTIRES">     0</i>
   <i name="OMEGAMAX">    -30.00000000</i>
   <i name="OMEGAMIN">    -30.00000000</i>
   <i name="OMEGATL">   -200.00000000</i>
   <i type="int" name="OMEGAGRID">     0</i>
   <i name="CSHIFT">     -0.10000000</i>
   <i type="logical" name="LSELFENERGY"> F  </i>
   <i type="logical" name="LSPECTRAL"> F  </i>
   <i type="logical" name="LSPECTRALGW"> F  </i>
   <i type="logical" name="LSINGLES"> F  </i>
   <i type="logical" name="LFERMIGW"> F  </i>
   <i type="logical" name="ODDONLYGW"> F  </i>
   <i type="logical" name="EVENONLYGW"> F  </i>
   <i type="int" name="NKREDLFX">     1</i>
   <i type="int" name="NKREDLFY">     1</i>
   <i type="int" name="NKREDLFZ">     1</i>
   <i type="int" name="MAXMEM">  2800</i>
   <i type="int" name="TELESCOPE">     0</i>
   <i type="int" name="NTAUPAR">    -1</i>
   <i type="int" name="NOMEGAPAR">    -1</i>
   <i name="DAMP_NEWTON">      0.80000001</i>
   <i name="LAMBDA">      1.00000000</i>
  </separator>
  <separator name="External order field" >
   <i name="OFIELD_KAPPA">      0.00000000</i>
   <v name="OFIELD_K">      0.00000000      0.00000000      0.00000000</v>
   <i name="OFIELD_Q6_NEAR">      0.00000000</i>
   <i name="OFIELD_Q6_FAR">      0.00000000</i>
   <i name="OFIELD_A">      0.00000000</i>
  </separator>
  <separator name="optional k-points parameters" >
   <i type="int" name="KPOINTS_OPT_MODE">     1</i>
   <i type="logical" name="LKPOINTS_OPT"> F  </i>
  </separator>
 </parameters>
 <atominfo>
  <atoms>     120 </atoms>
  <types>       3 </types>
  <array name="atoms" >
   <dimension dim="1">ion</dimension>
   <field type="string">element</field>
   <field type="int">atomtype</field>
   <set>
    <rc><c>Ga</c><c>   1</c></rc>
    <rc><c>Ga</c><c>   1</c></rc>
    <rc><c>Ga</c><c>   1</c></rc>
    <rc><c>Ga</c><c>   1</c></rc>
    <rc><c>Ga</c><c>   1</c></rc>
    <rc><c>Ga</c><c>   1</c></rc>
    <rc><c>Ga</c><c>   1</c></rc>
    <rc><c>Ga</c><c>   1</c></rc>
    <rc><c>Ga</c><c>   1</c></rc>
    <rc><c>Ga</c><c>   1</c></rc>
    <rc><c>Ga</c><c>   1</c></rc>
    <rc><c>Ga</c><c>   1</c></rc>
    <rc><c>Ga</c><c>   1</c></rc>
    <rc><c>Ga</c><c>   1</c></rc>
    <rc><c>Ga</c><c>   1</c></rc>
    <rc><c>Ga</c><c>   1</c></rc>
    <rc><c>Ga</c><c>   1</c></rc>
    <rc><c>Ga</c><c>   1</c></rc>
    <rc><c>Ga</c><c>   1</c></rc>
    <rc><c>Ga</c><c>   1</c></rc>
    <rc><c>Ga</c><c>   1</c></rc>
    <rc><c>Ga</c><c>   1</c></rc>
    <rc><c>Ga</c><c>   1</c></rc>
    <rc><c>Ga</c><c>   1</c></rc>
    <rc><c>Ga</c><c>   1</c></rc>
    <rc><c>Ga</c><c>   1</c></rc>
    <rc><c>Ga</c><c>   1</c></rc>
    <rc><c>Ga</c><c>   1</c></rc>
    <rc><c>Ga</c><c>   1</c></rc>
    <rc><c>Ga</c><c>   1</c></rc>
    <rc><c>Ga</c><c>   1</c></rc>
    <rc><c>Ga</c><c>   1</c></rc>
    <rc><c>Ga</c><c>   1</c></rc>
    <rc><c>Ga</c><c>   1</c></rc>
    <rc><c>Ga</c><c>   1</c></rc>
    <rc><c>Ga</c><c>   1</c></rc>
    <rc><c>Ga</c><c>   1</c></rc>
    <rc><c>Ga</c><c>   1</c></rc>
    <rc><c>Ga</c><c>   1</c></rc>
    <rc><c>Ga</c><c>   1</c></rc>
    <rc><c>Ga</c><c>   1</c></rc>
    <rc><c>Ga</c><c>   1</c></rc>
    <rc><c>Ga</c><c>   1</c></rc>
    <rc><c>Ga</c><c>   1</c></rc>
    <rc><c>Ga</c><c>   1</c></rc>
    <rc><c>Ga</c><c>   1</c></rc>
    <rc><c>Ga</c><c>   1</c></rc>
    <rc><c>Ga</c><c>   1</c></rc>
    <rc><c>O </c><c>   2</c></rc>
    <rc><c>O </c><c>   2</c></rc>
    <rc><c>O </c><c>   2</c></rc>
    <rc><c>O </c><c>   2</c></rc>
    <rc><c>O </c><c>   2</c></rc>
    <rc><c>O </c><c>   2</c></rc>
    <rc><c>O </c><c>   2</c></rc>
    <rc><c>O </c><c>   2</c></rc>
    <rc><c>O </c><c>   2</c></rc>
    <rc><c>O </c><c>   2</c></rc>
    <rc><c>O </c><c>   2</c></rc>
    <rc><c>O </c><c>   2</c></rc>
    <rc><c>O </c><c>   2</c></rc>
    <rc><c>O </c><c>   2</c></rc>
    <rc><c>O </c><c>   2</c></rc>
    <rc><c>O </c><c>   2</c></rc>
    <rc><c>O </c><c>   2</c></rc>
    <rc><c>O </c><c>   2</c></rc>
    <rc><c>O </c><c>   2</c></rc>
    <rc><c>O </c><c>   2</c></rc>
    <rc><c>O </c><c>   2</c></rc>
    <rc><c>O </c><c>   2</c></rc>
    <rc><c>O </c><c>   2</c></rc>
    <rc><c>O </c><c>   2</c></rc>
    <rc><c>O </c><c>   2</c></rc>
    <rc><c>O </c><c>   2</c></rc>
    <rc><c>O </c><c>   2</c></rc>
    <rc><c>O </c><c>   2</c></rc>
    <rc><c>O </c><c>   2</c></rc>
    <rc><c>O </c><c>   2</c></rc>
    <rc><c>O </c><c>   2</c></rc>
    <rc><c>O </c><c>   2</c></rc>
    <rc><c>O </c><c>   2</c></rc>
    <rc><c>O </c><c>   2</c></rc>
    <rc><c>O </c><c>   2</c></rc>
    <rc><c>O </c><c>   2</c></rc>
    <rc><c>O </c><c>   2</c></rc>
    <rc><c>O </c><c>   2</c></rc>
    <rc><c>O </c><c>   2</c></rc>
    <rc><c>O </c><c>   2</c></rc>
    <rc><c>O </c><c>   2</c></rc>
    <rc><c>O </c><c>   2</c></rc>
    <rc><c>O </c><c>   2</c></rc>
    <rc><c>O </c><c>   2</c></rc>
    <rc><c>O </c><c>   2</c></rc>
    <rc><c>O </c><c>   2</c></rc>
    <rc><c>O </c><c>   2</c></rc>
    <rc><c>O </c><c>   2</c></rc>
    <rc><c>O </c><c>   2</c></rc>
    <rc><c>O </c><c>   2</c></rc>
    <rc><c>O </c><c>   2</c></rc>
    <rc><c>O </c><c>   2</c></rc>
    <rc><c>O </c><c>   2</c></rc>
    <rc><c>O </c><c>   2</c></rc>
    <rc><c>O </c><c>   2</c></rc>
    <rc><c>O </c><c>   2</c></rc>
    <rc><c>O </c><c>   2</c></rc>
    <rc><c>O </c><c>   2</c></rc>
    <rc><c>O </c><c>   2</c></rc>
    <rc><c>O </c><c>   2</c></rc>
    <rc><c>O </c><c>   2</c></rc>
    <rc><c>O </c><c>   2</c></rc>
    <rc><c>O </c><c>   2</c></rc>
    <rc><c>O </c><c>   2</c></rc>
    <rc><c>O </c><c>   2</c></rc>
    <rc><c>O </c><c>   2</c></rc>
    <rc><c>O </c><c>   2</c></rc>
    <rc><c>O </c><c>   2</c></rc>
    <rc><c>O </c><c>   2</c></rc>
    <rc><c>O </c><c>   2</c></rc>
    <rc><c>O </c><c>   2</c></rc>
    <rc><c>N </c><c>   3</c></rc>
   </set>
  </array>
  <array name="atomtypes" >
   <dimension dim="1">type</dimension>
   <field type="int">atomspertype</field>
   <field type="string">element</field>
   <field>mass</field>
   <field>valence</field>
   <field type="string">pseudopotential</field>
   <set>
    <rc><c>  48</c><c>Ga</c><c>     69.72300000</c><c>     13.00000000</c><c>  PAW_PBE Ga_d 06Jul2010                </c></rc>
    <rc><c>  71</c><c>O </c><c>     16.00000000</c><c>      6.00000000</c><c>  PAW_PBE O 08Apr2002                   </c></rc>
    <rc><c>   1</c><c>N </c><c>     14.00100000</c><c>      5.00000000</c><c>  PAW_PBE N 08Apr2002                   </c></rc>
   </set>
  </array>
 </atominfo>
 <structure name="initialpos" >
  <crystal>
   <varray name="basis" >
    <v>       0.00000000      12.28047342       0.00000000 </v>
    <v>       9.14270205       0.00000000       0.00000000 </v>
    <v>       0.00000000      -2.76826177     -11.30069772 </v>
   </varray>
   <i name="volume">   1268.80515525 </i>
   <varray name="rec_basis" >
    <v>       0.00000000       0.08143009      -0.01994742 </v>
    <v>       0.10937686      -0.00000000       0.00000000 </v>
    <v>       0.00000000       0.00000000      -0.08849011 </v>
   </varray>
  </crystal>
  <varray name="positions" >
   <v>       0.65883830       0.00000000       0.15736517 </v>
   <v>       0.65883830       0.00000000       0.65736517 </v>
   <v>       0.65883830       0.33333333       0.15736517 </v>
   <v>       0.65883830       0.33333333       0.65736517 </v>
   <v>       0.65883830       0.66666667       0.15736517 </v>
   <v>       0.65883830       0.66666667       0.65736517 </v>
   <v>       0.84116170       0.16666667       0.34263483 </v>
   <v>       0.84116170       0.16666667       0.84263483 </v>
   <v>       0.84116170       0.50000000       0.34263483 </v>
   <v>       0.84116170       0.50000000       0.84263483 </v>
   <v>       0.84116170       0.83333333       0.34263483 </v>
   <v>       0.84116170       0.83333333       0.84263483 </v>
   <v>       0.59047440       0.16666667       0.39739300 </v>
   <v>       0.59047440       0.16666667       0.89739300 </v>
   <v>       0.59047440       0.50000000       0.39739300 </v>
   <v>       0.59047440       0.50000000       0.89739300 </v>
   <v>       0.59047440       0.83333333       0.39739300 </v>
   <v>       0.59047440       0.83333333       0.89739300 </v>
   <v>       0.90952560       0.00000000       0.10260700 </v>
   <v>       0.90952560       0.00000000       0.60260700 </v>
   <v>       0.90952560       0.33333333       0.10260700 </v>
   <v>       0.90952560       0.33333333       0.60260700 </v>
   <v>       0.90952560       0.66666667       0.10260700 </v>
   <v>       0.90952560       0.66666667       0.60260700 </v>
   <v>       0.15883830       0.16666667       0.15736517 </v>
   <v>       0.15883830       0.16666667       0.65736517 </v>
   <v>       0.15883830       0.50000000       0.15736517 </v>
   <v>       0.15883830       0.50000000       0.65736517 </v>
   <v>       0.15883830       0.83333333       0.15736517 </v>
   <v>       0.15883830       0.83333333       0.65736517 </v>
   <v>       0.34116170       0.00000000       0.34263483 </v>
   <v>       0.34116170       0.00000000       0.84263483 </v>
   <v>       0.34116170       0.33333333       0.34263483 </v>
   <v>       0.34116170       0.33333333       0.84263483 </v>
   <v>       0.34116170       0.66666667       0.34263483 </v>
   <v>       0.34116170       0.66666667       0.84263483 </v>
   <v>       0.09047440       0.00000000       0.39739300 </v>
   <v>       0.09047440       0.00000000       0.89739300 </v>
   <v>       0.09047440       0.33333333       0.39739300 </v>
   <v>       0.09047440       0.33333333       0.89739300 </v>
   <v>       0.09047440       0.66666667       0.39739300 </v>
   <v>       0.09047440       0.66666667       0.89739300 </v>
   <v>       0.40952560       0.16666667       0.10260700 </v>
   <v>       0.40952560       0.16666667       0.60260700 </v>
   <v>       0.40952560       0.50000000       0.10260700 </v>
   <v>       0.40952560       0.50000000       0.60260700 </v>
   <v>       0.40952560       0.83333333       0.10260700 </v>
   <v>       0.40952560       0.83333333       0.60260700 </v>
   <v>       0.99646913       0.16666667       0.12833205 </v>
   <v>       0.99646913       0.16666667       0.62833205 </v>
   <v>       0.99646913       0.50000000       0.12833205 </v>
   <v>       0.99646913       0.50000000       0.62833205 </v>
   <v>       0.99646913       0.83333333       0.12833205 </v>
   <v>       0.99646913       0.83333333       0.62833205 </v>
   <v>       0.50353087       0.00000000       0.37166795 </v>
   <v>       0.50353087       0.00000000       0.87166795 </v>
   <v>       0.50353087       0.33333333       0.37166795 </v>
   <v>       0.50353087       0.33333333       0.87166795 </v>
   <v>       0.50353087       0.66666667       0.37166795 </v>
   <v>       0.50353087       0.66666667       0.87166795 </v>
   <v>       0.67337106       0.16666667       0.28161508 </v>
   <v>       0.67337106       0.16666667       0.78161508 </v>
   <v>       0.67337106       0.50000000       0.28161508 </v>
   <v>       0.67337106       0.50000000       0.78161508 </v>
   <v>       0.67337106       0.83333333       0.28161508 </v>
   <v>       0.67337106       0.83333333       0.78161508 </v>
   <v>       0.82662894       0.00000000       0.21838492 </v>
   <v>       0.82662894       0.00000000       0.71838492 </v>
   <v>       0.82662894       0.33333333       0.21838492 </v>
   <v>       0.82662894       0.33333333       0.71838492 </v>
   <v>       0.82662894       0.66666667       0.21838492 </v>
   <v>       0.82662894       0.66666667       0.71838492 </v>
   <v>       0.83549502       0.00000000       0.44542296 </v>
   <v>       0.83549502       0.00000000       0.94542296 </v>
   <v>       0.83549502       0.33333333       0.44542296 </v>
   <v>       0.83549502       0.33333333       0.94542296 </v>
   <v>       0.83549502       0.66666667       0.44542296 </v>
   <v>       0.83549502       0.66666667       0.94542296 </v>
   <v>       0.66450498       0.16666667       0.05457704 </v>
   <v>       0.66450498       0.16666667       0.55457704 </v>
   <v>       0.66450498       0.50000000       0.05457704 </v>
   <v>       0.66450498       0.50000000       0.55457704 </v>
   <v>       0.66450498       0.83333333       0.05457704 </v>
   <v>       0.66450498       0.83333333       0.55457704 </v>
   <v>       0.49646913       0.00000000       0.12833205 </v>
   <v>       0.49646913       0.00000000       0.62833205 </v>
   <v>       0.49646913       0.33333333       0.12833205 </v>
   <v>       0.49646913       0.33333333       0.62833205 </v>
   <v>       0.49646913       0.66666667       0.12833205 </v>
   <v>       0.49646913       0.66666667       0.62833205 </v>
   <v>       0.00353087       0.16666667       0.37166795 </v>
   <v>       0.00353087       0.16666667       0.87166795 </v>
   <v>       0.00353087       0.50000000       0.37166795 </v>
   <v>       0.00353087       0.50000000       0.87166795 </v>
   <v>       0.00353087       0.83333333       0.37166795 </v>
   <v>       0.00353087       0.83333333       0.87166795 </v>
   <v>       0.17337106       0.00000000       0.28161508 </v>
   <v>       0.17337106       0.00000000       0.78161508 </v>
   <v>       0.17337106       0.33333333       0.28161508 </v>
   <v>       0.17337106       0.33333333       0.78161508 </v>
   <v>       0.17337106       0.66666667       0.28161508 </v>
   <v>       0.17337106       0.66666667       0.78161508 </v>
   <v>       0.32662894       0.16666667       0.21838492 </v>
   <v>       0.32662894       0.16666667       0.71838492 </v>
   <v>       0.32662894       0.50000000       0.21838492 </v>
   <v>       0.32662894       0.50000000       0.71838492 </v>
   <v>       0.32662894       0.83333333       0.21838492 </v>
   <v>       0.32662894       0.83333333       0.71838492 </v>
   <v>       0.33549502       0.16666667       0.44542296 </v>
   <v>       0.33549502       0.16666667       0.94542296 </v>
   <v>       0.33549502       0.50000000       0.44542296 </v>
   <v>       0.33549502       0.50000000       0.94542296 </v>
   <v>       0.33549502       0.83333333       0.44542296 </v>
   <v>       0.33549502       0.83333333       0.94542296 </v>
   <v>       0.16450498       0.00000000       0.05457704 </v>
   <v>       0.16450498       0.33333333       0.05457704 </v>
   <v>       0.16450498       0.33333333       0.55457704 </v>
   <v>       0.16450498       0.66666667       0.05457704 </v>
   <v>       0.16450498       0.66666667       0.55457704 </v>
   <v>       0.16450498       0.00000000       0.55457704 </v>
  </varray>
 </structure>
 <calculation>
  <scstep>
   <time name="dav">    1.80    1.80</time>
   <time name="total">    1.93    1.93</time>
   <energy>
    <i name="alphaZ">   5530.94812622 </i>
    <i name="ewald"> -88600.23035105 </i>
    <i name="hartreedc"> -33377.47507995 </i>
    <i name="XCdc">   4139.93984373 </i>
    <i name="pawpsdc"> 101761.42039030 </i>
    <i name="pawaedc">-117900.86270521 </i>
    <i name="eentropy">     -0.01513077 </i>
    <i name="bandstr">  16293.85514090 </i>
    <i name="atom"> 134104.30092448 </i>
    <i name="e_fr_energy">  21951.88115864 </i>
    <i name="e_wo_entrp">  21951.89628941 </i>
    <i name="e_0_energy">  21951.88872403 </i>
   </energy>
  </scstep>
  <scstep>
   <time name="dav">    1.71    1.71</time>
   <time name="total">    1.71    1.71</time>
   <energy>
    <i name="e_fr_energy">   4854.31539074 </i>
    <i name="e_wo_entrp">   4854.33195632 </i>
    <i name="e_0_energy">   4854.32367353 </i>
   </energy>
  </scstep>
  <scstep>
   <time name="dav">    2.09    2.09</time>
   <time name="total">    2.09    2.09</time>
   <energy>
    <i name="e_fr_energy">   -153.91819404 </i>
    <i name="e_wo_entrp">   -153.90864803 </i>
    <i name="e_0_energy">   -153.91342103 </i>
   </energy>
  </scstep>
  <scstep>
   <time name="dav">    2.03    2.03</time>
   <time name="total">    2.03    2.03</time>
   <energy>
    <i name="e_fr_energy">   -779.41313633 </i>
    <i name="e_wo_entrp">   -779.38524803 </i>
    <i name="e_0_energy">   -779.39919218 </i>
   </energy>
  </scstep>
  <scstep>
   <time name="dav">    2.30    2.30</time>
   <time name="total">    2.57    2.57</time>
   <energy>
    <i name="e_fr_energy">   -822.44685519 </i>
    <i name="e_wo_entrp">   -822.41891044 </i>
    <i name="e_0_energy">   -822.43288282 </i>
   </energy>
  </scstep>
  <scstep>
   <time name="diag">    0.24    0.24</time>
   <time name="diis">    2.47    2.47</time>
   <time name="orth">    0.03    0.03</time>
   <time name="total">    3.13    3.13</time>
   <energy>
    <i name="e_fr_energy">   -710.23632051 </i>
    <i name="e_wo_entrp">   -710.21237229 </i>
    <i name="e_0_energy">   -710.22434640 </i>
   </energy>
  </scstep>
  <scstep>
   <time name="diag">    0.24    0.24</time>
   <time name="diis">    2.64    2.64</time>
   <time name="orth">    0.03    0.03</time>
   <time name="total">    3.30    3.30</time>
   <energy>
    <i name="e_fr_energy">   -713.92665221 </i>
    <i name="e_wo_entrp">   -713.90068225 </i>
    <i name="e_0_energy">   -713.91366723 </i>
   </energy>
  </scstep>
  <scstep>
   <time name="diag">    0.24    0.24</time>
   <time name="diis">    2.52    2.52</time>
   <time name="orth">    0.03    0.03</time>
   <time name="total">    3.19    3.19</time>
   <energy>
    <i name="e_fr_energy">   -713.37518876 </i>
    <i name="e_wo_entrp">   -713.34858520 </i>
    <i name="e_0_energy">   -713.36188698 </i>
   </energy>
  </scstep>
  <scstep>
   <time name="diag">    0.24    0.24</time>
   <time name="diis">    2.49    2.49</time>
   <time name="orth">    0.03    0.03</time>
   <time name="total">    3.15    3.15</time>
   <energy>
    <i name="e_fr_energy">   -713.58001038 </i>
    <i name="e_wo_entrp">   -713.55367826 </i>
    <i name="e_0_energy">   -713.56684432 </i>
   </energy>
  </scstep>
  <scstep>
   <time name="diag">    0.24    0.24</time>
   <time name="diis">    2.91    2.91</time>
   <time name="orth">    0.03    0.03</time>
   <time name="total">    3.58    3.57</time>
   <energy>
    <i name="e_fr_energy">   -713.32425579 </i>
    <i name="e_wo_entrp">   -713.29828511 </i>
    <i name="e_0_energy">   -713.31127045 </i>
   </energy>
  </scstep>
  <scstep>
   <time name="diag">    0.24    0.24</time>
   <time name="diis">    2.70    2.70</time>
   <time name="orth">    0.03    0.03</time>
   <time name="total">    3.37    3.37</time>
   <energy>
    <i name="e_fr_energy">   -713.36275895 </i>
    <i name="e_wo_entrp">   -713.33698084 </i>
    <i name="e_0_energy">   -713.34986989 </i>
   </energy>
  </scstep>
  <scstep>
   <time name="diag">    0.24    0.24</time>
   <time name="diis">    2.61    2.61</time>
   <time name="orth">    0.03    0.03</time>
   <time name="total">    3.28    3.28</time>
   <energy>
    <i name="e_fr_energy">   -713.36734414 </i>
    <i name="e_wo_entrp">   -713.34162482 </i>
    <i name="e_0_energy">   -713.35448448 </i>
   </energy>
  </scstep>
  <scstep>
   <time name="diag">    0.24    0.24</time>
   <time name="diis">    2.93    2.93</time>
   <time name="orth">    0.03    0.03</time>
   <time name="total">    3.60    3.60</time>
   <energy>
    <i name="e_fr_energy">   -713.36855938 </i>
    <i name="e_wo_entrp">   -713.34276533 </i>
    <i name="e_0_energy">   -713.35566235 </i>
   </energy>
  </scstep>
  <scstep>
   <time name="diag">    0.24    0.24</time>
   <time name="diis">    2.93    2.93</time>
   <time name="orth">    0.03    0.03</time>
   <time name="total">    3.60    3.60</time>
   <energy>
    <i name="e_fr_energy">   -713.36911073 </i>
    <i name="e_wo_entrp">   -713.34330766 </i>
    <i name="e_0_energy">   -713.35620919 </i>
   </energy>
  </scstep>
  <scstep>
   <time name="diag">    0.24    0.24</time>
   <time name="diis">    2.54    2.54</time>
   <time name="orth">    0.03    0.03</time>
   <time name="total">    3.21    3.21</time>
   <energy>
    <i name="e_fr_energy">   -713.36931292 </i>
    <i name="e_wo_entrp">   -713.34351305 </i>
    <i name="e_0_energy">   -713.35641298 </i>
   </energy>
  </scstep>
  <scstep>
   <time name="diag">    0.24    0.24</time>
   <time name="diis">    2.30    2.30</time>
   <time name="orth">    0.03    0.03</time>
   <time name="total">    2.97    2.97</time>
   <energy>
    <i name="e_fr_energy">   -713.36936978 </i>
    <i name="e_wo_entrp">   -713.34356907 </i>
    <i name="e_0_energy">   -713.35646942 </i>
   </energy>
  </scstep>
  <scstep>
   <time name="diag">    0.24    0.24</time>
   <time name="diis">    2.03    2.03</time>
   <time name="orth">    0.03    0.03</time>
   <time name="total">    2.71    2.71</time>
   <energy>
    <i name="e_fr_energy">   -713.36938527 </i>
    <i name="e_wo_entrp">   -713.34358212 </i>
    <i name="e_0_energy">   -713.35648370 </i>
   </energy>
  </scstep>
  <scstep>
   <time name="diag">    0.24    0.24</time>
   <time name="diis">    1.85    1.85</time>
   <time name="orth">    0.03    0.03</time>
   <time name="total">    2.53    2.53</time>
   <energy>
    <i name="e_fr_energy">   -713.36939622 </i>
    <i name="e_wo_entrp">   -713.34359250 </i>
    <i name="e_0_energy">   -713.35649436 </i>
   </energy>
  </scstep>
  <scstep>
   <time name="diag">    0.24    0.24</time>
   <time name="diis">    1.64    1.64</time>
   <time name="orth">    0.03    0.03</time>
   <time name="total">    2.02    2.02</time>
   <energy>
    <i name="alphaZ">   5530.94812622 </i>
    <i name="ewald"> -88600.23035105 </i>
    <i name="hartreedc"> -33848.30909317 </i>
    <i name="XCdc">   4200.19049507 </i>
    <i name="pawpsdc"> 119732.99224373 </i>
    <i name="pawaedc">-136129.87845616 </i>
    <i name="eentropy">     -0.02580322 </i>
    <i name="bandstr">  -5703.35748547 </i>
    <i name="atom"> 134104.30092448 </i>
    <i name="e_fr_energy">   -713.36939958 </i>
    <i name="e_wo_entrp">   -713.34359636 </i>
    <i name="e_0_energy">   -713.35649797 </i>
   </energy>
  </scstep>
  <structure>
   <crystal>
    <varray name="basis" >
     <v>       0.00000000      12.28047342       0.00000000 </v>
     <v>       9.14270205       0.00000000       0.00000000 </v>
     <v>       0.00000000      -2.76826177     -11.30069772 </v>
    </varray>
    <i name="volume">   1268.80515525 </i>
    <varray name="rec_basis" >
     <v>       0.00000000       0.08143009      -0.01994742 </v>
     <v>       0.10937686      -0.00000000       0.00000000 </v>
     <v>       0.00000000       0.00000000      -0.08849011 </v>
    </varray>
   </crystal>
   <varray name="positions" >
    <v>       0.65883830       0.00000000       0.15736517 </v>
    <v>       0.65883830       0.00000000       0.65736517 </v>
    <v>       0.65883830       0.33333333       0.15736517 </v>
    <v>       0.65883830       0.33333333       0.65736517 </v>
    <v>       0.65883830       0.66666667       0.15736517 </v>
    <v>       0.65883830       0.66666667       0.65736517 </v>
    <v>       0.84116170       0.16666667       0.34263483 </v>
    <v>       0.84116170       0.16666667       0.84263483 </v>
    <v>       0.84116170       0.50000000       0.34263483 </v>
    <v>       0.84116170       0.50000000       0.84263483 </v>
    <v>       0.84116170       0.83333333       0.34263483 </v>
    <v>       0.84116170       0.83333333       0.84263483 </v>
    <v>       0.59047440       0.16666667       0.39739300 </v>
    <v>       0.59047440       0.16666667       0.89739300 </v>
    <v>       0.59047440       0.50000000       0.39739300 </v>
    <v>       0.59047440       0.50000000       0.89739300 </v>
    <v>       0.59047440       0.83333333       0.39739300 </v>
    <v>       0.59047440       0.83333333       0.89739300 </v>
    <v>       0.90952560       0.00000000       0.10260700 </v>
    <v>       0.90952560       0.00000000       0.60260700 </v>
    <v>       0.90952560       0.33333333       0.10260700 </v>
    <v>       0.90952560       0.33333333       0.60260700 </v>
    <v>       0.90952560       0.66666667       0.10260700 </v>
    <v>       0.90952560       0.66666667       0.60260700 </v>
    <v>       0.15883830       0.16666667       0.15736517 </v>
    <v>       0.15883830       0.16666667       0.65736517 </v>
    <v>       0.15883830       0.50000000       0.15736517 </v>
    <v>       0.15883830       0.50000000       0.65736517 </v>
    <v>       0.15883830       0.83333333       0.15736517 </v>
    <v>       0.15883830       0.83333333       0.65736517 </v>
    <v>       0.34116170       0.00000000       0.34263483 </v>
    <v>       0.34116170       0.00000000       0.84263483 </v>
    <v>       0.34116170       0.33333333       0.34263483 </v>
    <v>       0.34116170       0.33333333       0.84263483 </v>
    <v>       0.34116170       0.66666667       0.34263483 </v>
    <v>       0.34116170       0.66666667       0.84263483 </v>
    <v>       0.09047440       0.00000000       0.39739300 </v>
    <v>       0.09047440       0.00000000       0.89739300 </v>
    <v>       0.09047440       0.33333333       0.39739300 </v>
    <v>       0.09047440       0.33333333       0.89739300 </v>
    <v>       0.09047440       0.66666667       0.39739300 </v>
    <v>       0.09047440       0.66666667       0.89739300 </v>
    <v>       0.40952560       0.16666667       0.10260700 </v>
    <v>       0.40952560       0.16666667       0.60260700 </v>
    <v>       0.40952560       0.50000000       0.10260700 </v>
    <v>       0.40952560       0.50000000       0.60260700 </v>
    <v>       0.40952560       0.83333333       0.10260700 </v>
    <v>       0.40952560       0.83333333       0.60260700 </v>
    <v>       0.99646913       0.16666667       0.12833205 </v>
    <v>       0.99646913       0.16666667       0.62833205 </v>
    <v>       0.99646913       0.50000000       0.12833205 </v>
    <v>       0.99646913       0.50000000       0.62833205 </v>
    <v>       0.99646913       0.83333333       0.12833205 </v>
    <v>       0.99646913       0.83333333       0.62833205 </v>
    <v>       0.50353087       0.00000000       0.37166795 </v>
    <v>       0.50353087       0.00000000       0.87166795 </v>
    <v>       0.50353087       0.33333333       0.37166795 </v>
    <v>       0.50353087       0.33333333       0.87166795 </v>
    <v>       0.50353087       0.66666667       0.37166795 </v>
    <v>       0.50353087       0.66666667       0.87166795 </v>
    <v>       0.67337106       0.16666667       0.28161508 </v>
    <v>       0.67337106       0.16666667       0.78161508 </v>
    <v>       0.67337106       0.50000000       0.28161508 </v>
    <v>       0.67337106       0.50000000       0.78161508 </v>
    <v>       0.67337106       0.83333333       0.28161508 </v>
    <v>       0.67337106       0.83333333       0.78161508 </v>
    <v>       0.82662894       0.00000000       0.21838492 </v>
    <v>       0.82662894       0.00000000       0.71838492 </v>
    <v>       0.82662894       0.33333333       0.21838492 </v>
    <v>       0.82662894       0.33333333       0.71838492 </v>
    <v>       0.82662894       0.66666667       0.21838492 </v>
    <v>       0.82662894       0.66666667       0.71838492 </v>
    <v>       0.83549502       0.00000000       0.44542296 </v>
    <v>       0.83549502       0.00000000       0.94542296 </v>
    <v>       0.83549502       0.33333333       0.44542296 </v>
    <v>       0.83549502       0.33333333       0.94542296 </v>
    <v>       0.83549502       0.66666667       0.44542296 </v>
    <v>       0.83549502       0.66666667       0.94542296 </v>
    <v>       0.66450498       0.16666667       0.05457704 </v>
    <v>       0.66450498       0.16666667       0.55457704 </v>
    <v>       0.66450498       0.50000000       0.05457704 </v>
    <v>       0.66450498       0.50000000       0.55457704 </v>
    <v>       0.66450498       0.83333333       0.05457704 </v>
    <v>       0.66450498       0.83333333       0.55457704 </v>
    <v>       0.49646913       0.00000000       0.12833205 </v>
    <v>       0.49646913       0.00000000       0.62833205 </v>
    <v>       0.49646913       0.33333333       0.12833205 </v>
    <v>       0.49646913       0.33333333       0.62833205 </v>
    <v>       0.49646913       0.66666667       0.12833205 </v>
    <v>       0.49646913       0.66666667       0.62833205 </v>
    <v>       0.00353087       0.16666667       0.37166795 </v>
    <v>       0.00353087       0.16666667       0.87166795 </v>
    <v>       0.00353087       0.50000000       0.37166795 </v>
    <v>       0.00353087       0.50000000       0.87166795 </v>
    <v>       0.00353087       0.83333333       0.37166795 </v>
    <v>       0.00353087       0.83333333       0.87166795 </v>
    <v>       0.17337106       0.00000000       0.28161508 </v>
    <v>       0.17337106       0.00000000       0.78161508 </v>
    <v>       0.17337106       0.33333333       0.28161508 </v>
    <v>       0.17337106       0.33333333       0.78161508 </v>
    <v>       0.17337106       0.66666667       0.28161508 </v>
    <v>       0.17337106       0.66666667       0.78161508 </v>
    <v>       0.32662894       0.16666667       0.21838492 </v>
    <v>       0.32662894       0.16666667       0.71838492 </v>
    <v>       0.32662894       0.50000000       0.21838492 </v>
    <v>       0.32662894       0.50000000       0.71838492 </v>
    <v>       0.32662894       0.83333333       0.21838492 </v>
    <v>       0.32662894       0.83333333       0.71838492 </v>
    <v>       0.33549502       0.16666667       0.44542296 </v>
    <v>       0.33549502       0.16666667       0.94542296 </v>
    <v>       0.33549502       0.50000000       0.44542296 </v>
    <v>       0.33549502       0.50000000       0.94542296 </v>
    <v>       0.33549502       0.83333333       0.44542296 </v>
    <v>       0.33549502       0.83333333       0.94542296 </v>
    <v>       0.16450498       0.00000000       0.05457704 </v>
    <v>       0.16450498       0.33333333       0.05457704 </v>
    <v>       0.16450498       0.33333333       0.55457704 </v>
    <v>       0.16450498       0.66666667       0.05457704 </v>
    <v>       0.16450498       0.66666667       0.55457704 </v>
    <v>       0.16450498       0.00000000       0.55457704 </v>
   </varray>
  </structure>
  <varray name="forces" >
   <v>       0.00000000      -0.03086840       0.04689362 </v>
   <v>       0.00000000      -0.04356750       0.04259212 </v>
   <v>      -0.00096492      -0.03334854       0.04785364 </v>
   <v>      -0.00155488      -0.05251945       0.04723493 </v>
   <v>       0.00096492      -0.03334854       0.04785364 </v>
   <v>       0.00155488      -0.05251945       0.04723493 </v>
   <v>       0.00708839       0.11716261      -0.04763422 </v>
   <v>       0.00088791       0.04941633      -0.06318860 </v>
   <v>       0.00000000       0.09276088      -0.05626816 </v>
   <v>       0.00000000       0.05856424      -0.06633387 </v>
   <v>      -0.00708839       0.11716261      -0.04763422 </v>
   <v>      -0.00088791       0.04941633      -0.06318860 </v>
   <v>       0.00250588       0.01507388      -0.02437883 </v>
   <v>      -0.00175441      -0.02857611      -0.02783335 </v>
   <v>       0.00000000       0.00301993      -0.03397469 </v>
   <v>       0.00000000      -0.02720543      -0.03079591 </v>
   <v>      -0.00250588       0.01507388      -0.02437883 </v>
   <v>       0.00175441      -0.02857611      -0.02783335 </v>
   <v>       0.00000000       0.02535369       0.00210467 </v>
   <v>       0.00000000      -0.05156109       0.04402834 </v>
   <v>       0.00169280       0.02445761       0.00810362 </v>
   <v>       0.06972012       0.01216068       0.08025086 </v>
   <v>      -0.00169280       0.02445761       0.00810362 </v>
   <v>      -0.06972012       0.01216068       0.08025086 </v>
   <v>      -0.05132024      -0.06503085       0.00936717 </v>
   <v>       0.05065822       0.16241429       0.17327780 </v>
   <v>       0.00000000      -0.05969842       0.03343708 </v>
   <v>       0.00000000       0.00119419       0.19744596 </v>
   <v>       0.05132024      -0.06503085       0.00936717 </v>
   <v>      -0.05065822       0.16241429       0.17327780 </v>
   <v>       0.00000000      -0.02570204       0.06470085 </v>
   <v>       0.00000000      -0.02469839       0.02316729 </v>
   <v>       0.07438238       0.00986379       0.02030724 </v>
   <v>       0.00448444       0.03271570      -0.01218311 </v>
   <v>      -0.07438238       0.00986379       0.02030724 </v>
   <v>      -0.00448444       0.03271570      -0.01218311 </v>
   <v>       0.00000000       0.17418955       0.28621731 </v>
   <v>       0.00000000       0.09445128       0.01263912 </v>
   <v>      -0.04990875      -0.01902211      -0.14848612 </v>
   <v>       0.00065736       0.00249243      -0.01910219 </v>
   <v>       0.04990875      -0.01902211      -0.14848612 </v>
   <v>      -0.00065736       0.00249243      -0.01910219 </v>
   <v>       0.00197153       0.01934886       0.03218683 </v>
   <v>       0.02927479       0.00192090      -0.09583985 </v>
   <v>       0.00000000       0.01388085       0.03482291 </v>
   <v>       0.00000000      -0.02976416       0.01058275 </v>
   <v>      -0.00197153       0.01934886       0.03218683 </v>
   <v>      -0.02927479       0.00192090      -0.09583985 </v>
   <v>       0.00611619      -0.02139235      -0.02407863 </v>
   <v>      -0.05295480      -0.17263467      -0.07361947 </v>
   <v>       0.00000000      -0.01002054      -0.02296760 </v>
   <v>       0.00000000      -0.06667249      -0.04256624 </v>
   <v>      -0.00611619      -0.02139235      -0.02407863 </v>
   <v>       0.05295480      -0.17263467      -0.07361947 </v>
   <v>       0.00000000      -0.02202101       0.02725256 </v>
   <v>       0.00000000       0.02136527       0.02493616 </v>
   <v>      -0.02195406      -0.01931325       0.02910588 </v>
   <v>       0.00225110       0.02267100       0.02422851 </v>
   <v>       0.02195406      -0.01931325       0.02910588 </v>
   <v>      -0.00225110       0.02267100       0.02422851 </v>
   <v>      -0.00113969      -0.03292702       0.01205810 </v>
   <v>      -0.00118479      -0.01334922       0.02523979 </v>
   <v>       0.00000000      -0.03693742       0.01129510 </v>
   <v>       0.00000000      -0.00753121       0.02670188 </v>
   <v>       0.00113969      -0.03292702       0.01205810 </v>
   <v>       0.00118479      -0.01334922       0.02523979 </v>
   <v>       0.00000000      -0.00283370      -0.00243106 </v>
   <v>       0.00000000       0.02221929      -0.01592910 </v>
   <v>       0.00915722      -0.00508223      -0.00037385 </v>
   <v>      -0.00880695       0.01845416      -0.01677491 </v>
   <v>      -0.00915722      -0.00508223      -0.00037385 </v>
   <v>       0.00880695       0.01845416      -0.01677491 </v>
   <v>       0.00000000      -0.18919898      -0.04583329 </v>
   <v>       0.00000000      -0.17442197      -0.01350929 </v>
   <v>       0.00331043      -0.19162517      -0.03588845 </v>
   <v>       0.00116165      -0.17666659      -0.01234212 </v>
   <v>      -0.00331043      -0.19162517      -0.03588845 </v>
   <v>      -0.00116165      -0.17666659      -0.01234212 </v>
   <v>       0.00053127       0.16939373       0.02494049 </v>
   <v>      -0.00125723       0.16625369       0.02668287 </v>
   <v>       0.00000000       0.16968062       0.02504067 </v>
   <v>       0.00000000       0.16753320       0.02562607 </v>
   <v>      -0.00053127       0.16939373       0.02494049 </v>
   <v>       0.00125723       0.16625369       0.02668287 </v>
   <v>       0.00000000      -0.00791829      -0.03695578 </v>
   <v>       0.00000000      -0.00299366      -0.01063252 </v>
   <v>      -0.00038146      -0.00549399      -0.03710579 </v>
   <v>      -0.00898010       0.00221853      -0.01709589 </v>
   <v>       0.00038146      -0.00549399      -0.03710579 </v>
   <v>       0.00898010       0.00221853      -0.01709589 </v>
   <v>       0.12429414      -0.23056696       0.22052424 </v>
   <v>       0.01347647      -0.02921710       0.05187661 </v>
   <v>       0.00000000      -0.03112747       0.06246026 </v>
   <v>       0.00000000      -0.00458754       0.03247569 </v>
   <v>      -0.12429414      -0.23056696       0.22052424 </v>
   <v>      -0.01347647      -0.02921710       0.05187661 </v>
   <v>       0.00000000       0.07770670       0.26100488 </v>
   <v>       0.00000000      -0.18266931      -0.51797964 </v>
   <v>       0.00137978       0.02001431       0.03312324 </v>
   <v>      -0.00836521      -0.02614474       0.00138940 </v>
   <v>      -0.00137978       0.02001431       0.03312324 </v>
   <v>       0.00836521      -0.02614474       0.00138940 </v>
   <v>       0.01191666       0.04502009      -0.04635053 </v>
   <v>       0.05333057       0.26269140      -0.16156116 </v>
   <v>       0.00000000       0.03050166      -0.02242886 </v>
   <v>       0.00000000       0.05470650      -0.05167926 </v>
   <v>      -0.01191666       0.04502009      -0.04635053 </v>
   <v>      -0.05333057       0.26269140      -0.16156116 </v>
   <v>      -0.06711093      -0.17412220      -0.06618813 </v>
   <v>       0.00877544      -0.16378189      -0.03592258 </v>
   <v>       0.00000000      -0.14190479      -0.00988805 </v>
   <v>       0.00000000      -0.16752729      -0.03284474 </v>
   <v>       0.06711093      -0.17412220      -0.06618813 </v>
   <v>      -0.00877544      -0.16378189      -0.03592258 </v>
   <v>       0.00000000       0.17020991       0.02664178 </v>
   <v>      -0.00012767       0.17434861       0.02411820 </v>
   <v>       0.28624862       0.15932878       0.02447619 </v>
   <v>       0.00012767       0.17434861       0.02411820 </v>
   <v>      -0.28624862       0.15932878       0.02447619 </v>
   <v>       0.00000000       0.11087945      -0.20984466 </v>
  </varray>
  <varray name="stress" >
   <v>      67.37659947       0.00000000       0.00000000 </v>
   <v>       0.00000000      61.17174378      -2.71938300 </v>
   <v>       0.00000000      -2.71937999      62.06714498 </v>
  </varray>
  <energy>
   <i name="e_fr_energy">   -713.36939958 </i>
   <i name="e_wo_entrp">   -713.34359636 </i>
   <i name="e_0_energy">   -713.35649797 </i>
  </energy>
  <time name="totalsc">   63.49   63.50</time>
 </calculation>
 <calculation>
  <scstep>
   <time name="dav">    1.81    1.81</time>
   <time name="total">    2.20    2.19</time>
   <energy>
    <i name="alphaZ">   5530.94812622 </i>
    <i name="ewald"> -88635.56847336 </i>
    <i name="hartreedc"> -33816.47779158 </i>
    <i name="XCdc">   4200.00910893 </i>
    <i name="pawpsdc"> 119733.16032270 </i>
    <i name="pawaedc">-136130.05216321 </i>
    <i name="eentropy">     -0.02585390 </i>
    <i name="bandstr">  -5699.61287793 </i>
    <i name="atom"> 134104.30092448 </i>
    <i name="e_fr_energy">   -713.31867765 </i>
    <i name="e_wo_entrp">   -713.29282375 </i>
    <i name="e_0_energy">   -713.30575070 </i>
   </energy>
  </scstep>
  <scstep>
   <time name="diag">    0.24    0.24</time>
   <time name="diis">    2.53    2.53</time>
   <time name="orth">    0.03    0.03</time>
   <time name="total">    3.19    3.19</time>
   <energy>
    <i name="e_fr_energy">   -713.41728940 </i>
    <i name="e_wo_entrp">   -713.39148574 </i>
    <i name="e_0_energy">   -713.40438757 </i>
   </energy>
  </scstep>
  <scstep>
   <time name="diag">    0.24    0.24</time>
   <time name="diis">    2.93    2.93</time>
   <time name="orth">    0.03    0.03</time>
   <time name="total">    3.59    3.59</time>
   <energy>
    <i name="e_fr_energy">   -713.43452823 </i>
    <i name="e_wo_entrp">   -713.40869894 </i>
    <i name="e_0_energy">   -713.42161358 </i>
   </energy>
  </scstep>
  <scstep>
   <time name="diag">    0.24    0.24</time>
   <time name="diis">    2.95    2.95</time>
   <time name="orth">    0.03    0.03</time>
   <time name="total">    3.61    3.61</time>
   <energy>
    <i name="e_fr_energy">   -713.43458933 </i>
    <i name="e_wo_entrp">   -713.40879684 </i>
    <i name="e_0_energy">   -713.42169309 </i>
   </energy>
  </scstep>
  <scstep>
   <time name="diag">    0.24    0.24</time>
   <time name="diis">    2.81    2.80</time>
   <time name="orth">    0.03    0.03</time>
   <time name="total">    3.47    3.47</time>
   <energy>
    <i name="e_fr_energy">   -713.43376359 </i>
    <i name="e_wo_entrp">   -713.40795160 </i>
    <i name="e_0_energy">   -713.42085760 </i>
   </energy>
  </scstep>
  <scstep>
   <time name="diag">    0.24    0.24</time>
   <time name="diis">    2.91    2.91</time>
   <time name="orth">    0.03    0.03</time>
   <time name="total">    3.58    3.58</time>
   <energy>
    <i name="e_fr_energy">   -713.43376344 </i>
    <i name="e_wo_entrp">   -713.40795659 </i>
    <i name="e_0_energy">   -713.42086001 </i>
   </energy>
  </scstep>
  <scstep>
   <time name="diag">    0.24    0.24</time>
   <time name="diis">    2.30    2.30</time>
   <time name="orth">    0.03    0.03</time>
   <time name="total">    2.96    2.96</time>
   <energy>
    <i name="e_fr_energy">   -713.43374803 </i>
    <i name="e_wo_entrp">   -713.40793819 </i>
    <i name="e_0_energy">   -713.42084311 </i>
   </energy>
  </scstep>
  <scstep>
   <time name="diag">    0.24    0.24</time>
   <time name="diis">    1.93    1.93</time>
   <time name="orth">    0.03    0.03</time>
   <time name="total">    2.59    2.59</time>
   <energy>
    <i name="e_fr_energy">   -713.43375430 </i>
    <i name="e_wo_entrp">   -713.40794336 </i>
    <i name="e_0_energy">   -713.42084883 </i>
   </energy>
  </scstep>
  <scstep>
   <time name="diag">    0.24    0.24</time>
   <time name="diis">    1.69    1.69</time>
   <time name="orth">    0.03    0.03</time>
   <time name="total">    2.08    2.08</time>
   <energy>
    <i name="alphaZ">   5530.94812622 </i>
    <i name="ewald"> -88635.56847336 </i>
    <i name="hartreedc"> -33814.19923941 </i>
    <i name="XCdc">   4199.92316228 </i>
    <i name="pawpsdc"> 119698.13663958 </i>
    <i name="pawaedc">-136094.46598863 </i>
    <i name="eentropy">     -0.02581087 </i>
    <i name="bandstr">  -5702.48309728 </i>
    <i name="atom"> 134104.30092448 </i>
    <i name="e_fr_energy">   -713.43375700 </i>
    <i name="e_wo_entrp">   -713.40794612 </i>
    <i name="e_0_energy">   -713.42085156 </i>
   </energy>
  </scstep>
  <structure>
   <crystal>
    <varray name="basis" >
     <v>       0.00000000      12.28047342       0.00000000 </v>
     <v>       9.14270205       0.00000000       0.00000000 </v>
     <v>       0.00000000      -2.76826177     -11.30069772 </v>
    </varray>
    <i name="volume">   1268.80515525 </i>
    <varray name="rec_basis" >
     <v>       0.00000000       0.08143009      -0.01994742 </v>
     <v>       0.10937686      -0.00000000       0.00000000 </v>
     <v>       0.00000000       0.00000000      -0.08849011 </v>
    </varray>
   </crystal>
   <varray name="positions" >
    <v>       0.65867191       0.00000000       0.15716498 </v>
    <v>       0.65862616       0.00000000       0.65718334 </v>
    <v>       0.65866124       0.33332824       0.15716088 </v>
    <v>       0.65858653       0.33332513       0.65716352 </v>
    <v>       0.65866124       0.66667176       0.15716088 </v>
    <v>       0.65858653       0.66667487       0.65716352 </v>
    <v>       0.84166780       0.16670407       0.34283818 </v>
    <v>       0.84141663       0.16667135       0.84290458 </v>
    <v>       0.84158025       0.50000000       0.34287504 </v>
    <v>       0.84145560       0.50000000       0.84291801 </v>
    <v>       0.84166780       0.83329593       0.34283818 </v>
    <v>       0.84141663       0.83332865       0.84290458 </v>
    <v>       0.59055708       0.16667989       0.39749707 </v>
    <v>       0.59038893       0.16665741       0.89751182 </v>
    <v>       0.59051896       0.50000000       0.39753804 </v>
    <v>       0.59039716       0.50000000       0.89752447 </v>
    <v>       0.59055708       0.83332011       0.39749707 </v>
    <v>       0.59038893       0.83334259       0.89751182 </v>
    <v>       0.90962317       0.00000000       0.10259802 </v>
    <v>       0.90928068       0.00000000       0.60241904 </v>
    <v>       0.90961388       0.33334227       0.10257241 </v>
    <v>       0.90949615       0.33370122       0.60226441 </v>
    <v>       0.90961388       0.66665773       0.10257241 </v>
    <v>       0.90949615       0.66629878       0.60226441 </v>
    <v>       0.15857382       0.16639587       0.15732518 </v>
    <v>       0.15930958       0.16693397       0.65662545 </v>
    <v>       0.15857160       0.50000000       0.15722243 </v>
    <v>       0.15865299       0.50000000       0.65652227 </v>
    <v>       0.15857382       0.83360413       0.15732518 </v>
    <v>       0.15930958       0.83306603       0.65662545 </v>
    <v>       0.34099847       0.00000000       0.34235862 </v>
    <v>       0.34104238       0.00000000       0.84253593 </v>
    <v>       0.34118091       0.33372582       0.34254814 </v>
    <v>       0.34130194       0.33335700       0.84268684 </v>
    <v>       0.34118091       0.66627418       0.34254814 </v>
    <v>       0.34130194       0.66664300       0.84268684 </v>
    <v>       0.09088326       0.00000000       0.39617114 </v>
    <v>       0.09083328       0.00000000       0.89733904 </v>
    <v>       0.09054256       0.33306998       0.39802689 </v>
    <v>       0.09050257       0.33333680       0.89747455 </v>
    <v>       0.09054256       0.66693002       0.39802689 </v>
    <v>       0.09050257       0.66666320       0.89747455 </v>
    <v>       0.40957064       0.16667707       0.10246959 </v>
    <v>       0.40962537       0.16682114       0.60301614 </v>
    <v>       0.40954662       0.50000000       0.10245834 </v>
    <v>       0.40939849       0.50000000       0.60256182 </v>
    <v>       0.40957064       0.83332293       0.10246959 </v>
    <v>       0.40962537       0.83317886       0.60301614 </v>
    <v>       0.99640826       0.16669894       0.12843484 </v>
    <v>       0.99586180       0.16638724       0.62864633 </v>
    <v>       0.99645187       0.50000000       0.12843009 </v>
    <v>       0.99624818       0.50000000       0.62851376 </v>
    <v>       0.99640826       0.83330106       0.12843484 </v>
    <v>       0.99586180       0.83361276       0.62864633 </v>
    <v>       0.50341814       0.00000000       0.37155161 </v>
    <v>       0.50359080       0.00000000       0.87156150 </v>
    <v>       0.50342699       0.33321749       0.37154370 </v>
    <v>       0.50359662       0.33334521       0.87156452 </v>
    <v>       0.50342699       0.66678251       0.37154370 </v>
    <v>       0.50359662       0.66665479       0.87156452 </v>
    <v>       0.67323011       0.16666065       0.28156360 </v>
    <v>       0.67329434       0.16666041       0.78150733 </v>
    <v>       0.67321509       0.50000000       0.28156686 </v>
    <v>       0.67331578       0.50000000       0.78150109 </v>
    <v>       0.67323011       0.83333935       0.28156360 </v>
    <v>       0.67329434       0.83333959       0.78150733 </v>
    <v>       0.82662014       0.00000000       0.21839530 </v>
    <v>       0.82673155       0.00000000       0.71845292 </v>
    <v>       0.82660933       0.33338165       0.21838652 </v>
    <v>       0.82671757       0.33328686       0.71845653 </v>
    <v>       0.82660933       0.66661835       0.21838652 </v>
    <v>       0.82671757       0.66671314       0.71845653 </v>
    <v>       0.83479588       0.00000000       0.44561862 </v>
    <v>       0.83482282       0.00000000       0.94548063 </v>
    <v>       0.83477678       0.33335080       0.44557617 </v>
    <v>       0.83481288       0.33333946       0.94547565 </v>
    <v>       0.83477678       0.66664920       0.44557617 </v>
    <v>       0.83481288       0.66666054       0.94547565 </v>
    <v>       0.66514643       0.16666947       0.05447057 </v>
    <v>       0.66513241       0.16666003       0.55446313 </v>
    <v>       0.66514746       0.50000000       0.05447014 </v>
    <v>       0.66513846       0.50000000       0.55446764 </v>
    <v>       0.66514643       0.83333053       0.05447057 </v>
    <v>       0.66513241       0.83333997       0.55446313 </v>
    <v>       0.49647359       0.00000000       0.12848981 </v>
    <v>       0.49646760       0.00000000       0.62837744 </v>
    <v>       0.49648325       0.33333132       0.12849045 </v>
    <v>       0.49649430       0.33328595       0.62840503 </v>
    <v>       0.49648325       0.66666868       0.12849045 </v>
    <v>       0.49649430       0.66671405       0.62840503 </v>
    <v>       0.00241290       0.16732252       0.37072654 </v>
    <v>       0.00336617       0.16673778       0.87144649 </v>
    <v>       0.00334848       0.50000000       0.37140131 </v>
    <v>       0.00348160       0.50000000       0.87152932 </v>
    <v>       0.00241290       0.83267748       0.37072654 </v>
    <v>       0.00336617       0.83326222       0.87144649 </v>
    <v>       0.17342516       0.00000000       0.28050085 </v>
    <v>       0.17315193       0.00000000       0.78382633 </v>
    <v>       0.17341781       0.33334061       0.28147368 </v>
    <v>       0.17326702       0.33328919       0.78160915 </v>
    <v>       0.17341781       0.66665939       0.28147368 </v>
    <v>       0.17326702       0.66671081       0.78160915 </v>
    <v>       0.32685040       0.16672955       0.21858279 </v>
    <v>       0.32781637       0.16694807       0.71907462 </v>
    <v>       0.32677034       0.50000000       0.21848067 </v>
    <v>       0.32689358       0.50000000       0.71860554 </v>
    <v>       0.32685040       0.83327045       0.21858279 </v>
    <v>       0.32781637       0.83305193       0.71907462 </v>
    <v>       0.33487469       0.16631255       0.44570552 </v>
    <v>       0.33488619       0.16671297       0.94557631 </v>
    <v>       0.33494708       0.50000000       0.44546517 </v>
    <v>       0.33486851       0.50000000       0.94556317 </v>
    <v>       0.33487469       0.83368745       0.44570552 </v>
    <v>       0.33488619       0.83328703       0.94557631 </v>
    <v>       0.16514800       0.00000000       0.05446331 </v>
    <v>       0.16516668       0.33333266       0.05447408 </v>
    <v>       0.16510733       0.33484376       0.55447255 </v>
    <v>       0.16516668       0.66666734       0.05447408 </v>
    <v>       0.16510733       0.66515624       0.55447255 </v>
    <v>       0.16514250       0.00000000       0.55547287 </v>
   </varray>
  </structure>
  <varray name="forces" >
   <v>       0.00000000       0.02386877      -0.01405125 </v>
   <v>       0.00000000       0.04284465      -0.01370651 </v>
   <v>      -0.00066356       0.02871331      -0.01246897 </v>
   <v>      -0.00569135       0.05495727      -0.01763793 </v>
   <v>       0.00066356       0.02871331      -0.01246897 </v>
[...]
       <r>    -9.7457     0.0000   144.0000 </r>
       <r>    -9.6357     0.0000   144.0000 </r>
       <r>    -9.5258     0.0000   144.0000 </r>
       <r>    -9.4159     0.0000   144.0000 </r>
       <r>    -9.3059     0.0000   144.0000 </r>
       <r>    -9.1960     0.0572   144.0063 </r>
       <r>    -9.0860    53.9346   149.9361 </r>
       <r>    -8.9761   384.8140   192.2440 </r>
       <r>    -8.8661   731.8109   272.7021 </r>
       <r>    -8.7562   811.2303   361.8918 </r>
       <r>    -8.6463   618.0678   429.8446 </r>
       <r>    -8.5363   712.0995   508.1355 </r>
       <r>    -8.4264   301.5687   541.2911 </r>
       <r>    -8.3164   158.9693   558.7688 </r>
       <r>    -8.2065   139.3720   574.0919 </r>
       <r>    -8.0965    90.3829   584.0289 </r>
       <r>    -7.9866   118.6174   597.0702 </r>
       <r>    -7.8766   132.7252   611.6625 </r>
       <r>    -7.7667    80.6151   620.5256 </r>
       <r>    -7.6568    13.2321   621.9804 </r>
       <r>    -7.5468     0.1781   622.0000 </r>
       <r>    -7.4369     0.0000   622.0000 </r>
       <r>    -7.3269     0.0000   622.0000 </r>
       <r>    -7.2170     0.0035   622.0004 </r>
       <r>    -7.1070     5.6217   622.6185 </r>
       <r>    -6.9971    12.4645   623.9888 </r>
       <r>    -6.8872     0.1014   624.0000 </r>
       <r>    -6.7772     0.0000   624.0000 </r>
       <r>    -6.6673     0.0000   624.0000 </r>
       <r>    -6.5573     0.0000   624.0000 </r>
       <r>    -6.4474     0.0000   624.0000 </r>
       <r>    -6.3374     0.0000   624.0000 </r>
       <r>    -6.2275     0.0000   624.0000 </r>
       <r>    -6.1175     0.0000   624.0000 </r>
       <r>    -6.0076     0.0000   624.0000 </r>
       <r>    -5.8977     0.0000   624.0000 </r>
       <r>    -5.7877     0.0000   624.0000 </r>
       <r>    -5.6778     0.0000   624.0000 </r>
       <r>    -5.5678     0.0000   624.0000 </r>
       <r>    -5.4579     0.0000   624.0000 </r>
       <r>    -5.3479     0.0000   624.0000 </r>
       <r>    -5.2380     0.0000   624.0000 </r>
       <r>    -5.1280     0.0000   624.0000 </r>
       <r>    -5.0181     0.0000   624.0000 </r>
       <r>    -4.9082     0.0000   624.0000 </r>
       <r>    -4.7982     0.0000   624.0000 </r>
       <r>    -4.6883     0.0000   624.0000 </r>
       <r>    -4.5783     0.0000   624.0000 </r>
       <r>    -4.4684     0.0000   624.0000 </r>
       <r>    -4.3584     0.0000   624.0000 </r>
       <r>    -4.2485     0.0000   624.0000 </r>
       <r>    -4.1386     0.0000   624.0000 </r>
       <r>    -4.0286     0.0000   624.0000 </r>
       <r>    -3.9187     0.0000   624.0000 </r>
       <r>    -3.8087     0.0000   624.0000 </r>
       <r>    -3.6988     0.0000   624.0000 </r>
       <r>    -3.5888     0.0000   624.0000 </r>
       <r>    -3.4789     0.0000   624.0000 </r>
       <r>    -3.3689     0.0000   624.0000 </r>
       <r>    -3.2590     0.1396   624.0154 </r>
       <r>    -3.1491     6.4505   624.7245 </r>
       <r>    -3.0391    10.1583   625.8414 </r>
       <r>    -2.9292    21.9749   628.2574 </r>
       <r>    -2.8192    26.5639   631.1779 </r>
       <r>    -2.7093    41.2188   635.7097 </r>
       <r>    -2.5993    22.6757   638.2027 </r>
       <r>    -2.4894    60.7553   644.8824 </r>
       <r>    -2.3795    33.2946   648.5429 </r>
       <r>    -2.2695    60.1777   655.1591 </r>
       <r>    -2.1596    65.2457   662.3325 </r>
       <r>    -2.0496    47.3551   667.5389 </r>
       <r>    -1.9397    38.3989   671.7606 </r>
       <r>    -1.8297    64.8485   678.8903 </r>
       <r>    -1.7198    52.1671   684.6257 </r>
       <r>    -1.6098    20.3189   686.8597 </r>
       <r>    -1.4999    37.6314   690.9970 </r>
       <r>    -1.3900    20.2200   693.2201 </r>
       <r>    -1.2800    36.1995   697.2000 </r>
       <r>    -1.1701    35.7336   701.1287 </r>
       <r>    -1.0601    35.5390   705.0360 </r>
       <r>    -0.9502    43.5138   709.8200 </r>
       <r>    -0.8402    35.4812   713.7210 </r>
       <r>    -0.7303    35.1309   717.5834 </r>
       <r>    -0.6204    31.4525   721.0414 </r>
       <r>    -0.5104    39.3949   725.3726 </r>
       <r>    -0.4005    44.3772   730.2516 </r>
       <r>    -0.2905    52.2390   735.9950 </r>
       <r>    -0.1806    34.2183   739.7571 </r>
       <r>    -0.0706    41.0269   744.2677 </r>
       <r>     0.0393    55.9536   750.4195 </r>
       <r>     0.1493    80.4915   759.2690 </r>
       <r>     0.2592    80.6959   768.1410 </r>
       <r>     0.3691    57.0995   774.4188 </r>
       <r>     0.4791    79.7146   783.1829 </r>
       <r>     0.5890    58.5194   789.6168 </r>
       <r>     0.6990    52.8811   795.4307 </r>
       <r>     0.8089    56.4509   801.6371 </r>
       <r>     0.9189    81.3792   810.5843 </r>
       <r>     1.0288    76.5482   819.0003 </r>
       <r>     1.1387    82.4056   828.0603 </r>
       <r>     1.2487    87.9829   837.7334 </r>
       <r>     1.3586    65.0410   844.8843 </r>
       <r>     1.4686    63.1058   851.8224 </r>
       <r>     1.5785    77.6450   860.3590 </r>
       <r>     1.6885    71.1421   868.1806 </r>
       <r>     1.7984    90.9554   878.1806 </r>
       <r>     1.9084    91.5541   888.2464 </r>
       <r>     2.0183    67.0018   895.6128 </r>
       <r>     2.1282    50.7161   901.1887 </r>
       <r>     2.2382    46.2570   906.2744 </r>
       <r>     2.3481   102.8836   917.5858 </r>
       <r>     2.4581    98.6277   928.4293 </r>
       <r>     2.5680    93.8373   938.7462 </r>
       <r>     2.6780    96.9336   949.4034 </r>
       <r>     2.7879    96.7525   960.0408 </r>
       <r>     2.8978   115.2258   972.7091 </r>
       <r>     3.0078   104.2946   984.1757 </r>
       <r>     3.1177   144.7351  1000.0884 </r>
       <r>     3.2277   118.5023  1013.1170 </r>
       <r>     3.3376   102.4813  1024.3842 </r>
       <r>     3.4476    74.7835  1032.6062 </r>
       <r>     3.5575    58.3425  1039.0206 </r>
       <r>     3.6675    45.9466  1044.0721 </r>
       <r>     3.7774    72.0331  1051.9917 </r>
       <r>     3.8873    17.8442  1053.9536 </r>
       <r>     3.9973     0.4222  1054.0000 </r>
       <r>     4.1072     0.0264  1054.0029 </r>
       <r>     4.2172     8.0813  1054.8914 </r>
       <r>     4.3271    10.0310  1055.9942 </r>
       <r>     4.4371     0.0525  1056.0000 </r>
       <r>     4.5470     0.0000  1056.0000 </r>
       <r>     4.6569     0.0000  1056.0000 </r>
       <r>     4.7669     0.0000  1056.0000 </r>
       <r>     4.8768     0.0000  1056.0000 </r>
       <r>     4.9868     0.0000  1056.0000 </r>
       <r>     5.0967     0.0000  1056.0000 </r>
       <r>     5.2067     0.0000  1056.0000 </r>
       <r>     5.3166     0.0000  1056.0000 </r>
       <r>     5.4266     0.0000  1056.0000 </r>
       <r>     5.5365     0.0000  1056.0000 </r>
       <r>     5.6464     0.0000  1056.0000 </r>
       <r>     5.7564     0.0000  1056.0000 </r>
       <r>     5.8663     0.0000  1056.0000 </r>
       <r>     5.9763     0.0005  1056.0001 </r>
       <r>     6.0862     0.7814  1056.0860 </r>
       <r>     6.1962     1.4843  1056.2492 </r>
       <r>     6.3061     0.0077  1056.2500 </r>
       <r>     6.4161     0.0000  1056.2500 </r>
       <r>     6.5260     0.0000  1056.2500 </r>
       <r>     6.6359     0.0000  1056.2500 </r>
       <r>     6.7459     0.0000  1056.2500 </r>
       <r>     6.8558     0.0120  1056.2513 </r>
       <r>     6.9658     2.2628  1056.5001 </r>
       <r>     7.0757     5.9687  1057.1563 </r>
       <r>     7.1857     0.8527  1057.2501 </r>
       <r>     7.2956     1.1274  1057.3740 </r>
       <r>     7.4055     6.4467  1058.0828 </r>
       <r>     7.5155     1.5191  1058.2498 </r>
       <r>     7.6254     0.0017  1058.2500 </r>
       <r>     7.7354     0.5869  1058.3145 </r>
       <r>     7.8453     9.0649  1059.3112 </r>
       <r>     7.9553     5.0483  1059.8662 </r>
       <r>     8.0652     7.2674  1060.6652 </r>
       <r>     8.1752     4.5507  1061.1655 </r>
       <r>     8.2851     6.5337  1061.8839 </r>
       <r>     8.3950     2.8257  1062.1945 </r>
       <r>     8.5050     9.0337  1063.1877 </r>
       <r>     8.6149    12.9043  1064.6065 </r>
       <r>     8.7249     4.1931  1065.0675 </r>
       <r>     8.8348     2.3156  1065.3221 </r>
       <r>     8.9448    11.5161  1066.5882 </r>
       <r>     9.0547    16.9422  1068.4509 </r>
       <r>     9.1646    12.5948  1069.8356 </r>
       <r>     9.2746     8.3474  1070.7533 </r>
       <r>     9.3845    12.2753  1072.1029 </r>
       <r>     9.4945    24.0305  1074.7449 </r>
       <r>     9.6044    36.3709  1078.7437 </r>
       <r>     9.7144    23.5013  1081.3275 </r>
       <r>     9.8243    56.1044  1087.4958 </r>
       <r>     9.9343    48.2319  1092.7986 </r>
       <r>    10.0442    44.2782  1097.6668 </r>
       <r>    10.1541    20.7068  1099.9433 </r>
       <r>    10.2641    38.0147  1104.1228 </r>
       <r>    10.3740    30.7947  1107.5085 </r>
       <r>    10.4840    27.5872  1110.5415 </r>
       <r>    10.5939    41.0108  1115.0504 </r>
       <r>    10.7039    51.4682  1120.7090 </r>
       <r>    10.8138    28.6051  1123.8540 </r>
       <r>    10.9237    34.9932  1127.7013 </r>
       <r>    11.0337    36.1522  1131.6760 </r>
       <r>    11.1436    23.0428  1134.2094 </r>
       <r>    11.2536    42.5995  1138.8929 </r>
       <r>    11.3635    40.4692  1143.3423 </r>
       <r>    11.4735    42.3249  1147.9956 </r>
       <r>    11.5834    35.1527  1151.8605 </r>
       <r>    11.6934    52.7461  1157.6596 </r>
       <r>    11.8033    30.3350  1160.9947 </r>
       <r>    11.9132     9.5596  1162.0457 </r>
       <r>    12.0232     6.4364  1162.7534 </r>
       <r>    12.1331    26.9907  1165.7208 </r>
       <r>    12.2431    31.7749  1169.2143 </r>
       <r>    12.3530    34.6320  1173.0219 </r>
       <r>    12.4630    43.7368  1177.8305 </r>
       <r>    12.5729    45.9422  1182.8815 </r>
       <r>    12.6828    40.0400  1187.2837 </r>
       <r>    12.7928    41.7959  1191.8789 </r>
       <r>    12.9027    37.1402  1195.9622 </r>
       <r>    13.0127    31.1386  1199.3857 </r>
       <r>    13.1226    37.3434  1203.4914 </r>
       <r>    13.2326    40.7611  1207.9728 </r>
       <r>    13.3425    29.7614  1211.2449 </r>
       <r>    13.4525    55.5853  1217.3562 </r>
       <r>    13.5624    42.6923  1222.0499 </r>
       <r>    13.6723    43.4531  1226.8273 </r>
       <r>    13.7823    36.7917  1230.8723 </r>
       <r>    13.8922    35.9825  1234.8284 </r>
       <r>    14.0022    30.0200  1238.1289 </r>
       <r>    14.1121    41.6254  1242.7054 </r>
       <r>    14.2221    31.5738  1246.1767 </r>
       <r>    14.3320    24.3472  1248.8535 </r>
       <r>    14.4419    17.2962  1250.7551 </r>
       <r>    14.5519    46.8960  1255.9111 </r>
       <r>    14.6618    32.5648  1259.4914 </r>
       <r>    14.7718    39.0949  1263.7896 </r>
       <r>    14.8817    17.4278  1265.7057 </r>
       <r>    14.9917     2.6225  1265.9940 </r>
       <r>    15.1016     0.0545  1266.0000 </r>
       <r>    15.2116     0.0000  1266.0000 </r>
       <r>    15.3215     0.0000  1266.0000 </r>
       <r>    15.4314     0.0000  1266.0000 </r>
       <r>    15.5414     0.0000  1266.0000 </r>
       <r>    15.6513     0.0000  1266.0000 </r>
       <r>    15.7613     0.0000  1266.0000 </r>
       <r>    15.8712     0.0000  1266.0000 </r>
       <r>    15.9812     0.0000  1266.0000 </r>
       <r>    16.0911     0.0000  1266.0000 </r>
       <r>    16.2011     0.0000  1266.0000 </r>
       <r>    16.3110     0.0000  1266.0000 </r>
       <r>    16.4209     0.0000  1266.0000 </r>
      </set>
     </set>
    </array>
   </total>
  </dos>
 </calculation>
 <structure name="finalpos" >
  <crystal>
   <varray name="basis" >
    <v>       0.00000000      12.28047342       0.00000000 </v>
    <v>       9.14270205       0.00000000       0.00000000 </v>
    <v>       0.00000000      -2.76826177     -11.30069772 </v>
   </varray>
   <i name="volume">   1268.80515525 </i>
   <varray name="rec_basis" >
    <v>       0.00000000       0.08143009      -0.01994742 </v>
    <v>       0.10937686      -0.00000000       0.00000000 </v>
    <v>       0.00000000       0.00000000      -0.08849011 </v>
   </varray>
  </crystal>
  <varray name="positions" >
   <v>       0.65892151       0.00000000       0.15638088 </v>
   <v>       0.65958435       0.00000000       0.65668070 </v>
   <v>       0.65893231       0.33350896       0.15650005 </v>
   <v>       0.65927650       0.33350079       0.65651270 </v>
   <v>       0.65893231       0.66649104       0.15650005 </v>
   <v>       0.65927650       0.66649921       0.65651270 </v>
   <v>       0.84043268       0.16672625       0.34304562 </v>
   <v>       0.84080573       0.16678863       0.84349027 </v>
   <v>       0.84065614       0.50000000       0.34317541 </v>
   <v>       0.84128484       0.50000000       0.84336151 </v>
   <v>       0.84043268       0.83327375       0.34304562 </v>
   <v>       0.84080573       0.83321137       0.84349027 </v>
   <v>       0.59099145       0.16665960       0.39765706 </v>
   <v>       0.59104695       0.16663664       0.89757999 </v>
   <v>       0.59046792       0.50000000       0.39754885 </v>
   <v>       0.59173131       0.50000000       0.89760410 </v>
   <v>       0.59099145       0.83334040       0.39765706 </v>
   <v>       0.59104695       0.83336336       0.89757999 </v>
   <v>       0.90856631       0.00000000       0.10220020 </v>
   <v>       0.90887289       0.00000000       0.60238510 </v>
   <v>       0.90873357       0.33335999       0.10239865 </v>
   <v>       0.90874890       0.33337024       0.60208924 </v>
   <v>       0.90873357       0.66664001       0.10239865 </v>
   <v>       0.90874890       0.66662976       0.60208924 </v>
   <v>       0.15883637       0.16667222       0.15604858 </v>
   <v>       0.16077173       0.16742770       0.65597666 </v>
   <v>       0.15872949       0.50000000       0.15653373 </v>
   <v>       0.15889444       0.50000000       0.65663703 </v>
   <v>       0.15883637       0.83332778       0.15604858 </v>
   <v>       0.16077173       0.83257230       0.65597666 </v>
   <v>       0.34067002       0.00000000       0.34295694 </v>
   <v>       0.34090104       0.00000000       0.84467541 </v>
   <v>       0.34030924       0.33341634       0.34340037 </v>
   <v>       0.34153897       0.33358677       0.84382725 </v>
   <v>       0.34030924       0.66658366       0.34340037 </v>
   <v>       0.34153897       0.66641323       0.84382725 </v>
   <v>       0.09052658       0.00000000       0.39478880 </v>
   <v>       0.09086328       0.00000000       0.89781878 </v>
   <v>       0.09048748       0.33317041       0.39775476 </v>
   <v>       0.09117443       0.33305539       0.89719928 </v>
   <v>       0.09048748       0.66682959       0.39775476 </v>
   <v>       0.09117443       0.66694461       0.89719928 </v>
   <v>       0.40937763       0.16689774       0.10315729 </v>
   <v>       0.41013515       0.16676354       0.60332124 </v>
   <v>       0.40878073       0.50000000       0.10261212 </v>
   <v>       0.40863010       0.50000000       0.60254337 </v>
   <v>       0.40937763       0.83310226       0.10315729 </v>
   <v>       0.41013515       0.83323646       0.60332124 </v>
   <v>       0.99610044       0.16662003       0.12640605 </v>
   <v>       0.99644974       0.16660634       0.62821866 </v>
   <v>       0.99625740       0.50000000       0.12711452 </v>
   <v>       0.99608212       0.50000000       0.62750957 </v>
   <v>       0.99610044       0.83337997       0.12640605 </v>
   <v>       0.99644974       0.83339366       0.62821866 </v>
   <v>       0.50335718       0.00000000       0.37308460 </v>
   <v>       0.50370973       0.00000000       0.87320849 </v>
   <v>       0.50305747       0.33301643       0.37305139 </v>
   <v>       0.50411101       0.33365233       0.87308601 </v>
   <v>       0.50305747       0.66698357       0.37305139 </v>
   <v>       0.50411101       0.66634767       0.87308601 </v>
   <v>       0.67222279       0.16667477       0.28041384 </v>
   <v>       0.67244619       0.16682611       0.78032450 </v>
   <v>       0.67211326       0.50000000       0.28057016 </v>
   <v>       0.67281497       0.50000000       0.78019489 </v>
   <v>       0.67222279       0.83332523       0.28041384 </v>
   <v>       0.67244619       0.83317389       0.78032450 </v>
   <v>       0.82686771       0.00000000       0.21911561 </v>
   <v>       0.82744669       0.00000000       0.71963644 </v>
   <v>       0.82684970       0.33365102       0.21915301 </v>
   <v>       0.82750933       0.33328884       0.71950351 </v>
   <v>       0.82684970       0.66634898       0.21915301 </v>
   <v>       0.82750933       0.66671116       0.71950351 </v>
   <v>       0.83213896       0.00000000       0.44574700 </v>
   <v>       0.83160073       0.00000000       0.94563327 </v>
   <v>       0.83188653       0.33329313       0.44564981 </v>
   <v>       0.83189385       0.33353250       0.94573172 </v>
   <v>       0.83188653       0.66670687       0.44564981 </v>
   <v>       0.83189385       0.66646750       0.94573172 </v>
   <v>       0.66770565       0.16675577       0.05419386 </v>
   <v>       0.66805164       0.16673486       0.55414082 </v>
   <v>       0.66802776       0.50000000       0.05423774 </v>
   <v>       0.66801969       0.50000000       0.55391001 </v>
   <v>       0.66770565       0.83324423       0.05419386 </v>
   <v>       0.66805164       0.83326514       0.55414082 </v>
   <v>       0.49645836       0.00000000       0.12795512 </v>
   <v>       0.49718033       0.00000000       0.62729440 </v>
   <v>       0.49651388       0.33367247       0.12780990 </v>
   <v>       0.49669220       0.33379178       0.62698933 </v>
   <v>       0.49651388       0.66632753       0.12780990 </v>
   <v>       0.49669220       0.66620822       0.62698933 </v>
   <v>       0.00217080       0.16730264       0.36947372 </v>
   <v>       0.00329124       0.16673833       0.87277947 </v>
   <v>       0.00306244       0.50000000       0.37214422 </v>
   <v>       0.00390844       0.50000000       0.87263386 </v>
   <v>       0.00217080       0.83269736       0.36947372 </v>
   <v>       0.00329124       0.83326167       0.87277947 </v>
   <v>       0.17237955       0.00000000       0.27826850 </v>
   <v>       0.17411937       0.00000000       0.78371933 </v>
   <v>       0.17236494       0.33303121       0.28053163 </v>
   <v>       0.17295884       0.33295611       0.78023112 </v>
   <v>       0.17236494       0.66696879       0.28053163 </v>
   <v>       0.17295884       0.66704389       0.78023112 </v>
   <v>       0.32769568       0.16697719       0.22017279 </v>
   <v>       0.32971204       0.16719969       0.72109983 </v>
   <v>       0.32709819       0.50000000       0.21957792 </v>
   <v>       0.32793316       0.50000000       0.72014473 </v>
   <v>       0.32769568       0.83302281       0.22017279 </v>
   <v>       0.32971204       0.83280031       0.72109983 </v>
   <v>       0.33162991       0.16571754       0.44679302 </v>
   <v>       0.33292590       0.16736916       0.94669037 </v>
   <v>       0.33224449       0.50000000       0.44582758 </v>
   <v>       0.33201639       0.50000000       0.94607424 </v>
   <v>       0.33162991       0.83428246       0.44679302 </v>
   <v>       0.33292590       0.83263084       0.94669037 </v>
   <v>       0.16829044       0.00000000       0.05404728 </v>
   <v>       0.16780801       0.33335711       0.05400081 </v>
   <v>       0.16797435       0.33558655       0.55391005 </v>
   <v>       0.16780801       0.66664289       0.05400081 </v>
   <v>       0.16797435       0.66441345       0.55391005 </v>
   <v>       0.16554926       0.00000000       0.55381908 </v>
  </varray>
 </structure>
</modeling>
