--------------------------------------------------------------------------
The library attempted to open the following supporting CUDA libraries,
but each of them failed.  CUDA-aware support is disabled.
libcuda.so.1: cannot open shared object file: No such file or directory
libcuda.dylib: cannot open shared object file: No such file or directory
/usr/lib64/libcuda.so.1: cannot open shared object file: No such file or directory
/usr/lib64/libcuda.dylib: cannot open shared object file: No such file or directory
If you are not interested in CUDA-aware support, then run with
--mca mpi_cuda_support 0 to suppress this message.  If you are interested
in CUDA-aware support, then try setting LD_LIBRARY_PATH to the location
of libcuda.so.1 to get passed this issue.
--------------------------------------------------------------------------
 running    4 mpi-ranks, on    1 nodes
 distrk:  each k-point on    1 cores,    4 groups
 distr:  one band on    1 cores,    1 groups
 vasp.6.4.2 20Jul23 (build Nov 12 2023 22:16:35) complex                         
 POSCAR found type information on POSCAR GaO 
 POSCAR found :  2 types and     119 ions
 scaLAPACK will be used selectively (only on CPU)
 LDA part: xc-table for Pade appr. of Perdew
 POSCAR, INCAR and KPOINTS ok, starting setup
 FFT: planning ... GRIDC
 FFT: planning ... GRID_SOFT
 FFT: planning ... GRID
[paraai-n32-h-01-ccs-master-1:06528] 3 more processes have sent help message help-mpi-common-cuda.txt / dlopen failed
[paraai-n32-h-01-ccs-master-1:06528] Set MCA parameter "orte_base_help_aggregate" to 0 to see all help / error messages
 WAVECAR not read
 running    4 mpi-ranks, on    1 nodes
 distrk:  each k-point on    1 cores,    4 groups
 distr:  one band on    1 cores,    1 groups
 OpenACC runtime initialized ...    4 GPUs detected
 vasp.6.4.2 20Jul23 (build Nov 12 2023 22:16:35) complex                         
 POSCAR found type information on POSCAR GaO 
 POSCAR found :  2 types and     119 ions
 scaLAPACK will be used selectively (only on CPU)
 LDA part: xc-table for Pade appr. of Perdew
 POSCAR, INCAR and KPOINTS ok, starting setup
 FFT: planning ... GRIDC
 FFT: planning ... GRID_SOFT
 FFT: planning ... GRID
 WAVECAR not read
 initial charge from wavefunction
 entering main loop
       N       E                     dE             d eps       ncg     rms          ort
DAV:   1    -0.211094911993E+05   -0.21109E+05   -0.54680E+05  5000   0.754E+03
DAV:   2    -0.655331029663E+05   -0.44424E+05   -0.42891E+05  5000   0.124E+03
DAV:   3    -0.706268965184E+05   -0.50938E+04   -0.46158E+04  5000   0.379E+02
DAV:   4    -0.714273230871E+05   -0.80043E+03   -0.69790E+03  5000   0.122E+02
DAV:   5    -0.391295466487E+05    0.32298E+05   -0.77244E+02  5000   0.596E+01
 gam= 0.000 g(H,U,f)=  0.807E+05 0.201E+05 0.149E+03 ort(H,U,f) = 0.000E+00 0.000E+00 0.000E+00
SDA:   6     0.307320778354E+05    0.69862E+05   -0.77244E+02  5000   0.101E+06 0.000E+00
 gam= 0.000 trial= 0.400  step= 0.491 mean= 0.400
 gam= 0.397 g(H,U,f)=  0.310E+05 0.887E+04 0.187E+03 ort(H,U,f) =-0.112E+05-0.631E+04-0.124E+03
CGA:   7     0.895668099066E+04   -0.21775E+05   -0.24786E+05  5000   0.401E+05-0.176E+05
 gam= 0.397 trial= 0.405  step= 0.287 mean= 0.405
 gam= 0.421 g(H,U,f)=  0.120E+05 0.453E+04 0.292E+03 ort(H,U,f) = 0.594E+02 0.292E+04 0.249E+03
CGA:   8     0.412924557454E+04   -0.48274E+04   -0.47432E+04  5000   0.169E+05 0.323E+04
 gam= 0.421 trial= 0.399  step= 0.223 mean= 0.399
 gam= 0.983 g(H,U,f)=  0.905E+04 0.682E+04 0.711E+03 ort(H,U,f) = 0.248E+04-0.133E+04 0.514E+02
CGA:   9     0.277891065801E+04   -0.13503E+04   -0.20354E+04  5000   0.166E+05 0.120E+04
 gam= 0.983 trial= 0.390  step= 0.233 mean= 0.390
 gam= 0.311 g(H,U,f)=  0.467E+04 0.482E+03 0.162E+01 ort(H,U,f) = 0.767E+03 0.486E+03-0.790E-01
CGA:  10     0.135239755472E+04   -0.14265E+04   -0.20718E+04  5000   0.515E+04 0.125E+04
 gam= 0.311 trial= 0.382  step= 0.388 mean= 0.382
 gam= 0.442 g(H,U,f)=  0.203E+04 0.230E+03 0.163E+02 ort(H,U,f) = 0.481E+03 0.153E+03-0.301E+01
CGA:  11     0.272822257421E+03   -0.10796E+04   -0.10757E+04  5000   0.228E+04 0.631E+03
 gam= 0.442 trial= 0.382  step= 0.474 mean= 0.382
 gam= 0.454 g(H,U,f)=  0.928E+03 0.105E+03 0.203E+01 ort(H,U,f) = 0.810E+01 0.131E+03 0.122E+01
CGA:  12    -0.344083425740E+03   -0.61691E+03   -0.60598E+03  5000   0.104E+04 0.140E+03
 gam= 0.454 trial= 0.387  step= 0.561 mean= 0.387
 gam= 0.497 g(H,U,f)=  0.445E+03 0.688E+02 0.650E+00 ort(H,U,f) =-0.123E+03 0.139E+03 0.388E+00
CGA:  13    -0.656307609839E+03   -0.31222E+03   -0.30840E+03  5000   0.514E+03 0.169E+02
 gam= 0.497 trial= 0.396  step= 0.642 mean= 0.396
 gam= 0.598 g(H,U,f)=  0.275E+03 0.326E+02 0.265E+00 ort(H,U,f) =-0.892E+02 0.500E+02 0.570E+00
CGA:  14    -0.818812282486E+03   -0.16250E+03   -0.16767E+03  5000   0.308E+03-0.386E+02
 gam= 0.598 trial= 0.408  step= 0.498 mean= 0.408
 gam= 0.477 g(H,U,f)=  0.128E+03 0.189E+02 0.128E+00 ort(H,U,f) =-0.960E+01-0.356E+01 0.224E+00
CGA:  15    -0.888954566208E+03   -0.70142E+02   -0.70877E+02  5000   0.147E+03-0.129E+02
 gam= 0.477 trial= 0.412  step= 0.497 mean= 0.412
 gam= 0.542 g(H,U,f)=  0.638E+02 0.156E+02 0.225E+00 ort(H,U,f) = 0.111E+01-0.395E+01-0.399E+00
CGA:  16    -0.923708255746E+03   -0.34754E+02   -0.34949E+02  5000   0.796E+02-0.324E+01
 gam= 0.542 trial= 0.417  step= 0.500 mean= 0.417
 gam= 0.544 g(H,U,f)=  0.322E+02 0.111E+02 0.484E-03 ort(H,U,f) =-0.332E+01 0.285E+01 0.146E-02
CGA:  17    -0.943127328100E+03   -0.19419E+02   -0.19435E+02  5000   0.433E+02-0.465E+00
 gam= 0.544 trial= 0.421  step= 0.511 mean= 0.421
 gam= 0.669 g(H,U,f)=  0.202E+02 0.837E+01 0.392E+00 ort(H,U,f) =-0.532E+01 0.566E+01-0.173E+00
CGA:  18    -0.954143744086E+03   -0.11016E+02   -0.11010E+02  5000   0.290E+02 0.173E+00
 gam= 0.669 trial= 0.425  step= 0.376 mean= 0.425
 gam= 0.775 g(H,U,f)=  0.139E+02 0.792E+01 0.638E+00 ort(H,U,f) =-0.149E+01-0.858E-01-0.141E+01
CGA:  19    -0.959929085838E+03   -0.57853E+01   -0.54684E+01  5000   0.224E+02-0.299E+01
 gam= 0.775 trial= 0.423  step= 0.171 mean= 0.423
 gam= 1.231 g(H,U,f)=  0.108E+02 0.146E+02 0.228E+01 ort(H,U,f) = 0.612E+01-0.788E+00-0.271E+01
CGA:  20    -0.962045183844E+03   -0.21161E+01   -0.17220E+01  5000   0.276E+02 0.263E+01
 gam= 1.231 trial= 0.410  step= 0.175 mean= 0.410
 gam= 0.769 g(H,U,f)=  0.733E+01 0.115E+02 0.238E+01 ort(H,U,f) = 0.429E+00-0.259E+01-0.163E+01
CGA:  21    -0.964326373211E+03   -0.22812E+01   -0.26949E+01  5000   0.213E+02-0.379E+01
 gam= 0.769 trial= 0.399  step= 0.100 mean= 0.399
 gam= 0.699 g(H,U,f)=  0.643E+01 0.798E+01 0.444E+00 ort(H,U,f) =-0.118E+01-0.618E+00-0.153E+00
CGA:  22    -0.965200807894E+03   -0.87443E+00   -0.91264E+00  5000   0.149E+02-0.195E+01
 gam= 0.699 trial= 0.384  step= 0.096 mean= 0.384
 gam= 1.053 g(H,U,f)=  0.555E+01 0.836E+01 0.173E+01 ort(H,U,f) = 0.932E+00 0.473E+00-0.189E+01
CGA:  23    -0.965906694033E+03   -0.70589E+00   -0.65078E+00  5000   0.156E+02-0.485E+00
 gam= 1.053 trial= 0.369  step= 0.085 mean= 0.369
 gam= 1.277 g(H,U,f)=  0.473E+01 0.113E+02 0.399E+01 ort(H,U,f) = 0.160E+01-0.267E+01-0.148E+01
CGA:  24    -0.966457410498E+03   -0.55072E+00   -0.63976E+00  5000   0.200E+02-0.255E+01
 gam= 1.277 trial= 0.355  step= 0.057 mean= 0.355
 gam= 0.823 g(H,U,f)=  0.417E+01 0.105E+02 0.176E+01 ort(H,U,f) = 0.109E+01-0.694E+01 0.698E+00
CGA:  25    -0.966801687532E+03   -0.34428E+00   -0.47571E+00  5000   0.164E+02-0.516E+01
 gam= 0.823 trial= 0.340  step= 0.062 mean= 0.340
 gam= 0.972 g(H,U,f)=  0.388E+01 0.115E+02 0.622E+00 ort(H,U,f) = 0.590E+00-0.622E+01-0.268E+00
CGA:  26    -0.966947541722E+03   -0.14585E+00   -0.37868E+00  5000   0.160E+02-0.590E+01
 gam= 0.972 trial= 0.326  step= 0.069 mean= 0.326
 gam= 0.897 g(H,U,f)=  0.361E+01 0.101E+02 0.562E+00 ort(H,U,f) =-0.403E+00-0.115E+01-0.313E+00
CGA:  27    -0.967202019503E+03   -0.25448E+00   -0.35059E+00  5000   0.143E+02-0.186E+01
 gam= 0.897 trial= 0.313  step= 0.077 mean= 0.313
 gam= 0.576 g(H,U,f)=  0.343E+01 0.447E+01 0.345E+00 ort(H,U,f) =-0.151E+01 0.126E+00 0.241E+00
CGA:  28    -0.967632039756E+03   -0.43002E+00   -0.48654E+00  5000   0.825E+01-0.115E+01
 gam= 0.576 trial= 0.302  step= 0.089 mean= 0.302
 gam= 0.845 g(H,U,f)=  0.338E+01 0.341E+01 0.175E+00 ort(H,U,f) = 0.514E+00-0.156E+01-0.233E+00
CGA:  29    -0.967898659937E+03   -0.26662E+00   -0.33652E+00  5000   0.697E+01-0.128E+01
 gam= 0.845 trial= 0.291  step= 0.105 mean= 0.291
 gam= 0.987 g(H,U,f)=  0.294E+01 0.348E+01 0.463E+00 ort(H,U,f) = 0.156E+01-0.115E+01-0.407E+00
CGA:  30    -0.968205906624E+03   -0.30725E+00   -0.30943E+00  5000   0.688E+01 0.253E-02
 gam= 0.987 trial= 0.282  step= 0.097 mean= 0.282
 gam= 0.921 g(H,U,f)=  0.232E+01 0.357E+01 0.444E+00 ort(H,U,f) = 0.149E+01-0.138E+01-0.363E+00
CGA:  31    -0.968522369312E+03   -0.31646E+00   -0.33363E+00  5000   0.633E+01-0.252E+00
 gam= 0.921 trial= 0.272  step= 0.110 mean= 0.272
 gam= 0.791 g(H,U,f)=  0.178E+01 0.302E+01 0.208E+00 ort(H,U,f) =-0.664E-01 0.220E-01-0.633E-01
CGA:  32    -0.968843483454E+03   -0.32111E+00   -0.33708E+00  5000   0.501E+01-0.108E+00
 gam= 0.791 trial= 0.264  step= 0.098 mean= 0.264
 gam= 0.714 g(H,U,f)=  0.154E+01 0.191E+01 0.134E+00 ort(H,U,f) =-0.581E+00 0.699E+00-0.129E+00
CGA:  33    -0.969080843402E+03   -0.23736E+00   -0.24026E+00  5000   0.358E+01-0.108E-01
 gam= 0.714 trial= 0.256  step= 0.125 mean= 0.256
 gam= 0.974 g(H,U,f)=  0.134E+01 0.185E+01 0.287E+00 ort(H,U,f) =-0.331E+00 0.282E+00 0.385E-01
CGA:  34    -0.969303059460E+03   -0.22222E+00   -0.22390E+00  5000   0.348E+01-0.107E-01
 gam= 0.974 trial= 0.249  step= 0.138 mean= 0.249
 gam= 0.918 g(H,U,f)=  0.115E+01 0.193E+01 0.116E+00 ort(H,U,f) =-0.370E+00 0.224E+00 0.491E-01
CGA:  35    -0.969518935295E+03   -0.21588E+00   -0.23892E+00  5000   0.320E+01-0.968E-01
 gam= 0.918 trial= 0.244  step= 0.174 mean= 0.244
 gam= 0.573 g(H,U,f)=  0.894E+00 0.818E+00 0.122E+00 ort(H,U,f) =-0.690E+00 0.696E+00 0.594E-01
CGA:  36    -0.969780387294E+03   -0.26145E+00   -0.27052E+00  5000   0.183E+01 0.649E-01
 gam= 0.573 trial= 0.240  step= 0.164 mean= 0.240
 gam= 0.000 g(H,U,f)=  0.698E+00 0.473E+00 0.731E-02 ort(H,U,f) =-0.579E-01 0.714E-01-0.339E-01
SDA:  37    -0.969934619485E+03   -0.15423E+00   -0.15297E+00  5000   0.118E+01-0.204E-01
 gam= 0.000 trial= 0.236  step= 0.451 mean= 0.236
 gam= 1.575 g(H,U,f)=  0.351E+00 0.139E+01 0.116E+00 ort(H,U,f) = 0.335E+00-0.398E+00-0.221E-01
CGA:  38    -0.970190821515E+03   -0.25620E+00   -0.26582E+00  5000   0.185E+01-0.858E-01
 gam= 1.575 trial= 0.247  step= 0.297 mean= 0.247
 gam= 0.334 g(H,U,f)=  0.194E+00 0.393E+00 0.317E-01 ort(H,U,f) = 0.539E-01-0.101E-01 0.240E-01
CGA:  39    -0.970448485212E+03   -0.25766E+00   -0.25502E+00  5000   0.619E+00 0.678E-01
 gam= 0.334 trial= 0.250  step= 0.295 mean= 0.250
 gam= 0.750 g(H,U,f)=  0.122E+00 0.336E+00 0.612E-02 ort(H,U,f) = 0.539E-01-0.204E-01-0.145E-01
CGA:  40    -0.970543854124E+03   -0.95369E-01   -0.94708E-01  5000   0.464E+00 0.190E-01
 gam= 0.750 trial= 0.252  step= 0.318 mean= 0.252
 gam= 0.427 g(H,U,f)=  0.627E-01 0.118E+00 0.171E-01 ort(H,U,f) = 0.131E-01-0.653E-01 0.335E-02
CGA:  41    -0.970617773450E+03   -0.73919E-01   -0.76138E-01  5000   0.198E+00-0.488E-01
 gam= 0.427 trial= 0.255  step= 0.460 mean= 0.255
 gam= 0.527 g(H,U,f)=  0.349E-01 0.561E-01 0.134E-01 ort(H,U,f) = 0.136E-02-0.688E-02 0.122E-01
CGA:  42    -0.970659279081E+03   -0.41506E-01   -0.40775E-01  5000   0.104E+00 0.671E-02
 gam= 0.527 trial= 0.266  step= 0.315 mean= 0.266
 gam= 0.479 g(H,U,f)=  0.215E-01 0.282E-01 0.271E-03 ort(H,U,f) = 0.115E-01-0.274E-03 0.151E-02
CGA:  43    -0.970676792308E+03   -0.17513E-01   -0.17019E-01  5000   0.500E-01 0.127E-01
 gam= 0.479 trial= 0.268  step= 0.500 mean= 0.268
 gam= 0.549 g(H,U,f)=  0.851E-02 0.169E-01 0.208E-02 ort(H,U,f) = 0.198E-02-0.553E-02 0.247E-02
CGA:  44    -0.970690695158E+03   -0.13903E-01   -0.14043E-01  5000   0.275E-01-0.108E-02
 gam= 0.549 trial= 0.280  step= 0.480 mean= 0.280
 gam= 0.779 g(H,U,f)=  0.604E-02 0.149E-01 0.466E-03 ort(H,U,f) = 0.659E-05 0.203E-03 0.112E-02
CGA:  45    -0.970697287717E+03   -0.65926E-02   -0.64438E-02  5000   0.214E-01 0.133E-02
 gam= 0.779 trial= 0.290  step= 0.517 mean= 0.290
 gam= 0.601 g(H,U,f)=  0.439E-02 0.845E-02 0.551E-05 ort(H,U,f) =-0.209E-02 0.339E-02 0.309E-04
CGA:  46    -0.970703248892E+03   -0.59612E-02   -0.57966E-02  5000   0.129E-01 0.134E-02
 gam= 0.601 trial= 0.301  step= 0.609 mean= 0.301
 gam= 1.328 g(H,U,f)=  0.428E-02 0.128E-01 0.158E-04 ort(H,U,f) =-0.122E-02 0.182E-02 0.438E-04
CGA:  47    -0.970707507467E+03   -0.42586E-02   -0.41550E-02  5000   0.171E-01 0.646E-03
 gam= 1.328 trial= 0.316  step= 0.635 mean= 0.316
 gam= 1.004 g(H,U,f)=  0.649E-02 0.106E-01 0.554E-05 ort(H,U,f) =-0.481E-02 0.481E-02 0.831E-06
CGA:  48    -0.970713197827E+03   -0.56904E-02   -0.56880E-02  5000   0.171E-01 0.438E-05
 gam= 1.004 trial= 0.332  step= 0.779 mean= 0.332
 gam= 0.893 g(H,U,f)=  0.774E-02 0.756E-02 0.709E-05 ort(H,U,f) =-0.464E-02 0.503E-02-0.215E-04
CGA:  49    -0.970719954212E+03   -0.67564E-02   -0.66687E-02  5000   0.153E-01 0.369E-03
 gam= 0.893 trial= 0.355  step= 0.810 mean= 0.355
 gam= 1.019 g(H,U,f)=  0.687E-02 0.872E-02 0.111E-04 ort(H,U,f) =-0.266E-02 0.392E-02-0.124E-04
CGA:  50    -0.970726575929E+03   -0.66217E-02   -0.63343E-02  5000   0.156E-01 0.125E-02
 gam= 1.019 trial= 0.377  step= 0.617 mean= 0.377
 gam= 1.146 g(H,U,f)=  0.596E-02 0.119E-01 0.246E-04 ort(H,U,f) =-0.167E-02 0.551E-03-0.123E-04
CGA:  51    -0.970731632980E+03   -0.50571E-02   -0.52080E-02  5000   0.179E-01-0.113E-02
 gam= 1.146 trial= 0.389  step= 0.608 mean= 0.389
 gam= 0.871 g(H,U,f)=  0.622E-02 0.932E-02 0.351E-04 ort(H,U,f) =-0.318E-02 0.310E-02-0.112E-04
CGA:  52    -0.970736665481E+03   -0.50325E-02   -0.50392E-02  5000   0.156E-01-0.934E-04
 gam= 0.871 trial= 0.400  step= 0.552 mean= 0.400
 gam= 0.504 g(H,U,f)=  0.455E-02 0.330E-02 0.118E-04 ort(H,U,f) =-0.212E-02 0.310E-02-0.356E-05
CGA:  53    -0.970741038421E+03   -0.43729E-02   -0.42764E-02  5000   0.786E-02 0.979E-03
 gam= 0.504 trial= 0.408  step= 0.640 mean= 0.408
 gam= 1.144 g(H,U,f)=  0.282E-02 0.617E-02 0.159E-06 ort(H,U,f) = 0.767E-03-0.115E-02-0.338E-06
CGA:  54    -0.970743659857E+03   -0.26214E-02   -0.26708E-02  5000   0.899E-02-0.379E-03
 gam= 1.144 trial= 0.419  step= 0.484 mean= 0.419
 gam= 0.653 g(H,U,f)=  0.251E-02 0.336E-02 0.260E-06 ort(H,U,f) = 0.148E-03-0.209E-03-0.141E-05
CGA:  55    -0.970745726857E+03   -0.20670E-02   -0.20697E-02  5000   0.587E-02-0.624E-04
 gam= 0.653 trial= 0.423  step= 0.418 mean= 0.423
 gam= 0.556 g(H,U,f)=  0.180E-02 0.146E-02 0.363E-05 ort(H,U,f) = 0.473E-03-0.480E-03 0.540E-05
CGA:  56    -0.970746946679E+03   -0.12198E-02   -0.12198E-02  5000   0.326E-02-0.129E-05
 gam= 0.556 trial= 0.422  step= 0.538 mean= 0.422
 gam= 0.998 g(H,U,f)=  0.114E-02 0.212E-02 0.104E-05 ort(H,U,f) = 0.361E-03-0.368E-03-0.245E-05
CGA:  57    -0.970747824034E+03   -0.87736E-03   -0.87836E-03  5000   0.326E-02-0.912E-05
 gam= 0.998 trial= 0.428  step= 0.422 mean= 0.428
 gam= 0.631 g(H,U,f)=  0.965E-03 0.109E-02 0.216E-05 ort(H,U,f) =-0.112E-04 0.210E-04-0.391E-05
CGA:  58    -0.970748509206E+03   -0.68517E-03   -0.68517E-03  5000   0.205E-02 0.594E-05
 gam= 0.631 trial= 0.428  step= 0.494 mean= 0.428
 gam= 0.737 g(H,U,f)=  0.656E-03 0.856E-03 0.222E-05 ort(H,U,f) = 0.315E-04-0.228E-04 0.738E-06
CGA:  59    -0.970749018608E+03   -0.50940E-03   -0.50896E-03  5000   0.151E-02 0.941E-05
 gam= 0.737 trial= 0.431  step= 0.517 mean= 0.431
 gam= 1.034 g(H,U,f)=  0.524E-03 0.104E-02 0.176E-05 ort(H,U,f) =-0.683E-04 0.634E-04 0.245E-05
CGA:  60    -0.970749411425E+03   -0.39282E-03   -0.39289E-03  5000   0.157E-02-0.247E-05
 gam= 1.034 trial= 0.436  step= 0.466 mean= 0.436
 gam= 0.522 g(H,U,f)=  0.467E-03 0.351E-03 0.286E-07 ort(H,U,f) =-0.246E-03 0.247E-03-0.454E-06
CGA:  61    -0.970749775726E+03   -0.36430E-03   -0.36426E-03  5000   0.818E-03 0.717E-06
 gam= 0.522 trial= 0.437  step= 0.606 mean= 0.437
 gam= 1.203 g(H,U,f)=  0.330E-03 0.653E-03 0.210E-06 ort(H,U,f) =-0.429E-06 0.124E-04 0.601E-06
CGA:  62    -0.970750024878E+03   -0.24915E-03   -0.24795E-03  5000   0.984E-03 0.125E-04
 gam= 1.203 trial= 0.446  step= 0.443 mean= 0.446
 gam= 0.641 g(H,U,f)=  0.347E-03 0.284E-03 0.135E-07 ort(H,U,f) =-0.155E-03 0.161E-03 0.864E-07
CGA:  63    -0.970750246229E+03   -0.22135E-03   -0.22136E-03  5000   0.631E-03 0.622E-05
 gam= 0.641 trial= 0.445  step= 0.597 mean= 0.445
 gam= 0.908 g(H,U,f)=  0.266E-03 0.306E-03 0.516E-06 ort(H,U,f) =-0.758E-04 0.819E-04-0.101E-05
CGA:  64    -0.970750436026E+03   -0.18980E-03   -0.18941E-03  5000   0.573E-03 0.509E-05
 gam= 0.908 trial= 0.453  step= 0.469 mean= 0.453
 gam= 0.924 g(H,U,f)=  0.230E-03 0.299E-03 0.191E-06 ort(H,U,f) =-0.412E-04 0.442E-04 0.110E-06
CGA:  65    -0.970750571534E+03   -0.13551E-03   -0.13547E-03  5000   0.529E-03 0.312E-05
 gam= 0.924 trial= 0.454  step= 0.542 mean= 0.454
 gam= 0.704 g(H,U,f)=  0.219E-03 0.153E-03 0.497E-07 ort(H,U,f) =-0.750E-04 0.745E-04 0.212E-06
CGA:  66    -0.970750715743E+03   -0.14421E-03   -0.14422E-03  5000   0.372E-03-0.332E-06
 gam= 0.704 trial= 0.458  step= 0.540 mean= 0.458
 gam= 0.932 g(H,U,f)=  0.155E-03 0.191E-03 0.115E-05 ort(H,U,f) =-0.108E-04 0.100E-04-0.888E-06
CGA:  67    -0.970750816065E+03   -0.10032E-03   -0.10042E-03  5000   0.347E-03-0.166E-05
 gam= 0.932 trial= 0.462  step= 0.476 mean= 0.462
 gam= 0.000 g(H,U,f)=  0.121E-03 0.114E-03 0.629E-06 ort(H,U,f) =-0.141E-04 0.132E-04 0.327E-06
SDA:  68    -0.970750898280E+03   -0.82214E-04   -0.82221E-04  5000   0.236E-03-0.549E-06
 gam= 0.000 trial= 0.463  step= 0.485 mean= 0.463
 gam= 0.889 g(H,U,f)=  0.534E-04 0.156E-03 0.925E-07 ort(H,U,f) = 0.493E-04-0.502E-04 0.218E-06
CGA:  69    -0.970750955460E+03   -0.57181E-04   -0.57189E-04  5000   0.209E-03-0.640E-06
 gam= 0.889 trial= 0.464  step= 0.651 mean= 0.464
 gam= 0.705 g(H,U,f)=  0.695E-04 0.782E-04 0.470E-07 ort(H,U,f) =-0.134E-04 0.126E-04-0.188E-06
CGA:  70    -0.970751023375E+03   -0.67914E-04   -0.68009E-04  5000   0.148E-03-0.996E-06
 gam= 0.705 trial= 0.473  step= 0.853 mean= 0.473
 gam= 1.068 g(H,U,f)=  0.546E-04 0.103E-03 0.520E-06 ort(H,U,f) = 0.148E-06-0.229E-05 0.386E-06
CGA:  71    -0.970751085759E+03   -0.62384E-04   -0.62720E-04  5000   0.158E-03-0.175E-05
 gam= 1.068 trial= 0.492  step= 0.472 mean= 0.492
 gam= 0.435 g(H,U,f)=  0.396E-04 0.290E-04 0.554E-09 ort(H,U,f) = 0.723E-06-0.186E-05-0.272E-07
CGA:  72    -0.970751122569E+03   -0.36810E-04   -0.36795E-04  5000   0.686E-04-0.116E-05
 gam= 0.435 trial= 0.491  step= 0.846 mean= 0.491
 gam= 0.498 g(H,U,f)=  0.236E-04 0.106E-04 0.604E-08 ort(H,U,f) =-0.142E-05 0.103E-05-0.210E-07
CGA:  73    -0.970751151289E+03   -0.28720E-04   -0.28793E-04  5000   0.341E-04-0.410E-06
 gam= 0.498 trial= 0.509  step= 0.805 mean= 0.509
 gam= 0.792 g(H,U,f)=  0.104E-04 0.166E-04 0.283E-08 ort(H,U,f) = 0.187E-05-0.195E-05-0.913E-08
CGA:  74    -0.970751164929E+03   -0.13640E-04   -0.13654E-04  5000   0.271E-04-0.888E-07
 gam= 0.792 trial= 0.524  step= 0.386 mean= 0.524
 gam= 0.511 g(H,U,f)=  0.694E-05 0.686E-05 0.161E-07 ort(H,U,f) = 0.368E-05-0.357E-05-0.209E-07
CGA:  75    -0.970751170125E+03   -0.51963E-05   -0.52042E-05  5000   0.138E-04 0.973E-07
 gam= 0.511 trial= 0.517  step= 0.725 mean= 0.517
 final diagonalization
   1 F= -.97075117E+03 E0= -.97075086E+03  d E =-.623944E-03
 writing wavefunctions
Warning: ieee_invalid is signaling
Warning: ieee_divide_by_zero is signaling
Warning: ieee_underflow is signaling
Warning: ieee_inexact is signaling
FORTRAN STOP
Warning: ieee_invalid is signaling
Warning: ieee_divide_by_zero is signaling
Warning: ieee_underflow is signaling
Warning: ieee_inexact is signaling
FORTRAN STOP
Warning: ieee_invalid is signaling
Warning: ieee_divide_by_zero is signaling
Warning: ieee_underflow is signaling
Warning: ieee_inexact is signaling
FORTRAN STOP
Warning: ieee_invalid is signaling
Warning: ieee_divide_by_zero is signaling
Warning: ieee_underflow is signaling
Warning: ieee_inexact is signaling
FORTRAN STOP
