<?xml version="1.0" encoding="ISO-8859-1"?>
<modeling>
 <generator>
  <i name="program" type="string">vasp </i>
  <i name="version" type="string">6.4.2  </i>
  <i name="subversion" type="string">20Jul23 (build Nov 12 2023 22:16:35) complex                          parallel </i>
  <i name="platform" type="string">LinuxNV </i>
  <i name="date" type="string">2025 03 07 </i>
  <i name="time" type="string">23:34:42 </i>
 </generator>
 <incar>
  <i type="int" name="ISTART">     0</i>
  <i type="string" name="PREC">Normal</i>
  <i type="string" name="ALGO">All</i>
  <i type="int" name="ISPIN">     1</i>
  <i type="int" name="ICHARG">     0</i>
  <i type="int" name="NELM">   500</i>
  <i type="int" name="IBRION">    -1</i>
  <i name="EDIFF">      0.00001000</i>
  <i name="EDIFFG">     -0.00500000</i>
  <i type="int" name="NSW">     0</i>
  <i type="int" name="ISIF">     2</i>
  <i name="ENCUT">    450.00000000</i>
  <i type="string" name="LREAL">Auto</i>
  <i type="logical" name="LPLANE"> T  </i>
  <i name="TIME">      0.40000000</i>
  <i type="int" name="ISMEAR">     0</i>
  <i name="SIGMA">      0.05000000</i>
  <i type="logical" name="LWAVE"> T  </i>
  <i type="logical" name="LCHARG"> T  </i>
  <i name="HFSCREEN">      0.18000000</i>
  <i type="logical" name="LHFCALC"> T  </i>
  <i type="int" name="LMAXFOCK">     4</i>
  <i name="AEXX">      0.35000000</i>
  <i type="string" name="PRECFOCK">Fast</i>
 </incar>
 <primitive_cell>
  <structure name="primitive_cell" >
   <crystal>
    <varray name="basis" >
     <v>       0.00000000      12.28047342       0.00000000 </v>
     <v>       9.14270205       0.00000000       0.00000000 </v>
     <v>       0.00000000      -2.76826177     -11.30069772 </v>
    </varray>
    <i name="volume">   1268.80515525 </i>
    <varray name="rec_basis" >
     <v>       0.00000000       0.08143009      -0.01994742 </v>
     <v>       0.10937686      -0.00000000       0.00000000 </v>
     <v>       0.00000000       0.00000000      -0.08849011 </v>
    </varray>
   </crystal>
   <varray name="positions" >
    <v>       0.66111882       0.00006166       0.15791890 </v>
    <v>       0.65816862       0.00028259       0.65546779 </v>
    <v>       0.66171156       0.33333333       0.15834412 </v>
    <v>       0.65805543       0.33333333       0.65507326 </v>
    <v>       0.66111882       0.66660501       0.15791890 </v>
    <v>       0.65816862       0.66638408       0.65546779 </v>
    <v>       0.84341632       0.16710099       0.34444804 </v>
    <v>       0.84028454       0.16719618       0.84256033 </v>
    <v>       0.84341632       0.49956568       0.34444804 </v>
    <v>       0.84028454       0.49947049       0.84256033 </v>
    <v>       0.84218338       0.83333333       0.34425296 </v>
    <v>       0.83983557       0.83333333       0.84242805 </v>
    <v>       0.58910643       0.17033043       0.39581358 </v>
    <v>       0.59210173       0.16649431       0.89788334 </v>
    <v>       0.58910643       0.49633624       0.39581358 </v>
    <v>       0.59210173       0.50017236       0.89788334 </v>
    <v>       0.59036158       0.83333333       0.39712202 </v>
    <v>       0.59278784       0.83333333       0.89864598 </v>
    <v>       0.90878182       0.00028605       0.10171453 </v>
    <v>       0.90952004       0.00013192       0.60297146 </v>
    <v>       0.91102480       0.33333333       0.10270135 </v>
    <v>       0.91002083       0.33333333       0.60271749 </v>
    <v>       0.90878182       0.66638061       0.10171453 </v>
    <v>       0.90952004       0.66653474       0.60297146 </v>
    <v>       0.16318792       0.16960134       0.16109644 </v>
    <v>       0.16016040       0.16703497       0.65816303 </v>
    <v>       0.16318792       0.49706532       0.16109644 </v>
    <v>       0.16016040       0.49963169       0.65816303 </v>
    <v>       0.15841957       0.83333333       0.15790966 </v>
    <v>       0.16010443       0.83333333       0.65972673 </v>
    <v>       0.33994053       0.00391574       0.34078920 </v>
    <v>       0.34271447       0.00016343       0.84403055 </v>
    <v>       0.34207034       0.33333333       0.84371657 </v>
    <v>       0.33994053       0.66275092       0.34078920 </v>
    <v>       0.34271447       0.66650324       0.84403055 </v>
    <v>       0.09193926       0.00051796       0.39761167 </v>
    <v>       0.08997964       0.00019149       0.89740231 </v>
    <v>       0.09873370       0.33333333       0.39706467 </v>
    <v>       0.09104337       0.33333333       0.89823402 </v>
    <v>       0.09193926       0.66614871       0.39761167 </v>
    <v>       0.08997964       0.66647518       0.89740231 </v>
    <v>       0.40981616       0.16579533       0.10497427 </v>
    <v>       0.40572104       0.16634412       0.59825407 </v>
    <v>       0.40981616       0.50087134       0.10497427 </v>
    <v>       0.40572104       0.50032255       0.59825407 </v>
    <v>       0.40998373       0.83333333       0.10395615 </v>
    <v>       0.40872426       0.83333333       0.60055225 </v>
    <v>       0.99693340       0.16580364       0.12442406 </v>
    <v>       0.99734499       0.16649373       0.62892118 </v>
    <v>       0.99693340       0.50086303       0.12442406 </v>
    <v>       0.99734499       0.50017294       0.62892118 </v>
    <v>       0.99486971       0.83333333       0.12577253 </v>
    <v>       0.99706682       0.83333333       0.62950934 </v>
    <v>       0.50382878       0.00090604       0.37317578 </v>
    <v>       0.50515242       0.99962974       0.87318525 </v>
    <v>       0.50020452       0.33333333       0.37122535 </v>
    <v>       0.50488044       0.33333333       0.87252198 </v>
    <v>       0.50382878       0.66576062       0.37317578 </v>
    <v>       0.50515242       0.66703692       0.87318525 </v>
    <v>       0.67432431       0.16639246       0.28077826 </v>
    <v>       0.67198803       0.16768626       0.77950249 </v>
    <v>       0.67432431       0.50027421       0.28077826 </v>
    <v>       0.67198803       0.49898040       0.77950249 </v>
    <v>       0.67391026       0.83333333       0.28145293 </v>
    <v>       0.67238819       0.83333333       0.77990153 </v>
    <v>       0.82903336       0.00042248       0.22037867 </v>
    <v>       0.82674747       0.00037631       0.71888343 </v>
    <v>       0.82965694       0.33333333       0.22019316 </v>
    <v>       0.82701138       0.33333333       0.71868464 </v>
    <v>       0.82903336       0.66624419       0.22037867 </v>
    <v>       0.82674747       0.66629035       0.71888343 </v>
    <v>       0.83350318       0.00025141       0.44650264 </v>
    <v>       0.83117029       0.00033988       0.94496116 </v>
    <v>       0.83270607       0.33333333       0.44654353 </v>
    <v>       0.83215414       0.33333333       0.94589319 </v>
    <v>       0.83350318       0.66641526       0.44650264 </v>
    <v>       0.83117029       0.66632679       0.94496116 </v>
    <v>       0.66861728       0.16727096       0.05459229 </v>
    <v>       0.66715319       0.16664095       0.55324896 </v>
    <v>       0.66861728       0.49939571       0.05459229 </v>
    <v>       0.66715319       0.50002572       0.55324896 </v>
    <v>       0.67074523       0.83333333       0.05493544 </v>
    <v>       0.66753909       0.83333333       0.55376233 </v>
    <v>       0.49917087       0.99927604       0.12692229 </v>
    <v>       0.49621920       0.00074592       0.62803521 </v>
    <v>       0.49777795       0.33333333       0.13314310 </v>
    <v>       0.49356221       0.33333333       0.62083230 </v>
    <v>       0.49917087       0.66739063       0.12692229 </v>
    <v>       0.49621920       0.66592075       0.62803521 </v>
    <v>       0.00580992       0.16814971       0.37516335 </v>
    <v>       0.00280335       0.16707673       0.87114173 </v>
    <v>       0.00580992       0.49851695       0.37516335 </v>
    <v>       0.00280335       0.49958993       0.87114173 </v>
    <v>       0.00414564       0.83333333       0.37474879 </v>
    <v>       0.00234755       0.83333333       0.87074703 </v>
    <v>       0.16912188       0.99675148       0.27855822 </v>
    <v>       0.17365884       0.00011100       0.78210242 </v>
    <v>       0.16179821       0.33333333       0.27009922 </v>
    <v>       0.17343989       0.33333333       0.78179944 </v>
    <v>       0.16912188       0.66991519       0.27855822 </v>
    <v>       0.17365884       0.66655567       0.78210242 </v>
    <v>       0.32477075       0.14757264       0.21327691 </v>
    <v>       0.32856136       0.16690372       0.72057354 </v>
    <v>       0.32477075       0.51909402       0.21327691 </v>
    <v>       0.32856136       0.49976294       0.72057354 </v>
    <v>       0.32746054       0.83333333       0.21906535 </v>
    <v>       0.32836781       0.83333333       0.71972841 </v>
    <v>       0.31438380       0.14825078       0.45076105 </v>
    <v>       0.33574815       0.16703191       0.94685884 </v>
    <v>       0.31438380       0.51841589       0.45076105 </v>
    <v>       0.33574815       0.49963476       0.94685884 </v>
    <v>       0.33248900       0.83333333       0.44401145 </v>
    <v>       0.33410827       0.83333333       0.94655806 </v>
    <v>       0.16482124       0.99957053       0.05358543 </v>
    <v>       0.16638505       0.99908837       0.55585349 </v>
    <v>       0.17067248       0.33333333       0.05266579 </v>
    <v>       0.16805792       0.33333333       0.55615267 </v>
    <v>       0.16482124       0.66709614       0.05358543 </v>
    <v>       0.16638505       0.66757829       0.55585349 </v>
   </varray>
  </structure>
  <varray name="primitive_index" >
   <v type="int" >        1 </v>
   <v type="int" >        2 </v>
   <v type="int" >        3 </v>
   <v type="int" >        4 </v>
   <v type="int" >        5 </v>
   <v type="int" >        6 </v>
   <v type="int" >        7 </v>
   <v type="int" >        8 </v>
   <v type="int" >        9 </v>
   <v type="int" >       10 </v>
   <v type="int" >       11 </v>
   <v type="int" >       12 </v>
   <v type="int" >       13 </v>
   <v type="int" >       14 </v>
   <v type="int" >       15 </v>
   <v type="int" >       16 </v>
   <v type="int" >       17 </v>
   <v type="int" >       18 </v>
   <v type="int" >       19 </v>
   <v type="int" >       20 </v>
   <v type="int" >       21 </v>
   <v type="int" >       22 </v>
   <v type="int" >       23 </v>
   <v type="int" >       24 </v>
   <v type="int" >       25 </v>
   <v type="int" >       26 </v>
   <v type="int" >       27 </v>
   <v type="int" >       28 </v>
   <v type="int" >       29 </v>
   <v type="int" >       30 </v>
   <v type="int" >       31 </v>
   <v type="int" >       32 </v>
   <v type="int" >       33 </v>
   <v type="int" >       34 </v>
   <v type="int" >       35 </v>
   <v type="int" >       36 </v>
   <v type="int" >       37 </v>
   <v type="int" >       38 </v>
   <v type="int" >       39 </v>
   <v type="int" >       40 </v>
   <v type="int" >       41 </v>
   <v type="int" >       42 </v>
   <v type="int" >       43 </v>
   <v type="int" >       44 </v>
   <v type="int" >       45 </v>
   <v type="int" >       46 </v>
   <v type="int" >       47 </v>
   <v type="int" >       48 </v>
   <v type="int" >       49 </v>
   <v type="int" >       50 </v>
   <v type="int" >       51 </v>
   <v type="int" >       52 </v>
   <v type="int" >       53 </v>
   <v type="int" >       54 </v>
   <v type="int" >       55 </v>
   <v type="int" >       56 </v>
   <v type="int" >       57 </v>
   <v type="int" >       58 </v>
   <v type="int" >       59 </v>
   <v type="int" >       60 </v>
   <v type="int" >       61 </v>
   <v type="int" >       62 </v>
   <v type="int" >       63 </v>
   <v type="int" >       64 </v>
   <v type="int" >       65 </v>
   <v type="int" >       66 </v>
   <v type="int" >       67 </v>
   <v type="int" >       68 </v>
   <v type="int" >       69 </v>
   <v type="int" >       70 </v>
   <v type="int" >       71 </v>
   <v type="int" >       72 </v>
   <v type="int" >       73 </v>
   <v type="int" >       74 </v>
   <v type="int" >       75 </v>
   <v type="int" >       76 </v>
   <v type="int" >       77 </v>
   <v type="int" >       78 </v>
   <v type="int" >       79 </v>
   <v type="int" >       80 </v>
   <v type="int" >       81 </v>
   <v type="int" >       82 </v>
   <v type="int" >       83 </v>
   <v type="int" >       84 </v>
   <v type="int" >       85 </v>
   <v type="int" >       86 </v>
   <v type="int" >       87 </v>
   <v type="int" >       88 </v>
   <v type="int" >       89 </v>
   <v type="int" >       90 </v>
   <v type="int" >       91 </v>
   <v type="int" >       92 </v>
   <v type="int" >       93 </v>
   <v type="int" >       94 </v>
   <v type="int" >       95 </v>
   <v type="int" >       96 </v>
   <v type="int" >       97 </v>
   <v type="int" >       98 </v>
   <v type="int" >       99 </v>
   <v type="int" >      100 </v>
   <v type="int" >      101 </v>
   <v type="int" >      102 </v>
   <v type="int" >      103 </v>
   <v type="int" >      104 </v>
   <v type="int" >      105 </v>
   <v type="int" >      106 </v>
   <v type="int" >      107 </v>
   <v type="int" >      108 </v>
   <v type="int" >      109 </v>
   <v type="int" >      110 </v>
   <v type="int" >      111 </v>
   <v type="int" >      112 </v>
   <v type="int" >      113 </v>
   <v type="int" >      114 </v>
   <v type="int" >      115 </v>
   <v type="int" >      116 </v>
   <v type="int" >      117 </v>
   <v type="int" >      118 </v>
   <v type="int" >      119 </v>
  </varray>
 </primitive_cell>
 <kpoints>
  <generation param="Gamma">
   <v type="int" name="divisions">       2        2        2 </v>
   <v name="usershift">      0.00000000       0.00000000       0.00000000 </v>
   <v name="genvec1">      0.50000000       0.00000000       0.00000000 </v>
   <v name="genvec2">      0.00000000       0.50000000       0.00000000 </v>
   <v name="genvec3">      0.00000000       0.00000000       0.50000000 </v>
   <v name="shift">      0.00000000       0.00000000       0.00000000 </v>
  </generation>
  <varray name="kpointlist" >
   <v>       0.00000000       0.00000000       0.00000000 </v>
   <v>       0.50000000       0.00000000       0.00000000 </v>
   <v>       0.00000000       0.50000000       0.00000000 </v>
   <v>       0.50000000       0.50000000       0.00000000 </v>
   <v>       0.00000000       0.00000000       0.50000000 </v>
   <v>       0.50000000       0.00000000       0.50000000 </v>
   <v>       0.00000000       0.50000000       0.50000000 </v>
   <v>       0.50000000       0.50000000       0.50000000 </v>
  </varray>
  <varray name="weights" >
   <v>       0.12500000 </v>
   <v>       0.12500000 </v>
   <v>       0.12500000 </v>
   <v>       0.12500000 </v>
   <v>       0.12500000 </v>
   <v>       0.12500000 </v>
   <v>       0.12500000 </v>
   <v>       0.12500000 </v>
  </varray>
 </kpoints>
 <parameters>
  <separator name="general" >
   <i type="string" name="SYSTEM">unknown system</i>
   <i type="logical" name="LCOMPAT"> F  </i>
  </separator>
  <separator name="electronic" >
   <i type="string" name="PREC">normal</i>
   <i name="ENMAX">    450.00000000</i>
   <i name="ENAUG">    605.39200000</i>
   <i name="EDIFF">      0.00001000</i>
   <i type="int" name="IALGO">    58</i>
   <i type="int" name="IWAVPR">    10</i>
   <i type="int" name="NBANDS">   625</i>
   <i type="int" name="NBANDSLOW">    -1</i>
   <i type="int" name="NBANDSHIGH">    -1</i>
   <i name="NELECT">   1043.00000000</i>
   <i type="int" name="TURBO">     0</i>
   <i type="int" name="IRESTART">     0</i>
   <i type="int" name="NREBOOT">     0</i>
   <i type="int" name="NMIN">     0</i>
   <i name="EREF">      0.00000000</i>
   <separator name="electronic smearing" >
    <i type="int" name="ISMEAR">     0</i>
    <i name="SIGMA">      0.05000000</i>
    <i name="KSPACING">      0.50000000</i>
    <i type="logical" name="KGAMMA"> T  </i>
    <i type="logical" name="KBLOWUP"> T  </i>
   </separator>
   <separator name="electronic projectors" >
    <i type="logical" name="LREAL"> T  </i>
    <v name="ROPT">     -0.00050000     -0.00050000</v>
    <i type="int" name="LMAXPAW">  -100</i>
    <i type="int" name="LMAXMIX">     2</i>
    <i type="logical" name="NLSPLINE"> F  </i>
   </separator>
   <separator name="electronic startup" >
    <i type="int" name="ISTART">     0</i>
    <i type="int" name="ICHARG">     0</i>
    <i type="int" name="INIWAV">     1</i>
   </separator>
   <separator name="electronic spin" >
    <i type="int" name="ISPIN">     1</i>
    <i type="logical" name="LNONCOLLINEAR"> F  </i>
    <v name="MAGMOM">      1.00000000      1.00000000      1.00000000      1.00000000      1.00000000      1.00000000      1.00000000      1.00000000      1.00000000      1.00000000      1.00000000      1.00000000      1.00000000      1.00000000      1.00000000      1.00000000      1.00000000      1.00000000      1.00000000      1.00000000
      1.00000000      1.00000000      1.00000000      1.00000000      1.00000000      1.00000000      1.00000000      1.00000000      1.00000000      1.00000000      1.00000000      1.00000000      1.00000000      1.00000000      1.00000000      1.00000000      1.00000000      1.00000000      1.00000000      1.00000000
      1.00000000      1.00000000      1.00000000      1.00000000      1.00000000      1.00000000      1.00000000      1.00000000      1.00000000      1.00000000      1.00000000      1.00000000      1.00000000      1.00000000      1.00000000      1.00000000      1.00000000      1.00000000      1.00000000      1.00000000
      1.00000000      1.00000000      1.00000000      1.00000000      1.00000000      1.00000000      1.00000000      1.00000000      1.00000000      1.00000000      1.00000000      1.00000000      1.00000000      1.00000000      1.00000000      1.00000000      1.00000000      1.00000000      1.00000000      1.00000000
      1.00000000      1.00000000      1.00000000      1.00000000      1.00000000      1.00000000      1.00000000      1.00000000      1.00000000      1.00000000      1.00000000      1.00000000      1.00000000      1.00000000      1.00000000      1.00000000      1.00000000      1.00000000      1.00000000      1.00000000
      1.00000000      1.00000000      1.00000000      1.00000000      1.00000000      1.00000000      1.00000000      1.00000000      1.00000000      1.00000000      1.00000000      1.00000000      1.00000000      1.00000000      1.00000000      1.00000000      1.00000000      1.00000000      1.00000000</v>
    <i name="NUPDOWN">     -1.00000000</i>
    <i type="logical" name="LSORBIT"> F  </i>
    <v name="SAXIS">      0.00000000      0.00000000      1.00000000</v>
    <i type="logical" name="LSPIRAL"> F  </i>
    <v name="QSPIRAL">      0.00000000      0.00000000      0.00000000</v>
    <i type="logical" name="LZEROZ"> F  </i>
   </separator>
   <separator name="electronic exchange-correlation" >
    <i type="logical" name="LASPH"> F  </i>
    <i type="logical" name="LMETAGGA"> F  </i>
   </separator>
   <separator name="electronic convergence" >
    <i type="int" name="NELM">   500</i>
    <i type="int" name="NELMDL">    -5</i>
    <i type="int" name="NELMIN">     2</i>
    <i name="ENINI">    450.00000000</i>
    <separator name="electronic convergence detail" >
     <i type="logical" name="LDIAG"> T  </i>
     <i type="logical" name="LSUBROT"> F  </i>
     <i name="WEIMIN">      0.00000000</i>
     <i name="EBREAK">      0.00000000</i>
     <i name="DEPER">      0.30000000</i>
     <i type="int" name="NRMM">     4</i>
     <i name="TIME">      0.40000000</i>
    </separator>
   </separator>
   <separator name="electronic mixer" >
    <i name="AMIX">      0.40000000</i>
    <i name="BMIX">      1.00000000</i>
    <i name="AMIN">      0.10000000</i>
    <i name="AMIX_MAG">      1.60000000</i>
    <i name="BMIX_MAG">      1.00000000</i>
    <separator name="electronic mixer details" >
     <i type="int" name="IMIX">     4</i>
     <i type="logical" name="MIXFIRST"> F  </i>
     <i type="int" name="MAXMIX">   -45</i>
     <i name="WC">    100.00000000</i>
     <i type="int" name="INIMIX">     1</i>
     <i type="int" name="MIXPRE">     1</i>
     <i type="int" name="MREMOVE">     5</i>
    </separator>
   </separator>
   <separator name="electronic dipolcorrection" >
    <i type="logical" name="LDIPOL"> F  </i>
    <i type="logical" name="LMONO"> F  </i>
    <i type="int" name="IDIPOL">     0</i>
    <i name="EPSILON">      1.00000000</i>
    <v name="DIPOL">   -100.00000000   -100.00000000   -100.00000000</v>
    <i name="EFIELD">      0.00000000</i>
   </separator>
  </separator>
  <separator name="grids" >
   <i type="int" name="NGX">    64</i>
   <i type="int" name="NGY">    48</i>
   <i type="int" name="NGZ">    60</i>
   <i type="int" name="NGXF">   128</i>
   <i type="int" name="NGYF">    96</i>
   <i type="int" name="NGZF">   120</i>
   <i type="logical" name="ADDGRID"> F  </i>
  </separator>
  <separator name="ionic" >
   <i type="int" name="NSW">     0</i>
   <i type="int" name="IBRION">    -1</i>
   <i type="int" name="MDALGO">     0</i>
   <i type="int" name="ISIF">     2</i>
   <i name="PSTRESS">      0.00000000</i>
   <i name="EDIFFG">     -0.00500000</i>
   <i type="int" name="NFREE">     0</i>
   <i name="POTIM">      0.50000000</i>
   <i name="SMASS">     -3.00000000</i>
   <i name="SCALEE">      1.00000000</i>
  </separator>
  <separator name="ionic md" >
   <i name="TEBEG">      0.00010000</i>
   <i name="TEEND">      0.00010000</i>
   <i type="int" name="NBLOCK">     1</i>
   <i type="int" name="KBLOCK">     1</i>
   <i type="int" name="NPACO">   256</i>
   <i name="APACO">     10.00000000</i>
  </separator>
  <separator name="symmetry" >
   <i type="int" name="ISYM">     3</i>
   <i name="SYMPREC">      0.00001000</i>
  </separator>
  <separator name="dos" >
   <i type="int" name="LORBIT">     0</i>
   <v name="RWIGS">     -1.00000000     -1.00000000</v>
   <i type="int" name="NEDOS">   301</i>
   <i name="EMIN">     10.00000000</i>
   <i name="EMAX">    -10.00000000</i>
   <i name="EFERMI">      0.00000000</i>
  </separator>
  <separator name="writing" >
   <i type="int" name="NWRITE">     2</i>
   <i type="logical" name="LWAVE"> T  </i>
   <i type="logical" name="LDOWNSAMPLE"> F  </i>
   <i type="logical" name="LCHARG"> T  </i>
   <i type="logical" name="LPARD"> F  </i>
   <i type="logical" name="LVTOT"> F  </i>
   <i type="logical" name="LVHAR"> F  </i>
   <i type="logical" name="LELF"> F  </i>
   <i type="logical" name="LOPTICS"> F  </i>
   <v name="STM">      0.00000000      0.00000000      0.00000000      0.00000000      0.00000000      0.00000000      0.00000000</v>
  </separator>
  <separator name="performance" >
   <i type="int" name="NPAR">     1</i>
   <i type="int" name="NSIM">     4</i>
   <i type="int" name="NBLK">    -1</i>
   <i type="logical" name="LPLANE"> T  </i>
   <i type="logical" name="LSCALAPACK"> T  </i>
   <i type="logical" name="LSCAAWARE"> F  </i>
   <i type="logical" name="LSCALU"> F  </i>
   <i type="logical" name="LASYNC"> F  </i>
   <i type="logical" name="LORBITALREAL"> F  </i>
  </separator>
  <separator name="miscellaneous" >
   <i type="int" name="IDIOT">     3</i>
   <i type="int" name="PHON_NSTRUCT">    -1</i>
   <i type="logical" name="LMUSIC"> F  </i>
   <v name="POMASS">     69.72300000     16.00000000</v>
   <v name="DARWINR">      0.00000000      0.00000000</v>
   <v name="DARWINV">      1.00000000      1.00000000</v>
   <i type="logical" name="LCORR"> T  </i>
  </separator>
  <i type="logical" name="GGA_COMPAT"> T  </i>
  <i type="logical" name="LBERRY"> F  </i>
  <i type="int" name="ICORELEVEL">     0</i>
  <i type="logical" name="LDAU"> F  </i>
  <i type="int" name="I_CONSTRAINED_M">     0</i>
  <separator name="electronic exchange-correlation" >
   <i type="string" name="GGA">--</i>
   <i type="int" name="VOSKOWN">     0</i>
   <i type="logical" name="LHFCALC"> T  </i>
   <i type="string" name="PRECFOCK">fast</i>
   <i type="logical" name="LSYMGRAD"> F  </i>
   <i type="logical" name="LHFONE"> F  </i>
   <i type="logical" name="LRHFCALC"> F  </i>
   <i type="logical" name="LTHOMAS"> F  </i>
   <i type="logical" name="LMODELHF"> F  </i>
   <i type="logical" name="LFOCKACE"> T  </i>
   <i name="ENCUT4O">     -1.00000000</i>
   <i type="int" name="EXXOEP">     0</i>
   <i type="int" name="FOURORBIT">     0</i>
   <i name="AEXX">      0.35000000</i>
   <i name="HFALPHA">     -1.00000000</i>
   <i name="MCALPHA">      0.00000000</i>
   <i name="ALDAX">      0.65000000</i>
   <i name="AGGAX">      0.65000000</i>
   <i name="ALDAC">      1.00000000</i>
   <i name="AGGAC">      1.00000000</i>
   <i type="int" name="NKREDX">     1</i>
   <i type="int" name="NKREDY">     1</i>
   <i type="int" name="NKREDZ">     1</i>
   <i type="logical" name="SHIFTRED"> F  </i>
   <i type="logical" name="ODDONLY"> F  </i>
   <i type="logical" name="EVENONLY"> F  </i>
   <i type="int" name="LMAXFOCK">     4</i>
   <i type="int" name="NMAXFOCKAE">     1</i>
   <i type="logical" name="LFOCKAEDFT"> F  </i>
   <i name="HFSCREEN">      0.18000000</i>
   <i name="HFSCREENC">      0.18000000</i>
   <i type="int" name="NBANDSGWLOW">     1</i>
  </separator>
  <separator name="vdW DFT" >
   <i type="logical" name="LUSE_VDW"> F  </i>
   <i type="int" name="IVDW_NL">     1</i>
   <i type="logical" name="LSPIN_VDW"> F  </i>
   <i name="Zab_VDW">     -0.84910000</i>
   <i name="PARAM1">      0.12340000</i>
   <i name="PARAM2">      1.00000000</i>
   <i name="PARAM3">      0.00000000</i>
  </separator>
  <separator name="model GW" >
   <i type="int" name="MODEL_GW">     0</i>
   <i name="MODEL_EPS0">      6.39733692</i>
   <i name="MODEL_ALPHA">      1.00000000</i>
  </separator>
  <separator name="linear response parameters" >
   <i type="logical" name="LEPSILON"> F  </i>
   <i type="logical" name="LRPA"> F  </i>
   <i type="logical" name="LNABLA"> F  </i>
   <i type="logical" name="LVEL"> F  </i>
   <i name="CSHIFT">      0.10000000</i>
   <i name="OMEGAMAX">     -1.00000000</i>
   <i name="DEG_THRESHOLD">      0.00200000</i>
   <i name="RTIME">     -0.10000000</i>
   <i name="WPLASMAI">      0.00000000</i>
   <v name="DFIELD">      0.00000000      0.00000000      0.00000000</v>
   <v name="WPLASMA">      0.00000000      0.00000000      0.00000000      0.00000000      0.00000000      0.00000000      0.00000000      0.00000000      0.00000000</v>
  </separator>
  <separator name="orbital magnetization" >
   <i type="logical" name="NUCIND"> F  </i>
   <v name="MAGPOS">      0.00000000      0.00000000      0.00000000</v>
   <i type="logical" name="LNICSALL"> T  </i>
   <i type="logical" name="ORBITALMAG"> F  </i>
   <i type="logical" name="LMAGBLOCH"> F  </i>
   <i type="logical" name="LCHIMAG"> F  </i>
   <i type="logical" name="LGAUGE"> T  </i>
   <i type="int" name="MAGATOM">     0</i>
   <v name="MAGDIPOL">      0.00000000      0.00000000      0.00000000</v>
   <v name="AVECCONST">      0.00000000      0.00000000      0.00000000</v>
  </separator>
  <separator name="response functions" >
   <i type="logical" name="LALL_IN_ONE"> F  </i>
   <i type="int" name="IALL_IN_ONE">    -1</i>
   <i type="int" name="NBANDS_WAVE">    -1</i>
   <i type="logical" name="LFINITE_TEMPERATURE"> F  </i>
   <i type="logical" name="LADDER"> F  </i>
   <i type="logical" name="LRPAFORCE"> F  </i>
   <i type="logical" name="LFXC"> F  </i>
   <i type="logical" name="LHARTREE"> T  </i>
   <i type="int" name="IBSE">     0</i>
   <v type="int" name="KPOINT">    -1     0     0     0</v>
   <i type="logical" name="LTCTC"> F  </i>
   <i type="logical" name="LTCTE"> F  </i>
   <i type="logical" name="LTETE"> F  </i>
   <i type="logical" name="LTRIPLET"> F  </i>
   <i type="logical" name="LFXCEPS"> F  </i>
   <i type="logical" name="LFXHEG"> F  </i>
   <i type="int" name="NATURALO">     2</i>
   <i type="logical" name="LHOLEGF"> F  </i>
   <i type="logical" name="L2ORDER"> F  </i>
   <i type="logical" name="LDMP1"> F  </i>
   <i type="logical" name="LMP2LT"> F  </i>
   <i type="logical" name="LSMP2LT"> F  </i>
   <i type="logical" name="LGWLF"> F  </i>
   <i name="ENCUTGW">     -1.60000002</i>
   <i name="ENCUTGWSOFT">     -1.60000002</i>
   <i name="ENCUTLF">     -1.00000000</i>
   <i type="logical" name="LESF_SPLINES"> F  </i>
   <i type="int" name="LMAXMP2">    -1</i>
   <i name="SCISSOR">      0.00000000</i>
   <i type="int" name="NOMEGA">     0</i>
   <i type="int" name="NOMEGAR">     0</i>
   <i type="int" name="NBANDSGW">    -1</i>
   <i type="int" name="NBANDSO">    -1</i>
   <i type="int" name="NBANDSV">    -1</i>
   <i type="int" name="NELMGW">     1</i>
   <i type="int" name="NELMHF">     1</i>
   <i type="int" name="DIM">     3</i>
   <i type="int" name="IESPILON">     4</i>
   <i type="int" name="ANTIRES">     0</i>
   <i name="OMEGAMAX">    -30.00000000</i>
   <i name="OMEGAMIN">    -30.00000000</i>
   <i name="OMEGATL">   -200.00000000</i>
   <i type="int" name="OMEGAGRID">     0</i>
   <i name="CSHIFT">     -0.10000000</i>
   <i type="logical" name="LSELFENERGY"> F  </i>
   <i type="logical" name="LSPECTRAL"> F  </i>
   <i type="logical" name="LSPECTRALGW"> F  </i>
   <i type="logical" name="LSINGLES"> F  </i>
   <i type="logical" name="LFERMIGW"> F  </i>
   <i type="logical" name="ODDONLYGW"> F  </i>
   <i type="logical" name="EVENONLYGW"> F  </i>
   <i type="int" name="NKREDLFX">     1</i>
   <i type="int" name="NKREDLFY">     1</i>
   <i type="int" name="NKREDLFZ">     1</i>
   <i type="int" name="MAXMEM">  2800</i>
   <i type="int" name="TELESCOPE">     0</i>
   <i type="int" name="NTAUPAR">    -1</i>
   <i type="int" name="NOMEGAPAR">    -1</i>
   <i name="DAMP_NEWTON">      0.80000001</i>
   <i name="LAMBDA">      1.00000000</i>
  </separator>
  <separator name="External order field" >
   <i name="OFIELD_KAPPA">      0.00000000</i>
   <v name="OFIELD_K">      0.00000000      0.00000000      0.00000000</v>
   <i name="OFIELD_Q6_NEAR">      0.00000000</i>
   <i name="OFIELD_Q6_FAR">      0.00000000</i>
   <i name="OFIELD_A">      0.00000000</i>
  </separator>
  <separator name="optional k-points parameters" >
   <i type="int" name="KPOINTS_OPT_MODE">     1</i>
   <i type="logical" name="LKPOINTS_OPT"> F  </i>
  </separator>
 </parameters>
 <atominfo>
  <atoms>     119 </atoms>
  <types>       2 </types>
  <array name="atoms" >
   <dimension dim="1">ion</dimension>
   <field type="string">element</field>
   <field type="int">atomtype</field>
   <set>
    <rc><c>Ga</c><c>   1</c></rc>
    <rc><c>Ga</c><c>   1</c></rc>
    <rc><c>Ga</c><c>   1</c></rc>
    <rc><c>Ga</c><c>   1</c></rc>
    <rc><c>Ga</c><c>   1</c></rc>
    <rc><c>Ga</c><c>   1</c></rc>
    <rc><c>Ga</c><c>   1</c></rc>
    <rc><c>Ga</c><c>   1</c></rc>
    <rc><c>Ga</c><c>   1</c></rc>
    <rc><c>Ga</c><c>   1</c></rc>
    <rc><c>Ga</c><c>   1</c></rc>
    <rc><c>Ga</c><c>   1</c></rc>
    <rc><c>Ga</c><c>   1</c></rc>
    <rc><c>Ga</c><c>   1</c></rc>
    <rc><c>Ga</c><c>   1</c></rc>
    <rc><c>Ga</c><c>   1</c></rc>
    <rc><c>Ga</c><c>   1</c></rc>
    <rc><c>Ga</c><c>   1</c></rc>
    <rc><c>Ga</c><c>   1</c></rc>
    <rc><c>Ga</c><c>   1</c></rc>
    <rc><c>Ga</c><c>   1</c></rc>
    <rc><c>Ga</c><c>   1</c></rc>
    <rc><c>Ga</c><c>   1</c></rc>
    <rc><c>Ga</c><c>   1</c></rc>
    <rc><c>Ga</c><c>   1</c></rc>
    <rc><c>Ga</c><c>   1</c></rc>
    <rc><c>Ga</c><c>   1</c></rc>
    <rc><c>Ga</c><c>   1</c></rc>
    <rc><c>Ga</c><c>   1</c></rc>
    <rc><c>Ga</c><c>   1</c></rc>
    <rc><c>Ga</c><c>   1</c></rc>
    <rc><c>Ga</c><c>   1</c></rc>
    <rc><c>Ga</c><c>   1</c></rc>
    <rc><c>Ga</c><c>   1</c></rc>
    <rc><c>Ga</c><c>   1</c></rc>
    <rc><c>Ga</c><c>   1</c></rc>
    <rc><c>Ga</c><c>   1</c></rc>
    <rc><c>Ga</c><c>   1</c></rc>
    <rc><c>Ga</c><c>   1</c></rc>
    <rc><c>Ga</c><c>   1</c></rc>
    <rc><c>Ga</c><c>   1</c></rc>
    <rc><c>Ga</c><c>   1</c></rc>
    <rc><c>Ga</c><c>   1</c></rc>
    <rc><c>Ga</c><c>   1</c></rc>
    <rc><c>Ga</c><c>   1</c></rc>
    <rc><c>Ga</c><c>   1</c></rc>
    <rc><c>Ga</c><c>   1</c></rc>
    <rc><c>O </c><c>   2</c></rc>
    <rc><c>O </c><c>   2</c></rc>
    <rc><c>O </c><c>   2</c></rc>
    <rc><c>O </c><c>   2</c></rc>
    <rc><c>O </c><c>   2</c></rc>
    <rc><c>O </c><c>   2</c></rc>
    <rc><c>O </c><c>   2</c></rc>
    <rc><c>O </c><c>   2</c></rc>
    <rc><c>O </c><c>   2</c></rc>
    <rc><c>O </c><c>   2</c></rc>
    <rc><c>O </c><c>   2</c></rc>
    <rc><c>O </c><c>   2</c></rc>
    <rc><c>O </c><c>   2</c></rc>
    <rc><c>O </c><c>   2</c></rc>
    <rc><c>O </c><c>   2</c></rc>
    <rc><c>O </c><c>   2</c></rc>
    <rc><c>O </c><c>   2</c></rc>
    <rc><c>O </c><c>   2</c></rc>
    <rc><c>O </c><c>   2</c></rc>
    <rc><c>O </c><c>   2</c></rc>
    <rc><c>O </c><c>   2</c></rc>
    <rc><c>O </c><c>   2</c></rc>
    <rc><c>O </c><c>   2</c></rc>
    <rc><c>O </c><c>   2</c></rc>
    <rc><c>O </c><c>   2</c></rc>
    <rc><c>O </c><c>   2</c></rc>
    <rc><c>O </c><c>   2</c></rc>
    <rc><c>O </c><c>   2</c></rc>
    <rc><c>O </c><c>   2</c></rc>
    <rc><c>O </c><c>   2</c></rc>
    <rc><c>O </c><c>   2</c></rc>
    <rc><c>O </c><c>   2</c></rc>
    <rc><c>O </c><c>   2</c></rc>
    <rc><c>O </c><c>   2</c></rc>
    <rc><c>O </c><c>   2</c></rc>
    <rc><c>O </c><c>   2</c></rc>
    <rc><c>O </c><c>   2</c></rc>
    <rc><c>O </c><c>   2</c></rc>
    <rc><c>O </c><c>   2</c></rc>
    <rc><c>O </c><c>   2</c></rc>
    <rc><c>O </c><c>   2</c></rc>
    <rc><c>O </c><c>   2</c></rc>
    <rc><c>O </c><c>   2</c></rc>
    <rc><c>O </c><c>   2</c></rc>
    <rc><c>O </c><c>   2</c></rc>
    <rc><c>O </c><c>   2</c></rc>
    <rc><c>O </c><c>   2</c></rc>
    <rc><c>O </c><c>   2</c></rc>
    <rc><c>O </c><c>   2</c></rc>
    <rc><c>O </c><c>   2</c></rc>
    <rc><c>O </c><c>   2</c></rc>
    <rc><c>O </c><c>   2</c></rc>
    <rc><c>O </c><c>   2</c></rc>
    <rc><c>O </c><c>   2</c></rc>
    <rc><c>O </c><c>   2</c></rc>
    <rc><c>O </c><c>   2</c></rc>
    <rc><c>O </c><c>   2</c></rc>
    <rc><c>O </c><c>   2</c></rc>
    <rc><c>O </c><c>   2</c></rc>
    <rc><c>O </c><c>   2</c></rc>
    <rc><c>O </c><c>   2</c></rc>
    <rc><c>O </c><c>   2</c></rc>
    <rc><c>O </c><c>   2</c></rc>
    <rc><c>O </c><c>   2</c></rc>
    <rc><c>O </c><c>   2</c></rc>
    <rc><c>O </c><c>   2</c></rc>
    <rc><c>O </c><c>   2</c></rc>
    <rc><c>O </c><c>   2</c></rc>
    <rc><c>O </c><c>   2</c></rc>
    <rc><c>O </c><c>   2</c></rc>
    <rc><c>O </c><c>   2</c></rc>
    <rc><c>O </c><c>   2</c></rc>
   </set>
  </array>
  <array name="atomtypes" >
   <dimension dim="1">type</dimension>
   <field type="int">atomspertype</field>
   <field type="string">element</field>
   <field>mass</field>
   <field>valence</field>
   <field type="string">pseudopotential</field>
   <set>
    <rc><c>  47</c><c>Ga</c><c>     69.72300000</c><c>     13.00000000</c><c>  PAW_PBE Ga_d 06Jul2010                </c></rc>
    <rc><c>  72</c><c>O </c><c>     16.00000000</c><c>      6.00000000</c><c>  PAW_PBE O 08Apr2002                   </c></rc>
   </set>
  </array>
 </atominfo>
 <structure name="initialpos" >
  <crystal>
   <varray name="basis" >
    <v>       0.00000000      12.28047342       0.00000000 </v>
    <v>       9.14270205       0.00000000       0.00000000 </v>
    <v>       0.00000000      -2.76826177     -11.30069772 </v>
   </varray>
   <i name="volume">   1268.80515525 </i>
   <varray name="rec_basis" >
    <v>       0.00000000       0.08143009      -0.01994742 </v>
    <v>       0.10937686      -0.00000000       0.00000000 </v>
    <v>       0.00000000       0.00000000      -0.08849011 </v>
   </varray>
  </crystal>
  <varray name="positions" >
   <v>       0.66111882       0.00006166       0.15791890 </v>
   <v>       0.65816862       0.00028259       0.65546779 </v>
   <v>       0.66171156       0.33333333       0.15834412 </v>
   <v>       0.65805543       0.33333333       0.65507326 </v>
   <v>       0.66111882       0.66660501       0.15791890 </v>
   <v>       0.65816862       0.66638408       0.65546779 </v>
   <v>       0.84341632       0.16710099       0.34444804 </v>
   <v>       0.84028454       0.16719618       0.84256033 </v>
   <v>       0.84341632       0.49956568       0.34444804 </v>
   <v>       0.84028454       0.49947049       0.84256033 </v>
   <v>       0.84218338       0.83333333       0.34425296 </v>
   <v>       0.83983557       0.83333333       0.84242805 </v>
   <v>       0.58910643       0.17033043       0.39581358 </v>
   <v>       0.59210173       0.16649431       0.89788334 </v>
   <v>       0.58910643       0.49633624       0.39581358 </v>
   <v>       0.59210173       0.50017236       0.89788334 </v>
   <v>       0.59036158       0.83333333       0.39712202 </v>
   <v>       0.59278784       0.83333333       0.89864598 </v>
   <v>       0.90878182       0.00028605       0.10171453 </v>
   <v>       0.90952004       0.00013192       0.60297146 </v>
   <v>       0.91102480       0.33333333       0.10270135 </v>
   <v>       0.91002083       0.33333333       0.60271749 </v>
   <v>       0.90878182       0.66638061       0.10171453 </v>
   <v>       0.90952004       0.66653474       0.60297146 </v>
   <v>       0.16318792       0.16960134       0.16109644 </v>
   <v>       0.16016040       0.16703497       0.65816303 </v>
   <v>       0.16318792       0.49706532       0.16109644 </v>
   <v>       0.16016040       0.49963169       0.65816303 </v>
   <v>       0.15841957       0.83333333       0.15790966 </v>
   <v>       0.16010443       0.83333333       0.65972673 </v>
   <v>       0.33994053       0.00391574       0.34078920 </v>
   <v>       0.34271447       0.00016343       0.84403055 </v>
   <v>       0.34207034       0.33333333       0.84371657 </v>
   <v>       0.33994053       0.66275092       0.34078920 </v>
   <v>       0.34271447       0.66650324       0.84403055 </v>
   <v>       0.09193926       0.00051796       0.39761167 </v>
   <v>       0.08997964       0.00019149       0.89740231 </v>
   <v>       0.09873370       0.33333333       0.39706467 </v>
   <v>       0.09104337       0.33333333       0.89823402 </v>
   <v>       0.09193926       0.66614871       0.39761167 </v>
   <v>       0.08997964       0.66647518       0.89740231 </v>
   <v>       0.40981616       0.16579533       0.10497427 </v>
   <v>       0.40572104       0.16634412       0.59825407 </v>
   <v>       0.40981616       0.50087134       0.10497427 </v>
   <v>       0.40572104       0.50032255       0.59825407 </v>
   <v>       0.40998373       0.83333333       0.10395615 </v>
   <v>       0.40872426       0.83333333       0.60055225 </v>
   <v>       0.99693340       0.16580364       0.12442406 </v>
   <v>       0.99734499       0.16649373       0.62892118 </v>
   <v>       0.99693340       0.50086303       0.12442406 </v>
   <v>       0.99734499       0.50017294       0.62892118 </v>
   <v>       0.99486971       0.83333333       0.12577253 </v>
   <v>       0.99706682       0.83333333       0.62950934 </v>
   <v>       0.50382878       0.00090604       0.37317578 </v>
   <v>       0.50515242       0.99962974       0.87318525 </v>
   <v>       0.50020452       0.33333333       0.37122535 </v>
   <v>       0.50488044       0.33333333       0.87252198 </v>
   <v>       0.50382878       0.66576062       0.37317578 </v>
   <v>       0.50515242       0.66703692       0.87318525 </v>
   <v>       0.67432431       0.16639246       0.28077826 </v>
   <v>       0.67198803       0.16768626       0.77950249 </v>
   <v>       0.67432431       0.50027421       0.28077826 </v>
   <v>       0.67198803       0.49898040       0.77950249 </v>
   <v>       0.67391026       0.83333333       0.28145293 </v>
   <v>       0.67238819       0.83333333       0.77990153 </v>
   <v>       0.82903336       0.00042248       0.22037867 </v>
   <v>       0.82674747       0.00037631       0.71888343 </v>
   <v>       0.82965694       0.33333333       0.22019316 </v>
   <v>       0.82701138       0.33333333       0.71868464 </v>
   <v>       0.82903336       0.66624419       0.22037867 </v>
   <v>       0.82674747       0.66629035       0.71888343 </v>
   <v>       0.83350318       0.00025141       0.44650264 </v>
   <v>       0.83117029       0.00033988       0.94496116 </v>
   <v>       0.83270607       0.33333333       0.44654353 </v>
   <v>       0.83215414       0.33333333       0.94589319 </v>
   <v>       0.83350318       0.66641526       0.44650264 </v>
   <v>       0.83117029       0.66632679       0.94496116 </v>
   <v>       0.66861728       0.16727096       0.05459229 </v>
   <v>       0.66715319       0.16664095       0.55324896 </v>
   <v>       0.66861728       0.49939571       0.05459229 </v>
   <v>       0.66715319       0.50002572       0.55324896 </v>
   <v>       0.67074523       0.83333333       0.05493544 </v>
   <v>       0.66753909       0.83333333       0.55376233 </v>
   <v>       0.49917087       0.99927604       0.12692229 </v>
   <v>       0.49621920       0.00074592       0.62803521 </v>
   <v>       0.49777795       0.33333333       0.13314310 </v>
   <v>       0.49356221       0.33333333       0.62083230 </v>
   <v>       0.49917087       0.66739063       0.12692229 </v>
   <v>       0.49621920       0.66592075       0.62803521 </v>
   <v>       0.00580992       0.16814971       0.37516335 </v>
   <v>       0.00280335       0.16707673       0.87114173 </v>
   <v>       0.00580992       0.49851695       0.37516335 </v>
   <v>       0.00280335       0.49958993       0.87114173 </v>
   <v>       0.00414564       0.83333333       0.37474879 </v>
   <v>       0.00234755       0.83333333       0.87074703 </v>
   <v>       0.16912188       0.99675148       0.27855822 </v>
   <v>       0.17365884       0.00011100       0.78210242 </v>
   <v>       0.16179821       0.33333333       0.27009922 </v>
   <v>       0.17343989       0.33333333       0.78179944 </v>
   <v>       0.16912188       0.66991519       0.27855822 </v>
   <v>       0.17365884       0.66655567       0.78210242 </v>
   <v>       0.32477075       0.14757264       0.21327691 </v>
   <v>       0.32856136       0.16690372       0.72057354 </v>
   <v>       0.32477075       0.51909402       0.21327691 </v>
   <v>       0.32856136       0.49976294       0.72057354 </v>
   <v>       0.32746054       0.83333333       0.21906535 </v>
   <v>       0.32836781       0.83333333       0.71972841 </v>
   <v>       0.31438380       0.14825078       0.45076105 </v>
   <v>       0.33574815       0.16703191       0.94685884 </v>
   <v>       0.31438380       0.51841589       0.45076105 </v>
   <v>       0.33574815       0.49963476       0.94685884 </v>
   <v>       0.33248900       0.83333333       0.44401145 </v>
   <v>       0.33410827       0.83333333       0.94655806 </v>
   <v>       0.16482124       0.99957053       0.05358543 </v>
   <v>       0.16638505       0.99908837       0.55585349 </v>
   <v>       0.17067248       0.33333333       0.05266579 </v>
   <v>       0.16805792       0.33333333       0.55615267 </v>
   <v>       0.16482124       0.66709614       0.05358543 </v>
   <v>       0.16638505       0.66757829       0.55585349 </v>
  </varray>
 </structure>
 <calculation>
  <scstep>
   <time name="total">    3.97    3.99</time>
   <energy>
    <i name="alphaZ">   5383.97153279 </i>
    <i name="ewald"> -86595.13791234 </i>
    <i name="hartreedc">  -2066.54747422 </i>
    <i name="XCdc">   2766.20300693 </i>
    <i name="pawpsdc">  54212.40881321 </i>
    <i name="pawaedc"> -85387.54134156 </i>
    <i name="eentropy">     -0.01005563 </i>
    <i name="bandstr"> -41136.45351974 </i>
    <i name="atom"> 131713.61575125 </i>
    <i name="e_fr_energy"> -21109.49119931 </i>
    <i name="e_wo_entrp"> -21109.48114368 </i>
    <i name="e_0_energy"> -21109.48617150 </i>
   </energy>
  </scstep>
  <scstep>
   <time name="total">    3.52    3.52</time>
   <energy>
    <i name="e_fr_energy"> -65533.10296625 </i>
    <i name="e_wo_entrp"> -65533.08800033 </i>
    <i name="e_0_energy"> -65533.09548329 </i>
   </energy>
  </scstep>
  <scstep>
   <time name="total">    3.36    3.36</time>
   <energy>
    <i name="e_fr_energy"> -70626.89651843 </i>
    <i name="e_wo_entrp"> -70626.86938710 </i>
    <i name="e_0_energy"> -70626.88295276 </i>
   </energy>
  </scstep>
  <scstep>
   <time name="total">    3.96    3.96</time>
   <energy>
    <i name="e_fr_energy"> -71427.32308706 </i>
    <i name="e_wo_entrp"> -71427.29903298 </i>
    <i name="e_0_energy"> -71427.31106002 </i>
   </energy>
  </scstep>
  <scstep>
   <time name="total">  230.62  230.58</time>
   <energy>
    <i name="e_fr_energy"> -39129.54664875 </i>
    <i name="e_wo_entrp"> -39129.52672409 </i>
    <i name="e_0_energy"> -39129.53668642 </i>
   </energy>
  </scstep>
  <scstep>
   <time name="total">  459.78  459.70</time>
   <energy>
    <i name="e_fr_energy">  30732.07783540 </i>
    <i name="e_wo_entrp">  30732.07995511 </i>
    <i name="e_0_energy">  30732.07889525 </i>
   </energy>
  </scstep>
  <scstep>
   <time name="total">  461.53  461.44</time>
   <energy>
    <i name="e_fr_energy">   8956.68099066 </i>
    <i name="e_wo_entrp">   8956.70487893 </i>
    <i name="e_0_energy">   8956.69293480 </i>
   </energy>
  </scstep>
  <scstep>
   <time name="total">  460.83  460.74</time>
   <energy>
    <i name="e_fr_energy">   4129.24557454 </i>
    <i name="e_wo_entrp">   4129.27308625 </i>
    <i name="e_0_energy">   4129.25933039 </i>
   </energy>
  </scstep>
  <scstep>
   <time name="total">  459.76  459.68</time>
   <energy>
    <i name="e_fr_energy">   2778.91065801 </i>
    <i name="e_wo_entrp">   2778.91716104 </i>
    <i name="e_0_energy">   2778.91390952 </i>
   </energy>
  </scstep>
  <scstep>
   <time name="total">  459.30  459.22</time>
   <energy>
    <i name="e_fr_energy">   1352.39755472 </i>
    <i name="e_wo_entrp">   1352.40418619 </i>
    <i name="e_0_energy">   1352.40087045 </i>
   </energy>
  </scstep>
  <scstep>
   <time name="total">  459.88  459.81</time>
   <energy>
    <i name="e_fr_energy">    272.82225742 </i>
    <i name="e_wo_entrp">    272.83054529 </i>
    <i name="e_0_energy">    272.82640135 </i>
   </energy>
  </scstep>
  <scstep>
   <time name="total">  459.70  459.62</time>
   <energy>
    <i name="e_fr_energy">   -344.08342574 </i>
    <i name="e_wo_entrp">   -344.07452827 </i>
    <i name="e_0_energy">   -344.07897700 </i>
   </energy>
  </scstep>
  <scstep>
   <time name="total">  459.77  459.69</time>
   <energy>
    <i name="e_fr_energy">   -656.30760984 </i>
    <i name="e_wo_entrp">   -656.29702715 </i>
    <i name="e_0_energy">   -656.30231849 </i>
   </energy>
  </scstep>
  <scstep>
   <time name="total">  459.18  459.11</time>
   <energy>
    <i name="e_fr_energy">   -818.81228249 </i>
    <i name="e_wo_entrp">   -818.80365430 </i>
    <i name="e_0_energy">   -818.80796840 </i>
   </energy>
  </scstep>
  <scstep>
   <time name="total">  459.81  459.74</time>
   <energy>
    <i name="e_fr_energy">   -888.95456621 </i>
    <i name="e_wo_entrp">   -888.94887885 </i>
    <i name="e_0_energy">   -888.95172253 </i>
   </energy>
  </scstep>
  <scstep>
   <time name="total">  459.20  459.12</time>
   <energy>
    <i name="e_fr_energy">   -923.70825575 </i>
    <i name="e_wo_entrp">   -923.70301180 </i>
    <i name="e_0_energy">   -923.70563377 </i>
   </energy>
  </scstep>
  <scstep>
   <time name="total">  459.31  459.23</time>
   <energy>
    <i name="e_fr_energy">   -943.12732810 </i>
    <i name="e_wo_entrp">   -943.11731619 </i>
    <i name="e_0_energy">   -943.12232215 </i>
   </energy>
  </scstep>
  <scstep>
   <time name="total">  460.32  460.24</time>
   <energy>
    <i name="e_fr_energy">   -954.14374409 </i>
    <i name="e_wo_entrp">   -954.12718733 </i>
    <i name="e_0_energy">   -954.13546571 </i>
   </energy>
  </scstep>
  <scstep>
   <time name="total">  460.39  460.31</time>
   <energy>
    <i name="e_fr_energy">   -959.92908584 </i>
    <i name="e_wo_entrp">   -959.89335806 </i>
    <i name="e_0_energy">   -959.91122195 </i>
   </energy>
  </scstep>
  <scstep>
   <time name="total">  459.76  459.68</time>
   <energy>
    <i name="e_fr_energy">   -962.04518384 </i>
    <i name="e_wo_entrp">   -962.00153282 </i>
    <i name="e_0_energy">   -962.02335833 </i>
   </energy>
  </scstep>
  <scstep>
   <time name="total">  460.46  460.39</time>
   <energy>
    <i name="e_fr_energy">   -964.32637321 </i>
    <i name="e_wo_entrp">   -964.28769889 </i>
    <i name="e_0_energy">   -964.30703605 </i>
   </energy>
  </scstep>
  <scstep>
   <time name="total">  459.87  459.80</time>
   <energy>
    <i name="e_fr_energy">   -965.20080789 </i>
    <i name="e_wo_entrp">   -965.16477282 </i>
    <i name="e_0_energy">   -965.18279036 </i>
   </energy>
  </scstep>
  <scstep>
   <time name="total">  460.78  460.71</time>
   <energy>
    <i name="e_fr_energy">   -965.90669403 </i>
    <i name="e_wo_entrp">   -965.87198123 </i>
    <i name="e_0_energy">   -965.88933763 </i>
   </energy>
  </scstep>
  <scstep>
   <time name="total">  460.39  460.33</time>
   <energy>
    <i name="e_fr_energy">   -966.45741050 </i>
    <i name="e_wo_entrp">   -966.41908731 </i>
    <i name="e_0_energy">   -966.43824890 </i>
   </energy>
  </scstep>
  <scstep>
   <time name="total">  459.97  459.90</time>
   <energy>
    <i name="e_fr_energy">   -966.80168753 </i>
    <i name="e_wo_entrp">   -966.76092971 </i>
    <i name="e_0_energy">   -966.78130862 </i>
   </energy>
  </scstep>
  <scstep>
   <time name="total">  460.36  460.29</time>
   <energy>
    <i name="e_fr_energy">   -966.94754172 </i>
    <i name="e_wo_entrp">   -966.90715809 </i>
    <i name="e_0_energy">   -966.92734991 </i>
   </energy>
  </scstep>
  <scstep>
   <time name="total">  459.96  459.91</time>
   <energy>
    <i name="e_fr_energy">   -967.20201950 </i>
    <i name="e_wo_entrp">   -967.16616370 </i>
    <i name="e_0_energy">   -967.18409160 </i>
   </energy>
  </scstep>
  <scstep>
   <time name="total">  460.18  460.11</time>
   <energy>
    <i name="e_fr_energy">   -967.63203976 </i>
    <i name="e_wo_entrp">   -967.60375520 </i>
    <i name="e_0_energy">   -967.61789748 </i>
   </energy>
  </scstep>
  <scstep>
   <time name="total">  460.13  460.05</time>
   <energy>
    <i name="e_fr_energy">   -967.89865994 </i>
    <i name="e_wo_entrp">   -967.87548529 </i>
    <i name="e_0_energy">   -967.88707261 </i>
   </energy>
  </scstep>
  <scstep>
   <time name="total">  460.44  460.37</time>
   <energy>
    <i name="e_fr_energy">   -968.20590662 </i>
    <i name="e_wo_entrp">   -968.18461138 </i>
    <i name="e_0_energy">   -968.19525900 </i>
   </energy>
  </scstep>
  <scstep>
   <time name="total">  460.11  460.04</time>
   <energy>
    <i name="e_fr_energy">   -968.52236931 </i>
    <i name="e_wo_entrp">   -968.50084285 </i>
    <i name="e_0_energy">   -968.51160608 </i>
   </energy>
  </scstep>
  <scstep>
   <time name="total">  460.44  460.37</time>
   <energy>
    <i name="e_fr_energy">   -968.84348345 </i>
    <i name="e_wo_entrp">   -968.81986219 </i>
    <i name="e_0_energy">   -968.83167282 </i>
   </energy>
  </scstep>
  <scstep>
   <time name="total">  460.11  460.03</time>
   <energy>
    <i name="e_fr_energy">   -969.08084340 </i>
    <i name="e_wo_entrp">   -969.05622391 </i>
    <i name="e_0_energy">   -969.06853366 </i>
   </energy>
  </scstep>
  <scstep>
   <time name="total">  460.35  460.27</time>
   <energy>
    <i name="e_fr_energy">   -969.30305946 </i>
    <i name="e_wo_entrp">   -969.28011424 </i>
    <i name="e_0_energy">   -969.29158685 </i>
   </energy>
  </scstep>
  <scstep>
   <time name="total">  460.35  460.35</time>
   <energy>
    <i name="e_fr_energy">   -969.51893529 </i>
    <i name="e_wo_entrp">   -969.49721599 </i>
    <i name="e_0_energy">   -969.50807564 </i>
   </energy>
  </scstep>
  <scstep>
   <time name="total">  460.20  460.19</time>
   <energy>
    <i name="e_fr_energy">   -969.78038729 </i>
    <i name="e_wo_entrp">   -969.76053076 </i>
    <i name="e_0_energy">   -969.77045903 </i>
   </energy>
  </scstep>
  <scstep>
   <time name="total">  460.08  460.06</time>
   <energy>
    <i name="e_fr_energy">   -969.93461948 </i>
    <i name="e_wo_entrp">   -969.91332074 </i>
    <i name="e_0_energy">   -969.92397011 </i>
   </energy>
  </scstep>
  <scstep>
   <time name="total">  460.45  460.40</time>
   <energy>
    <i name="e_fr_energy">   -970.19082151 </i>
    <i name="e_wo_entrp">   -970.17230177 </i>
    <i name="e_0_energy">   -970.18156164 </i>
   </energy>
  </scstep>
  <scstep>
   <time name="total">  459.97  459.91</time>
   <energy>
    <i name="e_fr_energy">   -970.44848521 </i>
    <i name="e_wo_entrp">   -970.43341841 </i>
    <i name="e_0_energy">   -970.44095181 </i>
   </energy>
  </scstep>
  <scstep>
   <time name="total">  460.35  460.32</time>
   <energy>
    <i name="e_fr_energy">   -970.54385412 </i>
    <i name="e_wo_entrp">   -970.52959197 </i>
    <i name="e_0_energy">   -970.53672305 </i>
   </energy>
  </scstep>
  <scstep>
   <time name="total">  460.35  460.32</time>
   <energy>
    <i name="e_fr_energy">   -970.61777345 </i>
    <i name="e_wo_entrp">   -970.60738221 </i>
    <i name="e_0_energy">   -970.61257783 </i>
   </energy>
  </scstep>
  <scstep>
   <time name="total">  460.05  460.03</time>
   <energy>
    <i name="e_fr_energy">   -970.65927908 </i>
    <i name="e_wo_entrp">   -970.65204867 </i>
    <i name="e_0_energy">   -970.65566387 </i>
   </energy>
  </scstep>
  <scstep>
   <time name="total">  460.48  460.46</time>
   <energy>
    <i name="e_fr_energy">   -970.67679231 </i>
    <i name="e_wo_entrp">   -970.67163029 </i>
    <i name="e_0_energy">   -970.67421130 </i>
   </energy>
  </scstep>
  <scstep>
   <time name="total">  460.04  460.02</time>
   <energy>
    <i name="e_fr_energy">   -970.69069516 </i>
    <i name="e_wo_entrp">   -970.68750494 </i>
    <i name="e_0_energy">   -970.68910005 </i>
   </energy>
  </scstep>
  <scstep>
   <time name="total">  460.71  460.68</time>
   <energy>
    <i name="e_fr_energy">   -970.69728772 </i>
    <i name="e_wo_entrp">   -970.69559090 </i>
    <i name="e_0_energy">   -970.69643931 </i>
   </energy>
  </scstep>
  <scstep>
   <time name="total">  459.99  459.95</time>
   <energy>
    <i name="e_fr_energy">   -970.70324889 </i>
    <i name="e_wo_entrp">   -970.70209477 </i>
    <i name="e_0_energy">   -970.70267183 </i>
   </energy>
  </scstep>
  <scstep>
   <time name="total">  460.25  460.22</time>
   <energy>
    <i name="e_fr_energy">   -970.70750747 </i>
    <i name="e_wo_entrp">   -970.70668132 </i>
    <i name="e_0_energy">   -970.70709439 </i>
   </energy>
  </scstep>
  <scstep>
   <time name="total">  459.90  459.89</time>
   <energy>
    <i name="e_fr_energy">   -970.71319783 </i>
    <i name="e_wo_entrp">   -970.71223871 </i>
    <i name="e_0_energy">   -970.71271827 </i>
   </energy>
  </scstep>
  <scstep>
   <time name="total">  459.62  459.60</time>
   <energy>
    <i name="e_fr_energy">   -970.71995421 </i>
    <i name="e_wo_entrp">   -970.71883082 </i>
    <i name="e_0_energy">   -970.71939252 </i>
   </energy>
  </scstep>
  <scstep>
   <time name="total">  459.57  459.57</time>
   <energy>
    <i name="e_fr_energy">   -970.72657593 </i>
    <i name="e_wo_entrp">   -970.72548107 </i>
    <i name="e_0_energy">   -970.72602850 </i>
   </energy>
  </scstep>
  <scstep>
   <time name="total">  460.10  460.07</time>
   <energy>
    <i name="e_fr_energy">   -970.73163298 </i>
    <i name="e_wo_entrp">   -970.73053847 </i>
    <i name="e_0_energy">   -970.73108573 </i>
   </energy>
  </scstep>
  <scstep>
   <time name="total">  460.42  460.40</time>
   <energy>
    <i name="e_fr_energy">   -970.73666548 </i>
    <i name="e_wo_entrp">   -970.73550209 </i>
    <i name="e_0_energy">   -970.73608379 </i>
   </energy>
  </scstep>
  <scstep>
   <time name="total">  459.80  459.79</time>
   <energy>
    <i name="e_fr_energy">   -970.74103842 </i>
    <i name="e_wo_entrp">   -970.73997882 </i>
    <i name="e_0_energy">   -970.74050862 </i>
   </energy>
  </scstep>
  <scstep>
   <time name="total">  460.20  460.17</time>
   <energy>
    <i name="e_fr_energy">   -970.74365986 </i>
    <i name="e_wo_entrp">   -970.74269977 </i>
    <i name="e_0_energy">   -970.74317981 </i>
   </energy>
  </scstep>
  <scstep>
   <time name="total">  459.72  459.70</time>
   <energy>
    <i name="e_fr_energy">   -970.74572686 </i>
    <i name="e_wo_entrp">   -970.74481884 </i>
    <i name="e_0_energy">   -970.74527285 </i>
   </energy>
  </scstep>
  <scstep>
   <time name="total">  460.06  460.05</time>
   <energy>
    <i name="e_fr_energy">   -970.74694668 </i>
    <i name="e_wo_entrp">   -970.74612221 </i>
    <i name="e_0_energy">   -970.74653444 </i>
   </energy>
  </scstep>
  <scstep>
   <time name="total">  459.74  459.72</time>
   <energy>
    <i name="e_fr_energy">   -970.74782403 </i>
    <i name="e_wo_entrp">   -970.74705662 </i>
    <i name="e_0_energy">   -970.74744033 </i>
   </energy>
  </scstep>
  <scstep>
   <time name="total">  459.85  459.84</time>
   <energy>
    <i name="e_fr_energy">   -970.74850921 </i>
    <i name="e_wo_entrp">   -970.74775830 </i>
    <i name="e_0_energy">   -970.74813375 </i>
   </energy>
  </scstep>
  <scstep>
   <time name="total">  459.81  459.81</time>
   <energy>
    <i name="e_fr_energy">   -970.74901861 </i>
    <i name="e_wo_entrp">   -970.74831084 </i>
    <i name="e_0_energy">   -970.74866472 </i>
   </energy>
  </scstep>
  <scstep>
   <time name="total">  459.84  459.80</time>
   <energy>
    <i name="e_fr_energy">   -970.74941142 </i>
    <i name="e_wo_entrp">   -970.74876697 </i>
    <i name="e_0_energy">   -970.74908920 </i>
   </energy>
  </scstep>
  <scstep>
   <time name="total">  460.16  460.14</time>
   <energy>
    <i name="e_fr_energy">   -970.74977573 </i>
    <i name="e_wo_entrp">   -970.74916948 </i>
    <i name="e_0_energy">   -970.74947260 </i>
   </energy>
  </scstep>
  <scstep>
   <time name="total">  460.09  460.10</time>
   <energy>
    <i name="e_fr_energy">   -970.75002488 </i>
    <i name="e_wo_entrp">   -970.74945755 </i>
    <i name="e_0_energy">   -970.74974121 </i>
   </energy>
  </scstep>
  <scstep>
   <time name="total">  459.95  459.91</time>
   <energy>
    <i name="e_fr_energy">   -970.75024623 </i>
    <i name="e_wo_entrp">   -970.74971181 </i>
    <i name="e_0_energy">   -970.74997902 </i>
   </energy>
  </scstep>
  <scstep>
   <time name="total">  459.77  459.74</time>
   <energy>
    <i name="e_fr_energy">   -970.75043603 </i>
    <i name="e_wo_entrp">   -970.74991179 </i>
    <i name="e_0_energy">   -970.75017391 </i>
   </energy>
  </scstep>
  <scstep>
   <time name="total">  460.04  460.02</time>
   <energy>
    <i name="e_fr_energy">   -970.75057153 </i>
    <i name="e_wo_entrp">   -970.75005643 </i>
    <i name="e_0_energy">   -970.75031398 </i>
   </energy>
  </scstep>
  <scstep>
   <time name="total">  459.70  459.73</time>
   <energy>
    <i name="e_fr_energy">   -970.75071574 </i>
    <i name="e_wo_entrp">   -970.75020841 </i>
    <i name="e_0_energy">   -970.75046208 </i>
   </energy>
  </scstep>
  <scstep>
   <time name="total">  459.81  459.82</time>
   <energy>
    <i name="e_fr_energy">   -970.75081607 </i>
    <i name="e_wo_entrp">   -970.75029890 </i>
    <i name="e_0_energy">   -970.75055748 </i>
   </energy>
  </scstep>
  <scstep>
   <time name="total">  460.16  460.14</time>
   <energy>
    <i name="e_fr_energy">   -970.75089828 </i>
    <i name="e_wo_entrp">   -970.75036690 </i>
    <i name="e_0_energy">   -970.75063259 </i>
   </energy>
  </scstep>
  <scstep>
   <time name="total">  459.67  459.64</time>
   <energy>
    <i name="e_fr_energy">   -970.75095546 </i>
    <i name="e_wo_entrp">   -970.75040093 </i>
    <i name="e_0_energy">   -970.75067820 </i>
   </energy>
  </scstep>
  <scstep>
   <time name="total">  459.73  459.71</time>
   <energy>
    <i name="e_fr_energy">   -970.75102337 </i>
    <i name="e_wo_entrp">   -970.75045053 </i>
    <i name="e_0_energy">   -970.75073695 </i>
   </energy>
  </scstep>
  <scstep>
   <time name="total">  459.87  459.86</time>
   <energy>
    <i name="e_fr_energy">   -970.75108576 </i>
    <i name="e_wo_entrp">   -970.75048965 </i>
    <i name="e_0_energy">   -970.75078770 </i>
   </energy>
  </scstep>
  <scstep>
   <time name="total">  459.93  459.90</time>
   <energy>
    <i name="e_fr_energy">   -970.75112257 </i>
    <i name="e_wo_entrp">   -970.75050834 </i>
    <i name="e_0_energy">   -970.75081546 </i>
   </energy>
  </scstep>
  <scstep>
   <time name="total">  459.71  459.69</time>
   <energy>
    <i name="e_fr_energy">   -970.75115129 </i>
    <i name="e_wo_entrp">   -970.75052872 </i>
    <i name="e_0_energy">   -970.75084001 </i>
   </energy>
  </scstep>
  <scstep>
   <time name="total">  459.81  459.79</time>
   <energy>
    <i name="e_fr_energy">   -970.75116493 </i>
    <i name="e_wo_entrp">   -970.75053980 </i>
    <i name="e_0_energy">   -970.75085236 </i>
   </energy>
  </scstep>
  <scstep>
   <time name="total">  685.50  685.45</time>
   <energy>
    <i name="alphaZ">   5383.97153279 </i>
    <i name="ewald"> -86595.13791234 </i>
    <i name="hartreedc"> -34074.85927812 </i>
    <i name="XCdc">   2768.03023941 </i>
    <i name="pawpsdc"> 119630.58413774 </i>
    <i name="pawaedc">-134805.81182468 </i>
    <i name="eentropy">     -0.00062394 </i>
    <i name="bandstr">  -9254.01597694 </i>
    <i name="atom"> 131713.61575125 </i>
    <i name="e_fr_energy">   -970.75117013 </i>
    <i name="e_wo_entrp">   -970.75054618 </i>
    <i name="e_0_energy">   -970.75085815 </i>
   </energy>
  </scstep>
  <structure>
   <crystal>
    <varray name="basis" >
     <v>       0.00000000      12.28047342       0.00000000 </v>
     <v>       9.14270205       0.00000000       0.00000000 </v>
     <v>       0.00000000      -2.76826177     -11.30069772 </v>
    </varray>
    <i name="volume">   1268.80515525 </i>
    <varray name="rec_basis" >
     <v>       0.00000000       0.08143009      -0.01994742 </v>
     <v>       0.10937686      -0.00000000       0.00000000 </v>
     <v>       0.00000000       0.00000000      -0.08849011 </v>
    </varray>
   </crystal>
   <varray name="positions" >
    <v>       0.66111882       0.00006166       0.15791890 </v>
    <v>       0.65816862       0.00028259       0.65546779 </v>
    <v>       0.66171156       0.33333333       0.15834412 </v>
    <v>       0.65805543       0.33333333       0.65507326 </v>
    <v>       0.66111882       0.66660501       0.15791890 </v>
    <v>       0.65816862       0.66638408       0.65546779 </v>
    <v>       0.84341632       0.16710099       0.34444804 </v>
    <v>       0.84028454       0.16719618       0.84256033 </v>
    <v>       0.84341632       0.49956568       0.34444804 </v>
    <v>       0.84028454       0.49947049       0.84256033 </v>
    <v>       0.84218338       0.83333333       0.34425296 </v>
    <v>       0.83983557       0.83333333       0.84242805 </v>
    <v>       0.58910643       0.17033043       0.39581358 </v>
    <v>       0.59210173       0.16649431       0.89788334 </v>
    <v>       0.58910643       0.49633624       0.39581358 </v>
    <v>       0.59210173       0.50017236       0.89788334 </v>
    <v>       0.59036158       0.83333333       0.39712202 </v>
    <v>       0.59278784       0.83333333       0.89864598 </v>
    <v>       0.90878182       0.00028605       0.10171453 </v>
    <v>       0.90952004       0.00013192       0.60297146 </v>
    <v>       0.91102480       0.33333333       0.10270135 </v>
    <v>       0.91002083       0.33333333       0.60271749 </v>
    <v>       0.90878182       0.66638061       0.10171453 </v>
    <v>       0.90952004       0.66653474       0.60297146 </v>
    <v>       0.16318792       0.16960134       0.16109644 </v>
    <v>       0.16016040       0.16703497       0.65816303 </v>
    <v>       0.16318792       0.49706532       0.16109644 </v>
    <v>       0.16016040       0.49963169       0.65816303 </v>
    <v>       0.15841957       0.83333333       0.15790966 </v>
    <v>       0.16010443       0.83333333       0.65972673 </v>
    <v>       0.33994053       0.00391574       0.34078920 </v>
    <v>       0.34271447       0.00016343       0.84403055 </v>
    <v>       0.34207034       0.33333333       0.84371657 </v>
    <v>       0.33994053       0.66275092       0.34078920 </v>
    <v>       0.34271447       0.66650324       0.84403055 </v>
    <v>       0.09193926       0.00051796       0.39761167 </v>
    <v>       0.08997964       0.00019149       0.89740231 </v>
    <v>       0.09873370       0.33333333       0.39706467 </v>
    <v>       0.09104337       0.33333333       0.89823402 </v>
    <v>       0.09193926       0.66614871       0.39761167 </v>
    <v>       0.08997964       0.66647518       0.89740231 </v>
    <v>       0.40981616       0.16579533       0.10497427 </v>
    <v>       0.40572104       0.16634412       0.59825407 </v>
    <v>       0.40981616       0.50087134       0.10497427 </v>
    <v>       0.40572104       0.50032255       0.59825407 </v>
    <v>       0.40998373       0.83333333       0.10395615 </v>
    <v>       0.40872426       0.83333333       0.60055225 </v>
    <v>       0.99693340       0.16580364       0.12442406 </v>
    <v>       0.99734499       0.16649373       0.62892118 </v>
    <v>       0.99693340       0.50086303       0.12442406 </v>
    <v>       0.99734499       0.50017294       0.62892118 </v>
    <v>       0.99486971       0.83333333       0.12577253 </v>
    <v>       0.99706682       0.83333333       0.62950934 </v>
    <v>       0.50382878       0.00090604       0.37317578 </v>
    <v>       0.50515242       0.99962974       0.87318525 </v>
    <v>       0.50020452       0.33333333       0.37122535 </v>
    <v>       0.50488044       0.33333333       0.87252198 </v>
    <v>       0.50382878       0.66576062       0.37317578 </v>
    <v>       0.50515242       0.66703692       0.87318525 </v>
    <v>       0.67432431       0.16639246       0.28077826 </v>
    <v>       0.67198803       0.16768626       0.77950249 </v>
    <v>       0.67432431       0.50027421       0.28077826 </v>
    <v>       0.67198803       0.49898040       0.77950249 </v>
    <v>       0.67391026       0.83333333       0.28145293 </v>
    <v>       0.67238819       0.83333333       0.77990153 </v>
    <v>       0.82903336       0.00042248       0.22037867 </v>
    <v>       0.82674747       0.00037631       0.71888343 </v>
    <v>       0.82965694       0.33333333       0.22019316 </v>
    <v>       0.82701138       0.33333333       0.71868464 </v>
    <v>       0.82903336       0.66624419       0.22037867 </v>
    <v>       0.82674747       0.66629035       0.71888343 </v>
    <v>       0.83350318       0.00025141       0.44650264 </v>
    <v>       0.83117029       0.00033988       0.94496116 </v>
    <v>       0.83270607       0.33333333       0.44654353 </v>
    <v>       0.83215414       0.33333333       0.94589319 </v>
    <v>       0.83350318       0.66641526       0.44650264 </v>
    <v>       0.83117029       0.66632679       0.94496116 </v>
    <v>       0.66861728       0.16727096       0.05459229 </v>
    <v>       0.66715319       0.16664095       0.55324896 </v>
    <v>       0.66861728       0.49939571       0.05459229 </v>
    <v>       0.66715319       0.50002572       0.55324896 </v>
    <v>       0.67074523       0.83333333       0.05493544 </v>
    <v>       0.66753909       0.83333333       0.55376233 </v>
    <v>       0.49917087       0.99927604       0.12692229 </v>
    <v>       0.49621920       0.00074592       0.62803521 </v>
    <v>       0.49777795       0.33333333       0.13314310 </v>
    <v>       0.49356221       0.33333333       0.62083230 </v>
    <v>       0.49917087       0.66739063       0.12692229 </v>
    <v>       0.49621920       0.66592075       0.62803521 </v>
    <v>       0.00580992       0.16814971       0.37516335 </v>
    <v>       0.00280335       0.16707673       0.87114173 </v>
    <v>       0.00580992       0.49851695       0.37516335 </v>
    <v>       0.00280335       0.49958993       0.87114173 </v>
    <v>       0.00414564       0.83333333       0.37474879 </v>
    <v>       0.00234755       0.83333333       0.87074703 </v>
    <v>       0.16912188       0.99675148       0.27855822 </v>
    <v>       0.17365884       0.00011100       0.78210242 </v>
    <v>       0.16179821       0.33333333       0.27009922 </v>
    <v>       0.17343989       0.33333333       0.78179944 </v>
    <v>       0.16912188       0.66991519       0.27855822 </v>
    <v>       0.17365884       0.66655567       0.78210242 </v>
    <v>       0.32477075       0.14757264       0.21327691 </v>
    <v>       0.32856136       0.16690372       0.72057354 </v>
    <v>       0.32477075       0.51909402       0.21327691 </v>
    <v>       0.32856136       0.49976294       0.72057354 </v>
    <v>       0.32746054       0.83333333       0.21906535 </v>
    <v>       0.32836781       0.83333333       0.71972841 </v>
    <v>       0.31438380       0.14825078       0.45076105 </v>
    <v>       0.33574815       0.16703191       0.94685884 </v>
    <v>       0.31438380       0.51841589       0.45076105 </v>
    <v>       0.33574815       0.49963476       0.94685884 </v>
    <v>       0.33248900       0.83333333       0.44401145 </v>
    <v>       0.33410827       0.83333333       0.94655806 </v>
    <v>       0.16482124       0.99957053       0.05358543 </v>
    <v>       0.16638505       0.99908837       0.55585349 </v>
    <v>       0.17067248       0.33333333       0.05266579 </v>
    <v>       0.16805792       0.33333333       0.55615267 </v>
    <v>       0.16482124       0.66709614       0.05358543 </v>
    <v>       0.16638505       0.66757829       0.55585349 </v>
   </varray>
  </structure>
  <varray name="forces" >
   <v>      -0.05690295       0.10655604       0.13139839 </v>
   <v>      -0.05610527       0.18377057      -0.10916969 </v>
   <v>      -0.00000000       0.25532790       0.14215198 </v>
   <v>      -0.00000000       0.25400798      -0.18429866 </v>
   <v>       0.05690295       0.10655604       0.13139839 </v>
   <v>       0.05610527       0.18377057      -0.10916969 </v>
   <v>      -0.00290774       0.00306113      -0.04214920 </v>
   <v>      -0.00359066      -0.01815947      -0.09664936 </v>
   <v>       0.00290774       0.00306113      -0.04214920 </v>
   <v>       0.00359066      -0.01815947      -0.09664936 </v>
   <v>      -0.00000000      -0.05153498      -0.03439404 </v>
   <v>      -0.00000000      -0.04707964      -0.08594865 </v>
   <v>      -0.51387760       0.35595312      -0.05612118 </v>
   <v>      -0.00141768      -0.05000445      -0.01485730 </v>
   <v>       0.51387760       0.35595312      -0.05612118 </v>
   <v>       0.00141768      -0.05000445      -0.01485730 </v>
   <v>      -0.00000000       0.15177040      -0.02206693 </v>
   <v>      -0.00000000      -0.03867730      -0.03167627 </v>
   <v>       0.01707184       0.09884450       0.04595308 </v>
   <v>      -0.00246431       0.04145148      -0.03433704 </v>
   <v>      -0.00000000       0.09746055       0.05295444 </v>
   <v>      -0.00000000       0.05615766      -0.04331904 </v>
   <v>      -0.01707184       0.09884450       0.04595308 </v>
   <v>       0.00246431       0.04145148      -0.03433704 </v>
   <v>      -0.03041512      -0.25306330       0.32516177 </v>
   <v>       0.03564261      -0.13298666      -0.11342899 </v>
   <v>       0.03041512      -0.25306330       0.32516177 </v>
   <v>      -0.03564261      -0.13298666      -0.11342899 </v>
   <v>      -0.00000000      -0.09059860       0.16334037 </v>
   <v>      -0.00000000      -0.06457225      -0.15001254 </v>
   <v>      -0.46970677       0.03903580       0.49800640 </v>
   <v>      -0.05636001      -0.03099108      -0.15125802 </v>
   <v>      -0.00000000      -0.03067270      -0.13965418 </v>
   <v>       0.46970677       0.03903580       0.49800640 </v>
   <v>       0.05636001      -0.03099108      -0.15125802 </v>
   <v>      -0.05766530      -0.30964358       0.11237274 </v>
   <v>       0.01445968      -0.13751619       0.01261014 </v>
   <v>      -0.00000000      -0.51841906       0.00190550 </v>
   <v>      -0.00000000      -0.12274583       0.01184683 </v>
   <v>       0.05766530      -0.30964358       0.11237274 </v>
   <v>      -0.01445968      -0.13751619       0.01261014 </v>
   <v>      -0.11759862       0.24034503       0.28099310 </v>
   <v>      -0.03228765       0.22496261      -0.85172609 </v>
   <v>       0.11759862       0.24034503       0.28099310 </v>
   <v>       0.03228765       0.22496261      -0.85172609 </v>
   <v>      -0.00000000       0.12788803       0.14592024 </v>
   <v>      -0.00000000       0.06639774      -0.27370074 </v>
   <v>       0.03364344      -0.21349633       0.05233935 </v>
   <v>       0.00768954      -0.14119397       0.16065856 </v>
   <v>      -0.03364344      -0.21349633       0.05233935 </v>
   <v>      -0.00768954      -0.14119397       0.16065856 </v>
   <v>      -0.00000000      -0.16623129       0.09703764 </v>
   <v>      -0.00000000      -0.12121446       0.18268125 </v>
   <v>       0.16067226      -0.02209141      -0.14248137 </v>
   <v>       0.01689611       0.17404629      -0.10487287 </v>
   <v>      -0.00000000       0.24844223      -0.05687536 </v>
   <v>      -0.00000000       0.16554661      -0.11677475 </v>
   <v>      -0.16067226      -0.02209141      -0.14248137 </v>
   <v>      -0.01689611       0.17404629      -0.10487287 </v>
   <v>       0.11470512      -0.24800549      -0.20433293 </v>
   <v>       0.00949041      -0.06566295      -0.02539355 </v>
   <v>      -0.11470512      -0.24800549      -0.20433293 </v>
   <v>      -0.00949041      -0.06566295      -0.02539355 </v>
   <v>      -0.00000000      -0.11654477      -0.15725701 </v>
   <v>      -0.00000000      -0.06163551      -0.05676110 </v>
   <v>       0.02123605      -0.02780764       0.08488861 </v>
   <v>       0.01088389       0.00245469       0.17157916 </v>
   <v>      -0.00000000      -0.04311725       0.07238493 </v>
   <v>      -0.00000000      -0.00487591       0.16676781 </v>
   <v>      -0.02123605      -0.02780764       0.08488861 </v>
   <v>      -0.01088389       0.00245469       0.17157916 </v>
   <v>       0.01024833       0.42180495      -0.06397181 </v>
   <v>       0.00091186       0.41665875      -0.04301113 </v>
   <v>      -0.00000000       0.40522863      -0.05258984 </v>
   <v>      -0.00000000       0.40714112      -0.02056242 </v>
   <v>      -0.01024833       0.42180495      -0.06397181 </v>
   <v>      -0.00091186       0.41665875      -0.04301113 </v>
   <v>       0.02025840      -0.44928136       0.02245939 </v>
   <v>       0.12534168      -0.54372700       0.22559348 </v>
   <v>      -0.02025840      -0.44928136       0.02245939 </v>
   <v>      -0.12534168      -0.54372700       0.22559348 </v>
   <v>      -0.00000000      -0.45946187       0.05281015 </v>
   <v>      -0.00000000      -0.51375034       0.11891515 </v>
   <v>       0.05601791      -0.28342435       0.05135801 </v>
   <v>       0.07629901      -0.34682498       0.34676536 </v>
   <v>      -0.00000000      -0.31124762      -0.01803174 </v>
   <v>      -0.00000000      -0.41868908       0.33889042 </v>
   <v>      -0.05601791      -0.28342435       0.05135801 </v>
   <v>      -0.07629901      -0.34682498       0.34676536 </v>
   <v>      -0.03789720       0.32406979      -0.13442119 </v>
   <v>      -0.00335015       0.23304855      -0.14300530 </v>
   <v>       0.03789720       0.32406979      -0.13442119 </v>
   <v>       0.00335015       0.23304855      -0.14300530 </v>
   <v>      -0.00000000       0.27393754      -0.14816926 </v>
   <v>      -0.00000000       0.23400861      -0.17769383 </v>
   <v>       0.08967407       0.12082397      -0.28035172 </v>
   <v>      -0.00105400       0.02824079      -0.03821508 </v>
   <v>      -0.00000000      -0.09661623      -0.18141057 </v>
   <v>      -0.00000000       0.05973278      -0.05598983 </v>
   <v>      -0.08967407       0.12082397      -0.28035172 </v>
   <v>       0.00105400       0.02824079      -0.03821508 </v>
   <v>      -0.22935010      -0.01971424      -0.04677182 </v>
   <v>      -0.00019112       0.05640590       0.32543680 </v>
   <v>       0.22935010      -0.01971424      -0.04677182 </v>
   <v>       0.00019112       0.05640590       0.32543680 </v>
   <v>      -0.00000000       0.04156856       0.01540426 </v>
   <v>      -0.00000000       0.03157069       0.24090831 </v>
   <v>      -0.25388815       0.33886082      -0.03651993 </v>
   <v>       0.01441342       0.38899329      -0.10346809 </v>
   <v>       0.25388815       0.33886082      -0.03651993 </v>
   <v>      -0.01441342       0.38899329      -0.10346809 </v>
   <v>      -0.00000000       0.36724608      -0.18975358 </v>
   <v>      -0.00000000       0.42160818      -0.05748060 </v>
   <v>       0.00083786      -0.26912029      -0.01901794 </v>
   <v>       0.11073519      -0.14884189       0.17161988 </v>
   <v>      -0.00000000      -0.36429309      -0.03485007 </v>
   <v>      -0.00000000      -0.19872635       0.15802654 </v>
   <v>      -0.00083786      -0.26912029      -0.01901794 </v>
   <v>      -0.11073519      -0.14884189       0.17161988 </v>
  </varray>
  <varray name="stress" >
   <v>     -58.45790057       0.00000000       0.00000000 </v>
   <v>       0.00000000     -56.18279929       2.41097669 </v>
   <v>       0.00000000       2.41097734     -51.75305560 </v>
  </varray>
  <energy>
   <i name="e_fr_energy">   -970.75117013 </i>
   <i name="e_wo_entrp">   -970.75054618 </i>
   <i name="e_0_energy">   -970.75085815 </i>
  </energy>
  <time name="totalsc">33243.2533242.61</time>
  <eigenvalues>
   <array>
    <dimension dim="1">band</dimension>
    <dimension dim="2">kpoint</dimension>
    <dimension dim="3">spin</dimension>
    <field>eigene</field>
    <field>occ</field>
    <set>
     <set comment="spin 1">
      <set comment="kpoint 1">
       <r>  -19.2162    1.0000 </r>
       <r>  -18.9400    1.0000 </r>
       <r>  -18.8757    1.0000 </r>
       <r>  -18.7744    1.0000 </r>
       <r>  -18.6709    1.0000 </r>
       <r>  -18.5373    1.0000 </r>
       <r>  -18.5168    1.0000 </r>
       <r>  -18.4787    1.0000 </r>
       <r>  -18.3878    1.0000 </r>
       <r>  -18.3483    1.0000 </r>
       <r>  -18.3327    1.0000 </r>
       <r>  -18.2919    1.0000 </r>
       <r>  -18.2872    1.0000 </r>
       <r>  -18.2457    1.0000 </r>
       <r>  -18.2420    1.0000 </r>
       <r>  -18.1963    1.0000 </r>
       <r>  -18.1920    1.0000 </r>
       <r>  -18.1225    1.0000 </r>
       <r>  -18.1047    1.0000 </r>
       <r>  -18.0704    1.0000 </r>
       <r>  -18.0673    1.0000 </r>
       <r>  -18.0615    1.0000 </r>
       <r>  -18.0273    1.0000 </r>
       <r>  -18.0228    1.0000 </r>
       <r>  -17.9843    1.0000 </r>
       <r>  -17.9650    1.0000 </r>
       <r>  -17.9385    1.0000 </r>
       <r>  -17.9134    1.0000 </r>
       <r>  -17.9000    1.0000 </r>
       <r>  -17.8990    1.0000 </r>
       <r>  -17.8910    1.0000 </r>
       <r>  -17.8851    1.0000 </r>
       <r>  -17.8633    1.0000 </r>
       <r>  -17.8588    1.0000 </r>
       <r>  -17.8104    1.0000 </r>
       <r>  -17.8020    1.0000 </r>
       <r>  -17.7744    1.0000 </r>
       <r>  -17.7737    1.0000 </r>
       <r>  -17.7690    1.0000 </r>
       <r>  -17.7476    1.0000 </r>
       <r>  -17.7235    1.0000 </r>
       <r>  -17.7178    1.0000 </r>
       <r>  -17.7145    1.0000 </r>
       <r>  -17.6953    1.0000 </r>
       <r>  -17.6950    1.0000 </r>
[...]
       <r>   -12.9538   249.5218   523.5027 </r>
       <r>   -12.8216   179.1839   547.1945 </r>
       <r>   -12.6894   123.9970   563.5894 </r>
       <r>   -12.5571    94.1423   576.0369 </r>
       <r>   -12.4249   102.4760   589.5863 </r>
       <r>   -12.2927   108.1108   603.8807 </r>
       <r>   -12.1605    59.7728   611.7839 </r>
       <r>   -12.0283    16.5947   613.9780 </r>
       <r>   -11.8960     0.1663   614.0000 </r>
       <r>   -11.7638     0.0000   614.0000 </r>
       <r>   -11.6316     0.0000   614.0000 </r>
       <r>   -11.4994     0.0000   614.0000 </r>
       <r>   -11.3671     0.0000   614.0000 </r>
       <r>   -11.2349     0.0000   614.0000 </r>
       <r>   -11.1027     0.0000   614.0000 </r>
       <r>   -10.9705     0.0000   614.0000 </r>
       <r>   -10.8383     0.0000   614.0000 </r>
       <r>   -10.7060     0.0000   614.0000 </r>
       <r>   -10.5738     0.0000   614.0000 </r>
       <r>   -10.4416     0.0000   614.0000 </r>
       <r>   -10.3094     0.0000   614.0000 </r>
       <r>   -10.1772     0.0000   614.0000 </r>
       <r>   -10.0449     0.0000   614.0000 </r>
       <r>    -9.9127     0.0000   614.0000 </r>
       <r>    -9.7805     0.0000   614.0000 </r>
       <r>    -9.6483     0.0000   614.0000 </r>
       <r>    -9.5161     0.0000   614.0000 </r>
       <r>    -9.3838     0.0000   614.0000 </r>
       <r>    -9.2516     0.0000   614.0000 </r>
       <r>    -9.1194     0.0000   614.0000 </r>
       <r>    -8.9872     0.0000   614.0000 </r>
       <r>    -8.8550     0.0000   614.0000 </r>
       <r>    -8.7227     0.0000   614.0000 </r>
       <r>    -8.5905     0.0000   614.0000 </r>
       <r>    -8.4583     0.0000   614.0000 </r>
       <r>    -8.3261     0.0000   614.0000 </r>
       <r>    -8.1939     0.0000   614.0000 </r>
       <r>    -8.0616     0.0000   614.0000 </r>
       <r>    -7.9294     0.0000   614.0000 </r>
       <r>    -7.7972     0.0000   614.0000 </r>
       <r>    -7.6650     0.0000   614.0000 </r>
       <r>    -7.5328     0.0000   614.0000 </r>
       <r>    -7.4005     0.0000   614.0000 </r>
       <r>    -7.2683     0.0000   614.0000 </r>
       <r>    -7.1361     0.0000   614.0000 </r>
       <r>    -7.0039     0.0000   614.0000 </r>
       <r>    -6.8717     0.0000   614.0000 </r>
       <r>    -6.7394     0.0000   614.0000 </r>
       <r>    -6.6072     0.0000   614.0000 </r>
       <r>    -6.4750     0.0000   614.0000 </r>
       <r>    -6.3428     0.0000   614.0000 </r>
       <r>    -6.2106     0.0000   614.0000 </r>
       <r>    -6.0783     0.0000   614.0000 </r>
       <r>    -5.9461     0.0000   614.0000 </r>
       <r>    -5.8139     0.0000   614.0000 </r>
       <r>    -5.6817     0.0001   614.0000 </r>
       <r>    -5.5495     1.9607   614.2593 </r>
       <r>    -5.4172     7.9646   615.3123 </r>
       <r>    -5.2850    18.1248   617.7088 </r>
       <r>    -5.1528    25.5973   621.0933 </r>
       <r>    -5.0206    30.8606   625.1737 </r>
       <r>    -4.8884    29.3428   629.0534 </r>
       <r>    -4.7561    47.4781   635.3309 </r>
       <r>    -4.6239    38.9181   640.4767 </r>
       <r>    -4.4917    60.3505   648.4562 </r>
       <r>    -4.3595    53.8224   655.5727 </r>
       <r>    -4.2273    36.0349   660.3372 </r>
       <r>    -4.0950    51.1334   667.0981 </r>
       <r>    -3.9628    41.9430   672.6438 </r>
       <r>    -3.8306    30.0941   676.6228 </r>
       <r>    -3.6984    27.9187   680.3142 </r>
       <r>    -3.5662    25.5201   683.6885 </r>
       <r>    -3.4339    37.3695   688.6295 </r>
       <r>    -3.3017    37.4419   693.5801 </r>
       <r>    -3.1695    37.5137   698.5401 </r>
       <r>    -3.0373    30.6345   702.5907 </r>
       <r>    -2.9051    35.5648   707.2930 </r>
       <r>    -2.7728    37.4244   712.2413 </r>
       <r>    -2.6406    34.8852   716.8538 </r>
       <r>    -2.5084    55.2561   724.1598 </r>
       <r>    -2.3762    35.1399   728.8060 </r>
       <r>    -2.2440    38.7647   733.9315 </r>
       <r>    -2.1117    70.0199   743.1895 </r>
       <r>    -1.9795    73.4734   752.9042 </r>
       <r>    -1.8473    54.2713   760.0799 </r>
       <r>    -1.7151    60.4969   768.0789 </r>
       <r>    -1.5829    64.0525   776.5479 </r>
       <r>    -1.4506    51.9798   783.4207 </r>
       <r>    -1.3184    50.7184   790.1267 </r>
       <r>    -1.1862    69.7514   799.3492 </r>
       <r>    -1.0540    69.3004   808.5121 </r>
       <r>    -0.9218    70.8752   817.8833 </r>
       <r>    -0.7895    68.3578   826.9215 </r>
       <r>    -0.6573    56.5979   834.4049 </r>
       <r>    -0.5251    74.5526   844.2623 </r>
       <r>    -0.3929    72.3032   853.8222 </r>
       <r>    -0.2607    76.5096   863.9383 </r>
       <r>    -0.1284    84.3152   875.0865 </r>
       <r>     0.0038    65.6805   883.7708 </r>
       <r>     0.1360    72.3473   893.3365 </r>
       <r>     0.2682    83.3758   904.3605 </r>
       <r>     0.4004    94.1661   916.8112 </r>
       <r>     0.5327    91.1783   928.8668 </r>
       <r>     0.6649    79.6586   939.3992 </r>
       <r>     0.7971    97.5840   952.3018 </r>
       <r>     0.9293   121.4347   968.3579 </r>
       <r>     1.0615   120.2879   984.2624 </r>
       <r>     1.1938   123.0673  1000.5344 </r>
       <r>     1.3260   107.2133  1014.7101 </r>
       <r>     1.4582    71.9418  1024.2223 </r>
       <r>     1.5904    55.2783  1031.5312 </r>
       <r>     1.7226    56.5786  1039.0120 </r>
       <r>     1.8549    21.2134  1041.8169 </r>
       <r>     1.9871     8.5572  1042.9483 </r>
       <r>     2.1193     3.6942  1043.4368 </r>
       <r>     2.2515    12.4556  1045.0836 </r>
       <r>     2.3837     6.8828  1045.9937 </r>
       <r>     2.5160     0.0477  1046.0000 </r>
       <r>     2.6482     0.0000  1046.0000 </r>
       <r>     2.7804     0.0000  1046.0000 </r>
       <r>     2.9126     0.0000  1046.0000 </r>
       <r>     3.0448     0.0000  1046.0000 </r>
       <r>     3.1771     0.0000  1046.0000 </r>
       <r>     3.3093     0.0000  1046.0000 </r>
       <r>     3.4415     0.0000  1046.0000 </r>
       <r>     3.5737     0.0000  1046.0000 </r>
       <r>     3.7059     0.0000  1046.0000 </r>
       <r>     3.8382     0.0000  1046.0000 </r>
       <r>     3.9704     0.0000  1046.0000 </r>
       <r>     4.1026     0.0000  1046.0000 </r>
       <r>     4.2348     0.0000  1046.0000 </r>
       <r>     4.3670     0.0000  1046.0000 </r>
       <r>     4.4993     0.0000  1046.0000 </r>
       <r>     4.6315     0.0000  1046.0000 </r>
       <r>     4.7637     0.0000  1046.0000 </r>
       <r>     4.8959     0.0000  1046.0000 </r>
       <r>     5.0281     0.0000  1046.0000 </r>
       <r>     5.1604     0.0000  1046.0000 </r>
       <r>     5.2926     0.0000  1046.0000 </r>
       <r>     5.4248     0.0000  1046.0000 </r>
       <r>     5.5570     0.0000  1046.0000 </r>
       <r>     5.6893     0.0000  1046.0000 </r>
       <r>     5.8215     0.0000  1046.0000 </r>
       <r>     5.9537     0.0000  1046.0000 </r>
       <r>     6.0859     0.0000  1046.0000 </r>
       <r>     6.2181     0.0000  1046.0000 </r>
       <r>     6.3504     0.0000  1046.0000 </r>
       <r>     6.4826     0.0000  1046.0000 </r>
       <r>     6.6148     0.0000  1046.0000 </r>
       <r>     6.7470     0.5114  1046.0676 </r>
       <r>     6.8792     1.3778  1046.2498 </r>
       <r>     7.0115     0.0017  1046.2500 </r>
       <r>     7.1437     0.0000  1046.2500 </r>
       <r>     7.2759     0.0000  1046.2500 </r>
       <r>     7.4081     0.0004  1046.2501 </r>
       <r>     7.5403     1.2528  1046.4157 </r>
       <r>     7.6726     4.4675  1047.0064 </r>
       <r>     7.8048     1.8329  1047.2487 </r>
       <r>     7.9370     1.7049  1047.4742 </r>
       <r>     8.0692     4.9368  1048.1269 </r>
       <r>     8.2014     0.9310  1048.2500 </r>
       <r>     8.3337     0.0005  1048.2501 </r>
       <r>     8.4659     2.6229  1048.5969 </r>
       <r>     8.5981     8.7568  1049.7547 </r>
       <r>     8.7303     5.0868  1050.4273 </r>
       <r>     8.8625     5.0552  1051.0956 </r>
       <r>     8.9948     5.6293  1051.8400 </r>
       <r>     9.1270     2.9475  1052.2297 </r>
       <r>     9.2592     7.4294  1053.2120 </r>
       <r>     9.3914    10.9036  1054.6537 </r>
       <r>     9.5236     3.1125  1055.0652 </r>
       <r>     9.6559     2.0257  1055.3330 </r>
       <r>     9.7881    13.7032  1057.1449 </r>
       <r>     9.9203    14.6347  1059.0799 </r>
       <r>    10.0525     9.3259  1060.3130 </r>
       <r>    10.1847     4.8504  1060.9543 </r>
       <r>    10.3170    16.9160  1063.1909 </r>
       <r>    10.4492    29.7021  1067.1181 </r>
       <r>    10.5814    28.9984  1070.9523 </r>
       <r>    10.7136    38.2844  1076.0143 </r>
       <r>    10.8458    39.7807  1081.2741 </r>
       <r>    10.9781    46.2307  1087.3867 </r>
       <r>    11.1103    16.1701  1089.5247 </r>
       <r>    11.2425    25.4387  1092.8882 </r>
       <r>    11.3747    33.4581  1097.3121 </r>
       <r>    11.5069    29.2785  1101.1833 </r>
       <r>    11.6392    34.6057  1105.7589 </r>
       <r>    11.7714    38.9891  1110.9140 </r>
       <r>    11.9036    35.2962  1115.5809 </r>
       <r>    12.0358    34.7799  1120.1795 </r>
       <r>    12.1680    23.2358  1123.2517 </r>
       <r>    12.3003    34.9532  1127.8733 </r>
       <r>    12.4325    42.2994  1133.4661 </r>
       <r>    12.5647    48.6867  1139.9034 </r>
       <r>    12.6969    43.2323  1145.6196 </r>
       <r>    12.8291    23.6405  1148.7454 </r>
       <r>    12.9614    19.4814  1151.3212 </r>
       <r>    13.0936    24.0573  1154.5021 </r>
       <r>    13.2258    50.4030  1161.1663 </r>
       <r>    13.3580    35.6642  1165.8819 </r>
       <r>    13.4902    36.9436  1170.7666 </r>
       <r>    13.6225    29.2888  1174.6391 </r>
       <r>    13.7547    27.4533  1178.2690 </r>
       <r>    13.8869    34.5020  1182.8309 </r>
       <r>    14.0191    25.0439  1186.1422 </r>
       <r>    14.1513    35.2615  1190.8045 </r>
       <r>    14.2836    27.7812  1194.4777 </r>
       <r>    14.4158    30.4767  1198.5073 </r>
       <r>    14.5480    32.2683  1202.7738 </r>
       <r>    14.6802    31.8653  1206.9871 </r>
       <r>    14.8124    22.3588  1209.9434 </r>
       <r>    14.9447    26.8122  1213.4885 </r>
       <r>    15.0769    26.9465  1217.0513 </r>
       <r>    15.2091    21.3089  1219.8688 </r>
       <r>    15.3413    24.7547  1223.1419 </r>
       <r>    15.4735    22.9022  1226.1700 </r>
       <r>    15.6058    24.3234  1229.3861 </r>
       <r>    15.7380    22.5478  1232.3673 </r>
       <r>    15.8702    20.4908  1235.0766 </r>
       <r>    16.0024    23.9861  1238.2481 </r>
       <r>    16.1346    17.7761  1240.5984 </r>
       <r>    16.2669    15.4157  1242.6367 </r>
       <r>    16.3991    15.5215  1244.6890 </r>
       <r>    16.5313    11.8450  1246.2551 </r>
       <r>    16.6635    15.5023  1248.3048 </r>
       <r>    16.7957     9.2776  1249.5315 </r>
       <r>    16.9280     3.5236  1249.9974 </r>
       <r>    17.0602     0.0195  1250.0000 </r>
       <r>    17.1924     0.0000  1250.0000 </r>
       <r>    17.3246     0.0000  1250.0000 </r>
       <r>    17.4568     0.0000  1250.0000 </r>
       <r>    17.5891     0.0000  1250.0000 </r>
       <r>    17.7213     0.0000  1250.0000 </r>
       <r>    17.8535     0.0000  1250.0000 </r>
       <r>    17.9857     0.0000  1250.0000 </r>
       <r>    18.1179     0.0000  1250.0000 </r>
       <r>    18.2502     0.0000  1250.0000 </r>
       <r>    18.3824     0.0000  1250.0000 </r>
       <r>    18.5146     0.0000  1250.0000 </r>
       <r>    18.6468     0.0000  1250.0000 </r>
      </set>
     </set>
    </array>
   </total>
  </dos>
 </calculation>
 <structure name="finalpos" >
  <crystal>
   <varray name="basis" >
    <v>       0.00000000      12.28047342       0.00000000 </v>
    <v>       9.14270205       0.00000000       0.00000000 </v>
    <v>       0.00000000      -2.76826177     -11.30069772 </v>
   </varray>
   <i name="volume">   1268.80515525 </i>
   <varray name="rec_basis" >
    <v>       0.00000000       0.08143009      -0.01994742 </v>
    <v>       0.10937686      -0.00000000       0.00000000 </v>
    <v>       0.00000000       0.00000000      -0.08849011 </v>
   </varray>
  </crystal>
  <varray name="positions" >
   <v>       0.66111882       0.00006166       0.15791890 </v>
   <v>       0.65816862       0.00028259       0.65546779 </v>
   <v>       0.66171156       0.33333333       0.15834412 </v>
   <v>       0.65805543       0.33333333       0.65507326 </v>
   <v>       0.66111882       0.66660501       0.15791890 </v>
   <v>       0.65816862       0.66638408       0.65546779 </v>
   <v>       0.84341632       0.16710099       0.34444804 </v>
   <v>       0.84028454       0.16719618       0.84256033 </v>
   <v>       0.84341632       0.49956568       0.34444804 </v>
   <v>       0.84028454       0.49947049       0.84256033 </v>
   <v>       0.84218338       0.83333333       0.34425296 </v>
   <v>       0.83983557       0.83333333       0.84242805 </v>
   <v>       0.58910643       0.17033043       0.39581358 </v>
   <v>       0.59210173       0.16649431       0.89788334 </v>
   <v>       0.58910643       0.49633624       0.39581358 </v>
   <v>       0.59210173       0.50017236       0.89788334 </v>
   <v>       0.59036158       0.83333333       0.39712202 </v>
   <v>       0.59278784       0.83333333       0.89864598 </v>
   <v>       0.90878182       0.00028605       0.10171453 </v>
   <v>       0.90952004       0.00013192       0.60297146 </v>
   <v>       0.91102480       0.33333333       0.10270135 </v>
   <v>       0.91002083       0.33333333       0.60271749 </v>
   <v>       0.90878182       0.66638061       0.10171453 </v>
   <v>       0.90952004       0.66653474       0.60297146 </v>
   <v>       0.16318792       0.16960134       0.16109644 </v>
   <v>       0.16016040       0.16703497       0.65816303 </v>
   <v>       0.16318792       0.49706532       0.16109644 </v>
   <v>       0.16016040       0.49963169       0.65816303 </v>
   <v>       0.15841957       0.83333333       0.15790966 </v>
   <v>       0.16010443       0.83333333       0.65972673 </v>
   <v>       0.33994053       0.00391574       0.34078920 </v>
   <v>       0.34271447       0.00016343       0.84403055 </v>
   <v>       0.34207034       0.33333333       0.84371657 </v>
   <v>       0.33994053       0.66275092       0.34078920 </v>
   <v>       0.34271447       0.66650324       0.84403055 </v>
   <v>       0.09193926       0.00051796       0.39761167 </v>
   <v>       0.08997964       0.00019149       0.89740231 </v>
   <v>       0.09873370       0.33333333       0.39706467 </v>
   <v>       0.09104337       0.33333333       0.89823402 </v>
   <v>       0.09193926       0.66614871       0.39761167 </v>
   <v>       0.08997964       0.66647518       0.89740231 </v>
   <v>       0.40981616       0.16579533       0.10497427 </v>
   <v>       0.40572104       0.16634412       0.59825407 </v>
   <v>       0.40981616       0.50087134       0.10497427 </v>
   <v>       0.40572104       0.50032255       0.59825407 </v>
   <v>       0.40998373       0.83333333       0.10395615 </v>
   <v>       0.40872426       0.83333333       0.60055225 </v>
   <v>       0.99693340       0.16580364       0.12442406 </v>
   <v>       0.99734499       0.16649373       0.62892118 </v>
   <v>       0.99693340       0.50086303       0.12442406 </v>
   <v>       0.99734499       0.50017294       0.62892118 </v>
   <v>       0.99486971       0.83333333       0.12577253 </v>
   <v>       0.99706682       0.83333333       0.62950934 </v>
   <v>       0.50382878       0.00090604       0.37317578 </v>
   <v>       0.50515242       0.99962974       0.87318525 </v>
   <v>       0.50020452       0.33333333       0.37122535 </v>
   <v>       0.50488044       0.33333333       0.87252198 </v>
   <v>       0.50382878       0.66576062       0.37317578 </v>
   <v>       0.50515242       0.66703692       0.87318525 </v>
   <v>       0.67432431       0.16639246       0.28077826 </v>
   <v>       0.67198803       0.16768626       0.77950249 </v>
   <v>       0.67432431       0.50027421       0.28077826 </v>
   <v>       0.67198803       0.49898040       0.77950249 </v>
   <v>       0.67391026       0.83333333       0.28145293 </v>
   <v>       0.67238819       0.83333333       0.77990153 </v>
   <v>       0.82903336       0.00042248       0.22037867 </v>
   <v>       0.82674747       0.00037631       0.71888343 </v>
   <v>       0.82965694       0.33333333       0.22019316 </v>
   <v>       0.82701138       0.33333333       0.71868464 </v>
   <v>       0.82903336       0.66624419       0.22037867 </v>
   <v>       0.82674747       0.66629035       0.71888343 </v>
   <v>       0.83350318       0.00025141       0.44650264 </v>
   <v>       0.83117029       0.00033988       0.94496116 </v>
   <v>       0.83270607       0.33333333       0.44654353 </v>
   <v>       0.83215414       0.33333333       0.94589319 </v>
   <v>       0.83350318       0.66641526       0.44650264 </v>
   <v>       0.83117029       0.66632679       0.94496116 </v>
   <v>       0.66861728       0.16727096       0.05459229 </v>
   <v>       0.66715319       0.16664095       0.55324896 </v>
   <v>       0.66861728       0.49939571       0.05459229 </v>
   <v>       0.66715319       0.50002572       0.55324896 </v>
   <v>       0.67074523       0.83333333       0.05493544 </v>
   <v>       0.66753909       0.83333333       0.55376233 </v>
   <v>       0.49917087       0.99927604       0.12692229 </v>
   <v>       0.49621920       0.00074592       0.62803521 </v>
   <v>       0.49777795       0.33333333       0.13314310 </v>
   <v>       0.49356221       0.33333333       0.62083230 </v>
   <v>       0.49917087       0.66739063       0.12692229 </v>
   <v>       0.49621920       0.66592075       0.62803521 </v>
   <v>       0.00580992       0.16814971       0.37516335 </v>
   <v>       0.00280335       0.16707673       0.87114173 </v>
   <v>       0.00580992       0.49851695       0.37516335 </v>
   <v>       0.00280335       0.49958993       0.87114173 </v>
   <v>       0.00414564       0.83333333       0.37474879 </v>
   <v>       0.00234755       0.83333333       0.87074703 </v>
   <v>       0.16912188       0.99675148       0.27855822 </v>
   <v>       0.17365884       0.00011100       0.78210242 </v>
   <v>       0.16179821       0.33333333       0.27009922 </v>
   <v>       0.17343989       0.33333333       0.78179944 </v>
   <v>       0.16912188       0.66991519       0.27855822 </v>
   <v>       0.17365884       0.66655567       0.78210242 </v>
   <v>       0.32477075       0.14757264       0.21327691 </v>
   <v>       0.32856136       0.16690372       0.72057354 </v>
   <v>       0.32477075       0.51909402       0.21327691 </v>
   <v>       0.32856136       0.49976294       0.72057354 </v>
   <v>       0.32746054       0.83333333       0.21906535 </v>
   <v>       0.32836781       0.83333333       0.71972841 </v>
   <v>       0.31438380       0.14825078       0.45076105 </v>
   <v>       0.33574815       0.16703191       0.94685884 </v>
   <v>       0.31438380       0.51841589       0.45076105 </v>
   <v>       0.33574815       0.49963476       0.94685884 </v>
   <v>       0.33248900       0.83333333       0.44401145 </v>
   <v>       0.33410827       0.83333333       0.94655806 </v>
   <v>       0.16482124       0.99957053       0.05358543 </v>
   <v>       0.16638505       0.99908837       0.55585349 </v>
   <v>       0.17067248       0.33333333       0.05266579 </v>
   <v>       0.16805792       0.33333333       0.55615267 </v>
   <v>       0.16482124       0.66709614       0.05358543 </v>
   <v>       0.16638505       0.66757829       0.55585349 </v>
  </varray>
 </structure>
</modeling>
