 running    4 mpi-ranks, on    1 nodes
 distrk:  each k-point on    1 cores,    4 groups
 distr:  one band on    1 cores,    1 groups
 OpenACC runtime initialized ...    4 GPUs detected
 vasp.6.4.2 20Jul23 (build Nov 12 2023 22:16:35) complex                         
 POSCAR found type information on POSCAR GaO P 
 POSCAR found :  3 types and     120 ions
 scaLAPACK will be used selectively (only on CPU)
 LDA part: xc-table for Pade appr. of Perdew
 POSCAR, INCAR and KPOINTS ok, starting setup
 FFT: planning ... GRIDC
 FFT: planning ... GRID_SOFT
 FFT: planning ... GRID
 WAVECAR not read
 entering main loop
       N       E                     dE             d eps       ncg     rms          rms(c)
DAV:   1     0.219239128747E+05    0.21924E+05   -0.32081E+05 10128   0.282E+03
DAV:   2     0.485304723431E+04   -0.17071E+05   -0.16088E+05 10128   0.814E+02
DAV:   3    -0.143110904831E+03   -0.49962E+04   -0.46961E+04 12928   0.320E+02
DAV:   4    -0.770099280796E+03   -0.62699E+03   -0.61414E+03 12496   0.121E+02
DAV:   5    -0.813961561771E+03   -0.43862E+02   -0.43530E+02 14576   0.346E+01    0.609E+01
RMM:   6    -0.702052263332E+03    0.11191E+03   -0.37806E+02 13162   0.235E+01    0.165E+01
RMM:   7    -0.705686213836E+03   -0.36340E+01   -0.64882E+01 13984   0.972E+00    0.132E+01
RMM:   8    -0.705532717714E+03    0.15350E+00   -0.10003E+01 12703   0.538E+00    0.446E+00
RMM:   9    -0.705087318928E+03    0.44540E+00   -0.28603E+00 15108   0.221E+00    0.142E+00
RMM:  10    -0.705145609775E+03   -0.58291E-01   -0.10233E+00 13267   0.117E+00    0.987E-01
RMM:  11    -0.705144116839E+03    0.14929E-02   -0.21900E-01 13580   0.789E-01    0.465E-01
RMM:  12    -0.705142514826E+03    0.16020E-02   -0.44797E-02 15010   0.279E-01    0.201E-01
RMM:  13    -0.705143855238E+03   -0.13404E-02   -0.22258E-02 14613   0.156E-01    0.969E-02
RMM:  14    -0.705143993415E+03   -0.13818E-03   -0.36772E-03 13594   0.771E-02    0.154E-02
RMM:  15    -0.705144124353E+03   -0.13094E-03   -0.12862E-03 13697   0.376E-02    0.130E-02
RMM:  16    -0.705144159661E+03   -0.35308E-04   -0.37949E-04 10627   0.200E-02    0.183E-03
RMM:  17    -0.705144175952E+03   -0.16291E-04   -0.16065E-04  9688   0.120E-02    0.290E-03
RMM:  18    -0.705144181195E+03   -0.52428E-05   -0.55116E-05  8798   0.773E-03
   1 F= -.70514418E+03 E0= -.70513244E+03  d E =-.705144E+03
 curvature:   0.00 expect dE= 0.000E+00 dE for cont linesearch  0.000E+00
 trial: gam= 0.00000 g(F)=  0.127E+02 g(S)=  0.000E+00 ort = 0.000E+00 (trialstep = 0.100E+01)
 search vector abs. value=  0.127E+02
 bond charge predicted
       N       E                     dE             d eps       ncg     rms          rms(c)
DAV:   1    -0.651074446168E+03    0.54070E+02   -0.70618E+03 11488   0.137E+02    0.219E+01
RMM:   2    -0.687806384923E+03   -0.36732E+02   -0.41283E+02 13966   0.376E+01    0.461E+00
RMM:   3    -0.705183744057E+03   -0.17377E+02   -0.11621E+02 14753   0.139E+01    0.817E+00
RMM:   4    -0.706512199872E+03   -0.13285E+01   -0.16608E+01 15257   0.591E+00    0.971E+00
RMM:   5    -0.706672933344E+03   -0.16073E+00   -0.23126E+00 15790   0.207E+00    0.881E+00
RMM:   6    -0.706537507429E+03    0.13543E+00   -0.40344E-01 13702   0.986E-01    0.463E+00
RMM:   7    -0.706577609224E+03   -0.40102E-01   -0.22135E+00 13550   0.294E+00    0.889E+00
RMM:   8    -0.706476017338E+03    0.10159E+00   -0.17403E-01 14019   0.588E-01    0.593E+00
RMM:   9    -0.706409456967E+03    0.66560E-01   -0.97232E-02 13222   0.489E-01    0.237E+00
RMM:  10    -0.706394230126E+03    0.15227E-01   -0.47190E-02 13353   0.365E-01    0.782E-01
RMM:  11    -0.706392398879E+03    0.18312E-02   -0.11221E-02 13703   0.187E-01    0.313E-01
RMM:  12    -0.706392364026E+03    0.34853E-04   -0.38572E-03 14455   0.108E-01    0.459E-01
RMM:  13    -0.706391961139E+03    0.40289E-03   -0.29762E-03 13324   0.101E-01    0.613E-02
RMM:  14    -0.706392094302E+03   -0.13316E-03   -0.89167E-04 14575   0.415E-02    0.148E-01
RMM:  15    -0.706392015500E+03    0.78803E-04   -0.29553E-04 11425   0.331E-02    0.697E-03
RMM:  16    -0.706392020407E+03   -0.49070E-05   -0.54728E-05  7847   0.121E-02
   2 F= -.70639202E+03 E0= -.70638236E+03  d E =-.124784E+01
 trial-energy change:   -1.247839  1 .order   -2.995086  -12.724195    6.734024
 step:   0.5194(harm=  0.6539)  dis= 0.26139  next Energy=  -708.204002 (dE=-0.306E+01)
 bond charge predicted
       N       E                     dE             d eps       ncg     rms          rms(c)
DAV:   1    -0.704825846361E+03    0.15662E+01   -0.76795E+02 14632   0.405E+01    0.580E+00
RMM:   2    -0.707220067295E+03   -0.23942E+01   -0.25022E+01 13478   0.876E+00    0.171E+00
RMM:   3    -0.707979055562E+03   -0.75899E+00   -0.73371E+00 15531   0.361E+00    0.127E+00
RMM:   4    -0.708066869251E+03   -0.87814E-01   -0.91061E-01 15732   0.121E+00    0.983E-01
RMM:   5    -0.708066312299E+03    0.55695E-03   -0.10134E-01 15249   0.465E-01    0.261E-01
RMM:   6    -0.708068020660E+03   -0.17084E-02   -0.24636E-02 14257   0.242E-01    0.380E-01
RMM:   7    -0.708068165755E+03   -0.14509E-03   -0.77834E-03 15716   0.121E-01    0.637E-02
RMM:   8    -0.708068301993E+03   -0.13624E-03   -0.17300E-03 14567   0.505E-02    0.429E-02
RMM:   9    -0.708068314715E+03   -0.12722E-04   -0.41188E-04 12818   0.294E-02    0.105E-02
RMM:  10    -0.708068329104E+03   -0.14389E-04   -0.16282E-04 10553   0.147E-02    0.889E-03
RMM:  11    -0.708068329701E+03   -0.59629E-06   -0.45159E-05  8347   0.113E-02
   3 F= -.70806833E+03 E0= -.70805726E+03  d E =-.292415E+01
 curvature:  -0.28 expect dE=-0.426E+00 dE for cont linesearch -0.190E-03
 trial: gam= 0.11316 g(F)=  0.153E+01 g(S)=  0.000E+00 ort = 0.933E-01 (trialstep = 0.904E+00)
 search vector abs. value=  0.172E+01
 bond charge predicted
       N       E                     dE             d eps       ncg     rms          rms(c)
DAV:   1    -0.707437721727E+03    0.63061E+00   -0.24799E+02 10480   0.217E+01    0.332E+00
RMM:   2    -0.708511603363E+03   -0.10739E+01   -0.11506E+01 14064   0.618E+00    0.103E+00
RMM:   3    -0.708672545047E+03   -0.16094E+00   -0.19394E+00 15521   0.217E+00    0.140E+00
RMM:   4    -0.708675187967E+03   -0.26429E-02   -0.20087E-01 15508   0.708E-01    0.961E-01
RMM:   5    -0.708665034403E+03    0.10154E-01   -0.89085E-02 13443   0.410E-01    0.482E-01
RMM:   6    -0.708663609409E+03    0.14250E-02   -0.14182E-02 15389   0.188E-01    0.212E-01
RMM:   7    -0.708663349934E+03    0.25947E-03   -0.67653E-03 14056   0.909E-02    0.107E-01
RMM:   8    -0.708663315101E+03    0.34833E-04   -0.14688E-03 13423   0.487E-02    0.551E-02
RMM:   9    -0.708663283415E+03    0.31686E-04   -0.45710E-04 12969   0.272E-02    0.206E-02
RMM:  10    -0.708663294292E+03   -0.10877E-04   -0.13146E-04 10196   0.138E-02    0.202E-02
RMM:  11    -0.708663291587E+03    0.27047E-05   -0.39467E-05  8769   0.943E-03
   4 F= -.70866329E+03 E0= -.70865216E+03  d E =-.594962E+00
 trial-energy change:   -0.594962  1 .order   -0.630839   -1.395359    0.133680
 step:   0.8134(harm=  0.8249)  dis= 0.09665  next Energy=  -708.670019 (dE=-0.602E+00)
 bond charge predicted
       N       E                     dE             d eps       ncg     rms          rms(c)
DAV:   1    -0.708659347965E+03    0.39463E-02   -0.25026E+00 11486   0.218E+00    0.284E-01
RMM:   2    -0.708668529817E+03   -0.91819E-02   -0.99038E-02 13412   0.587E-01    0.983E-02
RMM:   3    -0.708670097619E+03   -0.15678E-02   -0.18757E-02 15343   0.216E-01    0.975E-02
RMM:   4    -0.708670027956E+03    0.69663E-04   -0.20114E-03 13807   0.783E-02    0.348E-02
RMM:   5    -0.708670042864E+03   -0.14907E-04   -0.63443E-04 14075   0.374E-02    0.147E-02
RMM:   6    -0.708670046948E+03   -0.40848E-05   -0.10042E-04 11080   0.158E-02    0.781E-03
RMM:   7    -0.708670047306E+03   -0.35721E-06   -0.35362E-05  8434   0.101E-02
   5 F= -.70867005E+03 E0= -.70865890E+03  d E =-.601718E+00
 curvature:  -0.45 expect dE=-0.216E+00 dE for cont linesearch -0.266E-05
 trial: gam= 0.31259 g(F)=  0.481E+00 g(S)=  0.000E+00 ort = 0.319E-02 (trialstep = 0.886E+00)
 search vector abs. value=  0.651E+00
 bond charge predicted
       N       E                     dE             d eps       ncg     rms          rms(c)
DAV:   1    -0.708434163335E+03    0.23588E+00   -0.91060E+01 10976   0.142E+01    0.161E+00
RMM:   2    -0.708818974844E+03   -0.38481E+00   -0.40397E+00 13909   0.427E+00    0.527E-01
RMM:   3    -0.708905275833E+03   -0.86301E-01   -0.93385E-01 15325   0.160E+00    0.604E-01
RMM:   4    -0.708911755154E+03   -0.64793E-02   -0.10929E-01 15720   0.543E-01    0.456E-01
RMM:   5    -0.708908600874E+03    0.31543E-02   -0.24804E-02 14481   0.253E-01    0.125E-01
RMM:   6    -0.708909050211E+03   -0.44934E-03   -0.66959E-03 14728   0.128E-01    0.140E-01
RMM:   7    -0.708908871962E+03    0.17825E-03   -0.24900E-03 14599   0.657E-02    0.364E-02
RMM:   8    -0.708908892632E+03   -0.20670E-04   -0.43142E-04 13402   0.291E-02    0.205E-02
RMM:   9    -0.708908896441E+03   -0.38083E-05   -0.12900E-04 10582   0.155E-02    0.553E-03
RMM:  10    -0.708908899499E+03   -0.30579E-05   -0.37992E-05  8725   0.933E-03
   6 F= -.70890890E+03 E0= -.70889805E+03  d E =-.238852E+00
 trial-energy change:   -0.238852  1 .order   -0.240542   -0.426947   -0.054136
 step:   1.0186(harm=  1.0144)  dis= 0.08146  next Energy=  -708.912951 (dE=-0.243E+00)
 bond charge predicted
       N       E                     dE             d eps       ncg     rms          rms(c)
DAV:   1    -0.708903936944E+03    0.49595E-02   -0.20533E+00 11782   0.212E+00    0.223E-01
RMM:   2    -0.708911525408E+03   -0.75885E-02   -0.79827E-02 13601   0.591E-01    0.770E-02
RMM:   3    -0.708913148792E+03   -0.16234E-02   -0.17768E-02 15256   0.221E-01    0.794E-02
RMM:   4    -0.708913239183E+03   -0.90390E-04   -0.21070E-03 15296   0.773E-02    0.535E-02
RMM:   5    -0.708913192119E+03    0.47064E-04   -0.51836E-04 14314   0.362E-02    0.134E-02
RMM:   6    -0.708913201218E+03   -0.90988E-05   -0.12994E-04 11778   0.176E-02    0.131E-02
RMM:   7    -0.708913200430E+03    0.78766E-06   -0.39962E-05  9159   0.105E-02
   7 F= -.70891320E+03 E0= -.70890241E+03  d E =-.243153E+00
 curvature:  -0.68 expect dE=-0.143E+00 dE for cont linesearch -0.477E-06
 trial: gam= 0.40672 g(F)=  0.210E+00 g(S)=  0.000E+00 ort =-0.673E-03 (trialstep = 0.912E+00)
 search vector abs. value=  0.317E+00
 bond charge predicted
       N       E                     dE             d eps       ncg     rms          rms(c)
DAV:   1    -0.708806339160E+03    0.10686E+00   -0.45512E+01 10888   0.100E+01    0.113E+00
RMM:   2    -0.708982526047E+03   -0.17619E+00   -0.18727E+00 13672   0.290E+00    0.364E-01
RMM:   3    -0.709022685288E+03   -0.40159E-01   -0.43615E-01 15305   0.110E+00    0.412E-01
RMM:   4    -0.709025307727E+03   -0.26224E-02   -0.50854E-02 15777   0.379E-01    0.314E-01
RMM:   5    -0.709023372423E+03    0.19353E-02   -0.11575E-02 14023   0.178E-01    0.781E-02
RMM:   6    -0.709023545619E+03   -0.17320E-03   -0.34898E-03 14685   0.944E-02    0.871E-02
RMM:   7    -0.709023471509E+03    0.74110E-04   -0.11800E-03 14428   0.475E-02    0.261E-02
RMM:   8    -0.709023474401E+03   -0.28915E-05   -0.23125E-04 12645   0.229E-02    0.140E-02
RMM:   9    -0.709023475010E+03   -0.60959E-06   -0.66804E-05  9605   0.122E-02
   8 F= -.70902348E+03 E0= -.70901300E+03  d E =-.110275E+00
 trial-energy change:   -0.110275  1 .order   -0.110130   -0.190911   -0.029348
 step:   1.0781(harm=  1.0781)  dis= 0.06159  next Energy=  -709.025996 (dE=-0.113E+00)
 bond charge predicted
       N       E                     dE             d eps       ncg     rms          rms(c)
DAV:   1    -0.709019807110E+03    0.36673E-02   -0.15068E+00 11744   0.183E+00    0.194E-01
RMM:   2    -0.709025310241E+03   -0.55031E-02   -0.58555E-02 13580   0.505E-01    0.647E-02
RMM:   3    -0.709026462667E+03   -0.11524E-02   -0.12639E-02 15253   0.189E-01    0.688E-02
RMM:   4    -0.709026513805E+03   -0.51138E-04   -0.14824E-03 15298   0.658E-02    0.464E-02
RMM:   5    -0.709026468910E+03    0.44896E-04   -0.39012E-04 13821   0.315E-02    0.132E-02
RMM:   6    -0.709026472515E+03   -0.36054E-05   -0.82471E-05 10995   0.150E-02
   9 F= -.70902647E+03 E0= -.70901606E+03  d E =-.113272E+00
 curvature:  -0.82 expect dE=-0.105E+00 dE for cont linesearch -0.592E-05
 trial: gam= 0.60973 g(F)=  0.129E+00 g(S)=  0.000E+00 ort = 0.152E-02 (trialstep = 0.945E+00)
 search vector abs. value=  0.248E+00
 bond charge predicted
       N       E                     dE             d eps       ncg     rms          rms(c)
DAV:   1    -0.708919469710E+03    0.10700E+00   -0.39623E+01 10984   0.936E+00    0.108E+00
RMM:   2    -0.709060853781E+03   -0.14138E+00   -0.15114E+00 13451   0.261E+00    0.352E-01
RMM:   3    -0.709093735442E+03   -0.32882E-01   -0.36007E-01 15285   0.101E+00    0.368E-01
RMM:   4    -0.709095847415E+03   -0.21120E-02   -0.41539E-02 15671   0.342E-01    0.278E-01
RMM:   5    -0.709094345862E+03    0.15016E-02   -0.10098E-02 13843   0.162E-01    0.804E-02
RMM:   6    -0.709094505083E+03   -0.15922E-03   -0.29164E-03 15013   0.833E-02    0.844E-02
RMM:   7    -0.709094453260E+03    0.51823E-04   -0.97444E-04 13968   0.416E-02    0.250E-02
RMM:   8    -0.709094453544E+03   -0.28424E-06   -0.19766E-04 11839   0.208E-02    0.102E-02
RMM:   9    -0.709094456339E+03   -0.27943E-05   -0.61928E-05  9300   0.113E-02
  10 F= -.70909446E+03 E0= -.70908414E+03  d E =-.679838E-01
 trial-energy change:   -0.067984  1 .order   -0.067202   -0.122530   -0.011873
 step:   1.0424(harm=  1.0469)  dis= 0.04523  next Energy=  -709.095066 (dE=-0.686E-01)
 bond charge predicted
       N       E                     dE             d eps       ncg     rms          rms(c)
DAV:   1    -0.709093489403E+03    0.96414E-03   -0.41768E-01 12048   0.959E-01    0.103E-01
RMM:   2    -0.709094916453E+03   -0.14271E-02   -0.15247E-02 13362   0.257E-01    0.345E-02
RMM:   3    -0.709095226602E+03   -0.31015E-03   -0.34319E-03 15185   0.990E-02    0.353E-02
RMM:   4    -0.709095243272E+03   -0.16670E-04   -0.41137E-04 14544   0.344E-02    0.238E-02
RMM:   5    -0.709095232338E+03    0.10935E-04   -0.12350E-04 11396   0.182E-02    0.943E-03
RMM:   6    -0.709095232789E+03   -0.45129E-06   -0.24590E-05  7938   0.855E-03
  11 F= -.70909523E+03 E0= -.70908489E+03  d E =-.687603E-01
 curvature:  -1.00 expect dE=-0.586E-01 dE for cont linesearch -0.629E-05
 trial: gam= 0.45006 g(F)=  0.586E-01 g(S)=  0.000E+00 ort = 0.125E-02 (trialstep = 0.965E+00)
 search vector abs. value=  0.110E+00
 bond charge predicted
       N       E                     dE             d eps       ncg     rms          rms(c)
DAV:   1    -0.709041603152E+03    0.53629E-01   -0.21079E+01 10832   0.676E+00    0.751E-01
RMM:   2    -0.709112147565E+03   -0.70544E-01   -0.74809E-01 13261   0.181E+00    0.239E-01
RMM:   3    -0.709128537864E+03   -0.16390E-01   -0.17798E-01 15318   0.715E-01    0.249E-01
RMM:   4    -0.709129252743E+03   -0.71488E-03   -0.18811E-02 15520   0.236E-01    0.159E-01
RMM:   5    -0.709128827183E+03    0.42556E-03   -0.47751E-03 14720   0.109E-01    0.526E-02
RMM:   6    -0.709128889275E+03   -0.62093E-04   -0.10368E-03 14747   0.503E-02    0.411E-02
RMM:   7    -0.709128886484E+03    0.27910E-05   -0.33605E-04 13395   0.251E-02    0.128E-02
RMM:   8    -0.709128891229E+03   -0.47445E-05   -0.84844E-05  9794   0.132E-02
  12 F= -.70912889E+03 E0= -.70911891E+03  d E =-.336584E-01
 trial-energy change:   -0.033658  1 .order   -0.033009   -0.057086   -0.008933
 step:   1.1284(harm=  1.1439)  dis= 0.02666  next Energy=  -709.129651 (dE=-0.344E-01)
 bond charge predicted
       N       E                     dE             d eps       ncg     rms          rms(c)
DAV:   1    -0.709127486048E+03    0.14004E-02   -0.60609E-01 11728   0.114E+00    0.123E-01
RMM:   2    -0.709129490432E+03   -0.20044E-02   -0.21207E-02 13279   0.300E-01    0.397E-02
RMM:   3    -0.709129923942E+03   -0.43351E-03   -0.47781E-03 15301   0.117E-01    0.415E-02
RMM:   4    -0.709129942393E+03   -0.18450E-04   -0.52273E-04 14855   0.388E-02    0.258E-02
RMM:   5    -0.709129932011E+03    0.10381E-04   -0.15067E-04 11939   0.197E-02    0.105E-02
RMM:   6    -0.709129932939E+03   -0.92774E-06   -0.28720E-05  8476   0.917E-03
  13 F= -.70912993E+03 E0= -.70912001E+03  d E =-.347002E-01
 curvature:  -1.06 expect dE=-0.300E-01 dE for cont linesearch -0.304E-04
 trial: gam= 0.46111 g(F)=  0.284E-01 g(S)=  0.000E+00 ort = 0.178E-02 (trialstep = 0.998E+00)
 search vector abs. value=  0.534E-01
 bond charge predicted
       N       E                     dE             d eps       ncg     rms          rms(c)
DAV:   1    -0.709098760769E+03    0.31171E-01   -0.11461E+01 10824   0.499E+00    0.538E-01
RMM:   2    -0.709137173477E+03   -0.38413E-01   -0.40585E-01 13351   0.133E+00    0.169E-01
RMM:   3    -0.709145683174E+03   -0.85097E-02   -0.91708E-02 15234   0.513E-01    0.176E-01
RMM:   4    -0.709146026601E+03   -0.34343E-03   -0.10049E-02 15406   0.170E-01    0.994E-02
RMM:   5    -0.709145889461E+03    0.13714E-03   -0.24820E-03 14740   0.769E-02    0.415E-02
RMM:   6    -0.709145914231E+03   -0.24770E-04   -0.51400E-04 15050   0.343E-02    0.255E-02
RMM:   7    -0.709145916783E+03   -0.25523E-05   -0.16517E-04 11631   0.175E-02    0.102E-02
RMM:   8    -0.709145918619E+03   -0.18362E-05   -0.43445E-05  8840   0.104E-02
  14 F= -.70914592E+03 E0= -.70913615E+03  d E =-.159857E-01
 trial-energy change:   -0.015986  1 .order   -0.015643   -0.029129   -0.002158
 step:   1.0714(harm=  1.0774)  dis= 0.01552  next Energy=  -709.145999 (dE=-0.161E-01)
 bond charge predicted
       N       E                     dE             d eps       ncg     rms          rms(c)
DAV:   1    -0.709145795556E+03    0.12123E-03   -0.62926E-02 11784   0.370E-01    0.382E-02
RMM:   2    -0.709146006350E+03   -0.21079E-03   -0.22237E-03 13340   0.981E-02    0.123E-02
RMM:   3    -0.709146052043E+03   -0.45693E-04   -0.50240E-04 14774   0.378E-02    0.130E-02
RMM:   4    -0.709146054051E+03   -0.20084E-05   -0.59470E-05  9978   0.139E-02
  15 F= -.70914605E+03 E0= -.70913630E+03  d E =-.161211E-01
 curvature:  -0.98 expect dE=-0.140E-01 dE for cont linesearch -0.998E-06
 trial: gam= 0.53945 g(F)=  0.143E-01 g(S)=  0.000E+00 ort = 0.233E-03 (trialstep = 0.101E+01)
 search vector abs. value=  0.300E-01
 bond charge predicted
       N       E                     dE             d eps       ncg     rms          rms(c)
DAV:   1    -0.709127855005E+03    0.18197E-01   -0.69977E+00 10828   0.386E+00    0.420E-01
RMM:   2    -0.709149527212E+03   -0.21672E-01   -0.22820E-01 13071   0.994E-01    0.131E-01
RMM:   3    -0.709154719067E+03   -0.51919E-02   -0.55078E-02 15176   0.396E-01    0.133E-01
RMM:   4    -0.709154941278E+03   -0.22221E-03   -0.58830E-03 15345   0.129E-01    0.687E-02
RMM:   5    -0.709154903633E+03    0.37645E-04   -0.13869E-03 14818   0.569E-02    0.348E-02
RMM:   6    -0.709154912677E+03   -0.90440E-05   -0.27490E-04 13431   0.249E-02    0.184E-02
RMM:   7    -0.709154914468E+03   -0.17901E-05   -0.88441E-05  9895   0.132E-02
  16 F= -.70915491E+03 E0= -.70914523E+03  d E =-.886042E-02
 trial-energy change:   -0.008860  1 .order   -0.008338   -0.014558   -0.002118
 step:   1.1465(harm=  1.1847)  dis= 0.00881  next Energy=  -709.155056 (dE=-0.900E-02)
 bond charge predicted
       N       E                     dE             d eps       ncg     rms          rms(c)
DAV:   1    -0.709154698793E+03    0.21388E-03   -0.12339E-01 11784   0.513E-01    0.524E-02
RMM:   2    -0.709155088474E+03   -0.38968E-03   -0.40993E-03 13046   0.135E-01    0.172E-02
RMM:   3    -0.709155181594E+03   -0.93120E-04   -0.10117E-03 14973   0.536E-02    0.183E-02
RMM:   4    -0.709155186614E+03   -0.50200E-05   -0.11868E-04 12013   0.185E-02    0.103E-02
RMM:   5    -0.709155185553E+03    0.10615E-05   -0.36178E-05  8783   0.116E-02
  17 F= -.70915519E+03 E0= -.70914551E+03  d E =-.913150E-02
 curvature:  -1.18 expect dE=-0.911E-02 dE for cont linesearch -0.438E-04
 trial: gam= 0.47296 g(F)=  0.774E-02 g(S)=  0.000E+00 ort = 0.106E-02 (trialstep = 0.104E+01)
 search vector abs. value=  0.155E-01
 bond charge predicted
       N       E                     dE             d eps       ncg     rms          rms(c)
DAV:   1    -0.709144213583E+03    0.10973E-01   -0.39226E+00 10680   0.291E+00    0.311E-01
RMM:   2    -0.709156768361E+03   -0.12555E-01   -0.13179E-01 13191   0.760E-01    0.980E-02
RMM:   3    -0.709159761262E+03   -0.29929E-02   -0.31896E-02 15242   0.300E-01    0.100E-01
RMM:   4    -0.709159896989E+03   -0.13573E-03   -0.32791E-03 15371   0.969E-02    0.558E-02
RMM:   5    -0.709159867397E+03    0.29592E-04   -0.85883E-04 14706   0.445E-02    0.295E-02
RMM:   6    -0.709159870776E+03   -0.33793E-05   -0.16625E-04 12553   0.195E-02    0.161E-02
RMM:   7    -0.709159871438E+03   -0.66117E-06   -0.58397E-05  9460   0.110E-02
  18 F= -.70915987E+03 E0= -.70915026E+03  d E =-.468588E-02
 trial-energy change:   -0.004686  1 .order   -0.004420   -0.008561   -0.000279
 step:   1.0684(harm=  1.0742)  dis= 0.00670  next Energy=  -709.159875 (dE=-0.469E-02)
 bond charge predicted
       N       E                     dE             d eps       ncg     rms          rms(c)
DAV:   1    -0.709159874926E+03   -0.41492E-05   -0.31660E-03 11344   0.855E-02    0.730E-03
RMM:   2    -0.709159888563E+03   -0.13637E-04   -0.14689E-04 12417   0.281E-02    0.311E-03
RMM:   3    -0.709159890462E+03   -0.18989E-05   -0.35310E-05  7071   0.120E-02
  19 F= -.70915989E+03 E0= -.70915028E+03  d E =-.470491E-02
 curvature:  -0.98 expect dE=-0.385E-02 dE for cont linesearch -0.108E-05
 trial: gam= 0.55763 g(F)=  0.393E-02 g(S)=  0.000E+00 ort = 0.130E-03 (trialstep = 0.105E+01)
 search vector abs. value=  0.888E-02
 bond charge predicted
       N       E                     dE             d eps       ncg     rms          rms(c)
DAV:   1    -0.709153619189E+03    0.62694E-02   -0.22744E+00 10728   0.222E+00    0.234E-01
RMM:   2    -0.709160728257E+03   -0.71091E-02   -0.74604E-02 13140   0.574E-01    0.740E-02
RMM:   3    -0.709162429440E+03   -0.17012E-02   -0.18001E-02 15201   0.227E-01    0.748E-02
RMM:   4    -0.709162511189E+03   -0.81748E-04   -0.18641E-03 15257   0.734E-02    0.406E-02
RMM:   5    -0.709162497386E+03    0.13802E-04   -0.47019E-04 14047   0.337E-02    0.210E-02
RMM:   6    -0.709162499440E+03   -0.20542E-05   -0.86902E-05 10561   0.150E-02
  20 F= -.70916250E+03 E0= -.70915292E+03  d E =-.260898E-02
 trial-energy change:   -0.002609  1 .order   -0.002328   -0.004181   -0.000475
 step:   1.1346(harm=  1.1789)  dis= 0.00589  next Energy=  -709.162520 (dE=-0.263E-02)
 bond charge predicted
       N       E                     dE             d eps       ncg     rms          rms(c)
DAV:   1    -0.709162473546E+03    0.23840E-04   -0.17346E-02 11840   0.195E-01    0.172E-02
RMM:   2    -0.709162537068E+03   -0.63523E-04   -0.66823E-04 13247   0.543E-02    0.754E-03
RMM:   3    -0.709162550076E+03   -0.13007E-04   -0.15217E-04 12835   0.214E-02    0.867E-03
RMM:   4    -0.709162550515E+03   -0.43912E-06   -0.23495E-05  6578   0.108E-02
  21 F= -.70916255E+03 E0= -.70915298E+03  d E =-.266005E-02
 curvature:  -1.17 expect dE=-0.231E-02 dE for cont linesearch -0.101E-04
 trial: gam= 0.45533 g(F)=  0.198E-02 g(S)=  0.000E+00 ort = 0.277E-03 (trialstep = 0.106E+01)
 search vector abs. value=  0.407E-02
 bond charge predicted
       N       E                     dE             d eps       ncg     rms          rms(c)
DAV:   1    -0.709159815588E+03    0.27345E-02   -0.10781E+00 10654   0.152E+00    0.164E-01
RMM:   2    -0.709163169196E+03   -0.33536E-02   -0.35167E-02 13072   0.395E-01    0.509E-02
RMM:   3    -0.709163996302E+03   -0.82711E-03   -0.87343E-03 15211   0.158E-01    0.514E-02
RMM:   4    -0.709164043710E+03   -0.47408E-04   -0.91181E-04 15158   0.512E-02    0.316E-02
RMM:   5    -0.709164034381E+03    0.93299E-05   -0.23604E-04 12697   0.244E-02    0.147E-02
RMM:   6    -0.709164035555E+03   -0.11742E-05   -0.41958E-05  8939   0.110E-02
  22 F= -.70916404E+03 E0= -.70915449E+03  d E =-.148504E-02
 trial-energy change:   -0.001485  1 .order   -0.001337   -0.002239   -0.000435
 step:   1.2265(harm=  1.3193)  dis= 0.00346  next Energy=  -709.164070 (dE=-0.152E-02)
 bond charge predicted
       N       E                     dE             d eps       ncg     rms          rms(c)
DAV:   1    -0.709164001623E+03    0.32757E-04   -0.26137E-02 11768   0.238E-01    0.232E-02
RMM:   2    -0.709164092732E+03   -0.91109E-04   -0.95608E-04 13201   0.652E-02    0.828E-03
RMM:   3    -0.709164111846E+03   -0.19114E-04   -0.21428E-04 12980   0.256E-02    0.928E-03
RMM:   4    -0.709164112892E+03   -0.10461E-05   -0.32566E-05  7465   0.127E-02
  23 F= -.70916411E+03 E0= -.70915457E+03  d E =-.156238E-02
 curvature:  -1.11 expect dE=-0.116E-02 dE for cont linesearch -0.654E-05
 trial: gam= 0.51334 g(F)=  0.104E-02 g(S)=  0.000E+00 ort = 0.155E-03 (trialstep = 0.110E+01)
 search vector abs. value=  0.227E-02
 bond charge predicted
       N       E                     dE             d eps       ncg     rms          rms(c)
DAV:   1    -0.709162534524E+03    0.15773E-02   -0.62786E-01 11004   0.117E+00    0.123E-01
RMM:   2    -0.709164493241E+03   -0.19587E-02   -0.20519E-02 13084   0.305E-01    0.395E-02
RMM:   3    -0.709164969568E+03   -0.47633E-03   -0.50061E-03 15077   0.121E-01    0.379E-02
RMM:   4    -0.709165000898E+03   -0.31330E-04   -0.58611E-04 14968   0.410E-02    0.218E-02
RMM:   5    -0.709164999177E+03    0.17215E-05   -0.13769E-04 11922   0.193E-02    0.962E-03
RMM:   6    -0.709165000455E+03   -0.12778E-05   -0.28059E-05  8275   0.907E-03
  24 F= -.70916500E+03 E0= -.70915548E+03  d E =-.887563E-03
 trial-energy change:   -0.000888  1 .order   -0.000776   -0.001229   -0.000323
 step:   1.3029(harm=  1.4856)  dis= 0.00300  next Energy=  -709.165032 (dE=-0.919E-03)
 bond charge predicted
       N       E                     dE             d eps       ncg     rms          rms(c)
DAV:   1    -0.709164973941E+03    0.25236E-04   -0.22876E-02 11944   0.224E-01    0.222E-02
RMM:   2    -0.709165051264E+03   -0.77324E-04   -0.80764E-04 13128   0.595E-02    0.761E-03
RMM:   3    -0.709165067179E+03   -0.15914E-04   -0.18012E-04 12755   0.235E-02    0.793E-03
RMM:   4    -0.709165068282E+03   -0.11036E-05   -0.28548E-05  7076   0.119E-02
  25 F= -.70916507E+03 E0= -.70915555E+03  d E =-.955391E-03
 curvature:  -1.18 expect dE=-0.651E-03 dE for cont linesearch -0.963E-05
 ZBRENT: increasing intervall
 opt :   1.7174  next Energy=  -709.165059 (dE=-0.947E-03)
 bond charge predicted
       N       E                     dE             d eps       ncg     rms          rms(c)
DAV:   1    -0.709164767978E+03    0.29920E-03   -0.89901E-02 11146   0.444E-01    0.471E-02
RMM:   2    -0.709165049259E+03   -0.28128E-03   -0.29461E-03 13060   0.116E-01    0.149E-02
RMM:   3    -0.709165117591E+03   -0.68332E-04   -0.72063E-04 14820   0.461E-02    0.139E-02
RMM:   4    -0.709165122708E+03   -0.51176E-05   -0.91487E-05 11427   0.166E-02
  26 F= -.70916512E+03 E0= -.70915561E+03  d E =-.100982E-02
 curvature:   1.08 expect dE= 0.113E-02 dE for cont linesearch  0.151E-04
 ZBRENT: bracketing found
 ZBRENT: interpolating
 opt :   1.4826  next Energy=  -709.165081 (dE=-0.968E-03)
 bond charge predicted
       N       E                     dE             d eps       ncg     rms          rms(c)
DAV:   1    -0.709164985483E+03    0.13211E-03   -0.28935E-02 11080   0.253E-01    0.248E-02
RMM:   2    -0.709165085848E+03   -0.10037E-03   -0.10542E-03 13157   0.696E-02    0.864E-03
RMM:   3    -0.709165108794E+03   -0.22946E-04   -0.25076E-04 13836   0.277E-02    0.954E-03
RMM:   4    -0.709165109616E+03   -0.82156E-06   -0.31351E-05  6888   0.116E-02
  27 F= -.70916511E+03 E0= -.70915560E+03  d E =-.996724E-03
 curvature:  -0.88 expect dE=-0.700E-03 dE for cont linesearch -0.271E-04
 ZBRENT: interpolating
 opt :   1.6230  next Energy=  -709.165131 (dE=-0.102E-02)
 bond charge predicted
       N       E                     dE             d eps       ncg     rms          rms(c)
DAV:   1    -0.709165080889E+03    0.27905E-04   -0.10309E-02 10894   0.151E-01    0.152E-02
RMM:   2    -0.709165116285E+03   -0.35396E-04   -0.37052E-04 13030   0.405E-02    0.485E-03
RMM:   3    -0.709165123052E+03   -0.67671E-05   -0.82069E-05 11270   0.162E-02
  28 F= -.70916512E+03 E0= -.70915561E+03  d E =-.101016E-02
 curvature:  -0.27 expect dE=-0.252E-03 dE for cont linesearch -0.253E-05
 trial: gam= 1.15088 g(F)=  0.925E-03 g(S)=  0.000E+00 ort =-0.146E-03 (trialstep = 0.758E+00)
 search vector abs. value=  0.360E-02
 bond charge predicted
       N       E                     dE             d eps       ncg     rms          rms(c)
DAV:   1    -0.709163865508E+03    0.12508E-02   -0.47484E-01 11318   0.102E+00    0.104E-01
RMM:   2    -0.709165252665E+03   -0.13872E-02   -0.14516E-02 12849   0.257E-01    0.348E-02
RMM:   3    -0.709165604805E+03   -0.35214E-03   -0.36436E-03 14978   0.104E-01    0.321E-02
RMM:   4    -0.709165628509E+03   -0.23705E-04   -0.44167E-04 14790   0.360E-02    0.177E-02
RMM:   5    -0.709165628452E+03    0.57706E-07   -0.94383E-05 10796   0.164E-02
  29 F= -.70916563E+03 E0= -.70915613E+03  d E =-.505400E-03
 trial-energy change:   -0.000505  1 .order   -0.000385   -0.000575   -0.000194
 step:   0.8790(harm=  1.1461)  dis= 0.00268  next Energy=  -709.165644 (dE=-0.521E-03)
 bond charge predicted
       N       E                     dE             d eps       ncg     rms          rms(c)
DAV:   1    -0.709165622152E+03    0.63570E-05   -0.12240E-02 12328   0.164E-01    0.198E-02
RMM:   2    -0.709165661583E+03   -0.39431E-04   -0.41736E-04 12659   0.444E-02    0.620E-03
RMM:   3    -0.709165672095E+03   -0.10512E-04   -0.11777E-04 12070   0.190E-02    0.484E-03
RMM:   4    -0.709165673066E+03   -0.97112E-06   -0.18166E-05  6441   0.976E-03
  30 F= -.70916567E+03 E0= -.70915618E+03  d E =-.550014E-03
 curvature:  -1.43 expect dE=-0.695E-03 dE for cont linesearch -0.113E-04
 ZBRENT: increasing intervall
 opt :   1.1206  next Energy=  -709.165693 (dE=-0.570E-03)
 bond charge predicted
       N       E                     dE             d eps       ncg     rms          rms(c)
DAV:   1    -0.709165545372E+03    0.12672E-03   -0.48149E-02 11296   0.325E-01    0.338E-02
RMM:   2    -0.709165685663E+03   -0.14029E-03   -0.14687E-03 12774   0.829E-02    0.109E-02
RMM:   3    -0.709165722734E+03   -0.37071E-04   -0.38903E-04 13924   0.342E-02    0.986E-03
RMM:   4    -0.709165725662E+03   -0.29278E-05   -0.50011E-05  8941   0.141E-02
  31 F= -.70916573E+03 E0= -.70915624E+03  d E =-.602610E-03
 curvature:  -2.48 expect dE=-0.152E-02 dE for cont linesearch -0.207E-05
 trial: gam= 0.45892 g(F)=  0.612E-03 g(S)=  0.000E+00 ort =-0.549E-04 (trialstep = 0.831E+00)
 search vector abs. value=  0.132E-02
 bond charge predicted
       N       E                     dE             d eps       ncg     rms          rms(c)
DAV:   1    -0.709165282253E+03    0.44048E-03   -0.20637E-01 11080   0.678E-01    0.707E-02
RMM:   2    -0.709165948131E+03   -0.66588E-03   -0.69699E-03 13174   0.179E-01    0.221E-02
RMM:   3    -0.709166107706E+03   -0.15958E-03   -0.16857E-03 15045   0.705E-02    0.213E-02
RMM:   4    -0.709166118441E+03   -0.10735E-04   -0.20229E-04 12832   0.245E-02    0.133E-02
RMM:   5    -0.709166116337E+03    0.21037E-05   -0.55432E-05 10013   0.143E-02
  32 F= -.70916612E+03 E0= -.70915663E+03  d E =-.390675E-03
 trial-energy change:   -0.000391  1 .order   -0.000334   -0.000488   -0.000180
 step:   1.0357(harm=  1.3177)  dis= 0.00139  next Energy=  -709.166139 (dE=-0.414E-03)
 bond charge predicted
       N       E                     dE             d eps       ncg     rms          rms(c)
DAV:   1    -0.709166108448E+03    0.99933E-05   -0.12730E-02 11772   0.169E-01    0.195E-02
RMM:   2    -0.709166152276E+03   -0.43829E-04   -0.46131E-04 13032   0.460E-02    0.573E-03
RMM:   3    -0.709166162646E+03   -0.10370E-04   -0.11914E-04 12389   0.189E-02    0.507E-03
RMM:   4    -0.709166163676E+03   -0.10305E-05   -0.19322E-05  6252   0.100E-02
  33 F= -.70916616E+03 E0= -.70915668E+03  d E =-.438014E-03
 curvature:  -0.98 expect dE=-0.302E-03 dE for cont linesearch -0.612E-05
 ZBRENT: increasing intervall
 opt :   1.4456  next Energy=  -709.166149 (dE=-0.423E-03)
 bond charge predicted
       N       E                     dE             d eps       ncg     rms          rms(c)
DAV:   1    -0.709165990369E+03    0.17228E-03   -0.50240E-02 11172   0.335E-01    0.351E-02
RMM:   2    -0.709166153864E+03   -0.16349E-03   -0.17129E-03 13164   0.893E-02    0.109E-02
RMM:   3    -0.709166192372E+03   -0.38508E-04   -0.41661E-04 14410   0.351E-02    0.103E-02
RMM:   4    -0.709166195035E+03   -0.26631E-05   -0.50934E-05  9270   0.137E-02
  34 F= -.70916620E+03 E0= -.70915671E+03  d E =-.469373E-03
 curvature:   2.36 expect dE= 0.143E-02 dE for cont linesearch  0.260E-04
 ZBRENT: bracketing found
 ZBRENT: interpolating
 opt :   1.2115  next Energy=  -709.166172 (dE=-0.446E-03)
 bond charge predicted
       N       E                     dE             d eps       ncg     rms          rms(c)
DAV:   1    -0.709166112333E+03    0.80039E-04   -0.16426E-02 11142   0.194E-01    0.187E-02
RMM:   2    -0.709166171454E+03   -0.59122E-04   -0.62206E-04 13074   0.542E-02    0.638E-03
RMM:   3    -0.709166183459E+03   -0.12005E-04   -0.13960E-04 12833   0.214E-02    0.714E-03
RMM:   4    -0.709166183930E+03   -0.47003E-06   -0.19428E-05  6230   0.988E-03
  35 F= -.70916618E+03 E0= -.70915670E+03  d E =-.458268E-03
 curvature:  -0.72 expect dE=-0.328E-03 dE for cont linesearch -0.158E-04
 ZBRENT: interpolating
 opt :   1.3484  next Energy=  -709.166201 (dE=-0.475E-03)
 bond charge predicted
       N       E                     dE             d eps       ncg     rms          rms(c)
DAV:   1    -0.709166169478E+03    0.13981E-04   -0.55996E-03 10832   0.113E-01    0.112E-02
RMM:   2    -0.709166190020E+03   -0.20542E-04   -0.21445E-04 12934   0.311E-02    0.362E-03
RMM:   3    -0.709166193324E+03   -0.33044E-05   -0.45435E-05  7939   0.124E-02
  36 F= -.70916619E+03 E0= -.70915671E+03  d E =-.467662E-03
 curvature:  -0.27 expect dE=-0.144E-03 dE for cont linesearch -0.146E-05
 trial: gam= 1.04994 g(F)=  0.536E-03 g(S)=  0.000E+00 ort =-0.848E-04 (trialstep = 0.680E+00)
 search vector abs. value=  0.181E-02
 bond charge predicted
       N       E                     dE             d eps       ncg     rms          rms(c)
DAV:   1    -0.709165776211E+03    0.41381E-03   -0.18868E-01 11173   0.645E-01    0.665E-02
RMM:   2    -0.709166341260E+03   -0.56505E-03   -0.59134E-03 12854   0.164E-01    0.216E-02
RMM:   3    -0.709166484885E+03   -0.14362E-03   -0.14966E-03 14957   0.668E-02    0.203E-02
RMM:   4    -0.709166496098E+03   -0.11213E-04   -0.18295E-04 12713   0.232E-02    0.130E-02
RMM:   5    -0.709166495422E+03    0.67630E-06   -0.47405E-05  9458   0.134E-02
  37 F= -.70916650E+03 E0= -.70915702E+03  d E =-.302097E-03
 trial-energy change:   -0.000302  1 .order   -0.000247   -0.000304   -0.000189
 step:   0.9104(harm=  1.8024)  dis= 0.00150  next Energy=  -709.166530 (dE=-0.336E-03)
 bond charge predicted
       N       E                     dE             d eps       ncg     rms          rms(c)
DAV:   1    -0.709166471103E+03    0.24995E-04   -0.21740E-02 11784   0.219E-01    0.249E-02
RMM:   2    -0.709166538281E+03   -0.67178E-04   -0.70366E-04 12691   0.567E-02    0.761E-03
RMM:   3    -0.709166555676E+03   -0.17395E-04   -0.18986E-04 12762   0.239E-02    0.648E-03
RMM:   4    -0.709166557502E+03   -0.18252E-05   -0.28601E-05  6916   0.120E-02
  38 F= -.70916656E+03 E0= -.70915708E+03  d E =-.364177E-03
 curvature:  -1.35 expect dE=-0.350E-03 dE for cont linesearch -0.127E-04
 ZBRENT: increasing intervall
 opt :   1.3707  next Energy=  -709.166550 (dE=-0.357E-03)
 bond charge predicted
       N       E                     dE             d eps       ncg     rms          rms(c)
DAV:   1    -0.709166314430E+03    0.24125E-03   -0.86173E-02 11260   0.436E-01    0.462E-02
RMM:   2    -0.709166567061E+03   -0.25263E-03   -0.26455E-03 12699   0.111E-01    0.147E-02
RMM:   3    -0.709166637347E+03   -0.70285E-04   -0.73241E-04 14832   0.465E-02    0.132E-02
RMM:   4    -0.709166643435E+03   -0.60885E-05   -0.88565E-05 11343   0.165E-02
  39 F= -.70916664E+03 E0= -.70915717E+03  d E =-.450111E-03
 curvature:   0.81 expect dE= 0.278E-03 dE for cont linesearch  0.552E-06
 trial: gam= 0.43094 g(F)=  0.344E-03 g(S)=  0.000E+00 ort =-0.352E-04 (trialstep = 0.818E+00)
 search vector abs. value=  0.650E-03
 bond charge predicted
       N       E                     dE             d eps       ncg     rms          rms(c)
DAV:   1    -0.709166451888E+03    0.18546E-03   -0.95172E-02 11054   0.462E-01    0.503E-02
RMM:   2    -0.709166777313E+03   -0.32542E-03   -0.34202E-03 13321   0.124E-01    0.156E-02
RMM:   3    -0.709166847859E+03   -0.70546E-04   -0.76343E-04 14943   0.480E-02    0.149E-02
RMM:   4    -0.709166853003E+03   -0.51445E-05   -0.10514E-04 12013   0.181E-02    0.858E-03
RMM:   5    -0.709166851907E+03    0.10968E-05   -0.25372E-05  8077   0.102E-02
  40 F= -.70916685E+03 E0= -.70915739E+03  d E =-.208471E-03
 trial-energy change:   -0.000208  1 .order   -0.000181   -0.000269   -0.000093
 step:   1.2487(harm=  1.2487)  dis= 0.00135  next Energy=  -709.166848 (dE=-0.205E-03)
 bond charge predicted
       N       E                     dE             d eps       ncg     rms          rms(c)
DAV:   1    -0.709166765859E+03    0.87145E-04   -0.26558E-02 11662   0.244E-01    0.265E-02
RMM:   2    -0.709166858108E+03   -0.92249E-04   -0.96613E-04 13214   0.652E-02    0.800E-03
RMM:   3    -0.709166877549E+03   -0.19441E-04   -0.21770E-04 13035   0.257E-02    0.788E-03
RMM:   4    -0.709166879162E+03   -0.16134E-05   -0.33882E-05  7581   0.129E-02
  41 F= -.70916688E+03 E0= -.70915743E+03  d E =-.235727E-03
 curvature:  -1.24 expect dE=-0.329E-03 dE for cont linesearch -0.125E-04
 ZBRENT: interpolating
 opt :   1.0691  next Energy=  -709.166886 (dE=-0.243E-03)
 bond charge predicted
       N       E                     dE             d eps       ncg     rms          rms(c)
DAV:   1    -0.709166856104E+03    0.21445E-04   -0.46193E-03 10800   0.104E-01    0.998E-03
RMM:   2    -0.709166873550E+03   -0.17446E-04   -0.18498E-04 12742   0.282E-02    0.388E-03
RMM:   3    -0.709166875483E+03   -0.19338E-05   -0.33902E-05  6929   0.112E-02
  42 F= -.70916688E+03 E0= -.70915742E+03  d E =-.232048E-03
 curvature:  -0.72 expect dE=-0.156E-03 dE for cont linesearch -0.145E-04
 ZBRENT: interpolating
 opt :   1.1743  next Energy=  -709.166882 (dE=-0.239E-03)
 bond charge predicted
       N       E                     dE             d eps       ncg     rms          rms(c)
DAV:   1    -0.709166871798E+03    0.17521E-05   -0.15468E-03 11268   0.592E-02    0.752E-03
RMM:   2    -0.709166878447E+03   -0.66491E-05   -0.69078E-05  9530   0.163E-02
  43 F= -.70916688E+03 E0= -.70915742E+03  d E =-.235011E-03
 curvature:  -0.15 expect dE=-0.380E-04 dE for cont linesearch -0.299E-05
 ZBRENT: bisectioning
 opt :   1.1217  next Energy=  -709.166885 (dE=-0.242E-03)
 bond charge predicted
       N       E                     dE             d eps       ncg     rms          rms(c)
DAV:   1    -0.709166875962E+03   -0.41649E-05   -0.34809E-04 10460   0.297E-02    0.395E-03
RMM:   2    -0.709166877576E+03   -0.16139E-05   -0.19658E-05  5835   0.112E-02
  44 F= -.70916688E+03 E0= -.70915742E+03  d E =-.234141E-03
 curvature:  -0.33 expect dE=-0.780E-04 dE for cont linesearch -0.711E-05
 ZBRENT: interpolating
 opt :   1.1485  next Energy=  -709.166880 (dE=-0.236E-03)
 bond charge predicted
       N       E                     dE             d eps       ncg     rms          rms(c)
DAV:   1    -0.709166877424E+03   -0.14620E-05   -0.77017E-05  9621   0.177E-02    0.157E-03
RMM:   2    -0.709166878712E+03   -0.12880E-05   -0.13670E-05  5303   0.760E-03
  45 F= -.70916688E+03 E0= -.70915742E+03  d E =-.235277E-03
 curvature:  -0.07 expect dE=-0.154E-04 dE for cont linesearch -0.198E-06
 trial: gam= 0.87378 g(F)=  0.225E-03 g(S)=  0.000E+00 ort =-0.434E-04 (trialstep = 0.884E+00)
 search vector abs. value=  0.646E-03
 bond charge predicted
       N       E                     dE             d eps       ncg     rms          rms(c)
DAV:   1    -0.709166593199E+03    0.28423E-03   -0.11105E-01 11083   0.495E-01    0.518E-02
RMM:   2    -0.709166921543E+03   -0.32834E-03   -0.34505E-03 12650   0.126E-01    0.166E-02
RMM:   3    -0.709167007264E+03   -0.85721E-04   -0.92052E-04 14966   0.525E-02    0.161E-02
RMM:   4    -0.709167014229E+03   -0.69645E-05   -0.11277E-04 12061   0.183E-02    0.110E-02
RMM:   5    -0.709167013079E+03    0.11502E-05   -0.33218E-05  8502   0.112E-02
  46 F= -.70916701E+03 E0= -.70915757E+03  d E =-.134366E-03
 trial-energy change:   -0.000134  1 .order   -0.000120   -0.000166   -0.000074
 step:   1.6018(harm=  1.6018)  dis= 0.00212  next Energy=  -709.167029 (dE=-0.150E-03)
 bond charge predicted
       N       E                     dE             d eps       ncg     rms          rms(c)
DAV:   1    -0.709166750118E+03    0.26411E-03   -0.72972E-02 11384   0.401E-01    0.442E-02
RMM:   2    -0.709166972216E+03   -0.22210E-03   -0.23330E-03 12725   0.103E-01    0.135E-02
RMM:   3    -0.709167029988E+03   -0.57772E-04   -0.61363E-04 14837   0.426E-02    0.126E-02
RMM:   4    -0.709167034773E+03   -0.47850E-05   -0.77536E-05 10793   0.155E-02
  47 F= -.70916703E+03 E0= -.70915760E+03  d E =-.156061E-03
 curvature:  -2.76 expect dE=-0.737E-03 dE for cont linesearch -0.557E-04
 ZBRENT: interpolating
 opt :   1.1883  next Energy=  -709.167026 (dE=-0.147E-03)
 bond charge predicted
       N       E                     dE             d eps       ncg     rms          rms(c)
DAV:   1    -0.709166935113E+03    0.94875E-04   -0.24358E-02 11192   0.233E-01    0.225E-02
RMM:   2    -0.709167015401E+03   -0.80288E-04   -0.84541E-04 12725   0.622E-02    0.786E-03
RMM:   3    -0.709167033879E+03   -0.18478E-04   -0.20856E-04 13475   0.257E-02    0.892E-03
RMM:   4    -0.709167034743E+03   -0.86432E-06   -0.26924E-05  6811   0.113E-02
  48 F= -.70916703E+03 E0= -.70915760E+03  d E =-.156031E-03
 curvature:  -0.63 expect dE=-0.133E-03 dE for cont linesearch -0.972E-05
 ZBRENT: bisectioning
 opt :   1.3950  next Energy=  -709.167056 (dE=-0.178E-03)
 bond charge predicted
       N       E                     dE             d eps       ncg     rms          rms(c)
DAV:   1    -0.709167013896E+03    0.19983E-04   -0.60741E-03 10970   0.117E-01    0.115E-02
RMM:   2    -0.709167034717E+03   -0.20822E-04   -0.21818E-04 12444   0.307E-02    0.379E-03
RMM:   3    -0.709167037965E+03   -0.32474E-05   -0.47396E-05  8001   0.128E-02
  49 F= -.70916704E+03 E0= -.70915760E+03  d E =-.159252E-03
 curvature:  -1.41 expect dE=-0.303E-03 dE for cont linesearch -0.124E-04
 ZBRENT: interpolating
 opt :   1.3061  next Energy=  -709.167041 (dE=-0.163E-03)
 bond charge predicted
       N       E                     dE             d eps       ncg     rms          rms(c)
DAV:   1    -0.709167032649E+03    0.20684E-05   -0.10800E-03 10832   0.496E-02    0.720E-03
RMM:   2    -0.709167036624E+03   -0.39750E-05   -0.43426E-05  7923   0.144E-02
  50 F= -.70916704E+03 E0= -.70915760E+03  d E =-.157912E-03
 curvature:  -0.38 expect dE=-0.867E-04 dE for cont linesearch -0.108E-04
 ZBRENT: interpolating
 opt :   1.3633  next Energy=  -709.167039 (dE=-0.160E-03)
 bond charge predicted
       N       E                     dE             d eps       ncg     rms          rms(c)
DAV:   1    -0.709167035493E+03   -0.28434E-05   -0.40322E-04 10350   0.328E-02    0.411E-03
RMM:   2    -0.709167037744E+03   -0.22515E-05   -0.26709E-05  6823   0.133E-02
  51 F= -.70916704E+03 E0= -.70915760E+03  d E =-.159032E-03
 curvature:  -0.04 expect dE=-0.892E-05 dE for cont linesearch -0.542E-06
 ZBRENT: bisectioning
 opt :   1.3347  next Energy=  -709.167041 (dE=-0.162E-03)
 bond charge predicted
       N       E                     dE             d eps       ncg     rms          rms(c)
DAV:   1    -0.709167036750E+03   -0.12576E-05   -0.88154E-05  9304   0.177E-02    0.169E-03
RMM:   2    -0.709167037961E+03   -0.12107E-05   -0.12575E-05  5397   0.767E-03
  52 F= -.70916704E+03 E0= -.70915760E+03  d E =-.159248E-03
 curvature:  -0.22 expect dE=-0.520E-04 dE for cont linesearch -0.219E-05
 ZBRENT: interpolating
 opt :   1.3481  next Energy=  -709.167038 (dE=-0.160E-03)
 bond charge predicted
       N       E                     dE             d eps       ncg     rms          rms(c)
DAV:   1    -0.709167037727E+03   -0.97682E-06   -0.17963E-05  7284   0.117E-02    0.111E-03
RMM:   2    -0.709167038098E+03   -0.37112E-06   -0.39499E-06  5207   0.413E-03
  53 F= -.70916704E+03 E0= -.70915760E+03  d E =-.159386E-03
 curvature:  -0.05 expect dE=-0.113E-04 dE for cont linesearch -0.223E-06
 ZBRENT: interpolating
 opt :   1.3429  next Energy=  -709.167038 (dE=-0.160E-03)
 bond charge predicted
       N       E                     dE             d eps       ncg     rms          rms(c)
DAV:   1    -0.709167037997E+03   -0.26961E-06   -0.17403E-06  5416   0.570E-03    0.823E-04
RMM:   2    -0.709167038064E+03   -0.67710E-07   -0.84046E-07  4479   0.186E-03
  54 F= -.70916704E+03 E0= -.70915760E+03  d E =-.159352E-03
 curvature:  -0.03 expect dE=-0.670E-05 dE for cont linesearch -0.146E-06
 ZBRENT: interpolating
 opt :   1.3455  next Energy=  -709.167038 (dE=-0.159E-03)
 bond charge predicted
       N       E                     dE             d eps       ncg     rms          rms(c)
DAV:   1    -0.709167038137E+03   -0.14043E-06   -0.29908E-07  5300   0.217E-03    0.386E-04
RMM:   2    -0.709167038137E+03    0.28376E-09   -0.49245E-08  1485   0.787E-04
  55 F= -.70916704E+03 E0= -.70915760E+03  d E =-.159424E-03
 curvature:  -0.01 expect dE=-0.305E-05 dE for cont linesearch -0.274E-08
 trial: gam= 0.69824 g(F)=  0.204E-03 g(S)=  0.000E+00 ort =-0.109E-04 (trialstep = 0.977E+00)
 search vector abs. value=  0.503E-03
 bond charge predicted
       N       E                     dE             d eps       ncg     rms          rms(c)
DAV:   1    -0.709166756273E+03    0.28186E-03   -0.10127E-01 11232   0.485E-01    0.456E-02
RMM:   2    -0.709167077380E+03   -0.32111E-03   -0.33432E-03 13182   0.129E-01    0.154E-02
RMM:   3    -0.709167159975E+03   -0.82595E-04   -0.86627E-04 14771   0.518E-02    0.148E-02
RMM:   4    -0.709167166987E+03   -0.70126E-05   -0.10725E-04 11917   0.185E-02    0.105E-02
RMM:   5    -0.709167165232E+03    0.17554E-05   -0.27728E-05  8139   0.111E-02
  56 F= -.70916717E+03 E0= -.70915773E+03  d E =-.127095E-03
 trial-energy change:   -0.000127  1 .order   -0.000109   -0.000191   -0.000027
 step:   1.1339(harm=  1.1339)  dis= 0.00088  next Energy=  -709.167149 (dE=-0.111E-03)
 bond charge predicted
       N       E                     dE             d eps       ncg     rms          rms(c)
DAV:   1    -0.709167158204E+03    0.87833E-05   -0.26594E-03 12054   0.790E-02    0.959E-03
RMM:   2    -0.709167168259E+03   -0.10056E-04   -0.10614E-04 11969   0.230E-02    0.304E-03
RMM:   3    -0.709167170223E+03   -0.19639E-05   -0.28667E-05  6642   0.102E-02
  57 F= -.70916717E+03 E0= -.70915774E+03  d E =-.132087E-03
 curvature:  -1.46 expect dE=-0.186E-03 dE for cont linesearch -0.417E-05
 ZBRENT: interpolating
 opt :   1.0422  next Energy=  -709.167166 (dE=-0.128E-03)
 bond charge predicted
       N       E                     dE             d eps       ncg     rms          rms(c)
DAV:   1    -0.709167164429E+03    0.38304E-05   -0.84801E-04 10984   0.451E-02    0.522E-03
RMM:   2    -0.709167168125E+03   -0.36959E-05   -0.39340E-05  8077   0.138E-02
  58 F= -.70916717E+03 E0= -.70915773E+03  d E =-.129988E-03
 curvature:  -0.31 expect dE=-0.474E-04 dE for cont linesearch -0.107E-04
 ZBRENT: interpolating
 opt :   1.1133  next Energy=  -709.167171 (dE=-0.132E-03)
 bond charge predicted
       N       E                     dE             d eps       ncg     rms          rms(c)
DAV:   1    -0.709167167284E+03   -0.28554E-05   -0.47910E-04 10680   0.350E-02    0.396E-03
RMM:   2    -0.709167169843E+03   -0.25589E-05   -0.29011E-05  6964   0.136E-02
  59 F= -.70916717E+03 E0= -.70915774E+03  d E =-.131707E-03
 curvature:  -0.01 expect dE=-0.144E-05 dE for cont linesearch -0.763E-07
 ZBRENT: bisectioning
 opt :   1.0778  next Energy=  -709.167173 (dE=-0.134E-03)
 bond charge predicted
       N       E                     dE             d eps       ncg     rms          rms(c)
DAV:   1    -0.709167168103E+03   -0.81841E-06   -0.10684E-04 11662   0.193E-02    0.193E-03
RMM:   2    -0.709167169344E+03   -0.12414E-05   -0.13448E-05  5214   0.859E-03
  60 F= -.70916717E+03 E0= -.70915774E+03  d E =-.131208E-03
 curvature:  -0.40 expect dE=-0.575E-04 dE for cont linesearch -0.582E-05
 ZBRENT: interpolating
 opt :   1.0989  next Energy=  -709.167170 (dE=-0.132E-03)
 bond charge predicted
       N       E                     dE             d eps       ncg     rms          rms(c)
DAV:   1    -0.709167169030E+03   -0.92750E-06   -0.32409E-05  7816   0.134E-02    0.115E-03
RMM:   2    -0.709167169862E+03   -0.83112E-06   -0.84946E-06  5181   0.662E-03
  61 F= -.70916717E+03 E0= -.70915774E+03  d E =-.131725E-03
 curvature:  -0.03 expect dE=-0.355E-05 dE for cont linesearch -0.107E-06
 ZBRENT: bisectioning
 opt :   1.0884  next Energy=  -709.167170 (dE=-0.132E-03)
 bond charge predicted
       N       E                     dE             d eps       ncg     rms          rms(c)
DAV:   1    -0.709167169349E+03   -0.31907E-06   -0.49180E-06  5700   0.776E-03    0.126E-03
RMM:   2    -0.709167169546E+03   -0.19615E-06   -0.24500E-06  5122   0.313E-03
  62 F= -.70916717E+03 E0= -.70915774E+03  d E =-.131409E-03
 curvature:  -0.11 expect dE=-0.151E-04 dE for cont linesearch -0.194E-05
 ZBRENT: interpolating
 opt :   1.0956  next Energy=  -709.167170 (dE=-0.132E-03)
 bond charge predicted
       N       E                     dE             d eps       ncg     rms          rms(c)
DAV:   1    -0.709167169769E+03   -0.41984E-06   -0.12655E-06  5358   0.473E-03    0.982E-04
RMM:   2    -0.709167169863E+03   -0.93947E-07   -0.12478E-06  5018   0.236E-03
  63 F= -.70916717E+03 E0= -.70915774E+03  d E =-.131727E-03
 curvature:  -0.00 expect dE=-0.479E-06 dE for cont linesearch -0.176E-09
 trial: gam= 0.51534 g(F)=  0.121E-03 g(S)=  0.000E+00 ort =-0.473E-05 (trialstep = 0.100E+01)
 search vector abs. value=  0.250E-03
 bond charge predicted
       N       E                     dE             d eps       ncg     rms          rms(c)
DAV:   1    -0.709167044079E+03    0.12569E-03   -0.53050E-02 11262   0.353E-01    0.315E-02
RMM:   2    -0.709167213468E+03   -0.16939E-03   -0.17548E-03 13204   0.956E-02    0.114E-02
RMM:   3    -0.709167258928E+03   -0.45460E-04   -0.48086E-04 14487   0.386E-02    0.103E-02
RMM:   4    -0.709167262605E+03   -0.36763E-05   -0.55789E-05  9731   0.140E-02
  64 F= -.70916726E+03 E0= -.70915783E+03  d E =-.927415E-04
 trial-energy change:   -0.000093  1 .order   -0.000056   -0.000119    0.000007
 step:   0.9451(harm=  0.9451)  dis= 0.00048  next Energy=  -709.167226 (dE=-0.562E-04)
 bond charge predicted
       N       E                     dE             d eps       ncg     rms          rms(c)
DAV:   1    -0.709167258417E+03    0.51138E-06   -0.17080E-04 12870   0.276E-02    0.246E-03
RMM:   2    -0.709167260234E+03   -0.18171E-05   -0.20966E-05  6440   0.996E-03
  65 F= -.70916726E+03 E0= -.70915783E+03  d E =-.903710E-04
 curvature:  -0.99 expect dE=-0.693E-04 dE for cont linesearch -0.294E-04
 ZBRENT: interpolating
 opt :   0.9963  next Energy=  -709.167263 (dE=-0.928E-04)
 bond charge predicted
       N       E                     dE             d eps       ncg     rms          rms(c)
DAV:   1    -0.709167261965E+03   -0.35476E-05   -0.12592E-04 11728   0.182E-02    0.329E-03
RMM:   2    -0.709167262672E+03   -0.70767E-06   -0.79150E-06  5380   0.615E-03
  66 F= -.70916726E+03 E0= -.70915783E+03  d E =-.928091E-04
 curvature:  -0.00 expect dE=-0.215E-07 dE for cont linesearch -0.736E-09
 ZBRENT: interpolating
 opt :   0.9993  next Energy=  -709.167263 (dE=-0.927E-04)
 bond charge predicted
       N       E                     dE             d eps       ncg     rms          rms(c)
DAV:   1    -0.709167262577E+03   -0.61237E-06   -0.20291E-06  5824   0.997E-03    0.616E-04
RMM:   2    -0.709167262742E+03   -0.16522E-06   -0.17104E-06  5157   0.289E-03
  67 F= -.70916726E+03 E0= -.70915783E+03  d E =-.928790E-04
 curvature:  -0.00 expect dE=-0.113E-06 dE for cont linesearch -0.320E-08
 ZBRENT: interpolating
 opt :   1.0001  next Energy=  -709.167263 (dE=-0.927E-04)
 bond charge predicted
       N       E                     dE             d eps       ncg     rms          rms(c)
DAV:   1    -0.709167262804E+03   -0.22729E-06   -0.61117E-07  5480   0.318E-03    0.193E-04
RMM:   2    -0.709167262840E+03   -0.35499E-07   -0.36131E-07  4082   0.134E-03
  68 F= -.70916726E+03 E0= -.70915783E+03  d E =-.929766E-04
 curvature:  -0.00 expect dE=-0.395E-07 dE for cont linesearch -0.271E-08
 ZBRENT: interpolating
 opt :   1.0004  next Energy=  -709.167263 (dE=-0.927E-04)
 bond charge predicted
       N       E                     dE             d eps       ncg     rms          rms(c)
DAV:   1    -0.709167262863E+03   -0.58935E-07   -0.17292E-07  5350   0.138E-03    0.192E-04
RMM:   2    -0.709167262863E+03    0.35652E-09   -0.18825E-09   776   0.672E-04
  69 F= -.70916726E+03 E0= -.70915783E+03  d E =-.929997E-04
 curvature:  -0.00 expect dE=-0.311E-08 dE for cont linesearch -0.260E-09
 ZBRENT: interpolating
 opt :   1.0004  next Energy=  -709.167263 (dE=-0.927E-04)
 bond charge predicted
       N       E                     dE             d eps       ncg     rms          rms(c)
DAV:   1    -0.709167262875E+03   -0.11278E-07   -0.79750E-08  5296   0.666E-04    0.474E-05
RMM:   2    -0.709167262874E+03    0.10186E-09    0.00000E+00   707   0.524E-04
  70 F= -.70916726E+03 E0= -.70915783E+03  d E =-.930112E-04
 curvature:  -0.00 expect dE=-0.460E-09 dE for cont linesearch -0.507E-10
 ZBRENT: interpolating
 opt :   1.0004  next Energy=  -709.167263 (dE=-0.927E-04)
 bond charge predicted
       N       E                     dE             d eps       ncg     rms          rms(c)
DAV:   1    -0.709167262879E+03   -0.45984E-08   -0.37391E-08  5295   0.568E-04    0.341E-05
RMM:   2    -0.709167262880E+03   -0.61118E-09    0.00000E+00   604   0.321E-04
  71 F= -.70916726E+03 E0= -.70915783E+03  d E =-.930165E-04
 curvature:  -0.00 expect dE=-0.545E-10 dE for cont linesearch -0.641E-11
 ZBRENT: interpolating
 opt :   1.0004  next Energy=  -709.167263 (dE=-0.927E-04)
 bond charge predicted
       N       E                     dE             d eps       ncg     rms          rms(c)
DAV:   1    -0.709167262881E+03   -0.17462E-08   -0.15866E-08  5240   0.499E-04    0.527E-05
RMM:   2    -0.709167262881E+03    0.24738E-09    0.00000E+00   581   0.283E-04
  72 F= -.70916726E+03 E0= -.70915783E+03  d E =-.930174E-04
 curvature:  -0.00 expect dE=-0.785E-11 dE for cont linesearch -0.981E-12
 ZBRENT: interpolating
 opt :   1.0004  next Energy=  -709.167263 (dE=-0.927E-04)
 bond charge predicted
       N       E                     dE             d eps       ncg     rms          rms(c)
DAV:   1    -0.709167262883E+03   -0.20373E-08   -0.14653E-08  5250   0.744E-04    0.706E-05
RMM:   2    -0.709167262883E+03    0.28376E-09    0.00000E+00   519   0.220E-04
  73 F= -.70916726E+03 E0= -.70915783E+03  d E =-.930194E-04
 curvature:  -0.00 expect dE=-0.110E-11 dE for cont linesearch -0.141E-12
 ZBRENT:  accuracy reached
 opt :   0.0000  next Energy=     0.000000 (dE= 0.709E+03)
 bond charge predicted
       N       E                     dE             d eps       ncg     rms          rms(c)
DAV:   1    -0.709166952959E+03    0.30992E-03   -0.52836E-02 11270   0.353E-01    0.314E-02
RMM:   2    -0.709167121541E+03   -0.16858E-03   -0.17487E-03 13216   0.952E-02    0.114E-02
RMM:   3    -0.709167166263E+03   -0.44722E-04   -0.47501E-04 14481   0.384E-02    0.103E-02
RMM:   4    -0.709167169785E+03   -0.35218E-05   -0.55426E-05  9716   0.140E-02
  74 F= -.70916717E+03 E0= -.70915774E+03  d E =0.785294E-07
 curvature:   0.00 expect dE= 0.000E+00 dE for cont linesearch  0.000E+00
 -----------------------------------------------------------------------------
|                                                                             |
|     EEEEEEE  RRRRRR   RRRRRR   OOOOOOO  RRRRRR      ###     ###     ###     |
|     E        R     R  R     R  O     O  R     R     ###     ###     ###     |
|     E        R     R  R     R  O     O  R     R     ###     ###     ###     |
|     EEEEE    RRRRRR   RRRRRR   O     O  RRRRRR       #       #       #      |
|     E        R   R    R   R    O     O  R   R                               |
|     E        R    R   R    R   O     O  R    R      ###     ###     ###     |
|     EEEEEEE  R     R  R     R  OOOOOOO  R     R     ###     ###     ###     |
|                                                                             |
|     ZBRENT: fatal error in bracketing                                       |
|      please rerun with smaller EDIFF, or copy CONTCAR                       |
|      to POSCAR and continue                                                 |
|                                                                             |
|       ---->  I REFUSE TO CONTINUE WITH THIS SICK JOB ... BYE!!! <----       |
|                                                                             |
 -----------------------------------------------------------------------------

Warning: ieee_invalid is signaling
Warning: ieee_divide_by_zero is signaling
Warning: ieee_underflow is signaling
Warning: ieee_inexact is signaling
    1
Warning: ieee_invalid is signaling
Warning: ieee_divide_by_zero is signaling
Warning: ieee_underflow is signaling
Warning: ieee_inexact is signaling
    1
Warning: ieee_invalid is signaling
Warning: ieee_divide_by_zero is signaling
Warning: ieee_underflow is signaling
Warning: ieee_inexact is signaling
    1
Warning: ieee_invalid is signaling
Warning: ieee_divide_by_zero is signaling
Warning: ieee_underflow is signaling
Warning: ieee_inexact is signaling
    1
--------------------------------------------------------------------------
Primary job  terminated normally, but 1 process returned
a non-zero exit code. Per user-direction, the job has been aborted.
--------------------------------------------------------------------------
--------------------------------------------------------------------------
mpirun detected that one or more processes exited with non-zero status, thus causing
the job to be terminated. The first process to do so was:

  Process name: [[16224,1],3]
  Exit code:    1
--------------------------------------------------------------------------
