<?xml version="1.0" encoding="ISO-8859-1"?>
<modeling>
 <generator>
  <i name="program" type="string">vasp </i>
  <i name="version" type="string">6.4.2  </i>
  <i name="subversion" type="string">20Jul23 (build Nov 12 2023 22:16:35) complex                          parallel </i>
  <i name="platform" type="string">LinuxNV </i>
  <i name="date" type="string">2025 03 11 </i>
  <i name="time" type="string">11:01:02 </i>
 </generator>
 <incar>
  <i type="int" name="ISTART">     0</i>
  <i type="string" name="PREC">Normal</i>
  <i type="string" name="ALGO">Fast</i>
  <i type="int" name="ISPIN">     1</i>
  <i type="int" name="ICHARG">     2</i>
  <i type="int" name="IBRION">     2</i>
  <i name="EDIFF">      0.00001000</i>
  <i name="EDIFFG">     -0.00500000</i>
  <i type="int" name="NSW">   300</i>
  <i type="int" name="ISIF">     2</i>
  <i name="ENCUT">    450.00000000</i>
  <i type="string" name="LREAL">Auto</i>
  <i type="logical" name="LPLANE"> T  </i>
  <i type="int" name="ISMEAR">     0</i>
  <i name="SIGMA">      0.05000000</i>
  <i type="logical" name="LWAVE"> F  </i>
  <i type="logical" name="LCHARG"> F  </i>
 </incar>
 <primitive_cell>
  <structure name="primitive_cell" >
   <crystal>
    <varray name="basis" >
     <v>       0.00000000      12.28047342       0.00000000 </v>
     <v>       9.14270205       0.00000000       0.00000000 </v>
     <v>       0.00000000      -2.76826177     -11.30069772 </v>
    </varray>
    <i name="volume">   1268.80515525 </i>
    <varray name="rec_basis" >
     <v>       0.00000000       0.08143009      -0.01994742 </v>
     <v>       0.10937686      -0.00000000       0.00000000 </v>
     <v>       0.00000000       0.00000000      -0.08849011 </v>
    </varray>
   </crystal>
   <varray name="positions" >
    <v>       0.65883830       0.00000000       0.15736517 </v>
    <v>       0.65883830       0.00000000       0.65736517 </v>
    <v>       0.65883830       0.33333333       0.15736517 </v>
    <v>       0.65883830       0.33333333       0.65736517 </v>
    <v>       0.65883830       0.66666667       0.15736517 </v>
    <v>       0.65883830       0.66666667       0.65736517 </v>
    <v>       0.84116170       0.16666667       0.34263483 </v>
    <v>       0.84116170       0.16666667       0.84263483 </v>
    <v>       0.84116170       0.50000000       0.34263483 </v>
    <v>       0.84116170       0.50000000       0.84263483 </v>
    <v>       0.84116170       0.83333333       0.34263483 </v>
    <v>       0.84116170       0.83333333       0.84263483 </v>
    <v>       0.59047440       0.16666667       0.39739300 </v>
    <v>       0.59047440       0.16666667       0.89739300 </v>
    <v>       0.59047440       0.50000000       0.39739300 </v>
    <v>       0.59047440       0.50000000       0.89739300 </v>
    <v>       0.59047440       0.83333333       0.39739300 </v>
    <v>       0.59047440       0.83333333       0.89739300 </v>
    <v>       0.90952560       0.00000000       0.10260700 </v>
    <v>       0.90952560       0.00000000       0.60260700 </v>
    <v>       0.90952560       0.33333333       0.10260700 </v>
    <v>       0.90952560       0.33333333       0.60260700 </v>
    <v>       0.90952560       0.66666667       0.10260700 </v>
    <v>       0.90952560       0.66666667       0.60260700 </v>
    <v>       0.15883830       0.16666667       0.15736517 </v>
    <v>       0.15883830       0.16666667       0.65736517 </v>
    <v>       0.15883830       0.50000000       0.15736517 </v>
    <v>       0.15883830       0.50000000       0.65736517 </v>
    <v>       0.15883830       0.83333333       0.15736517 </v>
    <v>       0.15883830       0.83333333       0.65736517 </v>
    <v>       0.34116170       0.00000000       0.34263483 </v>
    <v>       0.34116170       0.00000000       0.84263483 </v>
    <v>       0.34116170       0.33333333       0.34263483 </v>
    <v>       0.34116170       0.33333333       0.84263483 </v>
    <v>       0.34116170       0.66666667       0.34263483 </v>
    <v>       0.34116170       0.66666667       0.84263483 </v>
    <v>       0.09047440       0.00000000       0.39739300 </v>
    <v>       0.09047440       0.00000000       0.89739300 </v>
    <v>       0.09047440       0.33333333       0.39739300 </v>
    <v>       0.09047440       0.33333333       0.89739300 </v>
    <v>       0.09047440       0.66666667       0.39739300 </v>
    <v>       0.09047440       0.66666667       0.89739300 </v>
    <v>       0.40952560       0.16666667       0.10260700 </v>
    <v>       0.40952560       0.16666667       0.60260700 </v>
    <v>       0.40952560       0.50000000       0.10260700 </v>
    <v>       0.40952560       0.50000000       0.60260700 </v>
    <v>       0.40952560       0.83333333       0.10260700 </v>
    <v>       0.40952560       0.83333333       0.60260700 </v>
    <v>       0.99646913       0.16666667       0.12833205 </v>
    <v>       0.99646913       0.16666667       0.62833205 </v>
    <v>       0.99646913       0.50000000       0.12833205 </v>
    <v>       0.99646913       0.50000000       0.62833205 </v>
    <v>       0.99646913       0.83333333       0.12833205 </v>
    <v>       0.99646913       0.83333333       0.62833205 </v>
    <v>       0.50353087       0.00000000       0.37166795 </v>
    <v>       0.50353087       0.00000000       0.87166795 </v>
    <v>       0.50353087       0.33333333       0.37166795 </v>
    <v>       0.50353087       0.33333333       0.87166795 </v>
    <v>       0.50353087       0.66666667       0.37166795 </v>
    <v>       0.50353087       0.66666667       0.87166795 </v>
    <v>       0.67337106       0.16666667       0.28161508 </v>
    <v>       0.67337106       0.16666667       0.78161508 </v>
    <v>       0.67337106       0.50000000       0.28161508 </v>
    <v>       0.67337106       0.50000000       0.78161508 </v>
    <v>       0.67337106       0.83333333       0.28161508 </v>
    <v>       0.67337106       0.83333333       0.78161508 </v>
    <v>       0.82662894       0.00000000       0.21838492 </v>
    <v>       0.82662894       0.00000000       0.71838492 </v>
    <v>       0.82662894       0.33333333       0.21838492 </v>
    <v>       0.82662894       0.33333333       0.71838492 </v>
    <v>       0.82662894       0.66666667       0.21838492 </v>
    <v>       0.82662894       0.66666667       0.71838492 </v>
    <v>       0.83549502       0.00000000       0.44542296 </v>
    <v>       0.83549502       0.00000000       0.94542296 </v>
    <v>       0.83549502       0.33333333       0.44542296 </v>
    <v>       0.83549502       0.33333333       0.94542296 </v>
    <v>       0.83549502       0.66666667       0.44542296 </v>
    <v>       0.83549502       0.66666667       0.94542296 </v>
    <v>       0.66450498       0.16666667       0.05457704 </v>
    <v>       0.66450498       0.16666667       0.55457704 </v>
    <v>       0.66450498       0.50000000       0.05457704 </v>
    <v>       0.66450498       0.50000000       0.55457704 </v>
    <v>       0.66450498       0.83333333       0.05457704 </v>
    <v>       0.66450498       0.83333333       0.55457704 </v>
    <v>       0.49646913       0.00000000       0.12833205 </v>
    <v>       0.49646913       0.00000000       0.62833205 </v>
    <v>       0.49646913       0.33333333       0.12833205 </v>
    <v>       0.49646913       0.33333333       0.62833205 </v>
    <v>       0.49646913       0.66666667       0.12833205 </v>
    <v>       0.49646913       0.66666667       0.62833205 </v>
    <v>       0.00353087       0.16666667       0.37166795 </v>
    <v>       0.00353087       0.16666667       0.87166795 </v>
    <v>       0.00353087       0.50000000       0.37166795 </v>
    <v>       0.00353087       0.50000000       0.87166795 </v>
    <v>       0.00353087       0.83333333       0.37166795 </v>
    <v>       0.00353087       0.83333333       0.87166795 </v>
    <v>       0.17337106       0.00000000       0.28161508 </v>
    <v>       0.17337106       0.00000000       0.78161508 </v>
    <v>       0.17337106       0.33333333       0.28161508 </v>
    <v>       0.17337106       0.33333333       0.78161508 </v>
    <v>       0.17337106       0.66666667       0.28161508 </v>
    <v>       0.17337106       0.66666667       0.78161508 </v>
    <v>       0.32662894       0.16666667       0.21838492 </v>
    <v>       0.32662894       0.16666667       0.71838492 </v>
    <v>       0.32662894       0.50000000       0.21838492 </v>
    <v>       0.32662894       0.50000000       0.71838492 </v>
    <v>       0.32662894       0.83333333       0.21838492 </v>
    <v>       0.32662894       0.83333333       0.71838492 </v>
    <v>       0.33549502       0.16666667       0.44542296 </v>
    <v>       0.33549502       0.16666667       0.94542296 </v>
    <v>       0.33549502       0.50000000       0.44542296 </v>
    <v>       0.33549502       0.50000000       0.94542296 </v>
    <v>       0.33549502       0.83333333       0.44542296 </v>
    <v>       0.33549502       0.83333333       0.94542296 </v>
    <v>       0.16450498       0.00000000       0.05457704 </v>
    <v>       0.16450498       0.33333333       0.05457704 </v>
    <v>       0.16450498       0.33333333       0.55457704 </v>
    <v>       0.16450498       0.66666667       0.05457704 </v>
    <v>       0.16450498       0.66666667       0.55457704 </v>
    <v>       0.16450498       0.00000000       0.55457704 </v>
   </varray>
  </structure>
  <varray name="primitive_index" >
   <v type="int" >        1 </v>
   <v type="int" >        2 </v>
   <v type="int" >        3 </v>
   <v type="int" >        4 </v>
   <v type="int" >        5 </v>
   <v type="int" >        6 </v>
   <v type="int" >        7 </v>
   <v type="int" >        8 </v>
   <v type="int" >        9 </v>
   <v type="int" >       10 </v>
   <v type="int" >       11 </v>
   <v type="int" >       12 </v>
   <v type="int" >       13 </v>
   <v type="int" >       14 </v>
   <v type="int" >       15 </v>
   <v type="int" >       16 </v>
   <v type="int" >       17 </v>
   <v type="int" >       18 </v>
   <v type="int" >       19 </v>
   <v type="int" >       20 </v>
   <v type="int" >       21 </v>
   <v type="int" >       22 </v>
   <v type="int" >       23 </v>
   <v type="int" >       24 </v>
   <v type="int" >       25 </v>
   <v type="int" >       26 </v>
   <v type="int" >       27 </v>
   <v type="int" >       28 </v>
   <v type="int" >       29 </v>
   <v type="int" >       30 </v>
   <v type="int" >       31 </v>
   <v type="int" >       32 </v>
   <v type="int" >       33 </v>
   <v type="int" >       34 </v>
   <v type="int" >       35 </v>
   <v type="int" >       36 </v>
   <v type="int" >       37 </v>
   <v type="int" >       38 </v>
   <v type="int" >       39 </v>
   <v type="int" >       40 </v>
   <v type="int" >       41 </v>
   <v type="int" >       42 </v>
   <v type="int" >       43 </v>
   <v type="int" >       44 </v>
   <v type="int" >       45 </v>
   <v type="int" >       46 </v>
   <v type="int" >       47 </v>
   <v type="int" >       48 </v>
   <v type="int" >       49 </v>
   <v type="int" >       50 </v>
   <v type="int" >       51 </v>
   <v type="int" >       52 </v>
   <v type="int" >       53 </v>
   <v type="int" >       54 </v>
   <v type="int" >       55 </v>
   <v type="int" >       56 </v>
   <v type="int" >       57 </v>
   <v type="int" >       58 </v>
   <v type="int" >       59 </v>
   <v type="int" >       60 </v>
   <v type="int" >       61 </v>
   <v type="int" >       62 </v>
   <v type="int" >       63 </v>
   <v type="int" >       64 </v>
   <v type="int" >       65 </v>
   <v type="int" >       66 </v>
   <v type="int" >       67 </v>
   <v type="int" >       68 </v>
   <v type="int" >       69 </v>
   <v type="int" >       70 </v>
   <v type="int" >       71 </v>
   <v type="int" >       72 </v>
   <v type="int" >       73 </v>
   <v type="int" >       74 </v>
   <v type="int" >       75 </v>
   <v type="int" >       76 </v>
   <v type="int" >       77 </v>
   <v type="int" >       78 </v>
   <v type="int" >       79 </v>
   <v type="int" >       80 </v>
   <v type="int" >       81 </v>
   <v type="int" >       82 </v>
   <v type="int" >       83 </v>
   <v type="int" >       84 </v>
   <v type="int" >       85 </v>
   <v type="int" >       86 </v>
   <v type="int" >       87 </v>
   <v type="int" >       88 </v>
   <v type="int" >       89 </v>
   <v type="int" >       90 </v>
   <v type="int" >       91 </v>
   <v type="int" >       92 </v>
   <v type="int" >       93 </v>
   <v type="int" >       94 </v>
   <v type="int" >       95 </v>
   <v type="int" >       96 </v>
   <v type="int" >       97 </v>
   <v type="int" >       98 </v>
   <v type="int" >       99 </v>
   <v type="int" >      100 </v>
   <v type="int" >      101 </v>
   <v type="int" >      102 </v>
   <v type="int" >      103 </v>
   <v type="int" >      104 </v>
   <v type="int" >      105 </v>
   <v type="int" >      106 </v>
   <v type="int" >      107 </v>
   <v type="int" >      108 </v>
   <v type="int" >      109 </v>
   <v type="int" >      110 </v>
   <v type="int" >      111 </v>
   <v type="int" >      112 </v>
   <v type="int" >      113 </v>
   <v type="int" >      114 </v>
   <v type="int" >      115 </v>
   <v type="int" >      116 </v>
   <v type="int" >      117 </v>
   <v type="int" >      118 </v>
   <v type="int" >      119 </v>
   <v type="int" >      120 </v>
  </varray>
 </primitive_cell>
 <kpoints>
  <generation param="Gamma">
   <v type="int" name="divisions">       2        2        2 </v>
   <v name="usershift">      0.00000000       0.00000000       0.00000000 </v>
   <v name="genvec1">      0.50000000       0.00000000       0.00000000 </v>
   <v name="genvec2">      0.00000000       0.50000000       0.00000000 </v>
   <v name="genvec3">      0.00000000       0.00000000       0.50000000 </v>
   <v name="shift">      0.00000000       0.00000000       0.00000000 </v>
  </generation>
  <varray name="kpointlist" >
   <v>       0.00000000       0.00000000       0.00000000 </v>
   <v>       0.50000000       0.00000000       0.00000000 </v>
   <v>       0.00000000       0.50000000       0.00000000 </v>
   <v>       0.50000000       0.50000000       0.00000000 </v>
   <v>       0.00000000       0.00000000       0.50000000 </v>
   <v>       0.50000000       0.00000000       0.50000000 </v>
   <v>       0.00000000       0.50000000       0.50000000 </v>
   <v>       0.50000000       0.50000000       0.50000000 </v>
  </varray>
  <varray name="weights" >
   <v>       0.12500000 </v>
   <v>       0.12500000 </v>
   <v>       0.12500000 </v>
   <v>       0.12500000 </v>
   <v>       0.12500000 </v>
   <v>       0.12500000 </v>
   <v>       0.12500000 </v>
   <v>       0.12500000 </v>
  </varray>
 </kpoints>
 <parameters>
  <separator name="general" >
   <i type="string" name="SYSTEM">unknown system</i>
   <i type="logical" name="LCOMPAT"> F  </i>
  </separator>
  <separator name="electronic" >
   <i type="string" name="PREC">normal</i>
   <i name="ENMAX">    450.00000000</i>
   <i name="ENAUG">    605.39200000</i>
   <i name="EDIFF">      0.00001000</i>
   <i type="int" name="IALGO">    68</i>
   <i type="int" name="IWAVPR">    11</i>
   <i type="int" name="NBANDS">   633</i>
   <i type="int" name="NBANDSLOW">    -1</i>
   <i type="int" name="NBANDSHIGH">    -1</i>
   <i name="NELECT">   1055.00000000</i>
   <i type="int" name="TURBO">     0</i>
   <i type="int" name="IRESTART">     0</i>
   <i type="int" name="NREBOOT">     0</i>
   <i type="int" name="NMIN">     0</i>
   <i name="EREF">      0.00000000</i>
   <separator name="electronic smearing" >
    <i type="int" name="ISMEAR">     0</i>
    <i name="SIGMA">      0.05000000</i>
    <i name="KSPACING">      0.50000000</i>
    <i type="logical" name="KGAMMA"> T  </i>
    <i type="logical" name="KBLOWUP"> T  </i>
   </separator>
   <separator name="electronic projectors" >
    <i type="logical" name="LREAL"> T  </i>
    <v name="ROPT">     -0.00050000     -0.00050000     -0.00050000</v>
    <i type="int" name="LMAXPAW">  -100</i>
    <i type="int" name="LMAXMIX">     2</i>
    <i type="logical" name="NLSPLINE"> F  </i>
   </separator>
   <separator name="electronic startup" >
    <i type="int" name="ISTART">     0</i>
    <i type="int" name="ICHARG">     2</i>
    <i type="int" name="INIWAV">     1</i>
   </separator>
   <separator name="electronic spin" >
    <i type="int" name="ISPIN">     1</i>
    <i type="logical" name="LNONCOLLINEAR"> F  </i>
    <v name="MAGMOM">      1.00000000      1.00000000      1.00000000      1.00000000      1.00000000      1.00000000      1.00000000      1.00000000      1.00000000      1.00000000      1.00000000      1.00000000      1.00000000      1.00000000      1.00000000      1.00000000      1.00000000      1.00000000      1.00000000      1.00000000
      1.00000000      1.00000000      1.00000000      1.00000000      1.00000000      1.00000000      1.00000000      1.00000000      1.00000000      1.00000000      1.00000000      1.00000000      1.00000000      1.00000000      1.00000000      1.00000000      1.00000000      1.00000000      1.00000000      1.00000000
      1.00000000      1.00000000      1.00000000      1.00000000      1.00000000      1.00000000      1.00000000      1.00000000      1.00000000      1.00000000      1.00000000      1.00000000      1.00000000      1.00000000      1.00000000      1.00000000      1.00000000      1.00000000      1.00000000      1.00000000
      1.00000000      1.00000000      1.00000000      1.00000000      1.00000000      1.00000000      1.00000000      1.00000000      1.00000000      1.00000000      1.00000000      1.00000000      1.00000000      1.00000000      1.00000000      1.00000000      1.00000000      1.00000000      1.00000000      1.00000000
      1.00000000      1.00000000      1.00000000      1.00000000      1.00000000      1.00000000      1.00000000      1.00000000      1.00000000      1.00000000      1.00000000      1.00000000      1.00000000      1.00000000      1.00000000      1.00000000      1.00000000      1.00000000      1.00000000      1.00000000
      1.00000000      1.00000000      1.00000000      1.00000000      1.00000000      1.00000000      1.00000000      1.00000000      1.00000000      1.00000000      1.00000000      1.00000000      1.00000000      1.00000000      1.00000000      1.00000000      1.00000000      1.00000000      1.00000000      1.00000000
</v>
    <i name="NUPDOWN">     -1.00000000</i>
    <i type="logical" name="LSORBIT"> F  </i>
    <v name="SAXIS">      0.00000000      0.00000000      1.00000000</v>
    <i type="logical" name="LSPIRAL"> F  </i>
    <v name="QSPIRAL">      0.00000000      0.00000000      0.00000000</v>
    <i type="logical" name="LZEROZ"> F  </i>
   </separator>
   <separator name="electronic exchange-correlation" >
    <i type="logical" name="LASPH"> F  </i>
    <i type="logical" name="LMETAGGA"> F  </i>
   </separator>
   <separator name="electronic convergence" >
    <i type="int" name="NELM">    60</i>
    <i type="int" name="NELMDL">    -5</i>
    <i type="int" name="NELMIN">     2</i>
    <i name="ENINI">    450.00000000</i>
    <separator name="electronic convergence detail" >
     <i type="logical" name="LDIAG"> T  </i>
     <i type="logical" name="LSUBROT"> F  </i>
     <i name="WEIMIN">      0.00100000</i>
     <i name="EBREAK">      0.00000000</i>
     <i name="DEPER">      0.30000000</i>
     <i type="int" name="NRMM">     4</i>
     <i name="TIME">      0.40000000</i>
    </separator>
   </separator>
   <separator name="electronic mixer" >
    <i name="AMIX">      0.40000000</i>
    <i name="BMIX">      1.00000000</i>
    <i name="AMIN">      0.10000000</i>
    <i name="AMIX_MAG">      1.60000000</i>
    <i name="BMIX_MAG">      1.00000000</i>
    <separator name="electronic mixer details" >
     <i type="int" name="IMIX">     4</i>
     <i type="logical" name="MIXFIRST"> F  </i>
     <i type="int" name="MAXMIX">   -45</i>
     <i name="WC">    100.00000000</i>
     <i type="int" name="INIMIX">     1</i>
     <i type="int" name="MIXPRE">     1</i>
     <i type="int" name="MREMOVE">     5</i>
    </separator>
   </separator>
   <separator name="electronic dipolcorrection" >
    <i type="logical" name="LDIPOL"> F  </i>
    <i type="logical" name="LMONO"> F  </i>
    <i type="int" name="IDIPOL">     0</i>
    <i name="EPSILON">      1.00000000</i>
    <v name="DIPOL">   -100.00000000   -100.00000000   -100.00000000</v>
    <i name="EFIELD">      0.00000000</i>
   </separator>
  </separator>
  <separator name="grids" >
   <i type="int" name="NGX">    64</i>
   <i type="int" name="NGY">    48</i>
   <i type="int" name="NGZ">    60</i>
   <i type="int" name="NGXF">   128</i>
   <i type="int" name="NGYF">    96</i>
   <i type="int" name="NGZF">   120</i>
   <i type="logical" name="ADDGRID"> F  </i>
  </separator>
  <separator name="ionic" >
   <i type="int" name="NSW">   300</i>
   <i type="int" name="IBRION">     2</i>
   <i type="int" name="MDALGO">     0</i>
   <i type="int" name="ISIF">     2</i>
   <i name="PSTRESS">      0.00000000</i>
   <i name="EDIFFG">     -0.00500000</i>
   <i type="int" name="NFREE">     1</i>
   <i name="POTIM">      0.50000000</i>
   <i name="SMASS">     -3.00000000</i>
   <i name="SCALEE">      1.00000000</i>
  </separator>
  <separator name="ionic md" >
   <i name="TEBEG">      0.00010000</i>
   <i name="TEEND">      0.00010000</i>
   <i type="int" name="NBLOCK">     1</i>
   <i type="int" name="KBLOCK">   300</i>
   <i type="int" name="NPACO">   256</i>
   <i name="APACO">     10.00000000</i>
  </separator>
  <separator name="symmetry" >
   <i type="int" name="ISYM">     2</i>
   <i name="SYMPREC">      0.00001000</i>
  </separator>
  <separator name="dos" >
   <i type="int" name="LORBIT">     0</i>
   <v name="RWIGS">     -1.00000000     -1.00000000     -1.00000000</v>
   <i type="int" name="NEDOS">   301</i>
   <i name="EMIN">     10.00000000</i>
   <i name="EMAX">    -10.00000000</i>
   <i name="EFERMI">      0.00000000</i>
  </separator>
  <separator name="writing" >
   <i type="int" name="NWRITE">     2</i>
   <i type="logical" name="LWAVE"> F  </i>
   <i type="logical" name="LDOWNSAMPLE"> F  </i>
   <i type="logical" name="LCHARG"> F  </i>
   <i type="logical" name="LPARD"> F  </i>
   <i type="logical" name="LVTOT"> F  </i>
   <i type="logical" name="LVHAR"> F  </i>
   <i type="logical" name="LELF"> F  </i>
   <i type="logical" name="LOPTICS"> F  </i>
   <v name="STM">      0.00000000      0.00000000      0.00000000      0.00000000      0.00000000      0.00000000      0.00000000</v>
  </separator>
  <separator name="performance" >
   <i type="int" name="NPAR">     1</i>
   <i type="int" name="NSIM">     4</i>
   <i type="int" name="NBLK">    -1</i>
   <i type="logical" name="LPLANE"> T  </i>
   <i type="logical" name="LSCALAPACK"> T  </i>
   <i type="logical" name="LSCAAWARE"> F  </i>
   <i type="logical" name="LSCALU"> F  </i>
   <i type="logical" name="LASYNC"> F  </i>
   <i type="logical" name="LORBITALREAL"> F  </i>
  </separator>
  <separator name="miscellaneous" >
   <i type="int" name="IDIOT">     3</i>
   <i type="int" name="PHON_NSTRUCT">    -1</i>
   <i type="logical" name="LMUSIC"> F  </i>
   <v name="POMASS">     69.72300000     16.00000000     30.97400000</v>
   <v name="DARWINR">      0.00000000      0.00000000      0.00000000</v>
   <v name="DARWINV">      1.00000000      1.00000000      1.00000000</v>
   <i type="logical" name="LCORR"> T  </i>
  </separator>
  <i type="logical" name="GGA_COMPAT"> T  </i>
  <i type="logical" name="LBERRY"> F  </i>
  <i type="int" name="ICORELEVEL">     0</i>
  <i type="logical" name="LDAU"> F  </i>
  <i type="int" name="I_CONSTRAINED_M">     0</i>
  <separator name="electronic exchange-correlation" >
   <i type="string" name="GGA">--</i>
   <i type="int" name="VOSKOWN">     0</i>
   <i type="logical" name="LHFCALC"> F  </i>
   <i type="string" name="PRECFOCK"></i>
   <i type="logical" name="LSYMGRAD"> F  </i>
   <i type="logical" name="LHFONE"> F  </i>
   <i type="logical" name="LRHFCALC"> F  </i>
   <i type="logical" name="LTHOMAS"> F  </i>
   <i type="logical" name="LMODELHF"> F  </i>
   <i type="logical" name="LFOCKACE"> F  </i>
   <i name="ENCUT4O">     -1.00000000</i>
   <i type="int" name="EXXOEP">     0</i>
   <i type="int" name="FOURORBIT">     0</i>
   <i name="AEXX">      0.00000000</i>
   <i name="HFALPHA">      0.00000000</i>
   <i name="MCALPHA">      0.00000000</i>
   <i name="ALDAX">      1.00000000</i>
   <i name="AGGAX">      1.00000000</i>
   <i name="ALDAC">      1.00000000</i>
   <i name="AGGAC">      1.00000000</i>
   <i type="int" name="NKREDX">     1</i>
   <i type="int" name="NKREDY">     1</i>
   <i type="int" name="NKREDZ">     1</i>
   <i type="logical" name="SHIFTRED"> F  </i>
   <i type="logical" name="ODDONLY"> F  </i>
   <i type="logical" name="EVENONLY"> F  </i>
   <i type="int" name="LMAXFOCK">     0</i>
   <i type="int" name="NMAXFOCKAE">     0</i>
   <i type="logical" name="LFOCKAEDFT"> F  </i>
   <i name="HFSCREEN">      0.00000000</i>
   <i name="HFSCREENC">      0.00000000</i>
   <i type="int" name="NBANDSGWLOW">     0</i>
  </separator>
  <separator name="vdW DFT" >
   <i type="logical" name="LUSE_VDW"> F  </i>
   <i type="int" name="IVDW_NL">     1</i>
   <i type="logical" name="LSPIN_VDW"> F  </i>
   <i name="Zab_VDW">     -0.84910000</i>
   <i name="PARAM1">      0.12340000</i>
   <i name="PARAM2">      1.00000000</i>
   <i name="PARAM3">      0.00000000</i>
  </separator>
  <separator name="model GW" >
   <i type="int" name="MODEL_GW">     0</i>
   <i name="MODEL_EPS0">      6.34402578</i>
   <i name="MODEL_ALPHA">      1.00000000</i>
  </separator>
  <separator name="linear response parameters" >
   <i type="logical" name="LEPSILON"> F  </i>
   <i type="logical" name="LRPA"> F  </i>
   <i type="logical" name="LNABLA"> F  </i>
   <i type="logical" name="LVEL"> F  </i>
   <i name="CSHIFT">      0.10000000</i>
   <i name="OMEGAMAX">     -1.00000000</i>
   <i name="DEG_THRESHOLD">      0.00200000</i>
   <i name="RTIME">     -0.10000000</i>
   <i name="WPLASMAI">      0.00000000</i>
   <v name="DFIELD">      0.00000000      0.00000000      0.00000000</v>
   <v name="WPLASMA">      0.00000000      0.00000000      0.00000000      0.00000000      0.00000000      0.00000000      0.00000000      0.00000000      0.00000000</v>
  </separator>
  <separator name="orbital magnetization" >
   <i type="logical" name="NUCIND"> F  </i>
   <v name="MAGPOS">      0.00000000      0.00000000      0.00000000</v>
   <i type="logical" name="LNICSALL"> T  </i>
   <i type="logical" name="ORBITALMAG"> F  </i>
   <i type="logical" name="LMAGBLOCH"> F  </i>
   <i type="logical" name="LCHIMAG"> F  </i>
   <i type="logical" name="LGAUGE"> T  </i>
   <i type="int" name="MAGATOM">     0</i>
   <v name="MAGDIPOL">      0.00000000      0.00000000      0.00000000</v>
   <v name="AVECCONST">      0.00000000      0.00000000      0.00000000</v>
  </separator>
  <separator name="response functions" >
   <i type="logical" name="LALL_IN_ONE"> F  </i>
   <i type="int" name="IALL_IN_ONE">    -1</i>
   <i type="int" name="NBANDS_WAVE">    -1</i>
   <i type="logical" name="LFINITE_TEMPERATURE"> F  </i>
   <i type="logical" name="LADDER"> F  </i>
   <i type="logical" name="LRPAFORCE"> F  </i>
   <i type="logical" name="LFXC"> F  </i>
   <i type="logical" name="LHARTREE"> T  </i>
   <i type="int" name="IBSE">     0</i>
   <v type="int" name="KPOINT">    -1     0     0     0</v>
   <i type="logical" name="LTCTC"> F  </i>
   <i type="logical" name="LTCTE"> F  </i>
   <i type="logical" name="LTETE"> F  </i>
   <i type="logical" name="LTRIPLET"> F  </i>
   <i type="logical" name="LFXCEPS"> F  </i>
   <i type="logical" name="LFXHEG"> F  </i>
   <i type="int" name="NATURALO">     2</i>
   <i type="logical" name="LHOLEGF"> F  </i>
   <i type="logical" name="L2ORDER"> F  </i>
   <i type="logical" name="LDMP1"> F  </i>
   <i type="logical" name="LMP2LT"> F  </i>
   <i type="logical" name="LSMP2LT"> F  </i>
   <i type="logical" name="LGWLF"> F  </i>
   <i name="ENCUTGW">     -1.60000002</i>
   <i name="ENCUTGWSOFT">     -1.60000002</i>
   <i name="ENCUTLF">     -1.00000000</i>
   <i type="logical" name="LESF_SPLINES"> F  </i>
   <i type="int" name="LMAXMP2">    -1</i>
   <i name="SCISSOR">      0.00000000</i>
   <i type="int" name="NOMEGA">     0</i>
   <i type="int" name="NOMEGAR">     0</i>
   <i type="int" name="NBANDSGW">    -1</i>
   <i type="int" name="NBANDSO">    -1</i>
   <i type="int" name="NBANDSV">    -1</i>
   <i type="int" name="NELMGW">     1</i>
   <i type="int" name="NELMHF">     1</i>
   <i type="int" name="DIM">     3</i>
   <i type="int" name="IESPILON">     4</i>
   <i type="int" name="ANTIRES">     0</i>
   <i name="OMEGAMAX">    -30.00000000</i>
   <i name="OMEGAMIN">    -30.00000000</i>
   <i name="OMEGATL">   -200.00000000</i>
   <i type="int" name="OMEGAGRID">     0</i>
   <i name="CSHIFT">     -0.10000000</i>
   <i type="logical" name="LSELFENERGY"> F  </i>
   <i type="logical" name="LSPECTRAL"> F  </i>
   <i type="logical" name="LSPECTRALGW"> F  </i>
   <i type="logical" name="LSINGLES"> F  </i>
   <i type="logical" name="LFERMIGW"> F  </i>
   <i type="logical" name="ODDONLYGW"> F  </i>
   <i type="logical" name="EVENONLYGW"> F  </i>
   <i type="int" name="NKREDLFX">     1</i>
   <i type="int" name="NKREDLFY">     1</i>
   <i type="int" name="NKREDLFZ">     1</i>
   <i type="int" name="MAXMEM">  2800</i>
   <i type="int" name="TELESCOPE">     0</i>
   <i type="int" name="NTAUPAR">    -1</i>
   <i type="int" name="NOMEGAPAR">    -1</i>
   <i name="DAMP_NEWTON">      0.80000001</i>
   <i name="LAMBDA">      1.00000000</i>
  </separator>
  <separator name="External order field" >
   <i name="OFIELD_KAPPA">      0.00000000</i>
   <v name="OFIELD_K">      0.00000000      0.00000000      0.00000000</v>
   <i name="OFIELD_Q6_NEAR">      0.00000000</i>
   <i name="OFIELD_Q6_FAR">      0.00000000</i>
   <i name="OFIELD_A">      0.00000000</i>
  </separator>
  <separator name="optional k-points parameters" >
   <i type="int" name="KPOINTS_OPT_MODE">     1</i>
   <i type="logical" name="LKPOINTS_OPT"> F  </i>
  </separator>
 </parameters>
 <atominfo>
  <atoms>     120 </atoms>
  <types>       3 </types>
  <array name="atoms" >
   <dimension dim="1">ion</dimension>
   <field type="string">element</field>
   <field type="int">atomtype</field>
   <set>
    <rc><c>Ga</c><c>   1</c></rc>
    <rc><c>Ga</c><c>   1</c></rc>
    <rc><c>Ga</c><c>   1</c></rc>
    <rc><c>Ga</c><c>   1</c></rc>
    <rc><c>Ga</c><c>   1</c></rc>
    <rc><c>Ga</c><c>   1</c></rc>
    <rc><c>Ga</c><c>   1</c></rc>
    <rc><c>Ga</c><c>   1</c></rc>
    <rc><c>Ga</c><c>   1</c></rc>
    <rc><c>Ga</c><c>   1</c></rc>
    <rc><c>Ga</c><c>   1</c></rc>
    <rc><c>Ga</c><c>   1</c></rc>
    <rc><c>Ga</c><c>   1</c></rc>
    <rc><c>Ga</c><c>   1</c></rc>
    <rc><c>Ga</c><c>   1</c></rc>
    <rc><c>Ga</c><c>   1</c></rc>
    <rc><c>Ga</c><c>   1</c></rc>
    <rc><c>Ga</c><c>   1</c></rc>
    <rc><c>Ga</c><c>   1</c></rc>
    <rc><c>Ga</c><c>   1</c></rc>
    <rc><c>Ga</c><c>   1</c></rc>
    <rc><c>Ga</c><c>   1</c></rc>
    <rc><c>Ga</c><c>   1</c></rc>
    <rc><c>Ga</c><c>   1</c></rc>
    <rc><c>Ga</c><c>   1</c></rc>
    <rc><c>Ga</c><c>   1</c></rc>
    <rc><c>Ga</c><c>   1</c></rc>
    <rc><c>Ga</c><c>   1</c></rc>
    <rc><c>Ga</c><c>   1</c></rc>
    <rc><c>Ga</c><c>   1</c></rc>
    <rc><c>Ga</c><c>   1</c></rc>
    <rc><c>Ga</c><c>   1</c></rc>
    <rc><c>Ga</c><c>   1</c></rc>
    <rc><c>Ga</c><c>   1</c></rc>
    <rc><c>Ga</c><c>   1</c></rc>
    <rc><c>Ga</c><c>   1</c></rc>
    <rc><c>Ga</c><c>   1</c></rc>
    <rc><c>Ga</c><c>   1</c></rc>
    <rc><c>Ga</c><c>   1</c></rc>
    <rc><c>Ga</c><c>   1</c></rc>
    <rc><c>Ga</c><c>   1</c></rc>
    <rc><c>Ga</c><c>   1</c></rc>
    <rc><c>Ga</c><c>   1</c></rc>
    <rc><c>Ga</c><c>   1</c></rc>
    <rc><c>Ga</c><c>   1</c></rc>
    <rc><c>Ga</c><c>   1</c></rc>
    <rc><c>Ga</c><c>   1</c></rc>
    <rc><c>Ga</c><c>   1</c></rc>
    <rc><c>O </c><c>   2</c></rc>
    <rc><c>O </c><c>   2</c></rc>
    <rc><c>O </c><c>   2</c></rc>
    <rc><c>O </c><c>   2</c></rc>
    <rc><c>O </c><c>   2</c></rc>
    <rc><c>O </c><c>   2</c></rc>
    <rc><c>O </c><c>   2</c></rc>
    <rc><c>O </c><c>   2</c></rc>
    <rc><c>O </c><c>   2</c></rc>
    <rc><c>O </c><c>   2</c></rc>
    <rc><c>O </c><c>   2</c></rc>
    <rc><c>O </c><c>   2</c></rc>
    <rc><c>O </c><c>   2</c></rc>
    <rc><c>O </c><c>   2</c></rc>
    <rc><c>O </c><c>   2</c></rc>
    <rc><c>O </c><c>   2</c></rc>
    <rc><c>O </c><c>   2</c></rc>
    <rc><c>O </c><c>   2</c></rc>
    <rc><c>O </c><c>   2</c></rc>
    <rc><c>O </c><c>   2</c></rc>
    <rc><c>O </c><c>   2</c></rc>
    <rc><c>O </c><c>   2</c></rc>
    <rc><c>O </c><c>   2</c></rc>
    <rc><c>O </c><c>   2</c></rc>
    <rc><c>O </c><c>   2</c></rc>
    <rc><c>O </c><c>   2</c></rc>
    <rc><c>O </c><c>   2</c></rc>
    <rc><c>O </c><c>   2</c></rc>
    <rc><c>O </c><c>   2</c></rc>
    <rc><c>O </c><c>   2</c></rc>
    <rc><c>O </c><c>   2</c></rc>
    <rc><c>O </c><c>   2</c></rc>
    <rc><c>O </c><c>   2</c></rc>
    <rc><c>O </c><c>   2</c></rc>
    <rc><c>O </c><c>   2</c></rc>
    <rc><c>O </c><c>   2</c></rc>
    <rc><c>O </c><c>   2</c></rc>
    <rc><c>O </c><c>   2</c></rc>
    <rc><c>O </c><c>   2</c></rc>
    <rc><c>O </c><c>   2</c></rc>
    <rc><c>O </c><c>   2</c></rc>
    <rc><c>O </c><c>   2</c></rc>
    <rc><c>O </c><c>   2</c></rc>
    <rc><c>O </c><c>   2</c></rc>
    <rc><c>O </c><c>   2</c></rc>
    <rc><c>O </c><c>   2</c></rc>
    <rc><c>O </c><c>   2</c></rc>
    <rc><c>O </c><c>   2</c></rc>
    <rc><c>O </c><c>   2</c></rc>
    <rc><c>O </c><c>   2</c></rc>
    <rc><c>O </c><c>   2</c></rc>
    <rc><c>O </c><c>   2</c></rc>
    <rc><c>O </c><c>   2</c></rc>
    <rc><c>O </c><c>   2</c></rc>
    <rc><c>O </c><c>   2</c></rc>
    <rc><c>O </c><c>   2</c></rc>
    <rc><c>O </c><c>   2</c></rc>
    <rc><c>O </c><c>   2</c></rc>
    <rc><c>O </c><c>   2</c></rc>
    <rc><c>O </c><c>   2</c></rc>
    <rc><c>O </c><c>   2</c></rc>
    <rc><c>O </c><c>   2</c></rc>
    <rc><c>O </c><c>   2</c></rc>
    <rc><c>O </c><c>   2</c></rc>
    <rc><c>O </c><c>   2</c></rc>
    <rc><c>O </c><c>   2</c></rc>
    <rc><c>O </c><c>   2</c></rc>
    <rc><c>O </c><c>   2</c></rc>
    <rc><c>O </c><c>   2</c></rc>
    <rc><c>O </c><c>   2</c></rc>
    <rc><c>O </c><c>   2</c></rc>
    <rc><c>P </c><c>   3</c></rc>
   </set>
  </array>
  <array name="atomtypes" >
   <dimension dim="1">type</dimension>
   <field type="int">atomspertype</field>
   <field type="string">element</field>
   <field>mass</field>
   <field>valence</field>
   <field type="string">pseudopotential</field>
   <set>
    <rc><c>  48</c><c>Ga</c><c>     69.72300000</c><c>     13.00000000</c><c>  PAW_PBE Ga_d 06Jul2010                </c></rc>
    <rc><c>  71</c><c>O </c><c>     16.00000000</c><c>      6.00000000</c><c>   PAW_PBE O 08Apr2002                  </c></rc>
    <rc><c>   1</c><c>P </c><c>     30.97400000</c><c>      5.00000000</c><c>  PAW_PBE P 06Sep2000                   </c></rc>
   </set>
  </array>
 </atominfo>
 <structure name="initialpos" >
  <crystal>
   <varray name="basis" >
    <v>       0.00000000      12.28047342       0.00000000 </v>
    <v>       9.14270205       0.00000000       0.00000000 </v>
    <v>       0.00000000      -2.76826177     -11.30069772 </v>
   </varray>
   <i name="volume">   1268.80515525 </i>
   <varray name="rec_basis" >
    <v>       0.00000000       0.08143009      -0.01994742 </v>
    <v>       0.10937686      -0.00000000       0.00000000 </v>
    <v>       0.00000000       0.00000000      -0.08849011 </v>
   </varray>
  </crystal>
  <varray name="positions" >
   <v>       0.65883830       0.00000000       0.15736517 </v>
   <v>       0.65883830       0.00000000       0.65736517 </v>
   <v>       0.65883830       0.33333333       0.15736517 </v>
   <v>       0.65883830       0.33333333       0.65736517 </v>
   <v>       0.65883830       0.66666667       0.15736517 </v>
   <v>       0.65883830       0.66666667       0.65736517 </v>
   <v>       0.84116170       0.16666667       0.34263483 </v>
   <v>       0.84116170       0.16666667       0.84263483 </v>
   <v>       0.84116170       0.50000000       0.34263483 </v>
   <v>       0.84116170       0.50000000       0.84263483 </v>
   <v>       0.84116170       0.83333333       0.34263483 </v>
   <v>       0.84116170       0.83333333       0.84263483 </v>
   <v>       0.59047440       0.16666667       0.39739300 </v>
   <v>       0.59047440       0.16666667       0.89739300 </v>
   <v>       0.59047440       0.50000000       0.39739300 </v>
   <v>       0.59047440       0.50000000       0.89739300 </v>
   <v>       0.59047440       0.83333333       0.39739300 </v>
   <v>       0.59047440       0.83333333       0.89739300 </v>
   <v>       0.90952560       0.00000000       0.10260700 </v>
   <v>       0.90952560       0.00000000       0.60260700 </v>
   <v>       0.90952560       0.33333333       0.10260700 </v>
   <v>       0.90952560       0.33333333       0.60260700 </v>
   <v>       0.90952560       0.66666667       0.10260700 </v>
   <v>       0.90952560       0.66666667       0.60260700 </v>
   <v>       0.15883830       0.16666667       0.15736517 </v>
   <v>       0.15883830       0.16666667       0.65736517 </v>
   <v>       0.15883830       0.50000000       0.15736517 </v>
   <v>       0.15883830       0.50000000       0.65736517 </v>
   <v>       0.15883830       0.83333333       0.15736517 </v>
   <v>       0.15883830       0.83333333       0.65736517 </v>
   <v>       0.34116170       0.00000000       0.34263483 </v>
   <v>       0.34116170       0.00000000       0.84263483 </v>
   <v>       0.34116170       0.33333333       0.34263483 </v>
   <v>       0.34116170       0.33333333       0.84263483 </v>
   <v>       0.34116170       0.66666667       0.34263483 </v>
   <v>       0.34116170       0.66666667       0.84263483 </v>
   <v>       0.09047440       0.00000000       0.39739300 </v>
   <v>       0.09047440       0.00000000       0.89739300 </v>
   <v>       0.09047440       0.33333333       0.39739300 </v>
   <v>       0.09047440       0.33333333       0.89739300 </v>
   <v>       0.09047440       0.66666667       0.39739300 </v>
   <v>       0.09047440       0.66666667       0.89739300 </v>
   <v>       0.40952560       0.16666667       0.10260700 </v>
   <v>       0.40952560       0.16666667       0.60260700 </v>
   <v>       0.40952560       0.50000000       0.10260700 </v>
   <v>       0.40952560       0.50000000       0.60260700 </v>
   <v>       0.40952560       0.83333333       0.10260700 </v>
   <v>       0.40952560       0.83333333       0.60260700 </v>
   <v>       0.99646913       0.16666667       0.12833205 </v>
   <v>       0.99646913       0.16666667       0.62833205 </v>
   <v>       0.99646913       0.50000000       0.12833205 </v>
   <v>       0.99646913       0.50000000       0.62833205 </v>
   <v>       0.99646913       0.83333333       0.12833205 </v>
   <v>       0.99646913       0.83333333       0.62833205 </v>
   <v>       0.50353087       0.00000000       0.37166795 </v>
   <v>       0.50353087       0.00000000       0.87166795 </v>
   <v>       0.50353087       0.33333333       0.37166795 </v>
   <v>       0.50353087       0.33333333       0.87166795 </v>
   <v>       0.50353087       0.66666667       0.37166795 </v>
   <v>       0.50353087       0.66666667       0.87166795 </v>
   <v>       0.67337106       0.16666667       0.28161508 </v>
   <v>       0.67337106       0.16666667       0.78161508 </v>
   <v>       0.67337106       0.50000000       0.28161508 </v>
   <v>       0.67337106       0.50000000       0.78161508 </v>
   <v>       0.67337106       0.83333333       0.28161508 </v>
   <v>       0.67337106       0.83333333       0.78161508 </v>
   <v>       0.82662894       0.00000000       0.21838492 </v>
   <v>       0.82662894       0.00000000       0.71838492 </v>
   <v>       0.82662894       0.33333333       0.21838492 </v>
   <v>       0.82662894       0.33333333       0.71838492 </v>
   <v>       0.82662894       0.66666667       0.21838492 </v>
   <v>       0.82662894       0.66666667       0.71838492 </v>
   <v>       0.83549502       0.00000000       0.44542296 </v>
   <v>       0.83549502       0.00000000       0.94542296 </v>
   <v>       0.83549502       0.33333333       0.44542296 </v>
   <v>       0.83549502       0.33333333       0.94542296 </v>
   <v>       0.83549502       0.66666667       0.44542296 </v>
   <v>       0.83549502       0.66666667       0.94542296 </v>
   <v>       0.66450498       0.16666667       0.05457704 </v>
   <v>       0.66450498       0.16666667       0.55457704 </v>
   <v>       0.66450498       0.50000000       0.05457704 </v>
   <v>       0.66450498       0.50000000       0.55457704 </v>
   <v>       0.66450498       0.83333333       0.05457704 </v>
   <v>       0.66450498       0.83333333       0.55457704 </v>
   <v>       0.49646913       0.00000000       0.12833205 </v>
   <v>       0.49646913       0.00000000       0.62833205 </v>
   <v>       0.49646913       0.33333333       0.12833205 </v>
   <v>       0.49646913       0.33333333       0.62833205 </v>
   <v>       0.49646913       0.66666667       0.12833205 </v>
   <v>       0.49646913       0.66666667       0.62833205 </v>
   <v>       0.00353087       0.16666667       0.37166795 </v>
   <v>       0.00353087       0.16666667       0.87166795 </v>
   <v>       0.00353087       0.50000000       0.37166795 </v>
   <v>       0.00353087       0.50000000       0.87166795 </v>
   <v>       0.00353087       0.83333333       0.37166795 </v>
   <v>       0.00353087       0.83333333       0.87166795 </v>
   <v>       0.17337106       0.00000000       0.28161508 </v>
   <v>       0.17337106       0.00000000       0.78161508 </v>
   <v>       0.17337106       0.33333333       0.28161508 </v>
   <v>       0.17337106       0.33333333       0.78161508 </v>
   <v>       0.17337106       0.66666667       0.28161508 </v>
   <v>       0.17337106       0.66666667       0.78161508 </v>
   <v>       0.32662894       0.16666667       0.21838492 </v>
   <v>       0.32662894       0.16666667       0.71838492 </v>
   <v>       0.32662894       0.50000000       0.21838492 </v>
   <v>       0.32662894       0.50000000       0.71838492 </v>
   <v>       0.32662894       0.83333333       0.21838492 </v>
   <v>       0.32662894       0.83333333       0.71838492 </v>
   <v>       0.33549502       0.16666667       0.44542296 </v>
   <v>       0.33549502       0.16666667       0.94542296 </v>
   <v>       0.33549502       0.50000000       0.44542296 </v>
   <v>       0.33549502       0.50000000       0.94542296 </v>
   <v>       0.33549502       0.83333333       0.44542296 </v>
   <v>       0.33549502       0.83333333       0.94542296 </v>
   <v>       0.16450498       0.00000000       0.05457704 </v>
   <v>       0.16450498       0.33333333       0.05457704 </v>
   <v>       0.16450498       0.33333333       0.55457704 </v>
   <v>       0.16450498       0.66666667       0.05457704 </v>
   <v>       0.16450498       0.66666667       0.55457704 </v>
   <v>       0.16450498       0.00000000       0.55457704 </v>
  </varray>
 </structure>
 <calculation>
  <scstep>
   <time name="dav">    1.80    1.80</time>
   <time name="total">    1.93    1.93</time>
   <energy>
    <i name="alphaZ">   5529.70323211 </i>
    <i name="ewald"> -88600.23035105 </i>
    <i name="hartreedc"> -33372.94759937 </i>
    <i name="XCdc">   4126.43853718 </i>
    <i name="pawpsdc"> 101696.24768859 </i>
    <i name="pawaedc">-117826.33756962 </i>
    <i name="eentropy">     -0.01038238 </i>
    <i name="bandstr">  16355.23054667 </i>
    <i name="atom"> 134015.81877255 </i>
    <i name="e_fr_energy">  21923.91287467 </i>
    <i name="e_wo_entrp">  21923.92325705 </i>
    <i name="e_0_energy">  21923.91806586 </i>
   </energy>
  </scstep>
  <scstep>
   <time name="dav">    1.70    1.70</time>
   <time name="total">    1.71    1.71</time>
   <energy>
    <i name="e_fr_energy">   4853.04723431 </i>
    <i name="e_wo_entrp">   4853.06378957 </i>
    <i name="e_0_energy">   4853.05551194 </i>
   </energy>
  </scstep>
  <scstep>
   <time name="dav">    2.10    2.10</time>
   <time name="total">    2.10    2.10</time>
   <energy>
    <i name="e_fr_energy">   -143.11090483 </i>
    <i name="e_wo_entrp">   -143.09778426 </i>
    <i name="e_0_energy">   -143.10434455 </i>
   </energy>
  </scstep>
  <scstep>
   <time name="dav">    2.03    2.03</time>
   <time name="total">    2.03    2.03</time>
   <energy>
    <i name="e_fr_energy">   -770.09928080 </i>
    <i name="e_wo_entrp">   -770.07256262 </i>
    <i name="e_0_energy">   -770.08592171 </i>
   </energy>
  </scstep>
  <scstep>
   <time name="dav">    2.33    2.33</time>
   <time name="total">    2.61    2.61</time>
   <energy>
    <i name="e_fr_energy">   -813.96156177 </i>
    <i name="e_wo_entrp">   -813.93499937 </i>
    <i name="e_0_energy">   -813.94828057 </i>
   </energy>
  </scstep>
  <scstep>
   <time name="diag">    0.24    0.24</time>
   <time name="diis">    2.47    2.48</time>
   <time name="orth">    0.03    0.03</time>
   <time name="total">    3.13    3.13</time>
   <energy>
    <i name="e_fr_energy">   -702.05226333 </i>
    <i name="e_wo_entrp">   -702.02960742 </i>
    <i name="e_0_energy">   -702.04093538 </i>
   </energy>
  </scstep>
  <scstep>
   <time name="diag">    0.24    0.24</time>
   <time name="diis">    2.65    2.65</time>
   <time name="orth">    0.03    0.03</time>
   <time name="total">    3.31    3.31</time>
   <energy>
    <i name="e_fr_energy">   -705.68621384 </i>
    <i name="e_wo_entrp">   -705.66341243 </i>
    <i name="e_0_energy">   -705.67481313 </i>
   </energy>
  </scstep>
  <scstep>
   <time name="diag">    0.24    0.24</time>
   <time name="diis">    2.38    2.38</time>
   <time name="orth">    0.03    0.03</time>
   <time name="total">    3.04    3.04</time>
   <energy>
    <i name="e_fr_energy">   -705.53271771 </i>
    <i name="e_wo_entrp">   -705.50917792 </i>
    <i name="e_0_energy">   -705.52094782 </i>
   </energy>
  </scstep>
  <scstep>
   <time name="diag">    0.24    0.24</time>
   <time name="diis">    2.87    2.87</time>
   <time name="orth">    0.03    0.03</time>
   <time name="total">    3.53    3.53</time>
   <energy>
    <i name="e_fr_energy">   -705.08731893 </i>
    <i name="e_wo_entrp">   -705.06390173 </i>
    <i name="e_0_energy">   -705.07561033 </i>
   </energy>
  </scstep>
  <scstep>
   <time name="diag">    0.24    0.24</time>
   <time name="diis">    2.48    2.48</time>
   <time name="orth">    0.03    0.03</time>
   <time name="total">    3.15    3.15</time>
   <energy>
    <i name="e_fr_energy">   -705.14560978 </i>
    <i name="e_wo_entrp">   -705.12223462 </i>
    <i name="e_0_energy">   -705.13392220 </i>
   </energy>
  </scstep>
  <scstep>
   <time name="diag">    0.24    0.24</time>
   <time name="diis">    2.55    2.55</time>
   <time name="orth">    0.03    0.03</time>
   <time name="total">    3.21    3.21</time>
   <energy>
    <i name="e_fr_energy">   -705.14411684 </i>
    <i name="e_wo_entrp">   -705.12060217 </i>
    <i name="e_0_energy">   -705.13235951 </i>
   </energy>
  </scstep>
  <scstep>
   <time name="diag">    0.24    0.24</time>
   <time name="diis">    2.86    2.86</time>
   <time name="orth">    0.03    0.03</time>
   <time name="total">    3.52    3.52</time>
   <energy>
    <i name="e_fr_energy">   -705.14251483 </i>
    <i name="e_wo_entrp">   -705.11902501 </i>
    <i name="e_0_energy">   -705.13076992 </i>
   </energy>
  </scstep>
  <scstep>
   <time name="diag">    0.24    0.24</time>
   <time name="diis">    2.77    2.77</time>
   <time name="orth">    0.03    0.03</time>
   <time name="total">    3.44    3.44</time>
   <energy>
    <i name="e_fr_energy">   -705.14385524 </i>
    <i name="e_wo_entrp">   -705.12038798 </i>
    <i name="e_0_energy">   -705.13212161 </i>
   </energy>
  </scstep>
  <scstep>
   <time name="diag">    0.24    0.24</time>
   <time name="diis">    2.55    2.55</time>
   <time name="orth">    0.03    0.03</time>
   <time name="total">    3.22    3.22</time>
   <energy>
    <i name="e_fr_energy">   -705.14399341 </i>
    <i name="e_wo_entrp">   -705.12051589 </i>
    <i name="e_0_energy">   -705.13225465 </i>
   </energy>
  </scstep>
  <scstep>
   <time name="diag">    0.24    0.24</time>
   <time name="diis">    2.60    2.60</time>
   <time name="orth">    0.03    0.03</time>
   <time name="total">    3.27    3.27</time>
   <energy>
    <i name="e_fr_energy">   -705.14412435 </i>
    <i name="e_wo_entrp">   -705.12064460 </i>
    <i name="e_0_energy">   -705.13238448 </i>
   </energy>
  </scstep>
  <scstep>
   <time name="diag">    0.24    0.24</time>
   <time name="diis">    2.04    2.04</time>
   <time name="orth">    0.03    0.03</time>
   <time name="total">    2.72    2.72</time>
   <energy>
    <i name="e_fr_energy">   -705.14415966 </i>
    <i name="e_wo_entrp">   -705.12068099 </i>
    <i name="e_0_energy">   -705.13242032 </i>
   </energy>
  </scstep>
  <scstep>
   <time name="diag">    0.24    0.24</time>
   <time name="diis">    1.84    1.84</time>
   <time name="orth">    0.03    0.03</time>
   <time name="total">    2.51    2.51</time>
   <energy>
    <i name="e_fr_energy">   -705.14417595 </i>
    <i name="e_wo_entrp">   -705.12069740 </i>
    <i name="e_0_energy">   -705.13243668 </i>
   </energy>
  </scstep>
  <scstep>
   <time name="diag">    0.24    0.24</time>
   <time name="diis">    1.68    1.68</time>
   <time name="orth">    0.03    0.03</time>
   <time name="total">    2.07    2.07</time>
   <energy>
    <i name="alphaZ">   5529.70323211 </i>
    <i name="ewald"> -88600.23035105 </i>
    <i name="hartreedc"> -33835.57794115 </i>
    <i name="XCdc">   4186.12717301 </i>
    <i name="pawpsdc"> 120877.57770104 </i>
    <i name="pawaedc">-137267.30729756 </i>
    <i name="eentropy">     -0.02347879 </i>
    <i name="bandstr">  -5611.23199135 </i>
    <i name="atom"> 134015.81877255 </i>
    <i name="e_fr_energy">   -705.14418119 </i>
    <i name="e_wo_entrp">   -705.12070241 </i>
    <i name="e_0_energy">   -705.13244180 </i>
   </energy>
  </scstep>
  <structure>
   <crystal>
    <varray name="basis" >
     <v>       0.00000000      12.28047342       0.00000000 </v>
     <v>       9.14270205       0.00000000       0.00000000 </v>
     <v>       0.00000000      -2.76826177     -11.30069772 </v>
    </varray>
    <i name="volume">   1268.80515525 </i>
    <varray name="rec_basis" >
     <v>       0.00000000       0.08143009      -0.01994742 </v>
     <v>       0.10937686      -0.00000000       0.00000000 </v>
     <v>       0.00000000       0.00000000      -0.08849011 </v>
    </varray>
   </crystal>
   <varray name="positions" >
    <v>       0.65883830       0.00000000       0.15736517 </v>
    <v>       0.65883830       0.00000000       0.65736517 </v>
    <v>       0.65883830       0.33333333       0.15736517 </v>
    <v>       0.65883830       0.33333333       0.65736517 </v>
    <v>       0.65883830       0.66666667       0.15736517 </v>
    <v>       0.65883830       0.66666667       0.65736517 </v>
    <v>       0.84116170       0.16666667       0.34263483 </v>
    <v>       0.84116170       0.16666667       0.84263483 </v>
    <v>       0.84116170       0.50000000       0.34263483 </v>
    <v>       0.84116170       0.50000000       0.84263483 </v>
    <v>       0.84116170       0.83333333       0.34263483 </v>
    <v>       0.84116170       0.83333333       0.84263483 </v>
    <v>       0.59047440       0.16666667       0.39739300 </v>
    <v>       0.59047440       0.16666667       0.89739300 </v>
    <v>       0.59047440       0.50000000       0.39739300 </v>
    <v>       0.59047440       0.50000000       0.89739300 </v>
    <v>       0.59047440       0.83333333       0.39739300 </v>
    <v>       0.59047440       0.83333333       0.89739300 </v>
    <v>       0.90952560       0.00000000       0.10260700 </v>
    <v>       0.90952560       0.00000000       0.60260700 </v>
    <v>       0.90952560       0.33333333       0.10260700 </v>
    <v>       0.90952560       0.33333333       0.60260700 </v>
    <v>       0.90952560       0.66666667       0.10260700 </v>
    <v>       0.90952560       0.66666667       0.60260700 </v>
    <v>       0.15883830       0.16666667       0.15736517 </v>
    <v>       0.15883830       0.16666667       0.65736517 </v>
    <v>       0.15883830       0.50000000       0.15736517 </v>
    <v>       0.15883830       0.50000000       0.65736517 </v>
    <v>       0.15883830       0.83333333       0.15736517 </v>
    <v>       0.15883830       0.83333333       0.65736517 </v>
    <v>       0.34116170       0.00000000       0.34263483 </v>
    <v>       0.34116170       0.00000000       0.84263483 </v>
    <v>       0.34116170       0.33333333       0.34263483 </v>
    <v>       0.34116170       0.33333333       0.84263483 </v>
    <v>       0.34116170       0.66666667       0.34263483 </v>
    <v>       0.34116170       0.66666667       0.84263483 </v>
    <v>       0.09047440       0.00000000       0.39739300 </v>
    <v>       0.09047440       0.00000000       0.89739300 </v>
    <v>       0.09047440       0.33333333       0.39739300 </v>
    <v>       0.09047440       0.33333333       0.89739300 </v>
    <v>       0.09047440       0.66666667       0.39739300 </v>
    <v>       0.09047440       0.66666667       0.89739300 </v>
    <v>       0.40952560       0.16666667       0.10260700 </v>
    <v>       0.40952560       0.16666667       0.60260700 </v>
    <v>       0.40952560       0.50000000       0.10260700 </v>
    <v>       0.40952560       0.50000000       0.60260700 </v>
    <v>       0.40952560       0.83333333       0.10260700 </v>
    <v>       0.40952560       0.83333333       0.60260700 </v>
    <v>       0.99646913       0.16666667       0.12833205 </v>
    <v>       0.99646913       0.16666667       0.62833205 </v>
    <v>       0.99646913       0.50000000       0.12833205 </v>
    <v>       0.99646913       0.50000000       0.62833205 </v>
    <v>       0.99646913       0.83333333       0.12833205 </v>
    <v>       0.99646913       0.83333333       0.62833205 </v>
    <v>       0.50353087       0.00000000       0.37166795 </v>
    <v>       0.50353087       0.00000000       0.87166795 </v>
    <v>       0.50353087       0.33333333       0.37166795 </v>
    <v>       0.50353087       0.33333333       0.87166795 </v>
    <v>       0.50353087       0.66666667       0.37166795 </v>
    <v>       0.50353087       0.66666667       0.87166795 </v>
    <v>       0.67337106       0.16666667       0.28161508 </v>
    <v>       0.67337106       0.16666667       0.78161508 </v>
    <v>       0.67337106       0.50000000       0.28161508 </v>
    <v>       0.67337106       0.50000000       0.78161508 </v>
    <v>       0.67337106       0.83333333       0.28161508 </v>
    <v>       0.67337106       0.83333333       0.78161508 </v>
    <v>       0.82662894       0.00000000       0.21838492 </v>
    <v>       0.82662894       0.00000000       0.71838492 </v>
    <v>       0.82662894       0.33333333       0.21838492 </v>
    <v>       0.82662894       0.33333333       0.71838492 </v>
    <v>       0.82662894       0.66666667       0.21838492 </v>
    <v>       0.82662894       0.66666667       0.71838492 </v>
    <v>       0.83549502       0.00000000       0.44542296 </v>
    <v>       0.83549502       0.00000000       0.94542296 </v>
    <v>       0.83549502       0.33333333       0.44542296 </v>
    <v>       0.83549502       0.33333333       0.94542296 </v>
    <v>       0.83549502       0.66666667       0.44542296 </v>
    <v>       0.83549502       0.66666667       0.94542296 </v>
    <v>       0.66450498       0.16666667       0.05457704 </v>
    <v>       0.66450498       0.16666667       0.55457704 </v>
    <v>       0.66450498       0.50000000       0.05457704 </v>
    <v>       0.66450498       0.50000000       0.55457704 </v>
    <v>       0.66450498       0.83333333       0.05457704 </v>
    <v>       0.66450498       0.83333333       0.55457704 </v>
    <v>       0.49646913       0.00000000       0.12833205 </v>
    <v>       0.49646913       0.00000000       0.62833205 </v>
    <v>       0.49646913       0.33333333       0.12833205 </v>
    <v>       0.49646913       0.33333333       0.62833205 </v>
    <v>       0.49646913       0.66666667       0.12833205 </v>
    <v>       0.49646913       0.66666667       0.62833205 </v>
    <v>       0.00353087       0.16666667       0.37166795 </v>
    <v>       0.00353087       0.16666667       0.87166795 </v>
    <v>       0.00353087       0.50000000       0.37166795 </v>
    <v>       0.00353087       0.50000000       0.87166795 </v>
    <v>       0.00353087       0.83333333       0.37166795 </v>
    <v>       0.00353087       0.83333333       0.87166795 </v>
    <v>       0.17337106       0.00000000       0.28161508 </v>
    <v>       0.17337106       0.00000000       0.78161508 </v>
    <v>       0.17337106       0.33333333       0.28161508 </v>
    <v>       0.17337106       0.33333333       0.78161508 </v>
    <v>       0.17337106       0.66666667       0.28161508 </v>
    <v>       0.17337106       0.66666667       0.78161508 </v>
    <v>       0.32662894       0.16666667       0.21838492 </v>
    <v>       0.32662894       0.16666667       0.71838492 </v>
    <v>       0.32662894       0.50000000       0.21838492 </v>
    <v>       0.32662894       0.50000000       0.71838492 </v>
    <v>       0.32662894       0.83333333       0.21838492 </v>
    <v>       0.32662894       0.83333333       0.71838492 </v>
    <v>       0.33549502       0.16666667       0.44542296 </v>
    <v>       0.33549502       0.16666667       0.94542296 </v>
    <v>       0.33549502       0.50000000       0.44542296 </v>
    <v>       0.33549502       0.50000000       0.94542296 </v>
    <v>       0.33549502       0.83333333       0.44542296 </v>
    <v>       0.33549502       0.83333333       0.94542296 </v>
    <v>       0.16450498       0.00000000       0.05457704 </v>
    <v>       0.16450498       0.33333333       0.05457704 </v>
    <v>       0.16450498       0.33333333       0.55457704 </v>
    <v>       0.16450498       0.66666667       0.05457704 </v>
    <v>       0.16450498       0.66666667       0.55457704 </v>
    <v>       0.16450498       0.00000000       0.55457704 </v>
   </varray>
  </structure>
  <varray name="forces" >
   <v>       0.00000000      -0.02546992       0.05102297 </v>
   <v>       0.00000000      -0.02065883       0.03253909 </v>
   <v>       0.00234822      -0.02304701       0.05141556 </v>
   <v>       0.00151950      -0.03344795       0.03602629 </v>
   <v>      -0.00234822      -0.02304701       0.05141556 </v>
   <v>      -0.00151950      -0.03344795       0.03602629 </v>
   <v>       0.02377346       0.11710894      -0.02360155 </v>
   <v>       0.00361659       0.05447515      -0.06849364 </v>
   <v>       0.00000000       0.09742273      -0.04427061 </v>
   <v>       0.00000000       0.04984299      -0.06468547 </v>
   <v>      -0.02377346       0.11710894      -0.02360155 </v>
   <v>      -0.00361659       0.05447515      -0.06849364 </v>
   <v>       0.00587928       0.03138679      -0.01815720 </v>
   <v>       0.00405339      -0.02719573      -0.03491639 </v>
   <v>       0.00000000       0.01478743      -0.02998375 </v>
   <v>       0.00000000      -0.02248119      -0.03757743 </v>
   <v>      -0.00587928       0.03138679      -0.01815720 </v>
   <v>      -0.00405339      -0.02719573      -0.03491639 </v>
   <v>       0.00000000       0.03434278       0.00616710 </v>
   <v>       0.00000000      -0.21251523       0.01905734 </v>
   <v>      -0.00449755       0.02263825       0.00413328 </v>
   <v>       0.08572051      -0.02606971       0.08400097 </v>
   <v>       0.00449755       0.02263825       0.00413328 </v>
   <v>      -0.08572051      -0.02606971       0.08400097 </v>
   <v>      -0.09650897      -0.07573293       0.01698337 </v>
   <v>       5.86606104      -1.18375002      -3.94450230 </v>
   <v>       0.00000000      -0.06720172       0.04015408 </v>
   <v>       0.00000000       0.01810623       0.30118337 </v>
   <v>       0.09650897      -0.07573293       0.01698337 </v>
   <v>      -5.86606104      -1.18375002      -3.94450230 </v>
   <v>       0.00000000       0.00155948       0.18828693 </v>
   <v>       0.00000000       0.02717583      -0.13679381 </v>
   <v>       0.12268405       0.02002787       0.07449037 </v>
   <v>       0.02425288       0.07388794      -0.05677582 </v>
   <v>      -0.12268405       0.02002787       0.07449037 </v>
   <v>      -0.02425288       0.07388794      -0.05677582 </v>
   <v>       0.00000000      -2.41884740      10.43112297 </v>
   <v>       0.00000000       0.09469894      -0.05419238 </v>
   <v>       0.01093536      -0.02837757      -0.14581104 </v>
   <v>      -0.01594735      -0.03390602      -0.04909054 </v>
   <v>      -0.01093536      -0.02837757      -0.14581104 </v>
   <v>       0.01594735      -0.03390602      -0.04909054 </v>
   <v>       0.00057917       0.02430617       0.03327281 </v>
   <v>       0.09086499       0.14794185      -0.15491609 </v>
   <v>       0.00000000       0.02121153       0.03001479 </v>
   <v>       0.00000000      -0.03550652       0.00835216 </v>
   <v>      -0.00057917       0.02430617       0.03327281 </v>
   <v>      -0.09086499       0.14794185      -0.15491609 </v>
   <v>       0.01022223      -0.02589961      -0.02548672 </v>
   <v>       0.11890892      -0.59828466      -0.14013618 </v>
   <v>       0.00000000      -0.00284004      -0.02344192 </v>
   <v>       0.00000000      -0.06777467      -0.05253969 </v>
   <v>      -0.01022223      -0.02589961      -0.02548672 </v>
   <v>      -0.11890892      -0.59828466      -0.14013618 </v>
   <v>       0.00000000      -0.04689149       0.02002284 </v>
   <v>       0.00000000       0.00785596       0.03508488 </v>
   <v>      -0.02842119      -0.03538688       0.02373794 </v>
   <v>       0.00668873       0.02514800       0.02518805 </v>
   <v>       0.02842119      -0.03538688       0.02373794 </v>
   <v>      -0.00668873       0.02514800       0.02518805 </v>
   <v>      -0.00311857      -0.03949574       0.00663648 </v>
   <v>      -0.00359103      -0.01958503       0.03235532 </v>
   <v>       0.00000000      -0.04449301       0.00602433 </v>
   <v>       0.00000000      -0.01581703       0.03449920 </v>
   <v>       0.00311857      -0.03949574       0.00663648 </v>
   <v>       0.00359103      -0.01958503       0.03235532 </v>
   <v>       0.00000000      -0.00413913      -0.01072228 </v>
   <v>       0.00000000       0.02438473      -0.00893521 </v>
   <v>       0.01706310      -0.01591690       0.00601878 </v>
   <v>       0.00004558       0.00280044      -0.02580372 </v>
   <v>      -0.01706310      -0.01591690       0.00601878 </v>
   <v>      -0.00004558       0.00280044      -0.02580372 </v>
   <v>       0.00000000      -0.18505340      -0.05308305 </v>
   <v>       0.00000000      -0.17674068      -0.00778242 </v>
   <v>       0.00147256      -0.18901797      -0.04004264 </v>
   <v>       0.00348388      -0.17608701      -0.00868866 </v>
   <v>      -0.00147256      -0.18901797      -0.04004264 </v>
   <v>      -0.00348388      -0.17608701      -0.00868866 </v>
   <v>      -0.00161730       0.16655382       0.02625728 </v>
   <v>      -0.00366201       0.15793522       0.02924472 </v>
   <v>       0.00000000       0.16642819       0.02508934 </v>
   <v>       0.00000000       0.16067809       0.02755638 </v>
   <v>       0.00161730       0.16655382       0.02625728 </v>
   <v>       0.00366201       0.15793522       0.02924472 </v>
   <v>       0.00000000      -0.01252134      -0.03626157 </v>
   <v>       0.00000000      -0.00419034      -0.00453135 </v>
   <v>       0.00096240      -0.01187285      -0.03586655 </v>
   <v>      -0.02528037      -0.01924475      -0.00588520 </v>
   <v>      -0.00096240      -0.01187285      -0.03586655 </v>
   <v>       0.02528037      -0.01924475      -0.00588520 </v>
   <v>       0.31714276      -0.50249347       0.51242602 </v>
   <v>       0.02260392      -0.02173642       0.06082433 </v>
   <v>       0.00000000      -0.03685761       0.06796676 </v>
   <v>       0.00000000       0.01781164       0.03528716 </v>
   <v>      -0.31714276      -0.50249347       0.51242602 </v>
   <v>      -0.02260392      -0.02173642       0.06082433 </v>
   <v>       0.00000000       0.11962408       0.61272207 </v>
   <v>       0.00000000      -0.31432914      -1.36441279 </v>
   <v>      -0.00002965       0.03262844       0.02432686 </v>
   <v>      -0.09294369      -0.00785336       0.08252330 </v>
   <v>       0.00002965       0.03262844       0.02432686 </v>
   <v>       0.09294369      -0.00785336       0.08252330 </v>
   <v>       0.01713890       0.05011693      -0.07524826 </v>
   <v>       0.23090402       0.61095419      -0.50568219 </v>
   <v>       0.00000000       0.02985757      -0.02789994 </v>
   <v>       0.00000000       0.05211296      -0.06583559 </v>
   <v>      -0.01713890       0.05011693      -0.07524826 </v>
   <v>      -0.23090402       0.61095419      -0.50568219 </v>
   <v>      -0.06637992      -0.16791113      -0.07800635 </v>
   <v>       0.00838672      -0.16812435      -0.01477082 </v>
   <v>       0.00000000      -0.13550235      -0.01162781 </v>
   <v>       0.00000000      -0.17847810      -0.01626583 </v>
   <v>       0.06637992      -0.16791113      -0.07800635 </v>
   <v>      -0.00838672      -0.16812435      -0.01477082 </v>
   <v>       0.00000000       0.17154887       0.02979537 </v>
   <v>       0.00662547       0.17999579       0.02938978 </v>
   <v>       0.68327910       0.16609694       0.04703806 </v>
   <v>      -0.00662547       0.17999579       0.02938978 </v>
   <v>      -0.68327910       0.16609694       0.04703806 </v>
   <v>       0.00000000       6.01172783      -1.45992172 </v>
  </varray>
  <varray name="stress" >
   <v>      95.89244506       0.00000000       0.00000000 </v>
   <v>       0.00000000      71.62778169      -6.37647606 </v>
   <v>       0.00000000      -6.37647450     106.09273045 </v>
  </varray>
  <energy>
   <i name="e_fr_energy">   -705.14418119 </i>
   <i name="e_wo_entrp">   -705.12070241 </i>
   <i name="e_0_energy">   -705.13244180 </i>
  </energy>
  <time name="totalsc">   60.20   60.24</time>
 </calculation>
 <calculation>
  <scstep>
   <time name="dav">    1.92    1.92</time>
   <time name="total">    2.31    2.31</time>
   <energy>
    <i name="alphaZ">   5529.70323211 </i>
    <i name="ewald"> -88314.18403837 </i>
    <i name="hartreedc"> -34115.23265244 </i>
    <i name="XCdc">   4185.77334411 </i>
    <i name="pawpsdc"> 120877.63858203 </i>
    <i name="pawaedc">-137267.36993041 </i>
    <i name="eentropy">     -0.00433637 </i>
    <i name="bandstr">  -5563.21741938 </i>
    <i name="atom"> 134015.81877255 </i>
    <i name="e_fr_energy">   -651.07444617 </i>
    <i name="e_wo_entrp">   -651.07010979 </i>
    <i name="e_0_energy">   -651.07227798 </i>
   </energy>
  </scstep>
  <scstep>
   <time name="diag">    0.24    0.24</time>
   <time name="diis">    2.65    2.65</time>
   <time name="orth">    0.03    0.03</time>
   <time name="total">    3.31    3.30</time>
   <energy>
    <i name="e_fr_energy">   -687.80638492 </i>
    <i name="e_wo_entrp">   -687.79723192 </i>
    <i name="e_0_energy">   -687.80180842 </i>
   </energy>
  </scstep>
  <scstep>
   <time name="diag">    0.24    0.24</time>
   <time name="diis">    2.79    2.79</time>
   <time name="orth">    0.03    0.03</time>
   <time name="total">    3.45    3.45</time>
   <energy>
    <i name="e_fr_energy">   -705.18374406 </i>
    <i name="e_wo_entrp">   -705.16940791 </i>
    <i name="e_0_energy">   -705.17657598 </i>
   </energy>
  </scstep>
  <scstep>
   <time name="diag">    0.24    0.24</time>
   <time name="diis">    2.92    2.91</time>
   <time name="orth">    0.03    0.03</time>
   <time name="total">    3.58    3.58</time>
   <energy>
    <i name="e_fr_energy">   -706.51219987 </i>
    <i name="e_wo_entrp">   -706.49815810 </i>
    <i name="e_0_energy">   -706.50517899 </i>
   </energy>
  </scstep>
  <scstep>
   <time name="diag">    0.24    0.24</time>
   <time name="diis">    2.99    2.99</time>
   <time name="orth">    0.03    0.03</time>
   <time name="total">    3.65    3.65</time>
   <energy>
    <i name="e_fr_energy">   -706.67293334 </i>
    <i name="e_wo_entrp">   -706.65894828 </i>
    <i name="e_0_energy">   -706.66594081 </i>
   </energy>
  </scstep>
  <scstep>
   <time name="diag">    0.24    0.24</time>
   <time name="diis">    2.59    2.59</time>
   <time name="orth">    0.03    0.03</time>
   <time name="total">    3.25    3.25</time>
   <energy>
    <i name="e_fr_energy">   -706.53750743 </i>
    <i name="e_wo_entrp">   -706.52246131 </i>
    <i name="e_0_energy">   -706.52998437 </i>
   </energy>
  </scstep>
  <scstep>
   <time name="diag">    0.24    0.24</time>
   <time name="diis">    2.55    2.55</time>
   <time name="orth">    0.03    0.03</time>
   <time name="total">    3.21    3.21</time>
   <energy>
    <i name="e_fr_energy">   -706.57760922 </i>
    <i name="e_wo_entrp">   -706.55768116 </i>
    <i name="e_0_energy">   -706.56764519 </i>
   </energy>
  </scstep>
  <scstep>
   <time name="diag">    0.24    0.24</time>
   <time name="diis">    2.65    2.65</time>
   <time name="orth">    0.03    0.03</time>
   <time name="total">    3.32    3.32</time>
   <energy>
    <i name="e_fr_energy">   -706.47601734 </i>
    <i name="e_wo_entrp">   -706.45682540 </i>
    <i name="e_0_energy">   -706.46642137 </i>
   </energy>
  </scstep>
  <scstep>
   <time name="diag">    0.24    0.24</time>
   <time name="diis">    2.47    2.47</time>
   <time name="orth">    0.03    0.03</time>
   <time name="total">    3.14    3.14</time>
   <energy>
    <i name="e_fr_energy">   -706.40945697 </i>
    <i name="e_wo_entrp">   -706.39026141 </i>
    <i name="e_0_energy">   -706.39985919 </i>
   </energy>
  </scstep>
  <scstep>
   <time name="diag">    0.24    0.24</time>
   <time name="diis">    2.50    2.50</time>
   <time name="orth">    0.03    0.03</time>
   <time name="total">    3.17    3.17</time>
   <energy>
    <i name="e_fr_energy">   -706.39423013 </i>
    <i name="e_wo_entrp">   -706.37487654 </i>
    <i name="e_0_energy">   -706.38455333 </i>
   </energy>
  </scstep>
  <scstep>
   <time name="diag">    0.24    0.24</time>
   <time name="diis">    2.58    2.58</time>
   <time name="orth">    0.03    0.03</time>
   <time name="total">    3.25    3.25</time>
   <energy>
    <i name="e_fr_energy">   -706.39239888 </i>
    <i name="e_wo_entrp">   -706.37303953 </i>
    <i name="e_0_energy">   -706.38271921 </i>
   </energy>
  </scstep>
  <scstep>
   <time name="diag">    0.24    0.24</time>
   <time name="diis">    2.72    2.72</time>
   <time name="orth">    0.03    0.03</time>
   <time name="total">    3.39    3.39</time>
   <energy>
    <i name="e_fr_energy">   -706.39236403 </i>
    <i name="e_wo_entrp">   -706.37305128 </i>
    <i name="e_0_energy">   -706.38270765 </i>
   </energy>
  </scstep>
  <scstep>
   <time name="diag">    0.24    0.24</time>
   <time name="diis">    2.50    2.50</time>
   <time name="orth">    0.03    0.03</time>
   <time name="total">    3.17    3.18</time>
   <energy>
    <i name="e_fr_energy">   -706.39196114 </i>
    <i name="e_wo_entrp">   -706.37261484 </i>
    <i name="e_0_energy">   -706.38228799 </i>
   </energy>
  </scstep>
  <scstep>
   <time name="diag">    0.24    0.24</time>
   <time name="diis">    2.76    2.76</time>
   <time name="orth">    0.03    0.03</time>
   <time name="total">    3.44    3.44</time>
   <energy>
    <i name="e_fr_energy">   -706.39209430 </i>
    <i name="e_wo_entrp">   -706.37273882 </i>
    <i name="e_0_energy">   -706.38241656 </i>
   </energy>
  </scstep>
  <scstep>
   <time name="diag">    0.24    0.24</time>
   <time name="diis">    2.10    2.10</time>
   <time name="orth">    0.03    0.03</time>
   <time name="total">    2.78    2.78</time>
   <energy>
    <i name="e_fr_energy">   -706.39201550 </i>
    <i name="e_wo_entrp">   -706.37268186 </i>
    <i name="e_0_energy">   -706.38234868 </i>
   </energy>
  </scstep>
  <scstep>
   <time name="diag">    0.24    0.24</time>
   <time name="diis">    1.45    1.45</time>
   <time name="orth">    0.03    0.03</time>
   <time name="total">    1.83    1.83</time>
   <energy>
    <i name="alphaZ">   5529.70323211 </i>
    <i name="ewald"> -88314.18403837 </i>
    <i name="hartreedc"> -34120.47467642 </i>
    <i name="XCdc">   4186.24213522 </i>
    <i name="pawpsdc"> 120169.92208202 </i>
    <i name="pawaedc">-136561.38273575 </i>
    <i name="eentropy">     -0.01932939 </i>
    <i name="bandstr">  -5612.01746237 </i>
    <i name="atom"> 134015.81877255 </i>
    <i name="e_fr_energy">   -706.39202041 </i>
    <i name="e_wo_entrp">   -706.37269101 </i>
    <i name="e_0_energy">   -706.38235571 </i>
   </energy>
  </scstep>
  <structure>
   <crystal>
    <varray name="basis" >
     <v>       0.00000000      12.28047342       0.00000000 </v>
     <v>       9.14270205       0.00000000       0.00000000 </v>
     <v>       0.00000000      -2.76826177     -11.30069772 </v>
    </varray>
    <i name="volume">   1268.80515525 </i>
    <varray name="rec_basis" >
     <v>       0.00000000       0.08143009      -0.01994742 </v>
     <v>       0.10937686      -0.00000000       0.00000000 </v>
     <v>       0.00000000       0.00000000      -0.08849011 </v>
    </varray>
   </crystal>
   <varray name="positions" >
    <v>       0.65868914       0.00000000       0.15714735 </v>
    <v>       0.65872583       0.00000000       0.65722626 </v>
    <v>       0.65869828       0.33334572       0.15714568 </v>
    <v>       0.65867223       0.33334135       0.65721137 </v>
    <v>       0.65869828       0.66665428       0.15714568 </v>
    <v>       0.65867223       0.66665865       0.65721137 </v>
    <v>       0.84164446       0.16679211       0.34273558 </v>
    <v>       0.84144161       0.16668575       0.84292723 </v>
    <v>       0.84158702       0.50000000       0.34282382 </v>
    <v>       0.84141975       0.50000000       0.84291097 </v>
    <v>       0.84164446       0.83320789       0.34273558 </v>
    <v>       0.84144161       0.83331425       0.84292723 </v>
    <v>       0.59061517       0.16669769       0.39747051 </v>
    <v>       0.59040116       0.16668805       0.89754206 </v>
    <v>       0.59056134       0.50000000       0.39752100 </v>
    <v>       0.59042225       0.50000000       0.89755342 </v>
    <v>       0.59061517       0.83330231       0.39747051 </v>
    <v>       0.59040116       0.83331195       0.89754206 </v>
    <v>       0.90965458       0.00000000       0.10258067 </v>
    <v>       0.90867242       0.00000000       0.60252564 </v>
    <v>       0.90961055       0.33330960       0.10258936 </v>
    <v>       0.90934235       0.33378565       0.60224840 </v>
    <v>       0.90961055       0.66669040       0.10258936 </v>
    <v>       0.90934235       0.66621435       0.60224840 </v>
    <v>       0.15852445       0.16615742       0.15729267 </v>
    <v>       0.15798391       0.19761970       0.67420424 </v>
    <v>       0.15853566       0.50000000       0.15719375 </v>
    <v>       0.15861959       0.50000000       0.65607942 </v>
    <v>       0.15852445       0.83384258       0.15729267 </v>
    <v>       0.15798391       0.80238030       0.67420424 </v>
    <v>       0.34098663       0.00000000       0.34183103 </v>
    <v>       0.34140010       0.00000000       0.84321880 </v>
    <v>       0.34116869       0.33398069       0.34231683 </v>
    <v>       0.34150660       0.33346131       0.84287721 </v>
    <v>       0.34116869       0.66601931       0.34231683 </v>
    <v>       0.34150660       0.66653869       0.84287721 </v>
    <v>       0.07093415       0.00000000       0.35286256 </v>
    <v>       0.09089857       0.00000000       0.89762435 </v>
    <v>       0.09050324       0.33339104       0.39801547 </v>
    <v>       0.09038844       0.33324919       0.89760257 </v>
    <v>       0.09050324       0.66660896       0.39801547 </v>
    <v>       0.09038844       0.66675081       0.89760257 </v>
    <v>       0.40958907       0.16666972       0.10246496 </v>
    <v>       0.41025585       0.16714613       0.60326834 </v>
    <v>       0.40958004       0.50000000       0.10247887 </v>
    <v>       0.40937808       0.50000000       0.60257134 </v>
    <v>       0.40958907       0.83333028       0.10246496 </v>
    <v>       0.41025585       0.83285387       0.60326834 </v>
    <v>       0.99639191       0.16672061       0.12844085 </v>
    <v>       0.99425368       0.16729410       0.62893029 </v>
    <v>       0.99648053       0.50000000       0.12843212 </v>
    <v>       0.99625344       0.50000000       0.62855634 </v>
    <v>       0.99639191       0.83327939       0.12844085 </v>
    <v>       0.99425368       0.83270590       0.62893029 </v>
    <v>       0.50332739       0.00000000       0.37158248 </v>
    <v>       0.50352797       0.00000000       0.87151818 </v>
    <v>       0.50336901       0.33318337       0.37156662 </v>
    <v>       0.50360542       0.33336863       0.87156043 </v>
    <v>       0.50336901       0.66681663       0.37156662 </v>
    <v>       0.50360542       0.66663137       0.87156043 </v>
    <v>       0.67320952       0.16665021       0.28158675 </v>
    <v>       0.67326299       0.16664772       0.78147696 </v>
    <v>       0.67319048       0.50000000       0.28158936 </v>
    <v>       0.67327573       0.50000000       0.78146780 </v>
    <v>       0.67320952       0.83334979       0.28158675 </v>
    <v>       0.67326299       0.83335228       0.78147696 </v>
    <v>       0.82662299       0.00000000       0.21843069 </v>
    <v>       0.82673333       0.00000000       0.71842306 </v>
    <v>       0.82656062       0.33342337       0.21835923 </v>
    <v>       0.82666477       0.33333357       0.71849508 </v>
    <v>       0.82656062       0.66657663       0.21835923 </v>
    <v>       0.82666477       0.66666643       0.71849508 </v>
    <v>       0.83481914       0.00000000       0.44564957 </v>
    <v>       0.83480820       0.00000000       0.94545618 </v>
    <v>       0.83479101       0.33334110       0.44559390 </v>
    <v>       0.83481164       0.33335172       0.94546005 </v>
    <v>       0.83479101       0.66665890       0.44559390 </v>
    <v>       0.83481164       0.66664828       0.94546005 </v>
    <v>       0.66513400       0.16665813       0.05446495 </v>
    <v>       0.66509727       0.16664734       0.55445219 </v>
    <v>       0.66513463       0.50000000       0.05446993 </v>
    <v>       0.66510967       0.50000000       0.55445940 </v>
    <v>       0.66513400       0.83334187       0.05446495 </v>
    <v>       0.66509727       0.83335266       0.55445219 </v>
    <v>       0.49645484       0.00000000       0.12848685 </v>
    <v>       0.49645703       0.00000000       0.62835139 </v>
    <v>       0.49645700       0.33333841       0.12848516 </v>
    <v>       0.49639919       0.33319994       0.62835717 </v>
    <v>       0.49645700       0.66666159       0.12848516 </v>
    <v>       0.49639919       0.66680006       0.62835717 </v>
    <v>       0.00106376       0.16834011       0.36948041 </v>
[...]
   <v>       0.00000000       0.00105683      -0.00500012 </v>
   <v>       0.00000000       0.00277281       0.00206632 </v>
   <v>      -0.00033225      -0.00130849       0.00063482 </v>
   <v>       0.00103603       0.00089718       0.00119344 </v>
   <v>       0.00084999      -0.00351945       0.00068061 </v>
   <v>       0.00296653       0.00231263      -0.00096866 </v>
   <v>       0.00000000      -0.00286635      -0.00001080 </v>
   <v>       0.00000000      -0.00162901       0.00222112 </v>
   <v>      -0.00084999      -0.00351945       0.00068061 </v>
   <v>      -0.00296653       0.00231263      -0.00096866 </v>
   <v>       0.00000000       0.00131439      -0.00108562 </v>
   <v>       0.00020795      -0.00222036      -0.00008078 </v>
   <v>      -0.00037870       0.00200356      -0.00004472 </v>
   <v>      -0.00020795      -0.00222036      -0.00008078 </v>
   <v>       0.00037870       0.00200356      -0.00004472 </v>
   <v>       0.00000000      -0.00175771      -0.00031204 </v>
  </varray>
  <varray name="stress" >
   <v>      74.02229164       0.00000000       0.00000000 </v>
   <v>       0.00000000      62.33652943      -3.58343603 </v>
   <v>       0.00000000      -3.58343433      76.14276410 </v>
  </varray>
  <energy>
   <i name="e_fr_energy">   -709.16726288 </i>
   <i name="e_wo_entrp">   -709.14839289 </i>
   <i name="e_0_energy">   -709.15782789 </i>
  </energy>
  <time name="totalsc">   11.82   11.84</time>
 </calculation>
 <calculation>
  <scstep>
   <time name="dav">    1.89    1.89</time>
   <time name="total">    2.27    2.27</time>
   <energy>
    <i name="alphaZ">   5529.70323211 </i>
    <i name="ewald"> -88670.45451996 </i>
    <i name="hartreedc"> -33791.25124099 </i>
    <i name="XCdc">   4184.16953971 </i>
    <i name="pawpsdc"> 119878.87056683 </i>
    <i name="pawaedc">-136263.76214327 </i>
    <i name="eentropy">     -0.01886722 </i>
    <i name="bandstr">  -5592.24229272 </i>
    <i name="atom"> 134015.81877255 </i>
    <i name="e_fr_energy">   -709.16695296 </i>
    <i name="e_wo_entrp">   -709.14808573 </i>
    <i name="e_0_energy">   -709.15751935 </i>
   </energy>
  </scstep>
  <scstep>
   <time name="diag">    0.24    0.24</time>
   <time name="diis">    2.48    2.48</time>
   <time name="orth">    0.03    0.03</time>
   <time name="total">    3.13    3.13</time>
   <energy>
    <i name="e_fr_energy">   -709.16712154 </i>
    <i name="e_wo_entrp">   -709.14825535 </i>
    <i name="e_0_energy">   -709.15768844 </i>
   </energy>
  </scstep>
  <scstep>
   <time name="diag">    0.24    0.24</time>
   <time name="diis">    2.74    2.74</time>
   <time name="orth">    0.03    0.03</time>
   <time name="total">    3.40    3.40</time>
   <energy>
    <i name="e_fr_energy">   -709.16716626 </i>
    <i name="e_wo_entrp">   -709.14829986 </i>
    <i name="e_0_energy">   -709.15773306 </i>
   </energy>
  </scstep>
  <scstep>
   <time name="diag">    0.24    0.24</time>
   <time name="diis">    1.82    1.82</time>
   <time name="orth">    0.03    0.03</time>
   <time name="total">    2.20    2.20</time>
   <energy>
    <i name="alphaZ">   5529.70323211 </i>
    <i name="ewald"> -88670.45451996 </i>
    <i name="hartreedc"> -33791.25056103 </i>
    <i name="XCdc">   4184.16981989 </i>
    <i name="pawpsdc"> 119878.47132934 </i>
    <i name="pawaedc">-136263.36349105 </i>
    <i name="eentropy">     -0.01886652 </i>
    <i name="bandstr">  -5592.24288512 </i>
    <i name="atom"> 134015.81877255 </i>
    <i name="e_fr_energy">   -709.16716978 </i>
    <i name="e_wo_entrp">   -709.14830327 </i>
    <i name="e_0_energy">   -709.15773653 </i>
   </energy>
  </scstep>
  <structure>
   <crystal>
    <varray name="basis" >
     <v>       0.00000000      12.28047342       0.00000000 </v>
     <v>       9.14270205       0.00000000       0.00000000 </v>
     <v>       0.00000000      -2.76826177     -11.30069772 </v>
    </varray>
    <i name="volume">   1268.80515525 </i>
    <varray name="rec_basis" >
     <v>       0.00000000       0.08143009      -0.01994742 </v>
     <v>       0.10937686      -0.00000000       0.00000000 </v>
     <v>       0.00000000       0.00000000      -0.08849011 </v>
    </varray>
   </crystal>
   <varray name="positions" >
    <v>       0.65891557       0.00000000       0.15595135 </v>
    <v>       0.65939851       0.00000000       0.65605112 </v>
    <v>       0.65875196       0.33392969       0.15626734 </v>
    <v>       0.65815203       0.33338129       0.65619118 </v>
    <v>       0.65875196       0.66607031       0.15626734 </v>
    <v>       0.65815203       0.66661871       0.65619118 </v>
    <v>       0.83675309       0.16800452       0.34270683 </v>
    <v>       0.84000157       0.16722915       0.84220957 </v>
    <v>       0.84010147       0.50000000       0.34268051 </v>
    <v>       0.84034315       0.50000000       0.84307453 </v>
    <v>       0.83675309       0.83199548       0.34270683 </v>
    <v>       0.84000157       0.83277085       0.84220957 </v>
    <v>       0.58986840       0.16715077       0.39779358 </v>
    <v>       0.59204777       0.16654921       0.89800322 </v>
    <v>       0.59076800       0.50000000       0.39792324 </v>
    <v>       0.59473830       0.50000000       0.89908389 </v>
    <v>       0.58986840       0.83284923       0.39779358 </v>
    <v>       0.59204777       0.83345079       0.89800322 </v>
    <v>       0.90608483       0.00000000       0.09957403 </v>
    <v>       0.90950039       0.00000000       0.60164462 </v>
    <v>       0.90779648       0.33291942       0.10265184 </v>
    <v>       0.90764807       0.33359889       0.60180962 </v>
    <v>       0.90779648       0.66708058       0.10265184 </v>
    <v>       0.90764807       0.66640111       0.60180962 </v>
    <v>       0.15877505       0.16633949       0.15251018 </v>
    <v>       0.16095656       0.17794774       0.66319777 </v>
    <v>       0.15730474       0.50000000       0.15894036 </v>
    <v>       0.15875348       0.50000000       0.65887785 </v>
    <v>       0.15877505       0.83366051       0.15251018 </v>
    <v>       0.16095656       0.82205226       0.66319777 </v>
    <v>       0.34125191       0.00000000       0.33983058 </v>
    <v>       0.34235382       0.00000000       0.84754324 </v>
    <v>       0.33998418       0.33453523       0.34337922 </v>
    <v>       0.34510425       0.33453926       0.84759343 </v>
    <v>       0.33998418       0.66546477       0.34337922 </v>
    <v>       0.34510425       0.66546074       0.84759343 </v>
    <v>       0.07583426       0.00000000       0.37221817 </v>
    <v>       0.08958988       0.00000000       0.89554852 </v>
    <v>       0.08995509       0.33306026       0.39909707 </v>
    <v>       0.08947153       0.33348519       0.89874987 </v>
    <v>       0.08995509       0.66693974       0.39909707 </v>
    <v>       0.08947153       0.66651481       0.89874987 </v>
    <v>       0.41041881       0.16685362       0.10423764 </v>
    <v>       0.40917177       0.16591789       0.60626643 </v>
    <v>       0.40923915       0.50000000       0.10470708 </v>
    <v>       0.40785472       0.50000000       0.60383341 </v>
    <v>       0.41041881       0.83314638       0.10423764 </v>
    <v>       0.40917177       0.83408211       0.60626643 </v>
    <v>       0.99524316       0.16584175       0.12380774 </v>
    <v>       0.99657786       0.16733135       0.62590798 </v>
    <v>       0.99516678       0.50000000       0.12744338 </v>
    <v>       0.99527008       0.50000000       0.62889810 </v>
    <v>       0.99524316       0.83415825       0.12380774 </v>
    <v>       0.99657786       0.83266865       0.62590798 </v>
    <v>       0.50344462       0.00000000       0.37235603 </v>
    <v>       0.50494738       0.00000000       0.87591584 </v>
    <v>       0.50268885       0.33377372       0.37273154 </v>
    <v>       0.50711537       0.33472065       0.87670198 </v>
    <v>       0.50268885       0.66622628       0.37273154 </v>
    <v>       0.50711537       0.66527935       0.87670198 </v>
    <v>       0.67098166       0.16665144       0.28027126 </v>
    <v>       0.67210931       0.16681264       0.77975474 </v>
    <v>       0.67159115       0.50000000       0.28063711 </v>
    <v>       0.67287711       0.50000000       0.77977828 </v>
    <v>       0.67098166       0.83334856       0.28027126 </v>
    <v>       0.67210931       0.83318736       0.77975474 </v>
    <v>       0.82640977       0.00000000       0.21845557 </v>
    <v>       0.82751026       0.00000000       0.71844096 </v>
    <v>       0.82549694       0.33436758       0.21875044 </v>
    <v>       0.82682549       0.33310420       0.71931101 </v>
    <v>       0.82549694       0.66563242       0.21875044 </v>
    <v>       0.82682549       0.66689580       0.71931101 </v>
    <v>       0.83199701       0.00000000       0.44529514 </v>
    <v>       0.82995946       0.00000000       0.94345010 </v>
    <v>       0.83012311       0.33410416       0.44576227 </v>
    <v>       0.83157634       0.33332941       0.94553142 </v>
    <v>       0.83012311       0.66589584       0.44576227 </v>
    <v>       0.83157634       0.66667059       0.94553142 </v>
    <v>       0.66859179       0.16675073       0.05470676 </v>
    <v>       0.66764952       0.16689666       0.55379817 </v>
    <v>       0.67012004       0.50000000       0.05536882 </v>
    <v>       0.66764589       0.50000000       0.55426607 </v>
    <v>       0.66859179       0.83324927       0.05470676 </v>
    <v>       0.66764952       0.83310334       0.55379817 </v>
    <v>       0.49711727       0.00000000       0.12889069 </v>
    <v>       0.49760230       0.00000000       0.62901823 </v>
    <v>       0.49686836       0.33396330       0.12875122 </v>
    <v>       0.49587893       0.33357852       0.62699217 </v>
    <v>       0.49686836       0.66603670       0.12875122 </v>
    <v>       0.49587893       0.66642148       0.62699217 </v>
    <v>      -0.00356494       0.17187737       0.36344751 </v>
    <v>       0.00254238       0.16691607       0.87084052 </v>
    <v>       0.00233231       0.50000000       0.37260943 </v>
    <v>       0.00265916       0.50000000       0.87315700 </v>
    <v>      -0.00356494       0.82812263       0.36344751 </v>
    <v>       0.00254238       0.83308393       0.87084052 </v>
    <v>       0.17072439       0.00000000       0.26812444 </v>
    <v>       0.17459540       0.00000000       0.78280457 </v>
    <v>       0.17185348       0.33196341       0.28146898 </v>
    <v>       0.17283840       0.33520761       0.78316828 </v>
    <v>       0.17185348       0.66803659       0.28146898 </v>
    <v>       0.17283840       0.66479239       0.78316828 </v>
    <v>       0.32768936       0.16766456       0.21987896 </v>
    <v>       0.33575446       0.17368089       0.73030859 </v>
    <v>       0.32615131       0.50000000       0.22009424 </v>
    <v>       0.32863900       0.50000000       0.72278619 </v>
    <v>       0.32768936       0.83233544       0.21987896 </v>
    <v>       0.33575446       0.82631911       0.73030859 </v>
    <v>       0.33575871       0.16572528       0.44603428 </v>
    <v>       0.33232961       0.16769478       0.94917494 </v>
    <v>       0.33237311       0.50000000       0.44650709 </v>
    <v>       0.33269719       0.50000000       0.94829860 </v>
    <v>       0.33575871       0.83427472       0.44603428 </v>
    <v>       0.33232961       0.83230522       0.94917494 </v>
    <v>       0.16895341       0.00000000       0.04982717 </v>
    <v>       0.16713216       0.33482618       0.05463493 </v>
    <v>       0.16801935       0.34063761       0.55480729 </v>
    <v>       0.16713216       0.66517382       0.05463493 </v>
    <v>       0.16801935       0.65936239       0.55480729 </v>
    <v>       0.20131090       0.00000000       0.54167888 </v>
   </varray>
  </structure>
  <varray name="forces" >
   <v>       0.00000000       0.00091583      -0.00514032 </v>
   <v>       0.00000000       0.00739072       0.00553866 </v>
   <v>      -0.00010438      -0.00204903      -0.00517420 </v>
   <v>       0.00000344       0.00205075       0.00396260 </v>
   <v>       0.00010438      -0.00204903      -0.00517420 </v>
   <v>      -0.00000344       0.00205075       0.00396260 </v>
   <v>      -0.00284812       0.00172320      -0.00107421 </v>
   <v>      -0.00031473      -0.00066670       0.00603449 </v>
   <v>       0.00000000      -0.00404949      -0.00577000 </v>
   <v>       0.00000000      -0.00351105       0.00913689 </v>
   <v>       0.00284812       0.00172320      -0.00107421 </v>
   <v>       0.00031473      -0.00066670       0.00603449 </v>
   <v>       0.00181296      -0.00137981       0.00083172 </v>
   <v>       0.00194040       0.00799210      -0.00158774 </v>
   <v>       0.00000000       0.00343208       0.00773145 </v>
   <v>       0.00000000       0.00569767       0.00448933 </v>
   <v>      -0.00181296      -0.00137981       0.00083172 </v>
   <v>      -0.00194040       0.00799210      -0.00158774 </v>
   <v>       0.00000000       0.00004027       0.00067587 </v>
   <v>       0.00000000       0.00448646      -0.00189931 </v>
   <v>       0.00282554      -0.00740747      -0.00004859 </v>
   <v>       0.00038917       0.00338135       0.00432962 </v>
   <v>      -0.00282554      -0.00740747      -0.00004859 </v>
   <v>      -0.00038917       0.00338135       0.00432962 </v>
   <v>      -0.00312789      -0.00469922      -0.00100409 </v>
   <v>       0.00032362       0.00187983       0.00328082 </v>
   <v>       0.00000000      -0.00714852      -0.00708066 </v>
   <v>       0.00000000       0.00625610      -0.00371852 </v>
   <v>       0.00312789      -0.00469922      -0.00100409 </v>
   <v>      -0.00032362       0.00187983       0.00328082 </v>
   <v>       0.00000000      -0.00844636      -0.00112402 </v>
   <v>       0.00000000       0.00536431      -0.00384891 </v>
   <v>       0.00282680      -0.00695123       0.00170919 </v>
   <v>       0.00208514       0.00478457      -0.00112542 </v>
   <v>      -0.00282680      -0.00695123       0.00170919 </v>
   <v>      -0.00208514       0.00478457      -0.00112542 </v>
   <v>       0.00000000      -0.00775652      -0.01950287 </v>
   <v>       0.00000000       0.00228243      -0.00964301 </v>
   <v>      -0.00405210      -0.00334710      -0.00151254 </v>
   <v>      -0.00429416      -0.00151009      -0.00501527 </v>
   <v>       0.00405210      -0.00334710      -0.00151254 </v>
   <v>       0.00429416      -0.00151009      -0.00501527 </v>
   <v>       0.00086405       0.00381987      -0.00266240 </v>
   <v>       0.00211474       0.00055038       0.00346280 </v>
   <v>       0.00000000      -0.00064810      -0.00249710 </v>
   <v>       0.00000000       0.00364790       0.00015120 </v>
   <v>      -0.00086405       0.00381987      -0.00266240 </v>
   <v>      -0.00211474       0.00055038       0.00346280 </v>
   <v>      -0.00210289      -0.00328963       0.00014805 </v>
   <v>       0.00014004       0.00309248      -0.00108686 </v>
   <v>       0.00000000      -0.00517797      -0.00056960 </v>
   <v>       0.00000000       0.00459560      -0.00017141 </v>
   <v>       0.00210289      -0.00328963       0.00014805 </v>
   <v>      -0.00014004       0.00309248      -0.00108686 </v>
   <v>       0.00000000      -0.00341674       0.00389378 </v>
   <v>       0.00000000       0.00412223       0.00149705 </v>
   <v>      -0.00088202      -0.00351124       0.00409251 </v>
   <v>      -0.00050928       0.00703431      -0.00217083 </v>
   <v>       0.00088202      -0.00351124       0.00409251 </v>
   <v>       0.00050928       0.00703431      -0.00217083 </v>
   <v>      -0.00102309      -0.00079270      -0.00090555 </v>
   <v>       0.00017589      -0.00006052      -0.00191847 </v>
   <v>       0.00000000       0.00018943      -0.00080729 </v>
   <v>       0.00000000      -0.00010887      -0.00082721 </v>
   <v>       0.00102309      -0.00079270      -0.00090555 </v>
   <v>      -0.00017589      -0.00006052      -0.00191847 </v>
   <v>       0.00000000      -0.00570900      -0.00238798 </v>
   <v>       0.00000000       0.00329140       0.00350466 </v>
   <v>       0.00139671      -0.00217802      -0.00104490 </v>
   <v>       0.00298780       0.00262058      -0.00011454 </v>
   <v>      -0.00139671      -0.00217802      -0.00104490 </v>
   <v>      -0.00298780       0.00262058      -0.00011454 </v>
   <v>       0.00000000       0.00123302       0.00321514 </v>
   <v>       0.00000000      -0.00341410       0.00106092 </v>
   <v>       0.00453724       0.00133464      -0.00445087 </v>
   <v>      -0.00047388       0.00022624       0.00158668 </v>
   <v>      -0.00453724       0.00133464      -0.00445087 </v>
   <v>       0.00047388       0.00022624       0.00158668 </v>
   <v>       0.00025148       0.00041701       0.00196762 </v>
   <v>      -0.00403888      -0.00009134      -0.00080880 </v>
   <v>       0.00000000      -0.00352446      -0.00230372 </v>
   <v>       0.00000000      -0.00404862       0.00079392 </v>
   <v>      -0.00025148       0.00041701       0.00196762 </v>
   <v>       0.00403888      -0.00009134      -0.00080880 </v>
   <v>       0.00000000      -0.00171941       0.00128814 </v>
   <v>       0.00000000      -0.00085835       0.00173392 </v>
   <v>       0.00058386      -0.00166820      -0.00211642 </v>
   <v>       0.00028578       0.00251179      -0.00030919 </v>
   <v>      -0.00058386      -0.00166820      -0.00211642 </v>
   <v>      -0.00028578       0.00251179      -0.00030919 </v>
   <v>      -0.00333422       0.00284472      -0.00393831 </v>
   <v>       0.00086468       0.00234250       0.00040015 </v>
   <v>       0.00000000      -0.00252717       0.00374604 </v>
   <v>       0.00000000       0.00106912       0.00288367 </v>
   <v>       0.00333422       0.00284472      -0.00393831 </v>
   <v>      -0.00086468       0.00234250       0.00040015 </v>
   <v>       0.00000000      -0.00064927       0.00310499 </v>
   <v>       0.00000000       0.00562933      -0.00205596 </v>
   <v>       0.00084768       0.00171280       0.00149417 </v>
   <v>       0.00643397       0.00434103       0.00196179 </v>
   <v>      -0.00084768       0.00171280       0.00149417 </v>
   <v>      -0.00643397       0.00434103       0.00196179 </v>
   <v>       0.00130230      -0.00639724      -0.00026348 </v>
   <v>      -0.00110235       0.00128426       0.00050486 </v>
   <v>       0.00000000       0.00182231      -0.00372351 </v>
   <v>       0.00000000      -0.00139768       0.00428949 </v>
   <v>      -0.00130230      -0.00639724      -0.00026348 </v>
   <v>       0.00110235       0.00128426       0.00050486 </v>
   <v>      -0.00140634      -0.00421663       0.00308835 </v>
   <v>       0.00049886       0.00226273      -0.00041588 </v>
   <v>       0.00000000      -0.00253671       0.00144146 </v>
   <v>       0.00000000      -0.00333856       0.00201710 </v>
   <v>       0.00140634      -0.00421663       0.00308835 </v>
   <v>      -0.00049886       0.00226273      -0.00041588 </v>
   <v>       0.00000000       0.00026519       0.00788341 </v>
   <v>       0.00301137      -0.00338557       0.00338396 </v>
   <v>      -0.00848164       0.00371979      -0.00451478 </v>
   <v>      -0.00301137      -0.00338557       0.00338396 </v>
   <v>       0.00848164       0.00371979      -0.00451478 </v>
   <v>       0.00000000      -0.00839478       0.00504230 </v>
  </varray>
  <varray name="stress" >
   <v>      74.01078793       0.00000000       0.00000000 </v>
   <v>       0.00000000      62.34748812      -3.54264131 </v>
   <v>       0.00000000      -3.54263986      76.11467148 </v>
  </varray>
  <energy>
   <i name="e_fr_energy">   -709.16716978 </i>
   <i name="e_wo_entrp">   -709.14830327 </i>
   <i name="e_0_energy">   -709.15773653 </i>
  </energy>
