       N       E                     dE             d eps       ncg     rms          ort
DAV:   1    -0.217267182726E+05   -0.21727E+05   -0.54707E+05  5064   0.751E+03
DAV:   2    -0.664644053883E+05   -0.44738E+05   -0.43233E+05  5064   0.124E+03
DAV:   3    -0.716072838541E+05   -0.51429E+04   -0.45750E+04  5064   0.373E+02
DAV:   4    -0.723357527865E+05   -0.72847E+03   -0.66389E+03  5064   0.118E+02
DAV:   5    -0.393148536991E+05    0.33021E+05   -0.71962E+02  5064   0.594E+01
SDA:   6     0.355957821925E+05    0.74911E+05   -0.71962E+02  5064   0.981E+05 0.000E+00
CGA:   7     0.154205977509E+05   -0.20175E+05   -0.29884E+05  5064   0.945E+05-0.309E+05
CGA:   8     0.974068567481E+04   -0.56799E+04   -0.82137E+04  5064   0.400E+05 0.134E+05
CGA:   9     0.636715162989E+04   -0.33735E+04   -0.49465E+04  5064   0.237E+05 0.559E+03
CGA:  10     0.383289267907E+04   -0.25343E+04   -0.30239E+04  5064   0.141E+05 0.112E+04
CGA:  11     0.206727520252E+04   -0.17656E+04   -0.20122E+04  5064   0.634E+04 0.890E+03
CGA:  12     0.697452981011E+03   -0.13698E+04   -0.13564E+04  5064   0.267E+04 0.583E+03
CGA:  13    -0.806573919446E+02   -0.77811E+03   -0.75577E+03  5064   0.134E+04 0.215E+03
CGA:  14    -0.528465141099E+03   -0.44781E+03   -0.44863E+03  5064   0.833E+03-0.616E+02
CGA:  15    -0.704079840731E+03   -0.17561E+03   -0.18631E+03  5064   0.578E+03-0.224E+03
CGA:  16    -0.758143725080E+03   -0.54064E+02   -0.52677E+02  5064   0.476E+03 0.536E+01
CGA:  17    -0.818451917017E+03   -0.60308E+02   -0.62012E+02  5064   0.276E+03 0.464E+01
CGA:  18    -0.858909529015E+03   -0.40458E+02   -0.41861E+02  5064   0.175E+03 0.130E+02
CGA:  19    -0.893200291250E+03   -0.34291E+02   -0.34364E+02  5064   0.121E+03 0.117E+02
CGA:  20    -0.921497773394E+03   -0.28297E+02   -0.28108E+02  5064   0.869E+02 0.652E+01
CGA:  21    -0.941066079583E+03   -0.19568E+02   -0.19526E+02  5064   0.571E+02 0.257E+01
CGA:  22    -0.953104610170E+03   -0.12039E+02   -0.12026E+02  5064   0.387E+02 0.150E+01
CGA:  23    -0.961193666836E+03   -0.80891E+01   -0.80761E+01  5064   0.244E+02 0.129E+01
CGA:  24    -0.966249829822E+03   -0.50562E+01   -0.50514E+01  5064   0.139E+02 0.705E+00
CGA:  25    -0.969288954731E+03   -0.30391E+01   -0.30332E+01  5064   0.954E+01 0.287E+00
CGA:  26    -0.971452050070E+03   -0.21631E+01   -0.21599E+01  5064   0.715E+01 0.112E+00
CGA:  27    -0.972903855411E+03   -0.14518E+01   -0.14518E+01  5064   0.452E+01 0.236E-01
CGA:  28    -0.973824553717E+03   -0.92070E+00   -0.92079E+00  5064   0.302E+01 0.372E-02
CGA:  29    -0.974494481331E+03   -0.66993E+00   -0.66987E+00  5064   0.205E+01 0.833E-02
CGA:  30    -0.974947963814E+03   -0.45348E+00   -0.45315E+00  5064   0.119E+01 0.131E-01
CGA:  31    -0.975227706816E+03   -0.27974E+00   -0.27946E+00  5064   0.793E+00 0.724E-02
CGA:  32    -0.975418468166E+03   -0.19076E+00   -0.19063E+00  5064   0.607E+00 0.311E-02
CGA:  33    -0.975554417721E+03   -0.13595E+00   -0.13593E+00  5064   0.435E+00 0.132E-02
CGA:  34    -0.975640630154E+03   -0.86212E-01   -0.86217E-01  5064   0.280E+00 0.695E-03
CGA:  35    -0.975698410489E+03   -0.57780E-01   -0.57779E-01  5064   0.195E+00 0.618E-03
CGA:  36    -0.975742380487E+03   -0.43970E-01   -0.43953E-01  5064   0.131E+00 0.684E-03
SDA:  37    -0.975772043024E+03   -0.29663E-01   -0.29653E-01  5064   0.788E-01 0.437E-03
CGA:  38    -0.975813256230E+03   -0.41213E-01   -0.41252E-01  5064   0.316E-01-0.122E-03
CGA:  39    -0.975825923193E+03   -0.12667E-01   -0.12668E-01  5064   0.116E-01-0.336E-05
CGA:  40    -0.975829631954E+03   -0.37088E-02   -0.37053E-02  5064   0.286E-02 0.403E-04
CGA:  41    -0.975830649694E+03   -0.10177E-02   -0.10199E-02  5064   0.695E-03-0.168E-04
CGA:  42    -0.975830865972E+03   -0.21628E-03   -0.21718E-03  5064   0.179E-03-0.110E-04
CGA:  43    -0.975830930421E+03   -0.64448E-04   -0.64036E-04  5064   0.560E-04 0.353E-05
CGA:  44    -0.975830947989E+03   -0.17568E-04   -0.17457E-04  5064   0.187E-04 0.187E-05
CGA:  45    -0.975830954463E+03   -0.64742E-05   -0.64196E-05  5064   0.742E-05 0.669E-06
   1 F= -.97583095E+03 E0= -.97583095E+03  d E =-.107531E-18
