<?xml version="1.0" encoding="ISO-8859-1"?>
<modeling>
 <generator>
  <i name="program" type="string">vasp </i>
  <i name="version" type="string">6.4.2  </i>
  <i name="subversion" type="string">20Jul23 (build Nov 12 2023 22:16:35) complex                          parallel </i>
  <i name="platform" type="string">LinuxNV </i>
  <i name="date" type="string">2025 03 12 </i>
  <i name="time" type="string">04:27:44 </i>
 </generator>
 <incar>
  <i type="int" name="ISTART">     0</i>
  <i type="string" name="PREC">Normal</i>
  <i type="string" name="ALGO">All</i>
  <i type="int" name="ISPIN">     1</i>
  <i type="int" name="ICHARG">     0</i>
  <i type="int" name="NELM">   500</i>
  <i type="int" name="IBRION">    -1</i>
  <i name="EDIFF">      0.00001000</i>
  <i name="EDIFFG">     -0.00500000</i>
  <i type="int" name="NSW">     0</i>
  <i type="int" name="ISIF">     2</i>
  <i name="ENCUT">    450.00000000</i>
  <i name="NELECT">   1056.00000000</i>
  <i type="string" name="LREAL">Auto</i>
  <i type="logical" name="LPLANE"> T  </i>
  <i name="TIME">      0.40000000</i>
  <i type="int" name="ISMEAR">     0</i>
  <i name="SIGMA">      0.05000000</i>
  <i type="logical" name="LWAVE"> T  </i>
  <i type="logical" name="LCHARG"> T  </i>
  <i name="HFSCREEN">      0.18000000</i>
  <i type="logical" name="LHFCALC"> T  </i>
  <i type="int" name="LMAXFOCK">     4</i>
  <i name="AEXX">      0.35000000</i>
  <i type="string" name="PRECFOCK">Fast</i>
 </incar>
 <primitive_cell>
  <structure name="primitive_cell" >
   <crystal>
    <varray name="basis" >
     <v>       0.00000000      12.28047342       0.00000000 </v>
     <v>       9.14270205       0.00000000       0.00000000 </v>
     <v>       0.00000000      -2.76826177     -11.30069772 </v>
    </varray>
    <i name="volume">   1268.80515525 </i>
    <varray name="rec_basis" >
     <v>       0.00000000       0.08143009      -0.01994742 </v>
     <v>       0.10937686      -0.00000000       0.00000000 </v>
     <v>       0.00000000       0.00000000      -0.08849011 </v>
    </varray>
   </crystal>
   <varray name="positions" >
    <v>       0.66050800       0.00000000       0.15551579 </v>
    <v>       0.65874487       0.00000000       0.65746193 </v>
    <v>       0.66016030       0.33494225       0.15511037 </v>
    <v>       0.66027753       0.33370282       0.65676405 </v>
    <v>       0.66016030       0.66505775       0.15511037 </v>
    <v>       0.66027753       0.66629718       0.65676405 </v>
    <v>       0.83478553       0.16916744       0.34376899 </v>
    <v>       0.83972740       0.16663187       0.84465807 </v>
    <v>       0.84065339       0.50000000       0.34369363 </v>
    <v>       0.83961174       0.50000000       0.84129976 </v>
    <v>       0.83478553       0.83083256       0.34376899 </v>
    <v>       0.83972740       0.83336813       0.84465807 </v>
    <v>       0.59153674       0.16879266       0.39829790 </v>
    <v>       0.59147078       0.16679186       0.89794384 </v>
    <v>       0.59570684       0.50000000       0.39812619 </v>
    <v>       0.59296016       0.50000000       0.89705339 </v>
    <v>       0.59153674       0.83120734       0.39829790 </v>
    <v>       0.59147078       0.83320814       0.89794384 </v>
    <v>       0.90999856       0.00000000       0.10334339 </v>
    <v>       0.90693539       0.00000000       0.60424689 </v>
    <v>       0.90455112       0.33471718       0.09989155 </v>
    <v>       0.90748755       0.33349461       0.60046142 </v>
    <v>       0.90455112       0.66528282       0.09989155 </v>
    <v>       0.90748755       0.66650539       0.60046142 </v>
    <v>       0.16071833       0.17076746       0.14764933 </v>
    <v>       0.15893829       0.16839468       0.66009840 </v>
    <v>       0.15734398       0.50000000       0.15960931 </v>
    <v>       0.15895295       0.50000000       0.65391569 </v>
    <v>       0.16071833       0.82923254       0.14764933 </v>
    <v>       0.15893829       0.83160532       0.66009840 </v>
    <v>       0.35034331       0.00000000       0.35376785 </v>
    <v>       0.34102578       0.00000000       0.84558497 </v>
    <v>       0.34292015       0.33429149       0.34082932 </v>
    <v>       0.34217205       0.33409951       0.84323596 </v>
    <v>       0.34292015       0.66570851       0.34082932 </v>
    <v>       0.34217205       0.66590049       0.84323596 </v>
    <v>       0.06839284       0.00000000       0.41609533 </v>
    <v>       0.08845761       0.00000000       0.89433934 </v>
    <v>       0.09100419       0.33285566       0.39575661 </v>
    <v>       0.08884782       0.33378042       0.89552482 </v>
    <v>       0.09100419       0.66714434       0.39575661 </v>
    <v>       0.08884782       0.66621958       0.89552482 </v>
    <v>       0.41314040       0.16848462       0.10187079 </v>
    <v>       0.41258898       0.16935298       0.60727808 </v>
    <v>       0.40982436       0.50000000       0.10202346 </v>
    <v>       0.41051520       0.50000000       0.60138938 </v>
    <v>       0.41314040       0.83151538       0.10187079 </v>
    <v>       0.41258898       0.83064702       0.60727808 </v>
    <v>       0.99101069       0.17074213       0.11754560 </v>
    <v>       0.99485522       0.16680872       0.62890975 </v>
    <v>       0.99324636       0.50000000       0.12534644 </v>
    <v>       0.99566552       0.50000000       0.62595585 </v>
    <v>       0.99101069       0.82925787       0.11754560 </v>
    <v>       0.99485522       0.83319128       0.62890975 </v>
    <v>       0.50739183       0.00000000       0.37160873 </v>
    <v>       0.50421287       0.00000000       0.87278905 </v>
    <v>       0.50725910       0.33592495       0.37225591 </v>
    <v>       0.50492050       0.33401818       0.87323239 </v>
    <v>       0.50725910       0.66407505       0.37225591 </v>
    <v>       0.50492050       0.66598182       0.87323239 </v>
    <v>       0.67087491       0.16629201       0.27919196 </v>
    <v>       0.67215424       0.16649234       0.78041027 </v>
    <v>       0.67304016       0.50000000       0.27811270 </v>
    <v>       0.67306394       0.50000000       0.77954039 </v>
    <v>       0.67087491       0.83370799       0.27919196 </v>
    <v>       0.67215424       0.83350766       0.78041027 </v>
    <v>       0.82782272       0.00000000       0.22100709 </v>
    <v>       0.82623012       0.00000000       0.72059926 </v>
    <v>       0.82635204       0.33406528       0.21984575 </v>
    <v>       0.82739812       0.33271967       0.71890861 </v>
    <v>       0.82635204       0.66593472       0.21984575 </v>
    <v>       0.82739812       0.66728033       0.71890861 </v>
    <v>       0.83036963       0.00000000       0.44720481 </v>
    <v>       0.83040048       0.00000000       0.94580191 </v>
    <v>       0.82362535       0.33617633       0.44656324 </v>
    <v>       0.82819960       0.33506402       0.94306484 </v>
    <v>       0.82362535       0.66382367       0.44656324 </v>
    <v>       0.82819960       0.66493598       0.94306484 </v>
    <v>       0.66991592       0.16692145       0.05385570 </v>
    <v>       0.66768918       0.16610758       0.55482313 </v>
    <v>       0.67278810       0.50000000       0.05242007 </v>
    <v>       0.66916291       0.50000000       0.55530060 </v>
    <v>       0.66991592       0.83307855       0.05385570 </v>
    <v>       0.66768918       0.83389242       0.55482313 </v>
    <v>       0.49880058       0.00000000       0.12463991 </v>
    <v>       0.49720683       0.00000000       0.62967755 </v>
    <v>       0.50003842       0.33601684       0.12301548 </v>
    <v>       0.49969712       0.33569533       0.63282576 </v>
    <v>       0.50003842       0.66398316       0.12301548 </v>
    <v>       0.49969712       0.66430467       0.63282576 </v>
    <v>       0.99332837       0.17634524       0.38340834 </v>
    <v>       0.00167314       0.16728463       0.87032794 </v>
    <v>       0.00222326       0.50000000       0.37462305 </v>
    <v>       0.00163120       0.50000000       0.87039925 </v>
    <v>       0.99332837       0.82365476       0.38340834 </v>
    <v>       0.00167314       0.83271537       0.87032794 </v>
    <v>       0.17376646       0.00000000       0.78228125 </v>
    <v>       0.17336927       0.34217921       0.28171865 </v>
    <v>       0.17236481       0.33413888       0.78035810 </v>
    <v>       0.17336927       0.65782079       0.28171865 </v>
    <v>       0.17236481       0.66586112       0.78035810 </v>
    <v>       0.33439210       0.17980462       0.21668715 </v>
    <v>       0.32807258       0.16743354       0.72093055 </v>
    <v>       0.32874097       0.50000000       0.21762074 </v>
    <v>       0.32733448       0.50000000       0.71815892 </v>
    <v>       0.33439210       0.82019538       0.21668715 </v>
    <v>       0.32807258       0.83256646       0.72093055 </v>
    <v>       0.34465684       0.17469324       0.45075071 </v>
    <v>       0.33542792       0.16851828       0.94554846 </v>
    <v>       0.33637679       0.50000000       0.44540851 </v>
    <v>       0.33270727       0.50000000       0.94501386 </v>
    <v>       0.34465684       0.82530676       0.45075071 </v>
    <v>       0.33542792       0.83148172       0.94554846 </v>
    <v>       0.17547241       0.00000000       0.04342363 </v>
    <v>       0.16385266       0.00000000       0.56285086 </v>
    <v>       0.16613637       0.33751953       0.05141818 </v>
    <v>       0.16716154       0.33208927       0.55376900 </v>
    <v>       0.16613637       0.66248047       0.05141818 </v>
    <v>       0.16716154       0.66791073       0.55376900 </v>
    <v>       0.16671645       0.00000000       0.28573925 </v>
   </varray>
  </structure>
  <varray name="primitive_index" >
   <v type="int" >        1 </v>
   <v type="int" >        2 </v>
   <v type="int" >        3 </v>
   <v type="int" >        4 </v>
   <v type="int" >        5 </v>
   <v type="int" >        6 </v>
   <v type="int" >        7 </v>
   <v type="int" >        8 </v>
   <v type="int" >        9 </v>
   <v type="int" >       10 </v>
   <v type="int" >       11 </v>
   <v type="int" >       12 </v>
   <v type="int" >       13 </v>
   <v type="int" >       14 </v>
   <v type="int" >       15 </v>
   <v type="int" >       16 </v>
   <v type="int" >       17 </v>
   <v type="int" >       18 </v>
   <v type="int" >       19 </v>
   <v type="int" >       20 </v>
   <v type="int" >       21 </v>
   <v type="int" >       22 </v>
   <v type="int" >       23 </v>
   <v type="int" >       24 </v>
   <v type="int" >       25 </v>
   <v type="int" >       26 </v>
   <v type="int" >       27 </v>
   <v type="int" >       28 </v>
   <v type="int" >       29 </v>
   <v type="int" >       30 </v>
   <v type="int" >       31 </v>
   <v type="int" >       32 </v>
   <v type="int" >       33 </v>
   <v type="int" >       34 </v>
   <v type="int" >       35 </v>
   <v type="int" >       36 </v>
   <v type="int" >       37 </v>
   <v type="int" >       38 </v>
   <v type="int" >       39 </v>
   <v type="int" >       40 </v>
   <v type="int" >       41 </v>
   <v type="int" >       42 </v>
   <v type="int" >       43 </v>
   <v type="int" >       44 </v>
   <v type="int" >       45 </v>
   <v type="int" >       46 </v>
   <v type="int" >       47 </v>
   <v type="int" >       48 </v>
   <v type="int" >       49 </v>
   <v type="int" >       50 </v>
   <v type="int" >       51 </v>
   <v type="int" >       52 </v>
   <v type="int" >       53 </v>
   <v type="int" >       54 </v>
   <v type="int" >       55 </v>
   <v type="int" >       56 </v>
   <v type="int" >       57 </v>
   <v type="int" >       58 </v>
   <v type="int" >       59 </v>
   <v type="int" >       60 </v>
   <v type="int" >       61 </v>
   <v type="int" >       62 </v>
   <v type="int" >       63 </v>
   <v type="int" >       64 </v>
   <v type="int" >       65 </v>
   <v type="int" >       66 </v>
   <v type="int" >       67 </v>
   <v type="int" >       68 </v>
   <v type="int" >       69 </v>
   <v type="int" >       70 </v>
   <v type="int" >       71 </v>
   <v type="int" >       72 </v>
   <v type="int" >       73 </v>
   <v type="int" >       74 </v>
   <v type="int" >       75 </v>
   <v type="int" >       76 </v>
   <v type="int" >       77 </v>
   <v type="int" >       78 </v>
   <v type="int" >       79 </v>
   <v type="int" >       80 </v>
   <v type="int" >       81 </v>
   <v type="int" >       82 </v>
   <v type="int" >       83 </v>
   <v type="int" >       84 </v>
   <v type="int" >       85 </v>
   <v type="int" >       86 </v>
   <v type="int" >       87 </v>
   <v type="int" >       88 </v>
   <v type="int" >       89 </v>
   <v type="int" >       90 </v>
   <v type="int" >       91 </v>
   <v type="int" >       92 </v>
   <v type="int" >       93 </v>
   <v type="int" >       94 </v>
   <v type="int" >       95 </v>
   <v type="int" >       96 </v>
   <v type="int" >       97 </v>
   <v type="int" >       98 </v>
   <v type="int" >       99 </v>
   <v type="int" >      100 </v>
   <v type="int" >      101 </v>
   <v type="int" >      102 </v>
   <v type="int" >      103 </v>
   <v type="int" >      104 </v>
   <v type="int" >      105 </v>
   <v type="int" >      106 </v>
   <v type="int" >      107 </v>
   <v type="int" >      108 </v>
   <v type="int" >      109 </v>
   <v type="int" >      110 </v>
   <v type="int" >      111 </v>
   <v type="int" >      112 </v>
   <v type="int" >      113 </v>
   <v type="int" >      114 </v>
   <v type="int" >      115 </v>
   <v type="int" >      116 </v>
   <v type="int" >      117 </v>
   <v type="int" >      118 </v>
   <v type="int" >      119 </v>
   <v type="int" >      120 </v>
  </varray>
 </primitive_cell>
 <kpoints>
  <generation param="Gamma">
   <v type="int" name="divisions">       2        2        2 </v>
   <v name="usershift">      0.00000000       0.00000000       0.00000000 </v>
   <v name="genvec1">      0.50000000       0.00000000       0.00000000 </v>
   <v name="genvec2">      0.00000000       0.50000000       0.00000000 </v>
   <v name="genvec3">      0.00000000       0.00000000       0.50000000 </v>
   <v name="shift">      0.00000000       0.00000000       0.00000000 </v>
  </generation>
  <varray name="kpointlist" >
   <v>       0.00000000       0.00000000       0.00000000 </v>
   <v>       0.50000000       0.00000000       0.00000000 </v>
   <v>       0.00000000       0.50000000       0.00000000 </v>
   <v>       0.50000000       0.50000000       0.00000000 </v>
   <v>       0.00000000       0.00000000       0.50000000 </v>
   <v>       0.50000000       0.00000000       0.50000000 </v>
   <v>       0.00000000       0.50000000       0.50000000 </v>
   <v>       0.50000000       0.50000000       0.50000000 </v>
  </varray>
  <varray name="weights" >
   <v>       0.12500000 </v>
   <v>       0.12500000 </v>
   <v>       0.12500000 </v>
   <v>       0.12500000 </v>
   <v>       0.12500000 </v>
   <v>       0.12500000 </v>
   <v>       0.12500000 </v>
   <v>       0.12500000 </v>
  </varray>
 </kpoints>
 <parameters>
  <separator name="general" >
   <i type="string" name="SYSTEM">unknown system</i>
   <i type="logical" name="LCOMPAT"> F  </i>
  </separator>
  <separator name="electronic" >
   <i type="string" name="PREC">normal</i>
   <i name="ENMAX">    450.00000000</i>
   <i name="ENAUG">    605.39200000</i>
   <i name="EDIFF">      0.00001000</i>
   <i type="int" name="IALGO">    58</i>
   <i type="int" name="IWAVPR">    10</i>
   <i type="int" name="NBANDS">   633</i>
   <i type="int" name="NBANDSLOW">    -1</i>
   <i type="int" name="NBANDSHIGH">    -1</i>
   <i name="NELECT">   1056.00000000</i>
   <i type="int" name="TURBO">     0</i>
   <i type="int" name="IRESTART">     0</i>
   <i type="int" name="NREBOOT">     0</i>
   <i type="int" name="NMIN">     0</i>
   <i name="EREF">      0.00000000</i>
   <separator name="electronic smearing" >
    <i type="int" name="ISMEAR">     0</i>
    <i name="SIGMA">      0.05000000</i>
    <i name="KSPACING">      0.50000000</i>
    <i type="logical" name="KGAMMA"> T  </i>
    <i type="logical" name="KBLOWUP"> T  </i>
   </separator>
   <separator name="electronic projectors" >
    <i type="logical" name="LREAL"> T  </i>
    <v name="ROPT">     -0.00050000     -0.00050000     -0.00050000</v>
    <i type="int" name="LMAXPAW">  -100</i>
    <i type="int" name="LMAXMIX">     2</i>
    <i type="logical" name="NLSPLINE"> F  </i>
   </separator>
   <separator name="electronic startup" >
    <i type="int" name="ISTART">     0</i>
    <i type="int" name="ICHARG">     0</i>
    <i type="int" name="INIWAV">     1</i>
   </separator>
   <separator name="electronic spin" >
    <i type="int" name="ISPIN">     1</i>
    <i type="logical" name="LNONCOLLINEAR"> F  </i>
    <v name="MAGMOM">      1.00000000      1.00000000      1.00000000      1.00000000      1.00000000      1.00000000      1.00000000      1.00000000      1.00000000      1.00000000      1.00000000      1.00000000      1.00000000      1.00000000      1.00000000      1.00000000      1.00000000      1.00000000      1.00000000      1.00000000
      1.00000000      1.00000000      1.00000000      1.00000000      1.00000000      1.00000000      1.00000000      1.00000000      1.00000000      1.00000000      1.00000000      1.00000000      1.00000000      1.00000000      1.00000000      1.00000000      1.00000000      1.00000000      1.00000000      1.00000000
      1.00000000      1.00000000      1.00000000      1.00000000      1.00000000      1.00000000      1.00000000      1.00000000      1.00000000      1.00000000      1.00000000      1.00000000      1.00000000      1.00000000      1.00000000      1.00000000      1.00000000      1.00000000      1.00000000      1.00000000
      1.00000000      1.00000000      1.00000000      1.00000000      1.00000000      1.00000000      1.00000000      1.00000000      1.00000000      1.00000000      1.00000000      1.00000000      1.00000000      1.00000000      1.00000000      1.00000000      1.00000000      1.00000000      1.00000000      1.00000000
      1.00000000      1.00000000      1.00000000      1.00000000      1.00000000      1.00000000      1.00000000      1.00000000      1.00000000      1.00000000      1.00000000      1.00000000      1.00000000      1.00000000      1.00000000      1.00000000      1.00000000      1.00000000      1.00000000      1.00000000
      1.00000000      1.00000000      1.00000000      1.00000000      1.00000000      1.00000000      1.00000000      1.00000000      1.00000000      1.00000000      1.00000000      1.00000000      1.00000000      1.00000000      1.00000000      1.00000000      1.00000000      1.00000000      1.00000000      1.00000000
</v>
    <i name="NUPDOWN">     -1.00000000</i>
    <i type="logical" name="LSORBIT"> F  </i>
    <v name="SAXIS">      0.00000000      0.00000000      1.00000000</v>
    <i type="logical" name="LSPIRAL"> F  </i>
    <v name="QSPIRAL">      0.00000000      0.00000000      0.00000000</v>
    <i type="logical" name="LZEROZ"> F  </i>
   </separator>
   <separator name="electronic exchange-correlation" >
    <i type="logical" name="LASPH"> F  </i>
    <i type="logical" name="LMETAGGA"> F  </i>
   </separator>
   <separator name="electronic convergence" >
    <i type="int" name="NELM">   500</i>
    <i type="int" name="NELMDL">    -5</i>
    <i type="int" name="NELMIN">     2</i>
    <i name="ENINI">    450.00000000</i>
    <separator name="electronic convergence detail" >
     <i type="logical" name="LDIAG"> T  </i>
     <i type="logical" name="LSUBROT"> F  </i>
     <i name="WEIMIN">      0.00000000</i>
     <i name="EBREAK">      0.00000000</i>
     <i name="DEPER">      0.30000000</i>
     <i type="int" name="NRMM">     4</i>
     <i name="TIME">      0.40000000</i>
    </separator>
   </separator>
   <separator name="electronic mixer" >
    <i name="AMIX">      0.40000000</i>
    <i name="BMIX">      1.00000000</i>
    <i name="AMIN">      0.10000000</i>
    <i name="AMIX_MAG">      1.60000000</i>
    <i name="BMIX_MAG">      1.00000000</i>
    <separator name="electronic mixer details" >
     <i type="int" name="IMIX">     4</i>
     <i type="logical" name="MIXFIRST"> F  </i>
     <i type="int" name="MAXMIX">   -45</i>
     <i name="WC">    100.00000000</i>
     <i type="int" name="INIMIX">     1</i>
     <i type="int" name="MIXPRE">     1</i>
     <i type="int" name="MREMOVE">     5</i>
    </separator>
   </separator>
   <separator name="electronic dipolcorrection" >
    <i type="logical" name="LDIPOL"> F  </i>
    <i type="logical" name="LMONO"> F  </i>
    <i type="int" name="IDIPOL">     0</i>
    <i name="EPSILON">      1.00000000</i>
    <v name="DIPOL">   -100.00000000   -100.00000000   -100.00000000</v>
    <i name="EFIELD">      0.00000000</i>
   </separator>
  </separator>
  <separator name="grids" >
   <i type="int" name="NGX">    64</i>
   <i type="int" name="NGY">    48</i>
   <i type="int" name="NGZ">    60</i>
   <i type="int" name="NGXF">   128</i>
   <i type="int" name="NGYF">    96</i>
   <i type="int" name="NGZF">   120</i>
   <i type="logical" name="ADDGRID"> F  </i>
  </separator>
  <separator name="ionic" >
   <i type="int" name="NSW">     0</i>
   <i type="int" name="IBRION">    -1</i>
   <i type="int" name="MDALGO">     0</i>
   <i type="int" name="ISIF">     2</i>
   <i name="PSTRESS">      0.00000000</i>
   <i name="EDIFFG">     -0.00500000</i>
   <i type="int" name="NFREE">     0</i>
   <i name="POTIM">      0.50000000</i>
   <i name="SMASS">     -3.00000000</i>
   <i name="SCALEE">      1.00000000</i>
  </separator>
  <separator name="ionic md" >
   <i name="TEBEG">      0.00010000</i>
   <i name="TEEND">      0.00010000</i>
   <i type="int" name="NBLOCK">     1</i>
   <i type="int" name="KBLOCK">     1</i>
   <i type="int" name="NPACO">   256</i>
   <i name="APACO">     10.00000000</i>
  </separator>
  <separator name="symmetry" >
   <i type="int" name="ISYM">     3</i>
   <i name="SYMPREC">      0.00001000</i>
  </separator>
  <separator name="dos" >
   <i type="int" name="LORBIT">     0</i>
   <v name="RWIGS">     -1.00000000     -1.00000000     -1.00000000</v>
   <i type="int" name="NEDOS">   301</i>
   <i name="EMIN">     10.00000000</i>
   <i name="EMAX">    -10.00000000</i>
   <i name="EFERMI">      0.00000000</i>
  </separator>
  <separator name="writing" >
   <i type="int" name="NWRITE">     2</i>
   <i type="logical" name="LWAVE"> T  </i>
   <i type="logical" name="LDOWNSAMPLE"> F  </i>
   <i type="logical" name="LCHARG"> T  </i>
   <i type="logical" name="LPARD"> F  </i>
   <i type="logical" name="LVTOT"> F  </i>
   <i type="logical" name="LVHAR"> F  </i>
   <i type="logical" name="LELF"> F  </i>
   <i type="logical" name="LOPTICS"> F  </i>
   <v name="STM">      0.00000000      0.00000000      0.00000000      0.00000000      0.00000000      0.00000000      0.00000000</v>
  </separator>
  <separator name="performance" >
   <i type="int" name="NPAR">     1</i>
   <i type="int" name="NSIM">     4</i>
   <i type="int" name="NBLK">    -1</i>
   <i type="logical" name="LPLANE"> T  </i>
   <i type="logical" name="LSCALAPACK"> T  </i>
   <i type="logical" name="LSCAAWARE"> F  </i>
   <i type="logical" name="LSCALU"> F  </i>
   <i type="logical" name="LASYNC"> F  </i>
   <i type="logical" name="LORBITALREAL"> F  </i>
  </separator>
  <separator name="miscellaneous" >
   <i type="int" name="IDIOT">     3</i>
   <i type="int" name="PHON_NSTRUCT">    -1</i>
   <i type="logical" name="LMUSIC"> F  </i>
   <v name="POMASS">     69.72300000     16.00000000     30.97400000</v>
   <v name="DARWINR">      0.00000000      0.00000000      0.00000000</v>
   <v name="DARWINV">      1.00000000      1.00000000      1.00000000</v>
   <i type="logical" name="LCORR"> T  </i>
  </separator>
  <i type="logical" name="GGA_COMPAT"> T  </i>
  <i type="logical" name="LBERRY"> F  </i>
  <i type="int" name="ICORELEVEL">     0</i>
  <i type="logical" name="LDAU"> F  </i>
  <i type="int" name="I_CONSTRAINED_M">     0</i>
  <separator name="electronic exchange-correlation" >
   <i type="string" name="GGA">--</i>
   <i type="int" name="VOSKOWN">     0</i>
   <i type="logical" name="LHFCALC"> T  </i>
   <i type="string" name="PRECFOCK">fast</i>
   <i type="logical" name="LSYMGRAD"> F  </i>
   <i type="logical" name="LHFONE"> F  </i>
   <i type="logical" name="LRHFCALC"> F  </i>
   <i type="logical" name="LTHOMAS"> F  </i>
   <i type="logical" name="LMODELHF"> F  </i>
   <i type="logical" name="LFOCKACE"> T  </i>
   <i name="ENCUT4O">     -1.00000000</i>
   <i type="int" name="EXXOEP">     0</i>
   <i type="int" name="FOURORBIT">     0</i>
   <i name="AEXX">      0.35000000</i>
   <i name="HFALPHA">     -1.00000000</i>
   <i name="MCALPHA">      0.00000000</i>
   <i name="ALDAX">      0.65000000</i>
   <i name="AGGAX">      0.65000000</i>
   <i name="ALDAC">      1.00000000</i>
   <i name="AGGAC">      1.00000000</i>
   <i type="int" name="NKREDX">     1</i>
   <i type="int" name="NKREDY">     1</i>
   <i type="int" name="NKREDZ">     1</i>
   <i type="logical" name="SHIFTRED"> F  </i>
   <i type="logical" name="ODDONLY"> F  </i>
   <i type="logical" name="EVENONLY"> F  </i>
   <i type="int" name="LMAXFOCK">     4</i>
   <i type="int" name="NMAXFOCKAE">     1</i>
   <i type="logical" name="LFOCKAEDFT"> F  </i>
   <i name="HFSCREEN">      0.18000000</i>
   <i name="HFSCREENC">      0.18000000</i>
   <i type="int" name="NBANDSGWLOW">     1</i>
  </separator>
  <separator name="vdW DFT" >
   <i type="logical" name="LUSE_VDW"> F  </i>
   <i type="int" name="IVDW_NL">     1</i>
   <i type="logical" name="LSPIN_VDW"> F  </i>
   <i name="Zab_VDW">     -0.84910000</i>
   <i name="PARAM1">      0.12340000</i>
   <i name="PARAM2">      1.00000000</i>
   <i name="PARAM3">      0.00000000</i>
  </separator>
  <separator name="model GW" >
   <i type="int" name="MODEL_GW">     0</i>
   <i name="MODEL_EPS0">      6.34402578</i>
   <i name="MODEL_ALPHA">      1.00000000</i>
  </separator>
  <separator name="linear response parameters" >
   <i type="logical" name="LEPSILON"> F  </i>
   <i type="logical" name="LRPA"> F  </i>
   <i type="logical" name="LNABLA"> F  </i>
   <i type="logical" name="LVEL"> F  </i>
   <i name="CSHIFT">      0.10000000</i>
   <i name="OMEGAMAX">     -1.00000000</i>
   <i name="DEG_THRESHOLD">      0.00200000</i>
   <i name="RTIME">     -0.10000000</i>
   <i name="WPLASMAI">      0.00000000</i>
   <v name="DFIELD">      0.00000000      0.00000000      0.00000000</v>
   <v name="WPLASMA">      0.00000000      0.00000000      0.00000000      0.00000000      0.00000000      0.00000000      0.00000000      0.00000000      0.00000000</v>
  </separator>
  <separator name="orbital magnetization" >
   <i type="logical" name="NUCIND"> F  </i>
   <v name="MAGPOS">      0.00000000      0.00000000      0.00000000</v>
   <i type="logical" name="LNICSALL"> T  </i>
   <i type="logical" name="ORBITALMAG"> F  </i>
   <i type="logical" name="LMAGBLOCH"> F  </i>
   <i type="logical" name="LCHIMAG"> F  </i>
   <i type="logical" name="LGAUGE"> T  </i>
   <i type="int" name="MAGATOM">     0</i>
   <v name="MAGDIPOL">      0.00000000      0.00000000      0.00000000</v>
   <v name="AVECCONST">      0.00000000      0.00000000      0.00000000</v>
  </separator>
  <separator name="response functions" >
   <i type="logical" name="LALL_IN_ONE"> F  </i>
   <i type="int" name="IALL_IN_ONE">    -1</i>
   <i type="int" name="NBANDS_WAVE">    -1</i>
   <i type="logical" name="LFINITE_TEMPERATURE"> F  </i>
   <i type="logical" name="LADDER"> F  </i>
   <i type="logical" name="LRPAFORCE"> F  </i>
   <i type="logical" name="LFXC"> F  </i>
   <i type="logical" name="LHARTREE"> T  </i>
   <i type="int" name="IBSE">     0</i>
   <v type="int" name="KPOINT">    -1     0     0     0</v>
   <i type="logical" name="LTCTC"> F  </i>
   <i type="logical" name="LTCTE"> F  </i>
   <i type="logical" name="LTETE"> F  </i>
   <i type="logical" name="LTRIPLET"> F  </i>
   <i type="logical" name="LFXCEPS"> F  </i>
   <i type="logical" name="LFXHEG"> F  </i>
   <i type="int" name="NATURALO">     2</i>
   <i type="logical" name="LHOLEGF"> F  </i>
   <i type="logical" name="L2ORDER"> F  </i>
   <i type="logical" name="LDMP1"> F  </i>
   <i type="logical" name="LMP2LT"> F  </i>
   <i type="logical" name="LSMP2LT"> F  </i>
   <i type="logical" name="LGWLF"> F  </i>
   <i name="ENCUTGW">     -1.60000002</i>
   <i name="ENCUTGWSOFT">     -1.60000002</i>
   <i name="ENCUTLF">     -1.00000000</i>
   <i type="logical" name="LESF_SPLINES"> F  </i>
   <i type="int" name="LMAXMP2">    -1</i>
   <i name="SCISSOR">      0.00000000</i>
   <i type="int" name="NOMEGA">     0</i>
   <i type="int" name="NOMEGAR">     0</i>
   <i type="int" name="NBANDSGW">    -1</i>
   <i type="int" name="NBANDSO">    -1</i>
   <i type="int" name="NBANDSV">    -1</i>
   <i type="int" name="NELMGW">     1</i>
   <i type="int" name="NELMHF">     1</i>
   <i type="int" name="DIM">     3</i>
   <i type="int" name="IESPILON">     4</i>
   <i type="int" name="ANTIRES">     0</i>
   <i name="OMEGAMAX">    -30.00000000</i>
   <i name="OMEGAMIN">    -30.00000000</i>
   <i name="OMEGATL">   -200.00000000</i>
   <i type="int" name="OMEGAGRID">     0</i>
   <i name="CSHIFT">     -0.10000000</i>
   <i type="logical" name="LSELFENERGY"> F  </i>
   <i type="logical" name="LSPECTRAL"> F  </i>
   <i type="logical" name="LSPECTRALGW"> F  </i>
   <i type="logical" name="LSINGLES"> F  </i>
   <i type="logical" name="LFERMIGW"> F  </i>
   <i type="logical" name="ODDONLYGW"> F  </i>
   <i type="logical" name="EVENONLYGW"> F  </i>
   <i type="int" name="NKREDLFX">     1</i>
   <i type="int" name="NKREDLFY">     1</i>
   <i type="int" name="NKREDLFZ">     1</i>
   <i type="int" name="MAXMEM">  2800</i>
   <i type="int" name="TELESCOPE">     0</i>
   <i type="int" name="NTAUPAR">    -1</i>
   <i type="int" name="NOMEGAPAR">    -1</i>
   <i name="DAMP_NEWTON">      0.80000001</i>
   <i name="LAMBDA">      1.00000000</i>
  </separator>
  <separator name="External order field" >
   <i name="OFIELD_KAPPA">      0.00000000</i>
   <v name="OFIELD_K">      0.00000000      0.00000000      0.00000000</v>
   <i name="OFIELD_Q6_NEAR">      0.00000000</i>
   <i name="OFIELD_Q6_FAR">      0.00000000</i>
   <i name="OFIELD_A">      0.00000000</i>
  </separator>
  <separator name="optional k-points parameters" >
   <i type="int" name="KPOINTS_OPT_MODE">     1</i>
   <i type="logical" name="LKPOINTS_OPT"> F  </i>
  </separator>
 </parameters>
 <atominfo>
  <atoms>     120 </atoms>
  <types>       3 </types>
  <array name="atoms" >
   <dimension dim="1">ion</dimension>
   <field type="string">element</field>
   <field type="int">atomtype</field>
   <set>
    <rc><c>Ga</c><c>   1</c></rc>
    <rc><c>Ga</c><c>   1</c></rc>
    <rc><c>Ga</c><c>   1</c></rc>
    <rc><c>Ga</c><c>   1</c></rc>
    <rc><c>Ga</c><c>   1</c></rc>
    <rc><c>Ga</c><c>   1</c></rc>
    <rc><c>Ga</c><c>   1</c></rc>
    <rc><c>Ga</c><c>   1</c></rc>
    <rc><c>Ga</c><c>   1</c></rc>
    <rc><c>Ga</c><c>   1</c></rc>
    <rc><c>Ga</c><c>   1</c></rc>
    <rc><c>Ga</c><c>   1</c></rc>
    <rc><c>Ga</c><c>   1</c></rc>
    <rc><c>Ga</c><c>   1</c></rc>
    <rc><c>Ga</c><c>   1</c></rc>
    <rc><c>Ga</c><c>   1</c></rc>
    <rc><c>Ga</c><c>   1</c></rc>
    <rc><c>Ga</c><c>   1</c></rc>
    <rc><c>Ga</c><c>   1</c></rc>
    <rc><c>Ga</c><c>   1</c></rc>
    <rc><c>Ga</c><c>   1</c></rc>
    <rc><c>Ga</c><c>   1</c></rc>
    <rc><c>Ga</c><c>   1</c></rc>
    <rc><c>Ga</c><c>   1</c></rc>
    <rc><c>Ga</c><c>   1</c></rc>
    <rc><c>Ga</c><c>   1</c></rc>
    <rc><c>Ga</c><c>   1</c></rc>
    <rc><c>Ga</c><c>   1</c></rc>
    <rc><c>Ga</c><c>   1</c></rc>
    <rc><c>Ga</c><c>   1</c></rc>
    <rc><c>Ga</c><c>   1</c></rc>
    <rc><c>Ga</c><c>   1</c></rc>
    <rc><c>Ga</c><c>   1</c></rc>
    <rc><c>Ga</c><c>   1</c></rc>
    <rc><c>Ga</c><c>   1</c></rc>
    <rc><c>Ga</c><c>   1</c></rc>
    <rc><c>Ga</c><c>   1</c></rc>
    <rc><c>Ga</c><c>   1</c></rc>
    <rc><c>Ga</c><c>   1</c></rc>
    <rc><c>Ga</c><c>   1</c></rc>
    <rc><c>Ga</c><c>   1</c></rc>
    <rc><c>Ga</c><c>   1</c></rc>
    <rc><c>Ga</c><c>   1</c></rc>
    <rc><c>Ga</c><c>   1</c></rc>
    <rc><c>Ga</c><c>   1</c></rc>
    <rc><c>Ga</c><c>   1</c></rc>
    <rc><c>Ga</c><c>   1</c></rc>
    <rc><c>Ga</c><c>   1</c></rc>
    <rc><c>O </c><c>   2</c></rc>
    <rc><c>O </c><c>   2</c></rc>
    <rc><c>O </c><c>   2</c></rc>
    <rc><c>O </c><c>   2</c></rc>
    <rc><c>O </c><c>   2</c></rc>
    <rc><c>O </c><c>   2</c></rc>
    <rc><c>O </c><c>   2</c></rc>
    <rc><c>O </c><c>   2</c></rc>
    <rc><c>O </c><c>   2</c></rc>
    <rc><c>O </c><c>   2</c></rc>
    <rc><c>O </c><c>   2</c></rc>
    <rc><c>O </c><c>   2</c></rc>
    <rc><c>O </c><c>   2</c></rc>
    <rc><c>O </c><c>   2</c></rc>
    <rc><c>O </c><c>   2</c></rc>
    <rc><c>O </c><c>   2</c></rc>
    <rc><c>O </c><c>   2</c></rc>
    <rc><c>O </c><c>   2</c></rc>
    <rc><c>O </c><c>   2</c></rc>
    <rc><c>O </c><c>   2</c></rc>
    <rc><c>O </c><c>   2</c></rc>
    <rc><c>O </c><c>   2</c></rc>
    <rc><c>O </c><c>   2</c></rc>
    <rc><c>O </c><c>   2</c></rc>
    <rc><c>O </c><c>   2</c></rc>
    <rc><c>O </c><c>   2</c></rc>
    <rc><c>O </c><c>   2</c></rc>
    <rc><c>O </c><c>   2</c></rc>
    <rc><c>O </c><c>   2</c></rc>
    <rc><c>O </c><c>   2</c></rc>
    <rc><c>O </c><c>   2</c></rc>
    <rc><c>O </c><c>   2</c></rc>
    <rc><c>O </c><c>   2</c></rc>
    <rc><c>O </c><c>   2</c></rc>
    <rc><c>O </c><c>   2</c></rc>
    <rc><c>O </c><c>   2</c></rc>
    <rc><c>O </c><c>   2</c></rc>
    <rc><c>O </c><c>   2</c></rc>
    <rc><c>O </c><c>   2</c></rc>
    <rc><c>O </c><c>   2</c></rc>
    <rc><c>O </c><c>   2</c></rc>
    <rc><c>O </c><c>   2</c></rc>
    <rc><c>O </c><c>   2</c></rc>
    <rc><c>O </c><c>   2</c></rc>
    <rc><c>O </c><c>   2</c></rc>
    <rc><c>O </c><c>   2</c></rc>
    <rc><c>O </c><c>   2</c></rc>
    <rc><c>O </c><c>   2</c></rc>
    <rc><c>O </c><c>   2</c></rc>
    <rc><c>O </c><c>   2</c></rc>
    <rc><c>O </c><c>   2</c></rc>
    <rc><c>O </c><c>   2</c></rc>
    <rc><c>O </c><c>   2</c></rc>
    <rc><c>O </c><c>   2</c></rc>
    <rc><c>O </c><c>   2</c></rc>
    <rc><c>O </c><c>   2</c></rc>
    <rc><c>O </c><c>   2</c></rc>
    <rc><c>O </c><c>   2</c></rc>
    <rc><c>O </c><c>   2</c></rc>
    <rc><c>O </c><c>   2</c></rc>
    <rc><c>O </c><c>   2</c></rc>
    <rc><c>O </c><c>   2</c></rc>
    <rc><c>O </c><c>   2</c></rc>
    <rc><c>O </c><c>   2</c></rc>
    <rc><c>O </c><c>   2</c></rc>
    <rc><c>O </c><c>   2</c></rc>
    <rc><c>O </c><c>   2</c></rc>
    <rc><c>O </c><c>   2</c></rc>
    <rc><c>O </c><c>   2</c></rc>
    <rc><c>O </c><c>   2</c></rc>
    <rc><c>O </c><c>   2</c></rc>
    <rc><c>P </c><c>   3</c></rc>
   </set>
  </array>
  <array name="atomtypes" >
   <dimension dim="1">type</dimension>
   <field type="int">atomspertype</field>
   <field type="string">element</field>
   <field>mass</field>
   <field>valence</field>
   <field type="string">pseudopotential</field>
   <set>
    <rc><c>  48</c><c>Ga</c><c>     69.72300000</c><c>     13.00000000</c><c>  PAW_PBE Ga_d 06Jul2010                </c></rc>
    <rc><c>  71</c><c>O </c><c>     16.00000000</c><c>      6.00000000</c><c>   PAW_PBE O 08Apr2002                  </c></rc>
    <rc><c>   1</c><c>P </c><c>     30.97400000</c><c>      5.00000000</c><c>  PAW_PBE P 06Sep2000                   </c></rc>
   </set>
  </array>
 </atominfo>
 <structure name="initialpos" >
  <crystal>
   <varray name="basis" >
    <v>       0.00000000      12.28047342       0.00000000 </v>
    <v>       9.14270205       0.00000000       0.00000000 </v>
    <v>       0.00000000      -2.76826177     -11.30069772 </v>
   </varray>
   <i name="volume">   1268.80515525 </i>
   <varray name="rec_basis" >
    <v>       0.00000000       0.08143009      -0.01994742 </v>
    <v>       0.10937686      -0.00000000       0.00000000 </v>
    <v>       0.00000000       0.00000000      -0.08849011 </v>
   </varray>
  </crystal>
  <varray name="positions" >
   <v>       0.66050800       0.00000000       0.15551579 </v>
   <v>       0.65874487       0.00000000       0.65746193 </v>
   <v>       0.66016030       0.33494225       0.15511037 </v>
   <v>       0.66027753       0.33370282       0.65676405 </v>
   <v>       0.66016030       0.66505775       0.15511037 </v>
   <v>       0.66027753       0.66629718       0.65676405 </v>
   <v>       0.83478553       0.16916744       0.34376899 </v>
   <v>       0.83972740       0.16663187       0.84465807 </v>
   <v>       0.84065339       0.50000000       0.34369363 </v>
   <v>       0.83961174       0.50000000       0.84129976 </v>
   <v>       0.83478553       0.83083256       0.34376899 </v>
   <v>       0.83972740       0.83336813       0.84465807 </v>
   <v>       0.59153674       0.16879266       0.39829790 </v>
   <v>       0.59147078       0.16679186       0.89794384 </v>
   <v>       0.59570684       0.50000000       0.39812619 </v>
   <v>       0.59296016       0.50000000       0.89705339 </v>
   <v>       0.59153674       0.83120734       0.39829790 </v>
   <v>       0.59147078       0.83320814       0.89794384 </v>
   <v>       0.90999856       0.00000000       0.10334339 </v>
   <v>       0.90693539       0.00000000       0.60424689 </v>
   <v>       0.90455112       0.33471718       0.09989155 </v>
   <v>       0.90748755       0.33349461       0.60046142 </v>
   <v>       0.90455112       0.66528282       0.09989155 </v>
   <v>       0.90748755       0.66650539       0.60046142 </v>
   <v>       0.16071833       0.17076746       0.14764933 </v>
   <v>       0.15893829       0.16839468       0.66009840 </v>
   <v>       0.15734398       0.50000000       0.15960931 </v>
   <v>       0.15895295       0.50000000       0.65391569 </v>
   <v>       0.16071833       0.82923254       0.14764933 </v>
   <v>       0.15893829       0.83160532       0.66009840 </v>
   <v>       0.35034331       0.00000000       0.35376785 </v>
   <v>       0.34102578       0.00000000       0.84558497 </v>
   <v>       0.34292015       0.33429149       0.34082932 </v>
   <v>       0.34217205       0.33409951       0.84323596 </v>
   <v>       0.34292015       0.66570851       0.34082932 </v>
   <v>       0.34217205       0.66590049       0.84323596 </v>
   <v>       0.06839284       0.00000000       0.41609533 </v>
   <v>       0.08845761       0.00000000       0.89433934 </v>
   <v>       0.09100419       0.33285566       0.39575661 </v>
   <v>       0.08884782       0.33378042       0.89552482 </v>
   <v>       0.09100419       0.66714434       0.39575661 </v>
   <v>       0.08884782       0.66621958       0.89552482 </v>
   <v>       0.41314040       0.16848462       0.10187079 </v>
   <v>       0.41258898       0.16935298       0.60727808 </v>
   <v>       0.40982436       0.50000000       0.10202346 </v>
   <v>       0.41051520       0.50000000       0.60138938 </v>
   <v>       0.41314040       0.83151538       0.10187079 </v>
   <v>       0.41258898       0.83064702       0.60727808 </v>
   <v>       0.99101069       0.17074213       0.11754560 </v>
   <v>       0.99485522       0.16680872       0.62890975 </v>
   <v>       0.99324636       0.50000000       0.12534644 </v>
   <v>       0.99566552       0.50000000       0.62595585 </v>
   <v>       0.99101069       0.82925787       0.11754560 </v>
   <v>       0.99485522       0.83319128       0.62890975 </v>
   <v>       0.50739183       0.00000000       0.37160873 </v>
   <v>       0.50421287       0.00000000       0.87278905 </v>
   <v>       0.50725910       0.33592495       0.37225591 </v>
   <v>       0.50492050       0.33401818       0.87323239 </v>
   <v>       0.50725910       0.66407505       0.37225591 </v>
   <v>       0.50492050       0.66598182       0.87323239 </v>
   <v>       0.67087491       0.16629201       0.27919196 </v>
   <v>       0.67215424       0.16649234       0.78041027 </v>
   <v>       0.67304016       0.50000000       0.27811270 </v>
   <v>       0.67306394       0.50000000       0.77954039 </v>
   <v>       0.67087491       0.83370799       0.27919196 </v>
   <v>       0.67215424       0.83350766       0.78041027 </v>
   <v>       0.82782272       0.00000000       0.22100709 </v>
   <v>       0.82623012       0.00000000       0.72059926 </v>
   <v>       0.82635204       0.33406528       0.21984575 </v>
   <v>       0.82739812       0.33271967       0.71890861 </v>
   <v>       0.82635204       0.66593472       0.21984575 </v>
   <v>       0.82739812       0.66728033       0.71890861 </v>
   <v>       0.83036963       0.00000000       0.44720481 </v>
   <v>       0.83040048       0.00000000       0.94580191 </v>
   <v>       0.82362535       0.33617633       0.44656324 </v>
   <v>       0.82819960       0.33506402       0.94306484 </v>
   <v>       0.82362535       0.66382367       0.44656324 </v>
   <v>       0.82819960       0.66493598       0.94306484 </v>
   <v>       0.66991592       0.16692145       0.05385570 </v>
   <v>       0.66768918       0.16610758       0.55482313 </v>
   <v>       0.67278810       0.50000000       0.05242007 </v>
   <v>       0.66916291       0.50000000       0.55530060 </v>
   <v>       0.66991592       0.83307855       0.05385570 </v>
   <v>       0.66768918       0.83389242       0.55482313 </v>
   <v>       0.49880058       0.00000000       0.12463991 </v>
   <v>       0.49720683       0.00000000       0.62967755 </v>
   <v>       0.50003842       0.33601684       0.12301548 </v>
   <v>       0.49969712       0.33569533       0.63282576 </v>
   <v>       0.50003842       0.66398316       0.12301548 </v>
   <v>       0.49969712       0.66430467       0.63282576 </v>
   <v>       0.99332837       0.17634524       0.38340834 </v>
   <v>       0.00167314       0.16728463       0.87032794 </v>
   <v>       0.00222326       0.50000000       0.37462305 </v>
   <v>       0.00163120       0.50000000       0.87039925 </v>
   <v>       0.99332837       0.82365476       0.38340834 </v>
   <v>       0.00167314       0.83271537       0.87032794 </v>
   <v>       0.17376646       0.00000000       0.78228125 </v>
   <v>       0.17336927       0.34217921       0.28171865 </v>
   <v>       0.17236481       0.33413888       0.78035810 </v>
   <v>       0.17336927       0.65782079       0.28171865 </v>
   <v>       0.17236481       0.66586112       0.78035810 </v>
   <v>       0.33439210       0.17980462       0.21668715 </v>
   <v>       0.32807258       0.16743354       0.72093055 </v>
   <v>       0.32874097       0.50000000       0.21762074 </v>
   <v>       0.32733448       0.50000000       0.71815892 </v>
   <v>       0.33439210       0.82019538       0.21668715 </v>
   <v>       0.32807258       0.83256646       0.72093055 </v>
   <v>       0.34465684       0.17469324       0.45075071 </v>
   <v>       0.33542792       0.16851828       0.94554846 </v>
   <v>       0.33637679       0.50000000       0.44540851 </v>
   <v>       0.33270727       0.50000000       0.94501386 </v>
   <v>       0.34465684       0.82530676       0.45075071 </v>
   <v>       0.33542792       0.83148172       0.94554846 </v>
   <v>       0.17547241       0.00000000       0.04342363 </v>
   <v>       0.16385266       0.00000000       0.56285086 </v>
   <v>       0.16613637       0.33751953       0.05141818 </v>
   <v>       0.16716154       0.33208927       0.55376900 </v>
   <v>       0.16613637       0.66248047       0.05141818 </v>
   <v>       0.16716154       0.66791073       0.55376900 </v>
   <v>       0.16671645       0.00000000       0.28573925 </v>
  </varray>
 </structure>
 <calculation>
  <scstep>
   <time name="total">    4.01    4.03</time>
   <energy>
    <i name="alphaZ">   5529.70323211 </i>
    <i name="ewald"> -88550.87271456 </i>
    <i name="hartreedc">  -2120.67838164 </i>
    <i name="XCdc">   2796.64281289 </i>
    <i name="pawpsdc"> 339425.14578583 </i>
    <i name="pawaedc">-371378.80126438 </i>
    <i name="eentropy">     -0.00548176 </i>
    <i name="bandstr"> -41033.66199893 </i>
    <i name="atom"> 133605.80973787 </i>
    <i name="e_fr_energy"> -21726.71827257 </i>
    <i name="e_wo_entrp"> -21726.71279082 </i>
    <i name="e_0_energy"> -21726.71553170 </i>
   </energy>
  </scstep>
  <scstep>
   <time name="total">    3.21    3.21</time>
   <energy>
    <i name="e_fr_energy"> -66464.40538832 </i>
    <i name="e_wo_entrp"> -66464.38403996 </i>
    <i name="e_0_energy"> -66464.39471414 </i>
   </energy>
  </scstep>
  <scstep>
   <time name="total">    3.41    3.41</time>
   <energy>
    <i name="e_fr_energy"> -71607.28385408 </i>
    <i name="e_wo_entrp"> -71607.25541055 </i>
    <i name="e_0_energy"> -71607.26963232 </i>
   </energy>
  </scstep>
  <scstep>
   <time name="total">    3.89    3.89</time>
   <energy>
    <i name="e_fr_energy"> -72335.75278654 </i>
    <i name="e_wo_entrp"> -72335.71556677 </i>
    <i name="e_0_energy"> -72335.73417665 </i>
   </energy>
  </scstep>
  <scstep>
   <time name="total">  236.46  236.43</time>
   <energy>
    <i name="e_fr_energy"> -39314.85369906 </i>
    <i name="e_wo_entrp"> -39314.85369906 </i>
    <i name="e_0_energy"> -39314.85369906 </i>
   </energy>
  </scstep>
  <scstep>
   <time name="total">  472.26  472.18</time>
   <energy>
    <i name="e_fr_energy">  35595.78219248 </i>
    <i name="e_wo_entrp">  35595.80174720 </i>
    <i name="e_0_energy">  35595.79196984 </i>
   </energy>
  </scstep>
  <scstep>
   <time name="total">  472.23  472.16</time>
   <energy>
    <i name="e_fr_energy">  15420.59775088 </i>
    <i name="e_wo_entrp">  15420.63187639 </i>
    <i name="e_0_energy">  15420.61481364 </i>
   </energy>
  </scstep>
  <scstep>
   <time name="total">  472.60  472.55</time>
   <energy>
    <i name="e_fr_energy">   9740.68567481 </i>
    <i name="e_wo_entrp">   9740.71683232 </i>
    <i name="e_0_energy">   9740.70125357 </i>
   </energy>
  </scstep>
  <scstep>
   <time name="total">  472.52  472.47</time>
   <energy>
    <i name="e_fr_energy">   6367.15162989 </i>
    <i name="e_wo_entrp">   6367.18014549 </i>
    <i name="e_0_energy">   6367.16588769 </i>
   </energy>
  </scstep>
  <scstep>
   <time name="total">  472.98  472.91</time>
   <energy>
    <i name="e_fr_energy">   3832.89267907 </i>
    <i name="e_wo_entrp">   3832.93094598 </i>
    <i name="e_0_energy">   3832.91181253 </i>
   </energy>
  </scstep>
  <scstep>
   <time name="total">  472.22  472.14</time>
   <energy>
    <i name="e_fr_energy">   2067.27520252 </i>
    <i name="e_wo_entrp">   2067.29224586 </i>
    <i name="e_0_energy">   2067.28372419 </i>
   </energy>
  </scstep>
  <scstep>
   <time name="total">  470.98  470.90</time>
   <energy>
    <i name="e_fr_energy">    697.45298101 </i>
    <i name="e_wo_entrp">    697.46425277 </i>
    <i name="e_0_energy">    697.45861689 </i>
   </energy>
  </scstep>
  <scstep>
   <time name="total">  471.41  471.33</time>
   <energy>
    <i name="e_fr_energy">    -80.65739194 </i>
    <i name="e_wo_entrp">    -80.64805847 </i>
    <i name="e_0_energy">    -80.65272521 </i>
   </energy>
  </scstep>
  <scstep>
   <time name="total">  471.26  471.17</time>
   <energy>
    <i name="e_fr_energy">   -528.46514110 </i>
    <i name="e_wo_entrp">   -528.45341372 </i>
    <i name="e_0_energy">   -528.45927741 </i>
   </energy>
  </scstep>
  <scstep>
   <time name="total">  471.22  471.14</time>
   <energy>
    <i name="e_fr_energy">   -704.07984073 </i>
    <i name="e_wo_entrp">   -704.07665382 </i>
    <i name="e_0_energy">   -704.07824728 </i>
   </energy>
  </scstep>
  <scstep>
   <time name="total">  471.26  471.18</time>
   <energy>
    <i name="e_fr_energy">   -758.14372508 </i>
    <i name="e_wo_entrp">   -758.13737879 </i>
    <i name="e_0_energy">   -758.14055193 </i>
   </energy>
  </scstep>
  <scstep>
   <time name="total">  470.58  470.52</time>
   <energy>
    <i name="e_fr_energy">   -818.45191702 </i>
    <i name="e_wo_entrp">   -818.45191702 </i>
    <i name="e_0_energy">   -818.45191702 </i>
   </energy>
  </scstep>
  <scstep>
   <time name="total">  470.47  470.41</time>
   <energy>
    <i name="e_fr_energy">   -858.90952902 </i>
    <i name="e_wo_entrp">   -858.90952902 </i>
    <i name="e_0_energy">   -858.90952902 </i>
   </energy>
  </scstep>
  <scstep>
   <time name="total">  470.44  470.38</time>
   <energy>
    <i name="e_fr_energy">   -893.20029125 </i>
    <i name="e_wo_entrp">   -893.20029125 </i>
    <i name="e_0_energy">   -893.20029125 </i>
   </energy>
  </scstep>
  <scstep>
   <time name="total">  470.64  470.57</time>
   <energy>
    <i name="e_fr_energy">   -921.49777339 </i>
    <i name="e_wo_entrp">   -921.49777339 </i>
    <i name="e_0_energy">   -921.49777339 </i>
   </energy>
  </scstep>
  <scstep>
   <time name="total">  470.58  470.50</time>
   <energy>
    <i name="e_fr_energy">   -941.06607958 </i>
    <i name="e_wo_entrp">   -941.06607958 </i>
    <i name="e_0_energy">   -941.06607958 </i>
   </energy>
  </scstep>
  <scstep>
   <time name="total">  470.62  470.56</time>
   <energy>
    <i name="e_fr_energy">   -953.10461017 </i>
    <i name="e_wo_entrp">   -953.10461017 </i>
    <i name="e_0_energy">   -953.10461017 </i>
   </energy>
  </scstep>
  <scstep>
   <time name="total">  470.76  470.70</time>
   <energy>
    <i name="e_fr_energy">   -961.19366684 </i>
    <i name="e_wo_entrp">   -961.19366684 </i>
    <i name="e_0_energy">   -961.19366684 </i>
   </energy>
  </scstep>
  <scstep>
   <time name="total">  470.55  470.47</time>
   <energy>
    <i name="e_fr_energy">   -966.24982982 </i>
    <i name="e_wo_entrp">   -966.24982982 </i>
    <i name="e_0_energy">   -966.24982982 </i>
   </energy>
  </scstep>
  <scstep>
   <time name="total">  470.74  470.66</time>
   <energy>
    <i name="e_fr_energy">   -969.28895473 </i>
    <i name="e_wo_entrp">   -969.28895473 </i>
    <i name="e_0_energy">   -969.28895473 </i>
   </energy>
  </scstep>
  <scstep>
   <time name="total">  470.74  470.66</time>
   <energy>
    <i name="e_fr_energy">   -971.45205007 </i>
    <i name="e_wo_entrp">   -971.45205007 </i>
    <i name="e_0_energy">   -971.45205007 </i>
   </energy>
  </scstep>
  <scstep>
   <time name="total">  470.46  470.38</time>
   <energy>
    <i name="e_fr_energy">   -972.90385541 </i>
    <i name="e_wo_entrp">   -972.90385541 </i>
    <i name="e_0_energy">   -972.90385541 </i>
   </energy>
  </scstep>
  <scstep>
   <time name="total">  470.71  470.63</time>
   <energy>
    <i name="e_fr_energy">   -973.82455372 </i>
    <i name="e_wo_entrp">   -973.82455372 </i>
    <i name="e_0_energy">   -973.82455372 </i>
   </energy>
  </scstep>
  <scstep>
   <time name="total">  470.42  470.34</time>
   <energy>
    <i name="e_fr_energy">   -974.49448133 </i>
    <i name="e_wo_entrp">   -974.49448133 </i>
    <i name="e_0_energy">   -974.49448133 </i>
   </energy>
  </scstep>
  <scstep>
   <time name="total">  470.47  470.39</time>
   <energy>
    <i name="e_fr_energy">   -974.94796381 </i>
    <i name="e_wo_entrp">   -974.94796381 </i>
    <i name="e_0_energy">   -974.94796381 </i>
   </energy>
  </scstep>
  <scstep>
   <time name="total">  470.59  470.52</time>
   <energy>
    <i name="e_fr_energy">   -975.22770682 </i>
    <i name="e_wo_entrp">   -975.22770682 </i>
    <i name="e_0_energy">   -975.22770682 </i>
   </energy>
  </scstep>
  <scstep>
   <time name="total">  471.05  470.98</time>
   <energy>
    <i name="e_fr_energy">   -975.41846817 </i>
    <i name="e_wo_entrp">   -975.41846817 </i>
    <i name="e_0_energy">   -975.41846817 </i>
   </energy>
  </scstep>
  <scstep>
   <time name="total">  470.67  470.59</time>
   <energy>
    <i name="e_fr_energy">   -975.55441772 </i>
    <i name="e_wo_entrp">   -975.55441772 </i>
    <i name="e_0_energy">   -975.55441772 </i>
   </energy>
  </scstep>
  <scstep>
   <time name="total">  470.65  470.57</time>
   <energy>
    <i name="e_fr_energy">   -975.64063015 </i>
    <i name="e_wo_entrp">   -975.64063015 </i>
    <i name="e_0_energy">   -975.64063015 </i>
   </energy>
  </scstep>
  <scstep>
   <time name="total">  470.57  470.49</time>
   <energy>
    <i name="e_fr_energy">   -975.69841049 </i>
    <i name="e_wo_entrp">   -975.69841049 </i>
    <i name="e_0_energy">   -975.69841049 </i>
   </energy>
  </scstep>
  <scstep>
   <time name="total">  470.59  470.51</time>
   <energy>
    <i name="e_fr_energy">   -975.74238049 </i>
    <i name="e_wo_entrp">   -975.74238049 </i>
    <i name="e_0_energy">   -975.74238049 </i>
   </energy>
  </scstep>
  <scstep>
   <time name="total">  470.68  470.60</time>
   <energy>
    <i name="e_fr_energy">   -975.77204302 </i>
    <i name="e_wo_entrp">   -975.77204302 </i>
    <i name="e_0_energy">   -975.77204302 </i>
   </energy>
  </scstep>
  <scstep>
   <time name="total">  470.30  470.21</time>
   <energy>
    <i name="e_fr_energy">   -975.81325623 </i>
    <i name="e_wo_entrp">   -975.81325623 </i>
    <i name="e_0_energy">   -975.81325623 </i>
   </energy>
  </scstep>
  <scstep>
   <time name="total">  470.62  470.54</time>
   <energy>
    <i name="e_fr_energy">   -975.82592319 </i>
    <i name="e_wo_entrp">   -975.82592319 </i>
    <i name="e_0_energy">   -975.82592319 </i>
   </energy>
  </scstep>
  <scstep>
   <time name="total">  470.94  470.86</time>
   <energy>
    <i name="e_fr_energy">   -975.82963195 </i>
    <i name="e_wo_entrp">   -975.82963195 </i>
    <i name="e_0_energy">   -975.82963195 </i>
   </energy>
  </scstep>
  <scstep>
   <time name="total">  470.77  470.69</time>
   <energy>
    <i name="e_fr_energy">   -975.83064969 </i>
    <i name="e_wo_entrp">   -975.83064969 </i>
    <i name="e_0_energy">   -975.83064969 </i>
   </energy>
  </scstep>
  <scstep>
   <time name="total">  470.84  470.76</time>
   <energy>
    <i name="e_fr_energy">   -975.83086597 </i>
    <i name="e_wo_entrp">   -975.83086597 </i>
    <i name="e_0_energy">   -975.83086597 </i>
   </energy>
  </scstep>
  <scstep>
   <time name="total">  470.54  470.46</time>
   <energy>
    <i name="e_fr_energy">   -975.83093042 </i>
    <i name="e_wo_entrp">   -975.83093042 </i>
    <i name="e_0_energy">   -975.83093042 </i>
   </energy>
  </scstep>
  <scstep>
   <time name="total">  470.73  470.66</time>
   <energy>
    <i name="e_fr_energy">   -975.83094799 </i>
    <i name="e_wo_entrp">   -975.83094799 </i>
    <i name="e_0_energy">   -975.83094799 </i>
   </energy>
  </scstep>
  <scstep>
   <time name="total">  701.73  701.62</time>
   <energy>
    <i name="alphaZ">   5529.70323211 </i>
    <i name="ewald"> -88550.87271456 </i>
    <i name="hartreedc"> -34056.97959629 </i>
    <i name="XCdc">   2787.42019706 </i>
    <i name="pawpsdc"> 122910.48230681 </i>
    <i name="pawaedc">-138408.00640253 </i>
    <i name="eentropy">     -0.00000000 </i>
    <i name="bandstr">  -9103.41735955 </i>
    <i name="atom"> 133605.80973787 </i>
    <i name="e_fr_energy">   -975.83095446 </i>
    <i name="e_wo_entrp">   -975.83095446 </i>
    <i name="e_0_energy">   -975.83095446 </i>
   </energy>
  </scstep>
  <structure>
   <crystal>
    <varray name="basis" >
     <v>       0.00000000      12.28047342       0.00000000 </v>
     <v>       9.14270205       0.00000000       0.00000000 </v>
     <v>       0.00000000      -2.76826177     -11.30069772 </v>
    </varray>
    <i name="volume">   1268.80515525 </i>
    <varray name="rec_basis" >
     <v>       0.00000000       0.08143009      -0.01994742 </v>
     <v>       0.10937686      -0.00000000       0.00000000 </v>
     <v>       0.00000000       0.00000000      -0.08849011 </v>
    </varray>
   </crystal>
   <varray name="positions" >
    <v>       0.66050800       0.00000000       0.15551579 </v>
    <v>       0.65874487       0.00000000       0.65746193 </v>
    <v>       0.66016030       0.33494225       0.15511037 </v>
    <v>       0.66027753       0.33370282       0.65676405 </v>
    <v>       0.66016030       0.66505775       0.15511037 </v>
    <v>       0.66027753       0.66629718       0.65676405 </v>
    <v>       0.83478553       0.16916744       0.34376899 </v>
    <v>       0.83972740       0.16663187       0.84465807 </v>
    <v>       0.84065339       0.50000000       0.34369363 </v>
    <v>       0.83961174       0.50000000       0.84129976 </v>
    <v>       0.83478553       0.83083256       0.34376899 </v>
    <v>       0.83972740       0.83336813       0.84465807 </v>
    <v>       0.59153674       0.16879266       0.39829790 </v>
    <v>       0.59147078       0.16679186       0.89794384 </v>
    <v>       0.59570684       0.50000000       0.39812619 </v>
    <v>       0.59296016       0.50000000       0.89705339 </v>
    <v>       0.59153674       0.83120734       0.39829790 </v>
    <v>       0.59147078       0.83320814       0.89794384 </v>
    <v>       0.90999856       0.00000000       0.10334339 </v>
    <v>       0.90693539       0.00000000       0.60424689 </v>
    <v>       0.90455112       0.33471718       0.09989155 </v>
    <v>       0.90748755       0.33349461       0.60046142 </v>
    <v>       0.90455112       0.66528282       0.09989155 </v>
    <v>       0.90748755       0.66650539       0.60046142 </v>
    <v>       0.16071833       0.17076746       0.14764933 </v>
    <v>       0.15893829       0.16839468       0.66009840 </v>
    <v>       0.15734398       0.50000000       0.15960931 </v>
    <v>       0.15895295       0.50000000       0.65391569 </v>
    <v>       0.16071833       0.82923254       0.14764933 </v>
    <v>       0.15893829       0.83160532       0.66009840 </v>
    <v>       0.35034331       0.00000000       0.35376785 </v>
    <v>       0.34102578       0.00000000       0.84558497 </v>
    <v>       0.34292015       0.33429149       0.34082932 </v>
    <v>       0.34217205       0.33409951       0.84323596 </v>
    <v>       0.34292015       0.66570851       0.34082932 </v>
    <v>       0.34217205       0.66590049       0.84323596 </v>
    <v>       0.06839284       0.00000000       0.41609533 </v>
    <v>       0.08845761       0.00000000       0.89433934 </v>
    <v>       0.09100419       0.33285566       0.39575661 </v>
    <v>       0.08884782       0.33378042       0.89552482 </v>
    <v>       0.09100419       0.66714434       0.39575661 </v>
    <v>       0.08884782       0.66621958       0.89552482 </v>
    <v>       0.41314040       0.16848462       0.10187079 </v>
    <v>       0.41258898       0.16935298       0.60727808 </v>
    <v>       0.40982436       0.50000000       0.10202346 </v>
    <v>       0.41051520       0.50000000       0.60138938 </v>
    <v>       0.41314040       0.83151538       0.10187079 </v>
    <v>       0.41258898       0.83064702       0.60727808 </v>
    <v>       0.99101069       0.17074213       0.11754560 </v>
    <v>       0.99485522       0.16680872       0.62890975 </v>
    <v>       0.99324636       0.50000000       0.12534644 </v>
    <v>       0.99566552       0.50000000       0.62595585 </v>
    <v>       0.99101069       0.82925787       0.11754560 </v>
    <v>       0.99485522       0.83319128       0.62890975 </v>
    <v>       0.50739183       0.00000000       0.37160873 </v>
    <v>       0.50421287       0.00000000       0.87278905 </v>
    <v>       0.50725910       0.33592495       0.37225591 </v>
    <v>       0.50492050       0.33401818       0.87323239 </v>
    <v>       0.50725910       0.66407505       0.37225591 </v>
    <v>       0.50492050       0.66598182       0.87323239 </v>
    <v>       0.67087491       0.16629201       0.27919196 </v>
    <v>       0.67215424       0.16649234       0.78041027 </v>
    <v>       0.67304016       0.50000000       0.27811270 </v>
    <v>       0.67306394       0.50000000       0.77954039 </v>
    <v>       0.67087491       0.83370799       0.27919196 </v>
    <v>       0.67215424       0.83350766       0.78041027 </v>
    <v>       0.82782272       0.00000000       0.22100709 </v>
    <v>       0.82623012       0.00000000       0.72059926 </v>
    <v>       0.82635204       0.33406528       0.21984575 </v>
    <v>       0.82739812       0.33271967       0.71890861 </v>
    <v>       0.82635204       0.66593472       0.21984575 </v>
    <v>       0.82739812       0.66728033       0.71890861 </v>
    <v>       0.83036963       0.00000000       0.44720481 </v>
    <v>       0.83040048       0.00000000       0.94580191 </v>
    <v>       0.82362535       0.33617633       0.44656324 </v>
    <v>       0.82819960       0.33506402       0.94306484 </v>
    <v>       0.82362535       0.66382367       0.44656324 </v>
    <v>       0.82819960       0.66493598       0.94306484 </v>
    <v>       0.66991592       0.16692145       0.05385570 </v>
    <v>       0.66768918       0.16610758       0.55482313 </v>
    <v>       0.67278810       0.50000000       0.05242007 </v>
    <v>       0.66916291       0.50000000       0.55530060 </v>
    <v>       0.66991592       0.83307855       0.05385570 </v>
    <v>       0.66768918       0.83389242       0.55482313 </v>
    <v>       0.49880058       0.00000000       0.12463991 </v>
    <v>       0.49720683       0.00000000       0.62967755 </v>
    <v>       0.50003842       0.33601684       0.12301548 </v>
    <v>       0.49969712       0.33569533       0.63282576 </v>
    <v>       0.50003842       0.66398316       0.12301548 </v>
    <v>       0.49969712       0.66430467       0.63282576 </v>
    <v>       0.99332837       0.17634524       0.38340834 </v>
    <v>       0.00167314       0.16728463       0.87032794 </v>
    <v>       0.00222326       0.50000000       0.37462305 </v>
    <v>       0.00163120       0.50000000       0.87039925 </v>
    <v>       0.99332837       0.82365476       0.38340834 </v>
    <v>       0.00167314       0.83271537       0.87032794 </v>
    <v>       0.17376646       0.00000000       0.78228125 </v>
    <v>       0.17336927       0.34217921       0.28171865 </v>
    <v>       0.17236481       0.33413888       0.78035810 </v>
    <v>       0.17336927       0.65782079       0.28171865 </v>
    <v>       0.17236481       0.66586112       0.78035810 </v>
    <v>       0.33439210       0.17980462       0.21668715 </v>
    <v>       0.32807258       0.16743354       0.72093055 </v>
    <v>       0.32874097       0.50000000       0.21762074 </v>
    <v>       0.32733448       0.50000000       0.71815892 </v>
    <v>       0.33439210       0.82019538       0.21668715 </v>
    <v>       0.32807258       0.83256646       0.72093055 </v>
    <v>       0.34465684       0.17469324       0.45075071 </v>
    <v>       0.33542792       0.16851828       0.94554846 </v>
    <v>       0.33637679       0.50000000       0.44540851 </v>
    <v>       0.33270727       0.50000000       0.94501386 </v>
    <v>       0.34465684       0.82530676       0.45075071 </v>
    <v>       0.33542792       0.83148172       0.94554846 </v>
    <v>       0.17547241       0.00000000       0.04342363 </v>
    <v>       0.16385266       0.00000000       0.56285086 </v>
    <v>       0.16613637       0.33751953       0.05141818 </v>
    <v>       0.16716154       0.33208927       0.55376900 </v>
    <v>       0.16613637       0.66248047       0.05141818 </v>
    <v>       0.16716154       0.66791073       0.55376900 </v>
    <v>       0.16671645       0.00000000       0.28573925 </v>
   </varray>
  </structure>
  <varray name="forces" >
   <v>       0.00000000       0.04937164       0.00468874 </v>
   <v>       0.00000000       0.06458346       0.00277003 </v>
   <v>       0.02325074       0.05383444       0.00846549 </v>
   <v>       0.01796770       0.05652448      -0.00294879 </v>
   <v>      -0.02325074       0.05383444       0.00846549 </v>
   <v>      -0.01796770       0.05652448      -0.00294879 </v>
   <v>       0.02873016      -0.02155085      -0.02668778 </v>
   <v>      -0.00530100      -0.07747319      -0.01185960 </v>
   <v>       0.00000000      -0.08942031      -0.00095928 </v>
   <v>       0.00000000      -0.09277254      -0.02258447 </v>
   <v>      -0.02873016      -0.02155085      -0.02668778 </v>
   <v>       0.00530100      -0.07747319      -0.01185960 </v>
   <v>      -0.00081184      -0.04821006       0.03989675 </v>
   <v>       0.00519867      -0.01135399       0.01913663 </v>
   <v>       0.00000000      -0.09291085       0.04275048 </v>
   <v>       0.00000000      -0.01661568       0.02325652 </v>
   <v>       0.00081184      -0.04821006       0.03989675 </v>
   <v>      -0.00519867      -0.01135399       0.01913663 </v>
   <v>       0.00000000       0.05827731       0.03655629 </v>
   <v>       0.00000000      -0.00735446      -0.04607055 </v>
   <v>      -0.04955619       0.10532493       0.00015849 </v>
   <v>       0.00282954      -0.00241535      -0.03424236 </v>
   <v>       0.04955619       0.10532493       0.00015849 </v>
   <v>      -0.00282954      -0.00241535      -0.03424236 </v>
   <v>       0.09189148       0.09004089       0.06201817 </v>
   <v>      -0.03263885       0.09242509       0.04245774 </v>
   <v>       0.00000000       0.07766827      -0.08699232 </v>
   <v>       0.00000000       0.08524414       0.02929670 </v>
   <v>      -0.09189148       0.09004089       0.06201817 </v>
   <v>       0.03263885       0.09242509       0.04245774 </v>
   <v>       0.00000000       0.04255058      -0.18613745 </v>
   <v>       0.00000000      -0.09114868      -0.02987812 </v>
   <v>      -0.04552833      -0.05892827       0.02467521 </v>
   <v>      -0.01463878      -0.07069462      -0.03661457 </v>
   <v>       0.04552833      -0.05892827       0.02467521 </v>
   <v>       0.01463878      -0.07069462      -0.03661457 </v>
   <v>       0.00000000      -0.01844820      -0.12408571 </v>
   <v>       0.00000000       0.08497300      -0.04230029 </v>
   <v>       0.01705120      -0.03179481      -0.00255237 </v>
   <v>       0.02122948      -0.01357585      -0.01205080 </v>
   <v>      -0.01705120      -0.03179481      -0.00255237 </v>
   <v>      -0.02122948      -0.01357585      -0.01205080 </v>
   <v>       0.02694889      -0.05312222      -0.06111272 </v>
   <v>       0.00755827       0.02597233       0.06892930 </v>
   <v>       0.00000000       0.01097438      -0.02189485 </v>
   <v>       0.00000000       0.04131258      -0.00610960 </v>
   <v>      -0.02694889      -0.05312222      -0.06111272 </v>
   <v>      -0.00755827       0.02597233       0.06892930 </v>
   <v>       0.03194999      -0.37119640       0.14091657 </v>
   <v>      -0.00525538      -0.20974897       0.14223445 </v>
   <v>       0.00000000      -0.25613224       0.13294463 </v>
   <v>       0.00000000      -0.19942327       0.13532911 </v>
   <v>      -0.03194999      -0.37119640       0.14091657 </v>
   <v>       0.00525538      -0.20974897       0.14223445 </v>
   <v>       0.00000000       0.09822546      -0.17028096 </v>
   <v>       0.00000000       0.20214225      -0.13864958 </v>
   <v>      -0.02348946       0.27380326      -0.15039437 </v>
   <v>      -0.00911778       0.19849971      -0.11683593 </v>
   <v>       0.02348946       0.27380326      -0.15039437 </v>
   <v>       0.00911778       0.19849971      -0.11683593 </v>
   <v>       0.00633837       0.04600777      -0.16672448 </v>
   <v>      -0.00927661      -0.03300655      -0.13905535 </v>
   <v>       0.00000000      -0.01993896      -0.12010049 </v>
   <v>       0.00000000      -0.01457508      -0.13777100 </v>
   <v>      -0.00633837       0.04600777      -0.16672448 </v>
   <v>       0.00927661      -0.03300655      -0.13905535 </v>
   <v>       0.00000000      -0.00143669       0.14282714 </v>
   <v>       0.00000000       0.04315943       0.15135371 </v>
   <v>       0.00988803      -0.01747903       0.14223598 </v>
   <v>       0.02304569       0.00918031       0.13957131 </v>
   <v>      -0.00988803      -0.01747903       0.14223598 </v>
   <v>      -0.02304569       0.00918031       0.13957131 </v>
   <v>       0.00000000       0.39426216      -0.11054022 </v>
   <v>       0.00000000       0.42969609      -0.02411327 </v>
   <v>      -0.01615744       0.48811557      -0.08070486 </v>
   <v>      -0.01512265       0.44366556      -0.07569521 </v>
   <v>       0.01615744       0.48811557      -0.08070486 </v>
   <v>       0.01512265       0.44366556      -0.07569521 </v>
   <v>      -0.00551401      -0.44123184       0.08870288 </v>
   <v>       0.01383394      -0.42297043       0.07904734 </v>
   <v>       0.00000000      -0.46969197       0.07582052 </v>
   <v>       0.00000000      -0.41777582       0.07902994 </v>
   <v>       0.00551401      -0.44123184       0.08870288 </v>
   <v>      -0.01383394      -0.42297043       0.07904734 </v>
   <v>       0.00000000      -0.13709797       0.10880078 </v>
   <v>       0.00000000      -0.12891038       0.08619615 </v>
   <v>      -0.01801591      -0.15888894       0.08749818 </v>
   <v>      -0.02563564      -0.17325202       0.15980883 </v>
   <v>       0.01801591      -0.15888894       0.08749818 </v>
   <v>       0.02563564      -0.17325202       0.15980883 </v>
   <v>      -0.07758222       0.07536927      -0.08441701 </v>
   <v>      -0.00013023       0.17673534      -0.12771509 </v>
   <v>       0.00000000       0.13430052      -0.08792315 </v>
   <v>       0.00000000       0.17445493      -0.11813556 </v>
   <v>       0.07758222       0.07536927      -0.08441701 </v>
   <v>       0.00013023       0.17673534      -0.12771509 </v>
   <v>       0.00000000      -0.07111567      -0.12969789 </v>
   <v>       0.13554340      -0.09696462      -0.13120832 </v>
   <v>      -0.04729882      -0.06580998      -0.08848540 </v>
   <v>      -0.13554340      -0.09696462      -0.13120832 </v>
   <v>       0.04729882      -0.06580998      -0.08848540 </v>
   <v>       0.14297269       0.19895924       0.21969644 </v>
   <v>       0.03642713       0.06995875       0.10080813 </v>
   <v>       0.00000000       0.11912044       0.11352318 </v>
   <v>       0.00000000       0.03909169       0.10715040 </v>
   <v>      -0.14297269       0.19895924       0.21969644 </v>
   <v>      -0.03642713       0.06995875       0.10080813 </v>
   <v>       0.01044092       0.41252493      -0.18252223 </v>
   <v>      -0.00307727       0.42895959      -0.04215631 </v>
   <v>       0.00000000       0.41458334      -0.12559784 </v>
   <v>       0.00000000       0.44887937      -0.04504333 </v>
   <v>      -0.01044092       0.41252493      -0.18252223 </v>
   <v>       0.00307727       0.42895959      -0.04215631 </v>
   <v>       0.00000000      -0.50575975       0.24913217 </v>
   <v>       0.00000000      -0.55188249      -0.03237846 </v>
   <v>      -0.12072182      -0.43663037       0.07095735 </v>
   <v>       0.04279213      -0.42779194       0.03455561 </v>
   <v>       0.12072182      -0.43663037       0.07095735 </v>
   <v>      -0.04279213      -0.42779194       0.03455561 </v>
   <v>       0.00000000       0.16591772       0.09024332 </v>
  </varray>
  <varray name="stress" >
   <v>     -21.15297887       0.00000000       0.00000000 </v>
   <v>       0.00000000     -12.38377435       3.00855640 </v>
   <v>       0.00000000       3.00855602      -9.89667757 </v>
  </varray>
  <energy>
   <i name="e_fr_energy">   -975.83095446 </i>
   <i name="e_wo_entrp">   -975.83095446 </i>
   <i name="e_0_energy">   -975.83095446 </i>
  </energy>
  <time name="totalsc">19911.8719908.82</time>
  <eigenvalues>
   <array>
    <dimension dim="1">band</dimension>
    <dimension dim="2">kpoint</dimension>
    <dimension dim="3">spin</dimension>
    <field>eigene</field>
    <field>occ</field>
    <set>
     <set comment="spin 1">
      <set comment="kpoint 1">
       <r>  -19.0586    1.0000 </r>
       <r>  -18.8004    1.0000 </r>
       <r>  -18.7174    1.0000 </r>
       <r>  -18.5136    1.0000 </r>
       <r>  -18.4237    1.0000 </r>
       <r>  -18.3692    1.0000 </r>
       <r>  -18.3679    1.0000 </r>
       <r>  -18.2883    1.0000 </r>
       <r>  -18.2183    1.0000 </r>
       <r>  -18.2131    1.0000 </r>
       <r>  -18.1469    1.0000 </r>
       <r>  -18.1182    1.0000 </r>
       <r>  -18.1121    1.0000 </r>
       <r>  -18.0816    1.0000 </r>
       <r>  -18.0613    1.0000 </r>
       <r>  -18.0126    1.0000 </r>
       <r>  -17.9760    1.0000 </r>
       <r>  -17.9184    1.0000 </r>
       <r>  -17.9066    1.0000 </r>
       <r>  -17.8978    1.0000 </r>
       <r>  -17.8592    1.0000 </r>
       <r>  -17.8566    1.0000 </r>
       <r>  -17.8344    1.0000 </r>
       <r>  -17.7670    1.0000 </r>
       <r>  -17.7636    1.0000 </r>
       <r>  -17.7606    1.0000 </r>
       <r>  -17.7541    1.0000 </r>
       <r>  -17.7390    1.0000 </r>
       <r>  -17.7191    1.0000 </r>
       <r>  -17.7011    1.0000 </r>
       <r>  -17.6906    1.0000 </r>
       <r>  -17.6751    1.0000 </r>
       <r>  -17.6743    1.0000 </r>
       <r>  -17.6570    1.0000 </r>
       <r>  -17.6010    1.0000 </r>
       <r>  -17.5966    1.0000 </r>
       <r>  -17.5853    1.0000 </r>
       <r>  -17.5808    1.0000 </r>
       <r>  -17.5758    1.0000 </r>
       <r>  -17.5563    1.0000 </r>
       <r>  -17.5466    1.0000 </r>
       <r>  -17.5408    1.0000 </r>
       <r>  -17.5158    1.0000 </r>
       <r>  -17.4933    1.0000 </r>
       <r>  -17.4247    1.0000 </r>
       <r>  -17.4149    1.0000 </r>
       <r>  -17.3971    1.0000 </r>
       <r>  -17.3878    1.0000 </r>
       <r>  -17.3732    1.0000 </r>
       <r>  -17.3503    1.0000 </r>
       <r>  -17.3438    1.0000 </r>
       <r>  -17.3312    1.0000 </r>
       <r>  -17.3168    1.0000 </r>
       <r>  -17.3009    1.0000 </r>
       <r>  -17.2826    1.0000 </r>
       <r>  -17.2821    1.0000 </r>
       <r>  -17.2588    1.0000 </r>
       <r>  -17.2585    1.0000 </r>
       <r>  -17.2537    1.0000 </r>
       <r>  -17.2512    1.0000 </r>
       <r>  -17.2360    1.0000 </r>
       <r>  -17.2073    1.0000 </r>
       <r>  -17.1997    1.0000 </r>
       <r>  -17.1905    1.0000 </r>
       <r>  -17.1678    1.0000 </r>
       <r>  -17.1205    1.0000 </r>
       <r>  -17.1136    1.0000 </r>
       <r>  -17.0832    1.0000 </r>
       <r>  -16.9698    1.0000 </r>
       <r>  -16.9593    1.0000 </r>
       <r>  -16.8476    1.0000 </r>
       <r>  -13.4510    1.0000 </r>
       <r>  -13.4396    1.0000 </r>
       <r>  -13.4356    1.0000 </r>
       <r>  -13.4312    1.0000 </r>
       <r>  -13.4275    1.0000 </r>
       <r>  -13.3938    1.0000 </r>
       <r>  -13.3868    1.0000 </r>
       <r>  -13.3806    1.0000 </r>
       <r>  -13.3706    1.0000 </r>
       <r>  -13.3668    1.0000 </r>
       <r>  -13.3561    1.0000 </r>
       <r>  -13.3540    1.0000 </r>
       <r>  -13.3480    1.0000 </r>
       <r>  -13.3426    1.0000 </r>
       <r>  -13.3397    1.0000 </r>
       <r>  -13.3369    1.0000 </r>
       <r>  -13.3283    1.0000 </r>
       <r>  -13.3250    1.0000 </r>
       <r>  -13.3239    1.0000 </r>
       <r>  -13.3203    1.0000 </r>
       <r>  -13.3193    1.0000 </r>
       <r>  -13.3139    1.0000 </r>
       <r>  -13.3088    1.0000 </r>
       <r>  -13.3064    1.0000 </r>
       <r>  -13.3007    1.0000 </r>
       <r>  -13.2960    1.0000 </r>
       <r>  -13.2959    1.0000 </r>
       <r>  -13.2904    1.0000 </r>
       <r>  -13.2875    1.0000 </r>
       <r>  -13.2864    1.0000 </r>
       <r>  -13.2847    1.0000 </r>
       <r>  -13.2837    1.0000 </r>
       <r>  -13.2786    1.0000 </r>
       <r>  -13.2726    1.0000 </r>
       <r>  -13.2708    1.0000 </r>
       <r>  -13.2704    1.0000 </r>
       <r>  -13.2635    1.0000 </r>
       <r>  -13.2612    1.0000 </r>
       <r>  -13.2583    1.0000 </r>
       <r>  -13.2574    1.0000 </r>
       <r>  -13.2528    1.0000 </r>
       <r>  -13.2520    1.0000 </r>
       <r>  -13.2463    1.0000 </r>
       <r>  -13.2420    1.0000 </r>
       <r>  -13.2399    1.0000 </r>
       <r>  -13.2385    1.0000 </r>
       <r>  -13.2329    1.0000 </r>
       <r>  -13.2325    1.0000 </r>
       <r>  -13.2299    1.0000 </r>
       <r>  -13.2205    1.0000 </r>
       <r>  -13.2189    1.0000 </r>
       <r>  -13.2128    1.0000 </r>
       <r>  -13.2107    1.0000 </r>
       <r>  -13.2056    1.0000 </r>
       <r>  -13.2040    1.0000 </r>
       <r>  -13.2007    1.0000 </r>
       <r>  -13.1998    1.0000 </r>
       <r>  -13.1941    1.0000 </r>
       <r>  -13.1912    1.0000 </r>
       <r>  -13.1884    1.0000 </r>
       <r>  -13.1878    1.0000 </r>
       <r>  -13.1844    1.0000 </r>
       <r>  -13.1829    1.0000 </r>
       <r>  -13.1759    1.0000 </r>
       <r>  -13.1710    1.0000 </r>
       <r>  -13.1704    1.0000 </r>
       <r>  -13.1658    1.0000 </r>
       <r>  -13.1656    1.0000 </r>
       <r>  -13.1586    1.0000 </r>
       <r>  -13.1566    1.0000 </r>
       <r>  -13.1515    1.0000 </r>
       <r>  -13.1500    1.0000 </r>
       <r>  -13.1489    1.0000 </r>
       <r>  -13.1405    1.0000 </r>
       <r>  -13.1378    1.0000 </r>
       <r>  -13.1332    1.0000 </r>
       <r>  -13.1299    1.0000 </r>
       <r>  -13.1261    1.0000 </r>
       <r>  -13.1222    1.0000 </r>
       <r>  -13.1212    1.0000 </r>
       <r>  -13.1181    1.0000 </r>
       <r>  -13.1140    1.0000 </r>
       <r>  -13.1109    1.0000 </r>
       <r>  -13.1093    1.0000 </r>
       <r>  -13.1024    1.0000 </r>
       <r>  -13.1015    1.0000 </r>
       <r>  -13.1000    1.0000 </r>
       <r>  -13.0976    1.0000 </r>
       <r>  -13.0961    1.0000 </r>
       <r>  -13.0940    1.0000 </r>
       <r>  -13.0920    1.0000 </r>
       <r>  -13.0905    1.0000 </r>
       <r>  -13.0899    1.0000 </r>
       <r>  -13.0765    1.0000 </r>
       <r>  -13.0761    1.0000 </r>
       <r>  -13.0732    1.0000 </r>
       <r>  -13.0724    1.0000 </r>
       <r>  -13.0678    1.0000 </r>
       <r>  -13.0658    1.0000 </r>
       <r>  -13.0614    1.0000 </r>
       <r>  -13.0606    1.0000 </r>
       <r>  -13.0596    1.0000 </r>
       <r>  -13.0562    1.0000 </r>
       <r>  -13.0510    1.0000 </r>
       <r>  -13.0496    1.0000 </r>
       <r>  -13.0419    1.0000 </r>
       <r>  -13.0379    1.0000 </r>
       <r>  -13.0364    1.0000 </r>
       <r>  -13.0334    1.0000 </r>
       <r>  -13.0302    1.0000 </r>
       <r>  -13.0279    1.0000 </r>
       <r>  -13.0254    1.0000 </r>
       <r>  -13.0234    1.0000 </r>
       <r>  -13.0172    1.0000 </r>
       <r>  -13.0171    1.0000 </r>
       <r>  -13.0148    1.0000 </r>
       <r>  -13.0110    1.0000 </r>
       <r>  -13.0074    1.0000 </r>
       <r>  -13.0073    1.0000 </r>
       <r>  -13.0031    1.0000 </r>
       <r>  -13.0019    1.0000 </r>
       <r>  -13.0002    1.0000 </r>
       <r>  -12.9977    1.0000 </r>
       <r>  -12.9936    1.0000 </r>
       <r>  -12.9933    1.0000 </r>
       <r>  -12.9918    1.0000 </r>
       <r>  -12.9896    1.0000 </r>
       <r>  -12.9846    1.0000 </r>
       <r>  -12.9829    1.0000 </r>
       <r>  -12.9826    1.0000 </r>
       <r>  -12.9811    1.0000 </r>
       <r>  -12.9764    1.0000 </r>
       <r>  -12.9747    1.0000 </r>
       <r>  -12.9729    1.0000 </r>
       <r>  -12.9714    1.0000 </r>
       <r>  -12.9663    1.0000 </r>
       <r>  -12.9662    1.0000 </r>
       <r>  -12.9641    1.0000 </r>
       <r>  -12.9609    1.0000 </r>
       <r>  -12.9599    1.0000 </r>
       <r>  -12.9588    1.0000 </r>
       <r>  -12.9564    1.0000 </r>
       <r>  -12.9549    1.0000 </r>
       <r>  -12.9508    1.0000 </r>
       <r>  -12.9492    1.0000 </r>
       <r>  -12.9471    1.0000 </r>
       <r>  -12.9407    1.0000 </r>
       <r>  -12.9360    1.0000 </r>
       <r>  -12.9360    1.0000 </r>
       <r>  -12.9340    1.0000 </r>
       <r>  -12.9301    1.0000 </r>
       <r>  -12.9279    1.0000 </r>
       <r>  -12.9250    1.0000 </r>
       <r>  -12.9224    1.0000 </r>
[...]
       <r>   -12.6310   192.7551   528.3539 </r>
       <r>   -12.4981   206.5239   555.8011 </r>
       <r>   -12.3652   147.5662   575.4129 </r>
       <r>   -12.2323   104.4754   589.2978 </r>
       <r>   -12.0994   119.0528   605.1200 </r>
       <r>   -11.9665    83.3125   616.1923 </r>
       <r>   -11.8336    36.8401   621.0884 </r>
       <r>   -11.7007     6.8568   621.9997 </r>
       <r>   -11.5678     0.0024   622.0000 </r>
       <r>   -11.4349     0.0000   622.0000 </r>
       <r>   -11.3020     0.0000   622.0000 </r>
       <r>   -11.1691     0.0000   622.0000 </r>
       <r>   -11.0362     0.0000   622.0000 </r>
       <r>   -10.9033     0.0000   622.0000 </r>
       <r>   -10.7704     0.0000   622.0000 </r>
       <r>   -10.6375     0.0000   622.0000 </r>
       <r>   -10.5046     0.0000   622.0000 </r>
       <r>   -10.3717     0.0000   622.0000 </r>
       <r>   -10.2388     0.0000   622.0000 </r>
       <r>   -10.1059     0.0000   622.0000 </r>
       <r>    -9.9730     0.0000   622.0000 </r>
       <r>    -9.8401     0.0000   622.0000 </r>
       <r>    -9.7072     0.0000   622.0000 </r>
       <r>    -9.5742     0.0000   622.0000 </r>
       <r>    -9.4413     0.0000   622.0000 </r>
       <r>    -9.3084     0.0000   622.0000 </r>
       <r>    -9.1755     0.0000   622.0000 </r>
       <r>    -9.0426     0.0000   622.0000 </r>
       <r>    -8.9097     0.0000   622.0000 </r>
       <r>    -8.7768     0.0000   622.0000 </r>
       <r>    -8.6439     0.0000   622.0000 </r>
       <r>    -8.5110     0.0000   622.0000 </r>
       <r>    -8.3781     0.0000   622.0000 </r>
       <r>    -8.2452     0.0000   622.0000 </r>
       <r>    -8.1123     0.0000   622.0000 </r>
       <r>    -7.9794     0.0000   622.0000 </r>
       <r>    -7.8465     0.0000   622.0000 </r>
       <r>    -7.7136     0.0000   622.0000 </r>
       <r>    -7.5807     0.0000   622.0000 </r>
       <r>    -7.4478     0.0000   622.0000 </r>
       <r>    -7.3149     0.0000   622.0000 </r>
       <r>    -7.1820     0.5371   622.0714 </r>
       <r>    -7.0491    14.0745   623.9419 </r>
       <r>    -6.9162     0.4372   624.0000 </r>
       <r>    -6.7833     0.0000   624.0000 </r>
       <r>    -6.6504     0.0000   624.0000 </r>
       <r>    -6.5175     0.0000   624.0000 </r>
       <r>    -6.3846     0.0000   624.0000 </r>
       <r>    -6.2517     0.0000   624.0000 </r>
       <r>    -6.1188     0.0000   624.0000 </r>
       <r>    -5.9859     0.0000   624.0000 </r>
       <r>    -5.8530     0.0000   624.0000 </r>
       <r>    -5.7201     0.0000   624.0000 </r>
       <r>    -5.5872     0.0000   624.0000 </r>
       <r>    -5.4543     0.0025   624.0003 </r>
       <r>    -5.3214     3.8863   624.5168 </r>
       <r>    -5.1885     9.8857   625.8306 </r>
       <r>    -5.0556    20.9019   628.6085 </r>
       <r>    -4.9227    27.3107   632.2381 </r>
       <r>    -4.7898    29.8224   636.2016 </r>
       <r>    -4.6569    35.0204   640.8558 </r>
       <r>    -4.5240    41.5233   646.3743 </r>
       <r>    -4.3911    48.4445   652.8127 </r>
       <r>    -4.2582    55.3580   660.1698 </r>
       <r>    -4.1253    45.3774   666.2005 </r>
       <r>    -3.9924    42.0041   671.7829 </r>
       <r>    -3.8595    49.2626   678.3300 </r>
       <r>    -3.7266    31.2009   682.4766 </r>
       <r>    -3.5937    33.9614   686.9901 </r>
       <r>    -3.4608    33.5813   691.4531 </r>
       <r>    -3.3279    35.5703   696.1804 </r>
       <r>    -3.1950    38.1458   701.2500 </r>
       <r>    -3.0621    35.9290   706.0251 </r>
       <r>    -2.9292    33.7673   710.5128 </r>
       <r>    -2.7963    28.0836   714.2451 </r>
       <r>    -2.6634    35.3592   718.9444 </r>
       <r>    -2.5305    40.1200   724.2764 </r>
       <r>    -2.3976    45.6701   730.3460 </r>
       <r>    -2.2647    47.0208   736.5951 </r>
       <r>    -2.1318    33.1008   740.9942 </r>
       <r>    -1.9989    49.9313   747.6302 </r>
       <r>    -1.8660    71.0256   757.0695 </r>
       <r>    -1.7331    65.7460   765.8073 </r>
       <r>    -1.6002    47.7577   772.1543 </r>
       <r>    -1.4673    62.5184   780.4631 </r>
       <r>    -1.3344    64.6582   789.0562 </r>
       <r>    -1.2015    46.6177   795.2518 </r>
       <r>    -1.0686    55.0614   802.5695 </r>
       <r>    -0.9357    72.8426   812.2504 </r>
       <r>    -0.8028    66.1104   821.0365 </r>
       <r>    -0.6699    72.8817   830.7226 </r>
       <r>    -0.5370    66.8135   839.6022 </r>
       <r>    -0.4041    63.0286   847.9787 </r>
       <r>    -0.2712    69.2074   857.1765 </r>
       <r>    -0.1383    70.3582   866.5272 </r>
       <r>    -0.0054    85.7720   877.9264 </r>
       <r>     0.1275    71.1034   887.3761 </r>
       <r>     0.2604    72.8828   897.0623 </r>
       <r>     0.3933    60.4306   905.0936 </r>
       <r>     0.5262    87.7804   916.7597 </r>
       <r>     0.6591    92.1759   929.0100 </r>
       <r>     0.7920    92.6526   941.3236 </r>
       <r>     0.9249    82.1107   952.2362 </r>
       <r>     1.0578   113.9760   967.3838 </r>
       <r>     1.1907   108.5754   981.8136 </r>
       <r>     1.3236   129.1219   998.9740 </r>
       <r>     1.4565   118.1303  1014.6737 </r>
       <r>     1.5894    96.9551  1027.5591 </r>
       <r>     1.7223    67.4854  1036.5280 </r>
       <r>     1.8552    62.4550  1044.8283 </r>
       <r>     1.9881    37.6171  1049.8277 </r>
       <r>     2.1210     1.2967  1050.0000 </r>
       <r>     2.2540     0.0000  1050.0000 </r>
       <r>     2.3869     0.0000  1050.0000 </r>
       <r>     2.5198     0.0000  1050.0000 </r>
       <r>     2.6527     0.0000  1050.0000 </r>
       <r>     2.7856     0.0000  1050.0000 </r>
       <r>     2.9185     0.0000  1050.0000 </r>
       <r>     3.0514     0.0000  1050.0000 </r>
       <r>     3.1843     0.1003  1050.0133 </r>
       <r>     3.3172     6.9184  1050.9328 </r>
       <r>     3.4501     7.8165  1051.9716 </r>
       <r>     3.5830     0.2135  1052.0000 </r>
       <r>     3.7159     0.0000  1052.0000 </r>
       <r>     3.8488     0.0121  1052.0016 </r>
       <r>     3.9817     9.3894  1053.2495 </r>
       <r>     4.1146    13.3500  1055.0237 </r>
       <r>     4.2475     7.1766  1055.9775 </r>
       <r>     4.3804     0.1695  1056.0000 </r>
       <r>     4.5133     0.0000  1056.0000 </r>
       <r>     4.6462     0.0000  1056.0000 </r>
       <r>     4.7791     0.0000  1056.0000 </r>
       <r>     4.9120     0.0000  1056.0000 </r>
       <r>     5.0449     0.0000  1056.0000 </r>
       <r>     5.1778     0.0000  1056.0000 </r>
       <r>     5.3107     0.0000  1056.0000 </r>
       <r>     5.4436     0.0000  1056.0000 </r>
       <r>     5.5765     0.0000  1056.0000 </r>
       <r>     5.7094     0.0000  1056.0000 </r>
       <r>     5.8423     0.0000  1056.0000 </r>
       <r>     5.9752     0.0000  1056.0000 </r>
       <r>     6.1081     0.0000  1056.0000 </r>
       <r>     6.2410     0.0000  1056.0000 </r>
       <r>     6.3739     0.0000  1056.0000 </r>
       <r>     6.5068     0.0000  1056.0000 </r>
       <r>     6.6397     0.0000  1056.0000 </r>
       <r>     6.7726     0.0000  1056.0000 </r>
       <r>     6.9055     0.0000  1056.0000 </r>
       <r>     7.0384     0.4554  1056.0605 </r>
       <r>     7.1713     1.4236  1056.2497 </r>
       <r>     7.3042     0.0021  1056.2500 </r>
       <r>     7.4371     0.0000  1056.2500 </r>
       <r>     7.5700     0.0000  1056.2500 </r>
       <r>     7.7029     0.0001  1056.2500 </r>
       <r>     7.8358     1.1484  1056.4026 </r>
       <r>     7.9687     4.2943  1056.9734 </r>
       <r>     8.1016     2.0161  1057.2413 </r>
       <r>     8.2345     1.8697  1057.4898 </r>
       <r>     8.3674     4.5057  1058.0886 </r>
       <r>     8.5003     1.2143  1058.2500 </r>
       <r>     8.6332     0.0029  1058.2504 </r>
       <r>     8.7661     3.0587  1058.6569 </r>
       <r>     8.8990     7.5911  1059.6657 </r>
       <r>     9.0319     4.8173  1060.3060 </r>
       <r>     9.1648     6.5240  1061.1730 </r>
       <r>     9.2977     5.6675  1061.9262 </r>
       <r>     9.4306     2.5411  1062.2640 </r>
       <r>     9.5635     6.7309  1063.1585 </r>
       <r>     9.6964     9.9486  1064.4807 </r>
       <r>     9.8293     5.3658  1065.1938 </r>
       <r>     9.9622     4.3997  1065.7785 </r>
       <r>    10.0951    17.3111  1068.0792 </r>
       <r>    10.2280    13.6812  1069.8974 </r>
       <r>    10.3609    20.4814  1072.6194 </r>
       <r>    10.4938    13.0483  1074.3536 </r>
       <r>    10.6267    17.9884  1076.7442 </r>
       <r>    10.7596    28.0568  1080.4730 </r>
       <r>    10.8925    37.2485  1085.4234 </r>
       <r>    11.0254    33.3094  1089.8502 </r>
       <r>    11.1583    40.5593  1095.2406 </r>
       <r>    11.2912    33.1115  1099.6412 </r>
       <r>    11.4241    28.3769  1103.4125 </r>
       <r>    11.5570    31.1164  1107.5479 </r>
       <r>    11.6899    31.4787  1111.7314 </r>
       <r>    11.8228    26.7848  1115.2912 </r>
       <r>    11.9557    39.9558  1120.6013 </r>
       <r>    12.0886    38.3532  1125.6985 </r>
       <r>    12.2215    42.0645  1131.2889 </r>
       <r>    12.3544    26.9103  1134.8654 </r>
       <r>    12.4873    30.3202  1138.8949 </r>
       <r>    12.6202    40.5801  1144.2881 </r>
       <r>    12.7531    40.7092  1149.6984 </r>
       <r>    12.8860    37.5733  1154.6919 </r>
       <r>    13.0189    29.4858  1158.6106 </r>
       <r>    13.1518    29.0765  1162.4749 </r>
       <r>    13.2847    28.1384  1166.2145 </r>
       <r>    13.4176    36.7150  1171.0940 </r>
       <r>    13.5505    38.6589  1176.2318 </r>
       <r>    13.6834    38.6858  1181.3732 </r>
       <r>    13.8163    33.7387  1185.8571 </r>
       <r>    13.9492    28.5258  1189.6482 </r>
       <r>    14.0822    22.7344  1192.6696 </r>
       <r>    14.2151    32.8050  1197.0295 </r>
       <r>    14.3480    37.1136  1201.9619 </r>
       <r>    14.4809    28.6967  1205.7757 </r>
       <r>    14.6138    28.0453  1209.5030 </r>
       <r>    14.7467    29.7883  1213.4619 </r>
       <r>    14.8796    41.6460  1218.9967 </r>
       <r>    15.0125    32.4001  1223.3027 </r>
       <r>    15.1454    33.2284  1227.7188 </r>
       <r>    15.2783    24.5728  1230.9845 </r>
       <r>    15.4112    23.1588  1234.0624 </r>
       <r>    15.5441    29.1222  1237.9328 </r>
       <r>    15.6770    29.6021  1241.8669 </r>
       <r>    15.8099    20.3002  1244.5648 </r>
       <r>    15.9428    18.7556  1247.0575 </r>
       <r>    16.0757    16.2838  1249.2216 </r>
       <r>    16.2086    20.1091  1251.8941 </r>
       <r>    16.3415    19.6495  1254.5056 </r>
       <r>    16.4744    17.7358  1256.8627 </r>
       <r>    16.6073    22.5629  1259.8613 </r>
       <r>    16.7402     9.7243  1261.1537 </r>
       <r>    16.8731    18.8485  1263.6587 </r>
       <r>    17.0060    10.6637  1265.0759 </r>
       <r>    17.1389     4.4348  1265.6653 </r>
       <r>    17.2718     2.5029  1265.9979 </r>
       <r>    17.4047     0.0158  1266.0000 </r>
       <r>    17.5376     0.0000  1266.0000 </r>
       <r>    17.6705     0.0000  1266.0000 </r>
       <r>    17.8034     0.0000  1266.0000 </r>
       <r>    17.9363     0.0000  1266.0000 </r>
       <r>    18.0692     0.0000  1266.0000 </r>
       <r>    18.2021     0.0000  1266.0000 </r>
       <r>    18.3350     0.0000  1266.0000 </r>
       <r>    18.4679     0.0000  1266.0000 </r>
       <r>    18.6008     0.0000  1266.0000 </r>
       <r>    18.7337     0.0000  1266.0000 </r>
       <r>    18.8666     0.0000  1266.0000 </r>
       <r>    18.9995     0.0000  1266.0000 </r>
      </set>
     </set>
    </array>
   </total>
  </dos>
 </calculation>
 <structure name="finalpos" >
  <crystal>
   <varray name="basis" >
    <v>       0.00000000      12.28047342       0.00000000 </v>
    <v>       9.14270205       0.00000000       0.00000000 </v>
    <v>       0.00000000      -2.76826177     -11.30069772 </v>
   </varray>
   <i name="volume">   1268.80515525 </i>
   <varray name="rec_basis" >
    <v>       0.00000000       0.08143009      -0.01994742 </v>
    <v>       0.10937686      -0.00000000       0.00000000 </v>
    <v>       0.00000000       0.00000000      -0.08849011 </v>
   </varray>
  </crystal>
  <varray name="positions" >
   <v>       0.66050800       0.00000000       0.15551579 </v>
   <v>       0.65874487       0.00000000       0.65746193 </v>
   <v>       0.66016030       0.33494225       0.15511037 </v>
   <v>       0.66027753       0.33370282       0.65676405 </v>
   <v>       0.66016030       0.66505775       0.15511037 </v>
   <v>       0.66027753       0.66629718       0.65676405 </v>
   <v>       0.83478553       0.16916744       0.34376899 </v>
   <v>       0.83972740       0.16663187       0.84465807 </v>
   <v>       0.84065339       0.50000000       0.34369363 </v>
   <v>       0.83961174       0.50000000       0.84129976 </v>
   <v>       0.83478553       0.83083256       0.34376899 </v>
   <v>       0.83972740       0.83336813       0.84465807 </v>
   <v>       0.59153674       0.16879266       0.39829790 </v>
   <v>       0.59147078       0.16679186       0.89794384 </v>
   <v>       0.59570684       0.50000000       0.39812619 </v>
   <v>       0.59296016       0.50000000       0.89705339 </v>
   <v>       0.59153674       0.83120734       0.39829790 </v>
   <v>       0.59147078       0.83320814       0.89794384 </v>
   <v>       0.90999856       0.00000000       0.10334339 </v>
   <v>       0.90693539       0.00000000       0.60424689 </v>
   <v>       0.90455112       0.33471718       0.09989155 </v>
   <v>       0.90748755       0.33349461       0.60046142 </v>
   <v>       0.90455112       0.66528282       0.09989155 </v>
   <v>       0.90748755       0.66650539       0.60046142 </v>
   <v>       0.16071833       0.17076746       0.14764933 </v>
   <v>       0.15893829       0.16839468       0.66009840 </v>
   <v>       0.15734398       0.50000000       0.15960931 </v>
   <v>       0.15895295       0.50000000       0.65391569 </v>
   <v>       0.16071833       0.82923254       0.14764933 </v>
   <v>       0.15893829       0.83160532       0.66009840 </v>
   <v>       0.35034331       0.00000000       0.35376785 </v>
   <v>       0.34102578       0.00000000       0.84558497 </v>
   <v>       0.34292015       0.33429149       0.34082932 </v>
   <v>       0.34217205       0.33409951       0.84323596 </v>
   <v>       0.34292015       0.66570851       0.34082932 </v>
   <v>       0.34217205       0.66590049       0.84323596 </v>
   <v>       0.06839284       0.00000000       0.41609533 </v>
   <v>       0.08845761       0.00000000       0.89433934 </v>
   <v>       0.09100419       0.33285566       0.39575661 </v>
   <v>       0.08884782       0.33378042       0.89552482 </v>
   <v>       0.09100419       0.66714434       0.39575661 </v>
   <v>       0.08884782       0.66621958       0.89552482 </v>
   <v>       0.41314040       0.16848462       0.10187079 </v>
   <v>       0.41258898       0.16935298       0.60727808 </v>
   <v>       0.40982436       0.50000000       0.10202346 </v>
   <v>       0.41051520       0.50000000       0.60138938 </v>
   <v>       0.41314040       0.83151538       0.10187079 </v>
   <v>       0.41258898       0.83064702       0.60727808 </v>
   <v>       0.99101069       0.17074213       0.11754560 </v>
   <v>       0.99485522       0.16680872       0.62890975 </v>
   <v>       0.99324636       0.50000000       0.12534644 </v>
   <v>       0.99566552       0.50000000       0.62595585 </v>
   <v>       0.99101069       0.82925787       0.11754560 </v>
   <v>       0.99485522       0.83319128       0.62890975 </v>
   <v>       0.50739183       0.00000000       0.37160873 </v>
   <v>       0.50421287       0.00000000       0.87278905 </v>
   <v>       0.50725910       0.33592495       0.37225591 </v>
   <v>       0.50492050       0.33401818       0.87323239 </v>
   <v>       0.50725910       0.66407505       0.37225591 </v>
   <v>       0.50492050       0.66598182       0.87323239 </v>
   <v>       0.67087491       0.16629201       0.27919196 </v>
   <v>       0.67215424       0.16649234       0.78041027 </v>
   <v>       0.67304016       0.50000000       0.27811270 </v>
   <v>       0.67306394       0.50000000       0.77954039 </v>
   <v>       0.67087491       0.83370799       0.27919196 </v>
   <v>       0.67215424       0.83350766       0.78041027 </v>
   <v>       0.82782272       0.00000000       0.22100709 </v>
   <v>       0.82623012       0.00000000       0.72059926 </v>
   <v>       0.82635204       0.33406528       0.21984575 </v>
   <v>       0.82739812       0.33271967       0.71890861 </v>
   <v>       0.82635204       0.66593472       0.21984575 </v>
   <v>       0.82739812       0.66728033       0.71890861 </v>
   <v>       0.83036963       0.00000000       0.44720481 </v>
   <v>       0.83040048       0.00000000       0.94580191 </v>
   <v>       0.82362535       0.33617633       0.44656324 </v>
   <v>       0.82819960       0.33506402       0.94306484 </v>
   <v>       0.82362535       0.66382367       0.44656324 </v>
   <v>       0.82819960       0.66493598       0.94306484 </v>
   <v>       0.66991592       0.16692145       0.05385570 </v>
   <v>       0.66768918       0.16610758       0.55482313 </v>
   <v>       0.67278810       0.50000000       0.05242007 </v>
   <v>       0.66916291       0.50000000       0.55530060 </v>
   <v>       0.66991592       0.83307855       0.05385570 </v>
   <v>       0.66768918       0.83389242       0.55482313 </v>
   <v>       0.49880058       0.00000000       0.12463991 </v>
   <v>       0.49720683       0.00000000       0.62967755 </v>
   <v>       0.50003842       0.33601684       0.12301548 </v>
   <v>       0.49969712       0.33569533       0.63282576 </v>
   <v>       0.50003842       0.66398316       0.12301548 </v>
   <v>       0.49969712       0.66430467       0.63282576 </v>
   <v>       0.99332837       0.17634524       0.38340834 </v>
   <v>       0.00167314       0.16728463       0.87032794 </v>
   <v>       0.00222326       0.50000000       0.37462305 </v>
   <v>       0.00163120       0.50000000       0.87039925 </v>
   <v>       0.99332837       0.82365476       0.38340834 </v>
   <v>       0.00167314       0.83271537       0.87032794 </v>
   <v>       0.17376646       0.00000000       0.78228125 </v>
   <v>       0.17336927       0.34217921       0.28171865 </v>
   <v>       0.17236481       0.33413888       0.78035810 </v>
   <v>       0.17336927       0.65782079       0.28171865 </v>
   <v>       0.17236481       0.66586112       0.78035810 </v>
   <v>       0.33439210       0.17980462       0.21668715 </v>
   <v>       0.32807258       0.16743354       0.72093055 </v>
   <v>       0.32874097       0.50000000       0.21762074 </v>
   <v>       0.32733448       0.50000000       0.71815892 </v>
   <v>       0.33439210       0.82019538       0.21668715 </v>
   <v>       0.32807258       0.83256646       0.72093055 </v>
   <v>       0.34465684       0.17469324       0.45075071 </v>
   <v>       0.33542792       0.16851828       0.94554846 </v>
   <v>       0.33637679       0.50000000       0.44540851 </v>
   <v>       0.33270727       0.50000000       0.94501386 </v>
   <v>       0.34465684       0.82530676       0.45075071 </v>
   <v>       0.33542792       0.83148172       0.94554846 </v>
   <v>       0.17547241       0.00000000       0.04342363 </v>
   <v>       0.16385266       0.00000000       0.56285086 </v>
   <v>       0.16613637       0.33751953       0.05141818 </v>
   <v>       0.16716154       0.33208927       0.55376900 </v>
   <v>       0.16613637       0.66248047       0.05141818 </v>
   <v>       0.16716154       0.66791073       0.55376900 </v>
   <v>       0.16671645       0.00000000       0.28573925 </v>
  </varray>
 </structure>
</modeling>
