 running    4 mpi-ranks, on    1 nodes
 distrk:  each k-point on    1 cores,    4 groups
 distr:  one band on    1 cores,    1 groups
 OpenACC runtime initialized ...    4 GPUs detected
 vasp.6.4.2 20Jul23 (build Nov 12 2023 22:16:35) complex                         
 POSCAR found type information on POSCAR GaO P 
 POSCAR found :  3 types and     119 ions
 scaLAPACK will be used selectively (only on CPU)
 LDA part: xc-table for Pade appr. of Perdew
 POSCAR, INCAR and KPOINTS ok, starting setup
 FFT: planning ... GRIDC
 FFT: planning ... GRID_SOFT
 FFT: planning ... GRID
 WAVECAR not read
 initial charge from wavefunction
 entering main loop
       N       E                     dE             d eps       ncg     rms          ort
DAV:   1    -0.208474526498E+05   -0.20847E+05   -0.54493E+05  5064   0.753E+03
DAV:   2    -0.667993265999E+05   -0.45952E+05   -0.44196E+05  5064   0.127E+03
DAV:   3    -0.728467877833E+05   -0.60475E+04   -0.54309E+04  5064   0.398E+02
DAV:   4    -0.738206287926E+05   -0.97384E+03   -0.89409E+03  5064   0.137E+02
DAV:   5    -0.413840442082E+05    0.32437E+05   -0.72208E+02  5064   0.625E+01
 gam= 0.000 g(H,U,f)=  0.933E+05 0.870E+04 0.240E+03 ort(H,U,f) = 0.000E+00 0.000E+00 0.000E+00
SDA:   6     0.417966521388E+05    0.83181E+05   -0.72208E+02  5064   0.102E+06 0.000E+00
 gam= 0.000 trial= 0.400  step= 0.989 mean= 0.400
 gam= 1.244 g(H,U,f)=  0.981E+05 0.225E+05 0.663E+04 ort(H,U,f) =-0.182E+05-0.148E+05-0.501E+04
CGA:   7     0.232897028392E+05   -0.18507E+05   -0.50549E+05  5064   0.127E+06-0.380E+05
 gam= 1.244 trial= 0.429  step= 0.229 mean= 0.429
 gam= 0.803 g(H,U,f)=  0.817E+05 0.203E+05 0.164E+03 ort(H,U,f) = 0.201E+05-0.343E+04-0.271E+02
CGA:   8     0.211438428879E+05   -0.21459E+04   -0.91350E+04  5064   0.102E+06 0.166E+05
 gam= 0.803 trial= 0.419  step= 0.228 mean= 0.419
 gam= 0.623 g(H,U,f)=  0.566E+05 0.698E+04 0.730E+02 ort(H,U,f) = 0.194E+05 0.107E+05 0.160E+03
CGA:   9     0.156295283011E+05   -0.55143E+04   -0.13183E+05  5064   0.637E+05 0.302E+05
 gam= 0.623 trial= 0.410  step= 0.186 mean= 0.410
 gam= 0.721 g(H,U,f)=  0.416E+05 0.432E+04 0.323E+02 ort(H,U,f) = 0.877E+04-0.175E+04-0.711E+02
CGA:  10     0.144851336559E+05   -0.11444E+04   -0.76751E+04  5064   0.459E+05 0.695E+04
 gam= 0.721 trial= 0.399  step= 0.240 mean= 0.399
 gam= 0.904 g(H,U,f)=  0.380E+05 0.343E+04 0.277E+02 ort(H,U,f) = 0.976E+04 0.115E+04 0.435E+02
CGA:  11     0.104608498014E+05   -0.40243E+04   -0.61023E+04  5064   0.415E+05 0.109E+05
 gam= 0.904 trial= 0.391  step= 0.220 mean= 0.391
 gam= 0.426 g(H,U,f)=  0.162E+05 0.148E+04 0.260E+01 ort(H,U,f) = 0.141E+05 0.657E+03-0.412E+01
CGA:  12     0.794420353783E+04   -0.25166E+04   -0.56581E+04  5064   0.177E+05 0.148E+05
 gam= 0.426 trial= 0.382  step= 0.261 mean= 0.382
 gam= 0.753 g(H,U,f)=  0.122E+05 0.105E+04 0.278E+01 ort(H,U,f) = 0.227E+04 0.597E+03 0.263E+00
CGA:  13     0.546231240790E+04   -0.24819E+04   -0.31260E+04  5064   0.133E+05 0.287E+04
 gam= 0.753 trial= 0.376  step= 0.285 mean= 0.376
 gam= 0.494 g(H,U,f)=  0.606E+04 0.503E+03 0.882E+00 ort(H,U,f) = 0.154E+04 0.803E+03-0.686E+00
CGA:  14     0.354224125977E+04   -0.19201E+04   -0.21984E+04  5064   0.656E+04 0.234E+04
 gam= 0.494 trial= 0.372  step= 0.433 mean= 0.372
 gam= 0.526 g(H,U,f)=  0.298E+04 0.470E+03 0.479E+00 ort(H,U,f) = 0.600E+03 0.704E+03 0.217E+01
CGA:  15     0.180758566445E+04   -0.17347E+04   -0.16706E+04  5064   0.345E+04 0.131E+04
 gam= 0.526 trial= 0.375  step= 0.515 mean= 0.375
 gam= 0.589 g(H,U,f)=  0.158E+04 0.447E+03 0.224E+01 ort(H,U,f) = 0.204E+03-0.950E+02-0.271E+01
CGA:  16     0.720570278324E+03   -0.10870E+04   -0.10669E+04  5064   0.203E+04 0.106E+03
 gam= 0.589 trial= 0.382  step= 0.429 mean= 0.382
 gam= 0.706 g(H,U,f)=  0.865E+03 0.569E+03 0.794E+00 ort(H,U,f) = 0.369E+03-0.322E+03-0.152E+01
CGA:  17     0.268258482089E+03   -0.45231E+03   -0.44990E+03  5064   0.143E+04 0.451E+02
 gam= 0.706 trial= 0.384  step= 0.417 mean= 0.384
 gam= 0.672 g(H,U,f)=  0.519E+03 0.444E+03 0.102E+01 ort(H,U,f) = 0.739E+02-0.150E+02 0.752E+00
CGA:  18    -0.394230527329E+02   -0.30768E+03   -0.30610E+03  5064   0.964E+03 0.597E+02
 gam= 0.672 trial= 0.386  step= 0.459 mean= 0.386
 gam= 0.726 g(H,U,f)=  0.404E+03 0.295E+03 0.430E+00 ort(H,U,f) =-0.620E+02 0.112E+03-0.159E+00
CGA:  19    -0.271843454546E+03   -0.23242E+03   -0.23054E+03  5064   0.700E+03 0.496E+02
 gam= 0.726 trial= 0.389  step= 0.452 mean= 0.389
 gam= 0.700 g(H,U,f)=  0.290E+03 0.200E+03 0.316E+00 ort(H,U,f) =-0.521E+02 0.103E+03 0.527E-01
CGA:  20    -0.439527536817E+03   -0.16768E+03   -0.16631E+03  5064   0.490E+03 0.509E+02
 gam= 0.700 trial= 0.393  step= 0.451 mean= 0.393
 gam= 0.719 g(H,U,f)=  0.206E+03 0.147E+03 0.188E-01 ort(H,U,f) =-0.222E+02 0.747E+02-0.203E+00
CGA:  21    -0.559409522846E+03   -0.11988E+03   -0.11848E+03  5064   0.352E+03 0.523E+02
 gam= 0.719 trial= 0.395  step= 0.451 mean= 0.395
 gam= 0.692 g(H,U,f)=  0.134E+03 0.110E+03 0.148E-01 ort(H,U,f) =-0.984E+01 0.519E+02 0.269E-01
CGA:  22    -0.648431888292E+03   -0.89022E+02   -0.87938E+02  5064   0.244E+03 0.421E+02
 gam= 0.692 trial= 0.398  step= 0.449 mean= 0.398
 gam= 0.722 g(H,U,f)=  0.907E+02 0.849E+02 0.506E+00 ort(H,U,f) =-0.118E+02 0.416E+02 0.732E+00
CGA:  23    -0.710407126845E+03   -0.61975E+02   -0.61239E+02  5064   0.176E+03 0.305E+02
 gam= 0.722 trial= 0.401  step= 0.451 mean= 0.401
 gam= 0.747 g(H,U,f)=  0.679E+02 0.635E+02 0.759E-01 ort(H,U,f) =-0.117E+02 0.321E+02 0.262E+00
CGA:  24    -0.755650586111E+03   -0.45243E+02   -0.44732E+02  5064   0.131E+03 0.206E+02
 gam= 0.747 trial= 0.403  step= 0.427 mean= 0.403
 gam= 0.701 g(H,U,f)=  0.464E+02 0.458E+02 0.639E-01 ort(H,U,f) =-0.602E+01 0.176E+02 0.214E+00
CGA:  25    -0.787153311645E+03   -0.31503E+02   -0.31366E+02  5064   0.922E+02 0.118E+02
 gam= 0.701 trial= 0.404  step= 0.406 mean= 0.404
 gam= 0.709 g(H,U,f)=  0.309E+02 0.344E+02 0.791E-01 ort(H,U,f) =-0.312E+01 0.102E+02-0.739E-01
CGA:  26    -0.807541582117E+03   -0.20388E+02   -0.20384E+02  5064   0.654E+02 0.701E+01
 gam= 0.709 trial= 0.405  step= 0.430 mean= 0.405
 gam= 0.773 g(H,U,f)=  0.236E+02 0.269E+02 0.319E-01 ort(H,U,f) =-0.435E+01 0.885E+01 0.500E-01
CGA:  27    -0.822729026408E+03   -0.15187E+02   -0.15125E+02  5064   0.505E+02 0.456E+01
 gam= 0.773 trial= 0.406  step= 0.449 mean= 0.406
 gam= 0.760 g(H,U,f)=  0.183E+02 0.201E+02 0.601E-02 ort(H,U,f) =-0.469E+01 0.761E+01 0.107E-01
CGA:  28    -0.834917851079E+03   -0.12189E+02   -0.12125E+02  5064   0.384E+02 0.293E+01
 gam= 0.760 trial= 0.408  step= 0.434 mean= 0.408
 gam= 0.736 g(H,U,f)=  0.133E+02 0.149E+02 0.133E-01 ort(H,U,f) =-0.382E+01 0.529E+01-0.601E-02
CGA:  29    -0.843738086639E+03   -0.88202E+01   -0.88064E+01  5064   0.283E+02 0.146E+01
 gam= 0.736 trial= 0.409  step= 0.416 mean= 0.409
 gam= 0.785 g(H,U,f)=  0.106E+02 0.115E+02 0.567E-01 ort(H,U,f) =-0.226E+01 0.332E+01-0.586E-01
CGA:  30    -0.849841955592E+03   -0.61039E+01   -0.61012E+01  5064   0.222E+02 0.100E+01
 gam= 0.785 trial= 0.410  step= 0.411 mean= 0.410
 gam= 0.776 g(H,U,f)=  0.811E+01 0.906E+01 0.313E-01 ort(H,U,f) =-0.848E+00 0.163E+01-0.341E-02
CGA:  31    -0.854555244629E+03   -0.47133E+01   -0.47129E+01  5064   0.172E+02 0.779E+00
 gam= 0.776 trial= 0.410  step= 0.406 mean= 0.410
 gam= 0.736 g(H,U,f)=  0.541E+01 0.725E+01 0.312E-02 ort(H,U,f) =-0.534E+00 0.111E+01 0.568E-02
CGA:  32    -0.858173310908E+03   -0.36181E+01   -0.36190E+01  5064   0.127E+02 0.579E+00
 gam= 0.736 trial= 0.409  step= 0.419 mean= 0.409
 gam= 0.767 g(H,U,f)=  0.403E+01 0.567E+01 0.590E-03 ort(H,U,f) =-0.111E+01 0.147E+01 0.212E-02
CGA:  33    -0.860914460737E+03   -0.27411E+01   -0.27396E+01  5064   0.971E+01 0.369E+00
 gam= 0.767 trial= 0.410  step= 0.433 mean= 0.410
 gam= 0.811 g(H,U,f)=  0.358E+01 0.429E+01 0.125E-03 ort(H,U,f) =-0.109E+01 0.135E+01-0.133E-03
CGA:  34    -0.863077612997E+03   -0.21632E+01   -0.21608E+01  5064   0.787E+01 0.256E+00
 gam= 0.811 trial= 0.411  step= 0.421 mean= 0.411
 gam= 0.788 g(H,U,f)=  0.293E+01 0.327E+01 0.398E-03 ort(H,U,f) =-0.510E+00 0.718E+00-0.153E-02
CGA:  35    -0.864777517692E+03   -0.16999E+01   -0.16991E+01  5064   0.620E+01 0.206E+00
 gam= 0.788 trial= 0.412  step= 0.398 mean= 0.412
 gam= 0.775 g(H,U,f)=  0.219E+01 0.261E+01 0.732E-02 ort(H,U,f) =-0.182E+00 0.352E+00-0.603E-02
CGA:  36    -0.866041888275E+03   -0.12644E+01   -0.12653E+01  5064   0.481E+01 0.165E+00
 gam= 0.775 trial= 0.411  step= 0.391 mean= 0.411
 gam= 0.000 g(H,U,f)=  0.177E+01 0.214E+01 0.108E-01 ort(H,U,f) =-0.205E+00 0.333E+00 0.825E-03
SDA:  37    -0.867004840285E+03   -0.96295E+00   -0.96411E+00  5064   0.392E+01 0.130E+00
 gam= 0.000 trial= 0.410  step= 1.292 mean= 0.410
 gam= 0.594 g(H,U,f)=  0.176E+01 0.569E+00 0.891E-04 ort(H,U,f) =-0.913E+00 0.956E+00-0.247E-04
CGA:  38    -0.869556594565E+03   -0.25518E+01   -0.25325E+01  5064   0.233E+01 0.429E-01
 gam= 0.594 trial= 0.454  step= 0.806 mean= 0.454
 gam= 0.157 g(H,U,f)=  0.316E+00 0.488E-01 0.639E-06 ort(H,U,f) =-0.333E+00 0.327E+00 0.134E-05
CGA:  39    -0.870504364917E+03   -0.94777E+00   -0.94875E+00  5064   0.364E+00-0.592E-02
 gam= 0.157 trial= 0.472  step= 0.915 mean= 0.472
 gam= 0.229 g(H,U,f)=  0.769E-01 0.660E-02 0.107E-04 ort(H,U,f) =-0.187E-01 0.113E-01-0.772E-05
CGA:  40    -0.870669025281E+03   -0.16466E+00   -0.16635E+00  5064   0.835E-01-0.739E-02
 gam= 0.229 trial= 0.494  step= 0.785 mean= 0.494
 gam= 0.145 g(H,U,f)=  0.114E-01 0.725E-03 0.198E-06 ort(H,U,f) = 0.318E-03-0.232E-03 0.832E-06
CGA:  41    -0.870701105736E+03   -0.32080E-01   -0.32112E-01  5064   0.121E-01 0.873E-04
 gam= 0.145 trial= 0.508  step= 0.820 mean= 0.508
 gam= 0.295 g(H,U,f)=  0.317E-02 0.396E-03 0.382E-06 ort(H,U,f) = 0.110E-02-0.682E-04 0.321E-07
CGA:  42    -0.870706247786E+03   -0.51420E-02   -0.49616E-02  5064   0.357E-02 0.104E-02
 gam= 0.295 trial= 0.524  step= 0.834 mean= 0.524
 gam= 0.306 g(H,U,f)=  0.981E-03 0.112E-03 0.344E-07 ort(H,U,f) = 0.307E-03 0.592E-04 0.120E-06
CGA:  43    -0.870707933341E+03   -0.16856E-02   -0.16155E-02  5064   0.109E-02 0.367E-03
 gam= 0.306 trial= 0.539  step= 0.931 mean= 0.539
 gam= 0.419 g(H,U,f)=  0.414E-03 0.446E-04 0.241E-07 ort(H,U,f) = 0.792E-04 0.348E-04-0.125E-08
CGA:  44    -0.870708517300E+03   -0.58396E-03   -0.56094E-03  5064   0.458E-03 0.114E-03
 gam= 0.419 trial= 0.559  step= 0.990 mean= 0.559
 gam= 0.430 g(H,U,f)=  0.189E-03 0.739E-05 0.391E-07 ort(H,U,f) = 0.394E-04 0.473E-05 0.231E-07
CGA:  45    -0.870708779098E+03   -0.26180E-03   -0.25050E-03  5064   0.197E-03 0.442E-04
 gam= 0.430 trial= 0.581  step= 0.860 mean= 0.581
 gam= 0.426 g(H,U,f)=  0.800E-04 0.387E-05 0.931E-08 ort(H,U,f) = 0.102E-04-0.455E-05 0.192E-07
CGA:  46    -0.870708872694E+03   -0.93596E-04   -0.92814E-04  5064   0.839E-04 0.570E-05
 gam= 0.426 trial= 0.595  step= 0.840 mean= 0.595
 gam= 0.367 g(H,U,f)=  0.280E-04 0.281E-05 0.439E-08 ort(H,U,f) = 0.339E-05-0.868E-06-0.129E-07
CGA:  47    -0.870708909281E+03   -0.36587E-04   -0.36261E-04  5064   0.308E-04 0.251E-05
 gam= 0.367 trial= 0.607  step= 0.810 mean= 0.607
 gam= 0.373 g(H,U,f)=  0.102E-04 0.133E-05 0.627E-09 ort(H,U,f) = 0.215E-07 0.104E-05-0.886E-10
CGA:  48    -0.870708922242E+03   -0.12961E-04   -0.12851E-04  5064   0.115E-04 0.106E-05
 gam= 0.373 trial= 0.617  step= 0.910 mean= 0.617
 gam= 0.483 g(H,U,f)=  0.508E-05 0.481E-06 0.967E-09 ort(H,U,f) =-0.336E-06 0.589E-06-0.327E-09
CGA:  49    -0.870708927695E+03   -0.54526E-05   -0.54139E-05  5064   0.556E-05 0.253E-06
 gam= 0.483 trial= 0.632  step= 0.866 mean= 0.632
 final diagonalization
   1 F= -.87070893E+03 E0= -.87070537E+03  d E =-.711607E-02
 writing wavefunctions
Warning: ieee_invalid is signaling
Warning: ieee_divide_by_zero is signaling
Warning: ieee_underflow is signaling
Warning: ieee_inexact is signaling
FORTRAN STOP
Warning: ieee_invalid is signaling
Warning: ieee_divide_by_zero is signaling
Warning: ieee_underflow is signaling
Warning: ieee_inexact is signaling
FORTRAN STOP
Warning: ieee_invalid is signaling
Warning: ieee_divide_by_zero is signaling
Warning: ieee_underflow is signaling
Warning: ieee_inexact is signaling
FORTRAN STOP
Warning: ieee_invalid is signaling
Warning: ieee_divide_by_zero is signaling
Warning: ieee_underflow is signaling
Warning: ieee_inexact is signaling
FORTRAN STOP
