       N       E                     dE             d eps       ncg     rms          ort
DAV:   1    -0.208474526498E+05   -0.20847E+05   -0.54493E+05  5064   0.753E+03
DAV:   2    -0.667993265999E+05   -0.45952E+05   -0.44196E+05  5064   0.127E+03
DAV:   3    -0.728467877833E+05   -0.60475E+04   -0.54309E+04  5064   0.398E+02
DAV:   4    -0.738206287926E+05   -0.97384E+03   -0.89409E+03  5064   0.137E+02
DAV:   5    -0.413840442082E+05    0.32437E+05   -0.72208E+02  5064   0.625E+01
SDA:   6     0.417966521388E+05    0.83181E+05   -0.72208E+02  5064   0.102E+06 0.000E+00
CGA:   7     0.232897028392E+05   -0.18507E+05   -0.50549E+05  5064   0.127E+06-0.380E+05
CGA:   8     0.211438428879E+05   -0.21459E+04   -0.91350E+04  5064   0.102E+06 0.166E+05
CGA:   9     0.156295283011E+05   -0.55143E+04   -0.13183E+05  5064   0.637E+05 0.302E+05
CGA:  10     0.144851336559E+05   -0.11444E+04   -0.76751E+04  5064   0.459E+05 0.695E+04
CGA:  11     0.104608498014E+05   -0.40243E+04   -0.61023E+04  5064   0.415E+05 0.109E+05
CGA:  12     0.794420353783E+04   -0.25166E+04   -0.56581E+04  5064   0.177E+05 0.148E+05
CGA:  13     0.546231240790E+04   -0.24819E+04   -0.31260E+04  5064   0.133E+05 0.287E+04
CGA:  14     0.354224125977E+04   -0.19201E+04   -0.21984E+04  5064   0.656E+04 0.234E+04
CGA:  15     0.180758566445E+04   -0.17347E+04   -0.16706E+04  5064   0.345E+04 0.131E+04
CGA:  16     0.720570278324E+03   -0.10870E+04   -0.10669E+04  5064   0.203E+04 0.106E+03
CGA:  17     0.268258482089E+03   -0.45231E+03   -0.44990E+03  5064   0.143E+04 0.451E+02
CGA:  18    -0.394230527329E+02   -0.30768E+03   -0.30610E+03  5064   0.964E+03 0.597E+02
CGA:  19    -0.271843454546E+03   -0.23242E+03   -0.23054E+03  5064   0.700E+03 0.496E+02
CGA:  20    -0.439527536817E+03   -0.16768E+03   -0.16631E+03  5064   0.490E+03 0.509E+02
CGA:  21    -0.559409522846E+03   -0.11988E+03   -0.11848E+03  5064   0.352E+03 0.523E+02
CGA:  22    -0.648431888292E+03   -0.89022E+02   -0.87938E+02  5064   0.244E+03 0.421E+02
CGA:  23    -0.710407126845E+03   -0.61975E+02   -0.61239E+02  5064   0.176E+03 0.305E+02
CGA:  24    -0.755650586111E+03   -0.45243E+02   -0.44732E+02  5064   0.131E+03 0.206E+02
CGA:  25    -0.787153311645E+03   -0.31503E+02   -0.31366E+02  5064   0.922E+02 0.118E+02
CGA:  26    -0.807541582117E+03   -0.20388E+02   -0.20384E+02  5064   0.654E+02 0.701E+01
CGA:  27    -0.822729026408E+03   -0.15187E+02   -0.15125E+02  5064   0.505E+02 0.456E+01
CGA:  28    -0.834917851079E+03   -0.12189E+02   -0.12125E+02  5064   0.384E+02 0.293E+01
CGA:  29    -0.843738086639E+03   -0.88202E+01   -0.88064E+01  5064   0.283E+02 0.146E+01
CGA:  30    -0.849841955592E+03   -0.61039E+01   -0.61012E+01  5064   0.222E+02 0.100E+01
CGA:  31    -0.854555244629E+03   -0.47133E+01   -0.47129E+01  5064   0.172E+02 0.779E+00
CGA:  32    -0.858173310908E+03   -0.36181E+01   -0.36190E+01  5064   0.127E+02 0.579E+00
CGA:  33    -0.860914460737E+03   -0.27411E+01   -0.27396E+01  5064   0.971E+01 0.369E+00
CGA:  34    -0.863077612997E+03   -0.21632E+01   -0.21608E+01  5064   0.787E+01 0.256E+00
CGA:  35    -0.864777517692E+03   -0.16999E+01   -0.16991E+01  5064   0.620E+01 0.206E+00
CGA:  36    -0.866041888275E+03   -0.12644E+01   -0.12653E+01  5064   0.481E+01 0.165E+00
SDA:  37    -0.867004840285E+03   -0.96295E+00   -0.96411E+00  5064   0.392E+01 0.130E+00
CGA:  38    -0.869556594565E+03   -0.25518E+01   -0.25325E+01  5064   0.233E+01 0.429E-01
CGA:  39    -0.870504364917E+03   -0.94777E+00   -0.94875E+00  5064   0.364E+00-0.592E-02
CGA:  40    -0.870669025281E+03   -0.16466E+00   -0.16635E+00  5064   0.835E-01-0.739E-02
CGA:  41    -0.870701105736E+03   -0.32080E-01   -0.32112E-01  5064   0.121E-01 0.873E-04
CGA:  42    -0.870706247786E+03   -0.51420E-02   -0.49616E-02  5064   0.357E-02 0.104E-02
CGA:  43    -0.870707933341E+03   -0.16856E-02   -0.16155E-02  5064   0.109E-02 0.367E-03
CGA:  44    -0.870708517300E+03   -0.58396E-03   -0.56094E-03  5064   0.458E-03 0.114E-03
CGA:  45    -0.870708779098E+03   -0.26180E-03   -0.25050E-03  5064   0.197E-03 0.442E-04
CGA:  46    -0.870708872694E+03   -0.93596E-04   -0.92814E-04  5064   0.839E-04 0.570E-05
CGA:  47    -0.870708909281E+03   -0.36587E-04   -0.36261E-04  5064   0.308E-04 0.251E-05
CGA:  48    -0.870708922242E+03   -0.12961E-04   -0.12851E-04  5064   0.115E-04 0.106E-05
CGA:  49    -0.870708927695E+03   -0.54526E-05   -0.54139E-05  5064   0.556E-05 0.253E-06
   1 F= -.87070893E+03 E0= -.87070537E+03  d E =-.711607E-02
