<?xml version="1.0" encoding="ISO-8859-1"?>
<modeling>
 <generator>
  <i name="program" type="string">vasp </i>
  <i name="version" type="string">6.4.2  </i>
  <i name="subversion" type="string">20Jul23 (build Nov 12 2023 22:16:35) complex                          parallel </i>
  <i name="platform" type="string">LinuxNV </i>
  <i name="date" type="string">2025 03 15 </i>
  <i name="time" type="string">03:10:12 </i>
 </generator>
 <incar>
  <i type="int" name="ISTART">     0</i>
  <i type="string" name="PREC">Normal</i>
  <i type="string" name="ALGO">All</i>
  <i type="int" name="ISPIN">     1</i>
  <i type="int" name="ICHARG">     0</i>
  <i type="int" name="NELM">   500</i>
  <i type="int" name="IBRION">    -1</i>
  <i name="EDIFF">      0.00001000</i>
  <i name="EDIFFG">     -0.00500000</i>
  <i type="int" name="NSW">     0</i>
  <i type="int" name="ISIF">     2</i>
  <i name="ENCUT">    450.00000000</i>
  <i name="NELECT">   1056.00000000</i>
  <i type="string" name="LREAL">Auto</i>
  <i type="logical" name="LPLANE"> T  </i>
  <i name="TIME">      0.40000000</i>
  <i type="int" name="ISMEAR">     0</i>
  <i name="SIGMA">      0.05000000</i>
  <i type="logical" name="LWAVE"> T  </i>
  <i type="logical" name="LCHARG"> T  </i>
  <i name="HFSCREEN">      0.18000000</i>
  <i type="logical" name="LHFCALC"> T  </i>
  <i type="int" name="LMAXFOCK">     4</i>
  <i name="AEXX">      0.35000000</i>
  <i type="string" name="PRECFOCK">Fast</i>
 </incar>
 <primitive_cell>
  <structure name="primitive_cell" >
   <crystal>
    <varray name="basis" >
     <v>       0.00000000      12.28047342       0.00000000 </v>
     <v>       9.14270205       0.00000000       0.00000000 </v>
     <v>       0.00000000      -2.76826177     -11.30069772 </v>
    </varray>
    <i name="volume">   1268.80515525 </i>
    <varray name="rec_basis" >
     <v>       0.00000000       0.08143009      -0.01994742 </v>
     <v>       0.10937686      -0.00000000       0.00000000 </v>
     <v>       0.00000000       0.00000000      -0.08849011 </v>
    </varray>
   </crystal>
   <varray name="positions" >
    <v>       0.67164779       0.00000000       0.16957799 </v>
    <v>       0.65600614       0.00000000       0.64922566 </v>
    <v>       0.67254023       0.33007681       0.16406095 </v>
    <v>       0.64928279       0.32974776       0.65382934 </v>
    <v>       0.67254023       0.66992319       0.16406095 </v>
    <v>       0.64928279       0.67025224       0.65382934 </v>
    <v>       0.85863287       0.16145963       0.35962145 </v>
    <v>       0.83738011       0.16989825       0.84239544 </v>
    <v>       0.85053135       0.50000000       0.33745201 </v>
    <v>       0.81502930       0.50000000       0.84443139 </v>
    <v>       0.85863287       0.83854037       0.35962145 </v>
    <v>       0.83738011       0.83010175       0.84239544 </v>
    <v>       0.58793655       0.13037293       0.39378713 </v>
    <v>       0.59792685       0.16732778       0.90358912 </v>
    <v>       0.58845849       0.50000000       0.39178272 </v>
    <v>       0.59304883       0.50000000       0.90701587 </v>
    <v>       0.58793655       0.86962707       0.39378713 </v>
    <v>       0.59792685       0.83267222       0.90358912 </v>
    <v>       0.91777431       0.00000000       0.10797013 </v>
    <v>       0.93876483       0.00000000       0.63397309 </v>
    <v>       0.91088650       0.34783901       0.08490498 </v>
    <v>       0.89727104       0.37195879       0.59805058 </v>
    <v>       0.91088650       0.65216099       0.08490498 </v>
    <v>       0.89727104       0.62804121       0.59805058 </v>
    <v>       0.15677809       0.16149063       0.13249525 </v>
    <v>       0.15025955       0.17412001       0.65286832 </v>
    <v>       0.15712081       0.50000000       0.16015346 </v>
    <v>       0.17473191       0.50000000       0.65510557 </v>
    <v>       0.15677809       0.83850937       0.13249525 </v>
    <v>       0.15025955       0.82587999       0.65286832 </v>
    <v>       0.29669592       0.00000000       0.36377304 </v>
    <v>       0.34537415       0.00000000       0.84822686 </v>
    <v>       0.34627011       0.33248519       0.33162448 </v>
    <v>       0.34497166       0.32694127       0.84882740 </v>
    <v>       0.34627011       0.66751481       0.33162448 </v>
    <v>       0.34497166       0.67305873       0.84882740 </v>
    <v>       0.05929015       0.00000000       0.85191823 </v>
    <v>       0.09594424       0.32672287       0.39741111 </v>
    <v>       0.08642340       0.37216362       0.88713374 </v>
    <v>       0.09594424       0.67327713       0.39741111 </v>
    <v>       0.08642340       0.62783638       0.88713374 </v>
    <v>       0.42019886       0.16669034       0.11157917 </v>
    <v>       0.39278785       0.15769135       0.59864192 </v>
    <v>       0.41902614       0.50000000       0.10220895 </v>
    <v>       0.40817696       0.50000000       0.59742780 </v>
    <v>       0.42019886       0.83330966       0.11157917 </v>
    <v>       0.39278785       0.84230865       0.59864192 </v>
    <v>       0.99376799       0.17500373       0.11462622 </v>
    <v>       0.98841090       0.20218570       0.61472525 </v>
    <v>       0.00357327       0.50000000       0.17050959 </v>
    <v>       0.03183773       0.50000000       0.66946782 </v>
    <v>       0.99376799       0.82499627       0.11462622 </v>
    <v>       0.98841090       0.79781430       0.61472525 </v>
    <v>       0.44660706       0.00000000       0.35493914 </v>
    <v>       0.51080261       0.00000000       0.88569265 </v>
    <v>       0.51121081       0.32112372       0.36627117 </v>
    <v>       0.50871574       0.33312806       0.88450209 </v>
    <v>       0.51121081       0.67887628       0.36627117 </v>
    <v>       0.50871574       0.66687194       0.88450209 </v>
    <v>       0.68448373       0.16915121       0.28062279 </v>
    <v>       0.66283065       0.16037669       0.77613175 </v>
    <v>       0.67497470       0.50000000       0.27992833 </v>
    <v>       0.65378989       0.50000000       0.77437586 </v>
    <v>       0.68448373       0.83084879       0.28062279 </v>
    <v>       0.66283065       0.83962331       0.77613175 </v>
    <v>       0.83751564       0.00000000       0.22544995 </v>
    <v>       0.81763946       0.00000000       0.71923164 </v>
    <v>       0.83422915       0.34161184       0.21082485 </v>
    <v>       0.81543282       0.33507551       0.72705239 </v>
    <v>       0.83422915       0.65838816       0.21082485 </v>
    <v>       0.81543282       0.66492449       0.72705239 </v>
    <v>       0.85077146       0.00000000       0.46530102 </v>
    <v>       0.83720679       0.00000000       0.94727702 </v>
    <v>       0.82651298       0.33355517       0.43429400 </v>
    <v>       0.79297741       0.31560410       0.94607290 </v>
    <v>       0.82651298       0.66644483       0.43429400 </v>
    <v>       0.79297741       0.68439590       0.94607290 </v>
    <v>       0.67029034       0.15979861       0.05998646 </v>
    <v>       0.66473411       0.17284207       0.55472476 </v>
    <v>       0.67078853       0.50000000       0.06007765 </v>
    <v>       0.64965799       0.50000000       0.55275788 </v>
    <v>       0.67029034       0.84020139       0.05998646 </v>
    <v>       0.66473411       0.82715793       0.55472476 </v>
    <v>       0.50683719       0.00000000       0.13816156 </v>
    <v>       0.49371724       0.00000000       0.61684685 </v>
    <v>       0.50777494       0.33351169       0.12795833 </v>
    <v>       0.48808267       0.32664718       0.62561414 </v>
    <v>       0.50777494       0.66648831       0.12795833 </v>
    <v>       0.48808267       0.67335282       0.62561414 </v>
    <v>       0.00802150       0.17069568       0.36363509 </v>
    <v>       0.99658178       0.20287534       0.87328156 </v>
    <v>       0.01211967       0.50000000       0.40110607 </v>
    <v>       0.94641321       0.50000000       0.96014050 </v>
    <v>       0.00802150       0.82930432       0.36363509 </v>
    <v>       0.99658178       0.79712466       0.87328156 </v>
    <v>       0.16567538       0.00000000       0.24382147 </v>
    <v>       0.18689805       0.00000000       0.78476149 </v>
    <v>       0.17781395       0.33949367       0.28109230 </v>
    <v>       0.18493917       0.31332050       0.78427541 </v>
    <v>       0.17781395       0.66050633       0.28109230 </v>
    <v>       0.18493917       0.68667950       0.78427541 </v>
    <v>       0.31976740       0.18789864       0.20160964 </v>
    <v>       0.35236536       0.16938319       0.74044056 </v>
    <v>       0.33374663       0.50000000       0.21412064 </v>
    <v>       0.33670920       0.50000000       0.72540730 </v>
    <v>       0.31976740       0.81210136       0.20160964 </v>
    <v>       0.35236536       0.83061681       0.74044056 </v>
    <v>       0.32696354       0.19099188       0.44133895 </v>
    <v>       0.34318199       0.16395846       0.95679532 </v>
    <v>       0.34936596       0.50000000       0.43747964 </v>
    <v>       0.33807002       0.50000000       0.94692139 </v>
    <v>       0.32696354       0.80900812       0.44133895 </v>
    <v>       0.34318199       0.83604154       0.95679532 </v>
    <v>       0.14499044       0.00000000       0.01826142 </v>
    <v>       0.16114638       0.34044648       0.04983928 </v>
    <v>       0.18538066       0.34079566       0.55308230 </v>
    <v>       0.16114638       0.65955352       0.04983928 </v>
    <v>       0.18538066       0.65920434       0.55308230 </v>
    <v>       0.19592706       0.00000000       0.53109164 </v>
   </varray>
  </structure>
  <varray name="primitive_index" >
   <v type="int" >        1 </v>
   <v type="int" >        2 </v>
   <v type="int" >        3 </v>
   <v type="int" >        4 </v>
   <v type="int" >        5 </v>
   <v type="int" >        6 </v>
   <v type="int" >        7 </v>
   <v type="int" >        8 </v>
   <v type="int" >        9 </v>
   <v type="int" >       10 </v>
   <v type="int" >       11 </v>
   <v type="int" >       12 </v>
   <v type="int" >       13 </v>
   <v type="int" >       14 </v>
   <v type="int" >       15 </v>
   <v type="int" >       16 </v>
   <v type="int" >       17 </v>
   <v type="int" >       18 </v>
   <v type="int" >       19 </v>
   <v type="int" >       20 </v>
   <v type="int" >       21 </v>
   <v type="int" >       22 </v>
   <v type="int" >       23 </v>
   <v type="int" >       24 </v>
   <v type="int" >       25 </v>
   <v type="int" >       26 </v>
   <v type="int" >       27 </v>
   <v type="int" >       28 </v>
   <v type="int" >       29 </v>
   <v type="int" >       30 </v>
   <v type="int" >       31 </v>
   <v type="int" >       32 </v>
   <v type="int" >       33 </v>
   <v type="int" >       34 </v>
   <v type="int" >       35 </v>
   <v type="int" >       36 </v>
   <v type="int" >       37 </v>
   <v type="int" >       38 </v>
   <v type="int" >       39 </v>
   <v type="int" >       40 </v>
   <v type="int" >       41 </v>
   <v type="int" >       42 </v>
   <v type="int" >       43 </v>
   <v type="int" >       44 </v>
   <v type="int" >       45 </v>
   <v type="int" >       46 </v>
   <v type="int" >       47 </v>
   <v type="int" >       48 </v>
   <v type="int" >       49 </v>
   <v type="int" >       50 </v>
   <v type="int" >       51 </v>
   <v type="int" >       52 </v>
   <v type="int" >       53 </v>
   <v type="int" >       54 </v>
   <v type="int" >       55 </v>
   <v type="int" >       56 </v>
   <v type="int" >       57 </v>
   <v type="int" >       58 </v>
   <v type="int" >       59 </v>
   <v type="int" >       60 </v>
   <v type="int" >       61 </v>
   <v type="int" >       62 </v>
   <v type="int" >       63 </v>
   <v type="int" >       64 </v>
   <v type="int" >       65 </v>
   <v type="int" >       66 </v>
   <v type="int" >       67 </v>
   <v type="int" >       68 </v>
   <v type="int" >       69 </v>
   <v type="int" >       70 </v>
   <v type="int" >       71 </v>
   <v type="int" >       72 </v>
   <v type="int" >       73 </v>
   <v type="int" >       74 </v>
   <v type="int" >       75 </v>
   <v type="int" >       76 </v>
   <v type="int" >       77 </v>
   <v type="int" >       78 </v>
   <v type="int" >       79 </v>
   <v type="int" >       80 </v>
   <v type="int" >       81 </v>
   <v type="int" >       82 </v>
   <v type="int" >       83 </v>
   <v type="int" >       84 </v>
   <v type="int" >       85 </v>
   <v type="int" >       86 </v>
   <v type="int" >       87 </v>
   <v type="int" >       88 </v>
   <v type="int" >       89 </v>
   <v type="int" >       90 </v>
   <v type="int" >       91 </v>
   <v type="int" >       92 </v>
   <v type="int" >       93 </v>
   <v type="int" >       94 </v>
   <v type="int" >       95 </v>
   <v type="int" >       96 </v>
   <v type="int" >       97 </v>
   <v type="int" >       98 </v>
   <v type="int" >       99 </v>
   <v type="int" >      100 </v>
   <v type="int" >      101 </v>
   <v type="int" >      102 </v>
   <v type="int" >      103 </v>
   <v type="int" >      104 </v>
   <v type="int" >      105 </v>
   <v type="int" >      106 </v>
   <v type="int" >      107 </v>
   <v type="int" >      108 </v>
   <v type="int" >      109 </v>
   <v type="int" >      110 </v>
   <v type="int" >      111 </v>
   <v type="int" >      112 </v>
   <v type="int" >      113 </v>
   <v type="int" >      114 </v>
   <v type="int" >      115 </v>
   <v type="int" >      116 </v>
   <v type="int" >      117 </v>
   <v type="int" >      118 </v>
   <v type="int" >      119 </v>
  </varray>
 </primitive_cell>
 <kpoints>
  <generation param="Gamma">
   <v type="int" name="divisions">       2        2        2 </v>
   <v name="usershift">      0.00000000       0.00000000       0.00000000 </v>
   <v name="genvec1">      0.50000000       0.00000000       0.00000000 </v>
   <v name="genvec2">      0.00000000       0.50000000       0.00000000 </v>
   <v name="genvec3">      0.00000000       0.00000000       0.50000000 </v>
   <v name="shift">      0.00000000       0.00000000       0.00000000 </v>
  </generation>
  <varray name="kpointlist" >
   <v>       0.00000000       0.00000000       0.00000000 </v>
   <v>       0.50000000       0.00000000       0.00000000 </v>
   <v>       0.00000000       0.50000000       0.00000000 </v>
   <v>       0.50000000       0.50000000       0.00000000 </v>
   <v>       0.00000000       0.00000000       0.50000000 </v>
   <v>       0.50000000       0.00000000       0.50000000 </v>
   <v>       0.00000000       0.50000000       0.50000000 </v>
   <v>       0.50000000       0.50000000       0.50000000 </v>
  </varray>
  <varray name="weights" >
   <v>       0.12500000 </v>
   <v>       0.12500000 </v>
   <v>       0.12500000 </v>
   <v>       0.12500000 </v>
   <v>       0.12500000 </v>
   <v>       0.12500000 </v>
   <v>       0.12500000 </v>
   <v>       0.12500000 </v>
  </varray>
 </kpoints>
 <parameters>
  <separator name="general" >
   <i type="string" name="SYSTEM">unknown system</i>
   <i type="logical" name="LCOMPAT"> F  </i>
  </separator>
  <separator name="electronic" >
   <i type="string" name="PREC">normal</i>
   <i name="ENMAX">    450.00000000</i>
   <i name="ENAUG">    605.39200000</i>
   <i name="EDIFF">      0.00001000</i>
   <i type="int" name="IALGO">    58</i>
   <i type="int" name="IWAVPR">    10</i>
   <i type="int" name="NBANDS">   633</i>
   <i type="int" name="NBANDSLOW">    -1</i>
   <i type="int" name="NBANDSHIGH">    -1</i>
   <i name="NELECT">   1056.00000000</i>
   <i type="int" name="TURBO">     0</i>
   <i type="int" name="IRESTART">     0</i>
   <i type="int" name="NREBOOT">     0</i>
   <i type="int" name="NMIN">     0</i>
   <i name="EREF">      0.00000000</i>
   <separator name="electronic smearing" >
    <i type="int" name="ISMEAR">     0</i>
    <i name="SIGMA">      0.05000000</i>
    <i name="KSPACING">      0.50000000</i>
    <i type="logical" name="KGAMMA"> T  </i>
    <i type="logical" name="KBLOWUP"> T  </i>
   </separator>
   <separator name="electronic projectors" >
    <i type="logical" name="LREAL"> T  </i>
    <v name="ROPT">     -0.00050000     -0.00050000     -0.00050000</v>
    <i type="int" name="LMAXPAW">  -100</i>
    <i type="int" name="LMAXMIX">     2</i>
    <i type="logical" name="NLSPLINE"> F  </i>
   </separator>
   <separator name="electronic startup" >
    <i type="int" name="ISTART">     0</i>
    <i type="int" name="ICHARG">     0</i>
    <i type="int" name="INIWAV">     1</i>
   </separator>
   <separator name="electronic spin" >
    <i type="int" name="ISPIN">     1</i>
    <i type="logical" name="LNONCOLLINEAR"> F  </i>
    <v name="MAGMOM">      1.00000000      1.00000000      1.00000000      1.00000000      1.00000000      1.00000000      1.00000000      1.00000000      1.00000000      1.00000000      1.00000000      1.00000000      1.00000000      1.00000000      1.00000000      1.00000000      1.00000000      1.00000000      1.00000000      1.00000000
      1.00000000      1.00000000      1.00000000      1.00000000      1.00000000      1.00000000      1.00000000      1.00000000      1.00000000      1.00000000      1.00000000      1.00000000      1.00000000      1.00000000      1.00000000      1.00000000      1.00000000      1.00000000      1.00000000      1.00000000
      1.00000000      1.00000000      1.00000000      1.00000000      1.00000000      1.00000000      1.00000000      1.00000000      1.00000000      1.00000000      1.00000000      1.00000000      1.00000000      1.00000000      1.00000000      1.00000000      1.00000000      1.00000000      1.00000000      1.00000000
      1.00000000      1.00000000      1.00000000      1.00000000      1.00000000      1.00000000      1.00000000      1.00000000      1.00000000      1.00000000      1.00000000      1.00000000      1.00000000      1.00000000      1.00000000      1.00000000      1.00000000      1.00000000      1.00000000      1.00000000
      1.00000000      1.00000000      1.00000000      1.00000000      1.00000000      1.00000000      1.00000000      1.00000000      1.00000000      1.00000000      1.00000000      1.00000000      1.00000000      1.00000000      1.00000000      1.00000000      1.00000000      1.00000000      1.00000000      1.00000000
      1.00000000      1.00000000      1.00000000      1.00000000      1.00000000      1.00000000      1.00000000      1.00000000      1.00000000      1.00000000      1.00000000      1.00000000      1.00000000      1.00000000      1.00000000      1.00000000      1.00000000      1.00000000      1.00000000</v>
    <i name="NUPDOWN">     -1.00000000</i>
    <i type="logical" name="LSORBIT"> F  </i>
    <v name="SAXIS">      0.00000000      0.00000000      1.00000000</v>
    <i type="logical" name="LSPIRAL"> F  </i>
    <v name="QSPIRAL">      0.00000000      0.00000000      0.00000000</v>
    <i type="logical" name="LZEROZ"> F  </i>
   </separator>
   <separator name="electronic exchange-correlation" >
    <i type="logical" name="LASPH"> F  </i>
    <i type="logical" name="LMETAGGA"> F  </i>
   </separator>
   <separator name="electronic convergence" >
    <i type="int" name="NELM">   500</i>
    <i type="int" name="NELMDL">    -5</i>
    <i type="int" name="NELMIN">     2</i>
    <i name="ENINI">    450.00000000</i>
    <separator name="electronic convergence detail" >
     <i type="logical" name="LDIAG"> T  </i>
     <i type="logical" name="LSUBROT"> F  </i>
     <i name="WEIMIN">      0.00000000</i>
     <i name="EBREAK">      0.00000000</i>
     <i name="DEPER">      0.30000000</i>
     <i type="int" name="NRMM">     4</i>
     <i name="TIME">      0.40000000</i>
    </separator>
   </separator>
   <separator name="electronic mixer" >
    <i name="AMIX">      0.40000000</i>
    <i name="BMIX">      1.00000000</i>
    <i name="AMIN">      0.10000000</i>
    <i name="AMIX_MAG">      1.60000000</i>
    <i name="BMIX_MAG">      1.00000000</i>
    <separator name="electronic mixer details" >
     <i type="int" name="IMIX">     4</i>
     <i type="logical" name="MIXFIRST"> F  </i>
     <i type="int" name="MAXMIX">   -45</i>
     <i name="WC">    100.00000000</i>
     <i type="int" name="INIMIX">     1</i>
     <i type="int" name="MIXPRE">     1</i>
     <i type="int" name="MREMOVE">     5</i>
    </separator>
   </separator>
   <separator name="electronic dipolcorrection" >
    <i type="logical" name="LDIPOL"> F  </i>
    <i type="logical" name="LMONO"> F  </i>
    <i type="int" name="IDIPOL">     0</i>
    <i name="EPSILON">      1.00000000</i>
    <v name="DIPOL">   -100.00000000   -100.00000000   -100.00000000</v>
    <i name="EFIELD">      0.00000000</i>
   </separator>
  </separator>
  <separator name="grids" >
   <i type="int" name="NGX">    64</i>
   <i type="int" name="NGY">    48</i>
   <i type="int" name="NGZ">    60</i>
   <i type="int" name="NGXF">   128</i>
   <i type="int" name="NGYF">    96</i>
   <i type="int" name="NGZF">   120</i>
   <i type="logical" name="ADDGRID"> F  </i>
  </separator>
  <separator name="ionic" >
   <i type="int" name="NSW">     0</i>
   <i type="int" name="IBRION">    -1</i>
   <i type="int" name="MDALGO">     0</i>
   <i type="int" name="ISIF">     2</i>
   <i name="PSTRESS">      0.00000000</i>
   <i name="EDIFFG">     -0.00500000</i>
   <i type="int" name="NFREE">     0</i>
   <i name="POTIM">      0.50000000</i>
   <i name="SMASS">     -3.00000000</i>
   <i name="SCALEE">      1.00000000</i>
  </separator>
  <separator name="ionic md" >
   <i name="TEBEG">      0.00010000</i>
   <i name="TEEND">      0.00010000</i>
   <i type="int" name="NBLOCK">     1</i>
   <i type="int" name="KBLOCK">     1</i>
   <i type="int" name="NPACO">   256</i>
   <i name="APACO">     10.00000000</i>
  </separator>
  <separator name="symmetry" >
   <i type="int" name="ISYM">     3</i>
   <i name="SYMPREC">      0.00001000</i>
  </separator>
  <separator name="dos" >
   <i type="int" name="LORBIT">     0</i>
   <v name="RWIGS">     -1.00000000     -1.00000000     -1.00000000</v>
   <i type="int" name="NEDOS">   301</i>
   <i name="EMIN">     10.00000000</i>
   <i name="EMAX">    -10.00000000</i>
   <i name="EFERMI">      0.00000000</i>
  </separator>
  <separator name="writing" >
   <i type="int" name="NWRITE">     2</i>
   <i type="logical" name="LWAVE"> T  </i>
   <i type="logical" name="LDOWNSAMPLE"> F  </i>
   <i type="logical" name="LCHARG"> T  </i>
   <i type="logical" name="LPARD"> F  </i>
   <i type="logical" name="LVTOT"> F  </i>
   <i type="logical" name="LVHAR"> F  </i>
   <i type="logical" name="LELF"> F  </i>
   <i type="logical" name="LOPTICS"> F  </i>
   <v name="STM">      0.00000000      0.00000000      0.00000000      0.00000000      0.00000000      0.00000000      0.00000000</v>
  </separator>
  <separator name="performance" >
   <i type="int" name="NPAR">     1</i>
   <i type="int" name="NSIM">     4</i>
   <i type="int" name="NBLK">    -1</i>
   <i type="logical" name="LPLANE"> T  </i>
   <i type="logical" name="LSCALAPACK"> T  </i>
   <i type="logical" name="LSCAAWARE"> F  </i>
   <i type="logical" name="LSCALU"> F  </i>
   <i type="logical" name="LASYNC"> F  </i>
   <i type="logical" name="LORBITALREAL"> F  </i>
  </separator>
  <separator name="miscellaneous" >
   <i type="int" name="IDIOT">     3</i>
   <i type="int" name="PHON_NSTRUCT">    -1</i>
   <i type="logical" name="LMUSIC"> F  </i>
   <v name="POMASS">     69.72300000     16.00000000     30.97400000</v>
   <v name="DARWINR">      0.00000000      0.00000000      0.00000000</v>
   <v name="DARWINV">      1.00000000      1.00000000      1.00000000</v>
   <i type="logical" name="LCORR"> T  </i>
  </separator>
  <i type="logical" name="GGA_COMPAT"> T  </i>
  <i type="logical" name="LBERRY"> F  </i>
  <i type="int" name="ICORELEVEL">     0</i>
  <i type="logical" name="LDAU"> F  </i>
  <i type="int" name="I_CONSTRAINED_M">     0</i>
  <separator name="electronic exchange-correlation" >
   <i type="string" name="GGA">--</i>
   <i type="int" name="VOSKOWN">     0</i>
   <i type="logical" name="LHFCALC"> T  </i>
   <i type="string" name="PRECFOCK">fast</i>
   <i type="logical" name="LSYMGRAD"> F  </i>
   <i type="logical" name="LHFONE"> F  </i>
   <i type="logical" name="LRHFCALC"> F  </i>
   <i type="logical" name="LTHOMAS"> F  </i>
   <i type="logical" name="LMODELHF"> F  </i>
   <i type="logical" name="LFOCKACE"> T  </i>
   <i name="ENCUT4O">     -1.00000000</i>
   <i type="int" name="EXXOEP">     0</i>
   <i type="int" name="FOURORBIT">     0</i>
   <i name="AEXX">      0.35000000</i>
   <i name="HFALPHA">     -1.00000000</i>
   <i name="MCALPHA">      0.00000000</i>
   <i name="ALDAX">      0.65000000</i>
   <i name="AGGAX">      0.65000000</i>
   <i name="ALDAC">      1.00000000</i>
   <i name="AGGAC">      1.00000000</i>
   <i type="int" name="NKREDX">     1</i>
   <i type="int" name="NKREDY">     1</i>
   <i type="int" name="NKREDZ">     1</i>
   <i type="logical" name="SHIFTRED"> F  </i>
   <i type="logical" name="ODDONLY"> F  </i>
   <i type="logical" name="EVENONLY"> F  </i>
   <i type="int" name="LMAXFOCK">     4</i>
   <i type="int" name="NMAXFOCKAE">     1</i>
   <i type="logical" name="LFOCKAEDFT"> F  </i>
   <i name="HFSCREEN">      0.18000000</i>
   <i name="HFSCREENC">      0.18000000</i>
   <i type="int" name="NBANDSGWLOW">     1</i>
  </separator>
  <separator name="vdW DFT" >
   <i type="logical" name="LUSE_VDW"> F  </i>
   <i type="int" name="IVDW_NL">     1</i>
   <i type="logical" name="LSPIN_VDW"> F  </i>
   <i name="Zab_VDW">     -0.84910000</i>
   <i name="PARAM1">      0.12340000</i>
   <i name="PARAM2">      1.00000000</i>
   <i name="PARAM3">      0.00000000</i>
  </separator>
  <separator name="model GW" >
   <i type="int" name="MODEL_GW">     0</i>
   <i name="MODEL_EPS0">      6.39733692</i>
   <i name="MODEL_ALPHA">      1.00000000</i>
  </separator>
  <separator name="linear response parameters" >
   <i type="logical" name="LEPSILON"> F  </i>
   <i type="logical" name="LRPA"> F  </i>
   <i type="logical" name="LNABLA"> F  </i>
   <i type="logical" name="LVEL"> F  </i>
   <i name="CSHIFT">      0.10000000</i>
   <i name="OMEGAMAX">     -1.00000000</i>
   <i name="DEG_THRESHOLD">      0.00200000</i>
   <i name="RTIME">     -0.10000000</i>
   <i name="WPLASMAI">      0.00000000</i>
   <v name="DFIELD">      0.00000000      0.00000000      0.00000000</v>
   <v name="WPLASMA">      0.00000000      0.00000000      0.00000000      0.00000000      0.00000000      0.00000000      0.00000000      0.00000000      0.00000000</v>
  </separator>
  <separator name="orbital magnetization" >
   <i type="logical" name="NUCIND"> F  </i>
   <v name="MAGPOS">      0.00000000      0.00000000      0.00000000</v>
   <i type="logical" name="LNICSALL"> T  </i>
   <i type="logical" name="ORBITALMAG"> F  </i>
   <i type="logical" name="LMAGBLOCH"> F  </i>
   <i type="logical" name="LCHIMAG"> F  </i>
   <i type="logical" name="LGAUGE"> T  </i>
   <i type="int" name="MAGATOM">     0</i>
   <v name="MAGDIPOL">      0.00000000      0.00000000      0.00000000</v>
   <v name="AVECCONST">      0.00000000      0.00000000      0.00000000</v>
  </separator>
  <separator name="response functions" >
   <i type="logical" name="LALL_IN_ONE"> F  </i>
   <i type="int" name="IALL_IN_ONE">    -1</i>
   <i type="int" name="NBANDS_WAVE">    -1</i>
   <i type="logical" name="LFINITE_TEMPERATURE"> F  </i>
   <i type="logical" name="LADDER"> F  </i>
   <i type="logical" name="LRPAFORCE"> F  </i>
   <i type="logical" name="LFXC"> F  </i>
   <i type="logical" name="LHARTREE"> T  </i>
   <i type="int" name="IBSE">     0</i>
   <v type="int" name="KPOINT">    -1     0     0     0</v>
   <i type="logical" name="LTCTC"> F  </i>
   <i type="logical" name="LTCTE"> F  </i>
   <i type="logical" name="LTETE"> F  </i>
   <i type="logical" name="LTRIPLET"> F  </i>
   <i type="logical" name="LFXCEPS"> F  </i>
   <i type="logical" name="LFXHEG"> F  </i>
   <i type="int" name="NATURALO">     2</i>
   <i type="logical" name="LHOLEGF"> F  </i>
   <i type="logical" name="L2ORDER"> F  </i>
   <i type="logical" name="LDMP1"> F  </i>
   <i type="logical" name="LMP2LT"> F  </i>
   <i type="logical" name="LSMP2LT"> F  </i>
   <i type="logical" name="LGWLF"> F  </i>
   <i name="ENCUTGW">     -1.60000002</i>
   <i name="ENCUTGWSOFT">     -1.60000002</i>
   <i name="ENCUTLF">     -1.00000000</i>
   <i type="logical" name="LESF_SPLINES"> F  </i>
   <i type="int" name="LMAXMP2">    -1</i>
   <i name="SCISSOR">      0.00000000</i>
   <i type="int" name="NOMEGA">     0</i>
   <i type="int" name="NOMEGAR">     0</i>
   <i type="int" name="NBANDSGW">    -1</i>
   <i type="int" name="NBANDSO">    -1</i>
   <i type="int" name="NBANDSV">    -1</i>
   <i type="int" name="NELMGW">     1</i>
   <i type="int" name="NELMHF">     1</i>
   <i type="int" name="DIM">     3</i>
   <i type="int" name="IESPILON">     4</i>
   <i type="int" name="ANTIRES">     0</i>
   <i name="OMEGAMAX">    -30.00000000</i>
   <i name="OMEGAMIN">    -30.00000000</i>
   <i name="OMEGATL">   -200.00000000</i>
   <i type="int" name="OMEGAGRID">     0</i>
   <i name="CSHIFT">     -0.10000000</i>
   <i type="logical" name="LSELFENERGY"> F  </i>
   <i type="logical" name="LSPECTRAL"> F  </i>
   <i type="logical" name="LSPECTRALGW"> F  </i>
   <i type="logical" name="LSINGLES"> F  </i>
   <i type="logical" name="LFERMIGW"> F  </i>
   <i type="logical" name="ODDONLYGW"> F  </i>
   <i type="logical" name="EVENONLYGW"> F  </i>
   <i type="int" name="NKREDLFX">     1</i>
   <i type="int" name="NKREDLFY">     1</i>
   <i type="int" name="NKREDLFZ">     1</i>
   <i type="int" name="MAXMEM">  2800</i>
   <i type="int" name="TELESCOPE">     0</i>
   <i type="int" name="NTAUPAR">    -1</i>
   <i type="int" name="NOMEGAPAR">    -1</i>
   <i name="DAMP_NEWTON">      0.80000001</i>
   <i name="LAMBDA">      1.00000000</i>
  </separator>
  <separator name="External order field" >
   <i name="OFIELD_KAPPA">      0.00000000</i>
   <v name="OFIELD_K">      0.00000000      0.00000000      0.00000000</v>
   <i name="OFIELD_Q6_NEAR">      0.00000000</i>
   <i name="OFIELD_Q6_FAR">      0.00000000</i>
   <i name="OFIELD_A">      0.00000000</i>
  </separator>
  <separator name="optional k-points parameters" >
   <i type="int" name="KPOINTS_OPT_MODE">     1</i>
   <i type="logical" name="LKPOINTS_OPT"> F  </i>
  </separator>
 </parameters>
 <atominfo>
  <atoms>     119 </atoms>
  <types>       3 </types>
  <array name="atoms" >
   <dimension dim="1">ion</dimension>
   <field type="string">element</field>
   <field type="int">atomtype</field>
   <set>
    <rc><c>Ga</c><c>   1</c></rc>
    <rc><c>Ga</c><c>   1</c></rc>
    <rc><c>Ga</c><c>   1</c></rc>
    <rc><c>Ga</c><c>   1</c></rc>
    <rc><c>Ga</c><c>   1</c></rc>
    <rc><c>Ga</c><c>   1</c></rc>
    <rc><c>Ga</c><c>   1</c></rc>
    <rc><c>Ga</c><c>   1</c></rc>
    <rc><c>Ga</c><c>   1</c></rc>
    <rc><c>Ga</c><c>   1</c></rc>
    <rc><c>Ga</c><c>   1</c></rc>
    <rc><c>Ga</c><c>   1</c></rc>
    <rc><c>Ga</c><c>   1</c></rc>
    <rc><c>Ga</c><c>   1</c></rc>
    <rc><c>Ga</c><c>   1</c></rc>
    <rc><c>Ga</c><c>   1</c></rc>
    <rc><c>Ga</c><c>   1</c></rc>
    <rc><c>Ga</c><c>   1</c></rc>
    <rc><c>Ga</c><c>   1</c></rc>
    <rc><c>Ga</c><c>   1</c></rc>
    <rc><c>Ga</c><c>   1</c></rc>
    <rc><c>Ga</c><c>   1</c></rc>
    <rc><c>Ga</c><c>   1</c></rc>
    <rc><c>Ga</c><c>   1</c></rc>
    <rc><c>Ga</c><c>   1</c></rc>
    <rc><c>Ga</c><c>   1</c></rc>
    <rc><c>Ga</c><c>   1</c></rc>
    <rc><c>Ga</c><c>   1</c></rc>
    <rc><c>Ga</c><c>   1</c></rc>
    <rc><c>Ga</c><c>   1</c></rc>
    <rc><c>Ga</c><c>   1</c></rc>
    <rc><c>Ga</c><c>   1</c></rc>
    <rc><c>Ga</c><c>   1</c></rc>
    <rc><c>Ga</c><c>   1</c></rc>
    <rc><c>Ga</c><c>   1</c></rc>
    <rc><c>Ga</c><c>   1</c></rc>
    <rc><c>Ga</c><c>   1</c></rc>
    <rc><c>Ga</c><c>   1</c></rc>
    <rc><c>Ga</c><c>   1</c></rc>
    <rc><c>Ga</c><c>   1</c></rc>
    <rc><c>Ga</c><c>   1</c></rc>
    <rc><c>Ga</c><c>   1</c></rc>
    <rc><c>Ga</c><c>   1</c></rc>
    <rc><c>Ga</c><c>   1</c></rc>
    <rc><c>Ga</c><c>   1</c></rc>
    <rc><c>Ga</c><c>   1</c></rc>
    <rc><c>Ga</c><c>   1</c></rc>
    <rc><c>O </c><c>   2</c></rc>
    <rc><c>O </c><c>   2</c></rc>
    <rc><c>O </c><c>   2</c></rc>
    <rc><c>O </c><c>   2</c></rc>
    <rc><c>O </c><c>   2</c></rc>
    <rc><c>O </c><c>   2</c></rc>
    <rc><c>O </c><c>   2</c></rc>
    <rc><c>O </c><c>   2</c></rc>
    <rc><c>O </c><c>   2</c></rc>
    <rc><c>O </c><c>   2</c></rc>
    <rc><c>O </c><c>   2</c></rc>
    <rc><c>O </c><c>   2</c></rc>
    <rc><c>O </c><c>   2</c></rc>
    <rc><c>O </c><c>   2</c></rc>
    <rc><c>O </c><c>   2</c></rc>
    <rc><c>O </c><c>   2</c></rc>
    <rc><c>O </c><c>   2</c></rc>
    <rc><c>O </c><c>   2</c></rc>
    <rc><c>O </c><c>   2</c></rc>
    <rc><c>O </c><c>   2</c></rc>
    <rc><c>O </c><c>   2</c></rc>
    <rc><c>O </c><c>   2</c></rc>
    <rc><c>O </c><c>   2</c></rc>
    <rc><c>O </c><c>   2</c></rc>
    <rc><c>O </c><c>   2</c></rc>
    <rc><c>O </c><c>   2</c></rc>
    <rc><c>O </c><c>   2</c></rc>
    <rc><c>O </c><c>   2</c></rc>
    <rc><c>O </c><c>   2</c></rc>
    <rc><c>O </c><c>   2</c></rc>
    <rc><c>O </c><c>   2</c></rc>
    <rc><c>O </c><c>   2</c></rc>
    <rc><c>O </c><c>   2</c></rc>
    <rc><c>O </c><c>   2</c></rc>
    <rc><c>O </c><c>   2</c></rc>
    <rc><c>O </c><c>   2</c></rc>
    <rc><c>O </c><c>   2</c></rc>
    <rc><c>O </c><c>   2</c></rc>
    <rc><c>O </c><c>   2</c></rc>
    <rc><c>O </c><c>   2</c></rc>
    <rc><c>O </c><c>   2</c></rc>
    <rc><c>O </c><c>   2</c></rc>
    <rc><c>O </c><c>   2</c></rc>
    <rc><c>O </c><c>   2</c></rc>
    <rc><c>O </c><c>   2</c></rc>
    <rc><c>O </c><c>   2</c></rc>
    <rc><c>O </c><c>   2</c></rc>
    <rc><c>O </c><c>   2</c></rc>
    <rc><c>O </c><c>   2</c></rc>
    <rc><c>O </c><c>   2</c></rc>
    <rc><c>O </c><c>   2</c></rc>
    <rc><c>O </c><c>   2</c></rc>
    <rc><c>O </c><c>   2</c></rc>
    <rc><c>O </c><c>   2</c></rc>
    <rc><c>O </c><c>   2</c></rc>
    <rc><c>O </c><c>   2</c></rc>
    <rc><c>O </c><c>   2</c></rc>
    <rc><c>O </c><c>   2</c></rc>
    <rc><c>O </c><c>   2</c></rc>
    <rc><c>O </c><c>   2</c></rc>
    <rc><c>O </c><c>   2</c></rc>
    <rc><c>O </c><c>   2</c></rc>
    <rc><c>O </c><c>   2</c></rc>
    <rc><c>O </c><c>   2</c></rc>
    <rc><c>O </c><c>   2</c></rc>
    <rc><c>O </c><c>   2</c></rc>
    <rc><c>O </c><c>   2</c></rc>
    <rc><c>O </c><c>   2</c></rc>
    <rc><c>O </c><c>   2</c></rc>
    <rc><c>O </c><c>   2</c></rc>
    <rc><c>O </c><c>   2</c></rc>
    <rc><c>P </c><c>   3</c></rc>
   </set>
  </array>
  <array name="atomtypes" >
   <dimension dim="1">type</dimension>
   <field type="int">atomspertype</field>
   <field type="string">element</field>
   <field>mass</field>
   <field>valence</field>
   <field type="string">pseudopotential</field>
   <set>
    <rc><c>  47</c><c>Ga</c><c>     69.72300000</c><c>     13.00000000</c><c>  PAW_PBE Ga_d 06Jul2010                </c></rc>
    <rc><c>  71</c><c>O </c><c>     16.00000000</c><c>      6.00000000</c><c>   PAW_PBE O 08Apr2002                  </c></rc>
    <rc><c>   1</c><c>P </c><c>     30.97400000</c><c>      5.00000000</c><c>  PAW_PBE P 06Sep2000                   </c></rc>
   </set>
  </array>
 </atominfo>
 <structure name="initialpos" >
  <crystal>
   <varray name="basis" >
    <v>       0.00000000      12.28047342       0.00000000 </v>
    <v>       9.14270205       0.00000000       0.00000000 </v>
    <v>       0.00000000      -2.76826177     -11.30069772 </v>
   </varray>
   <i name="volume">   1268.80515525 </i>
   <varray name="rec_basis" >
    <v>       0.00000000       0.08143009      -0.01994742 </v>
    <v>       0.10937686      -0.00000000       0.00000000 </v>
    <v>       0.00000000       0.00000000      -0.08849011 </v>
   </varray>
  </crystal>
  <varray name="positions" >
   <v>       0.67164779       0.00000000       0.16957799 </v>
   <v>       0.65600614       0.00000000       0.64922566 </v>
   <v>       0.67254023       0.33007681       0.16406095 </v>
   <v>       0.64928279       0.32974776       0.65382934 </v>
   <v>       0.67254023       0.66992319       0.16406095 </v>
   <v>       0.64928279       0.67025224       0.65382934 </v>
   <v>       0.85863287       0.16145963       0.35962145 </v>
   <v>       0.83738011       0.16989825       0.84239544 </v>
   <v>       0.85053135       0.50000000       0.33745201 </v>
   <v>       0.81502930       0.50000000       0.84443139 </v>
   <v>       0.85863287       0.83854037       0.35962145 </v>
   <v>       0.83738011       0.83010175       0.84239544 </v>
   <v>       0.58793655       0.13037293       0.39378713 </v>
   <v>       0.59792685       0.16732778       0.90358912 </v>
   <v>       0.58845849       0.50000000       0.39178272 </v>
   <v>       0.59304883       0.50000000       0.90701587 </v>
   <v>       0.58793655       0.86962707       0.39378713 </v>
   <v>       0.59792685       0.83267222       0.90358912 </v>
   <v>       0.91777431       0.00000000       0.10797013 </v>
   <v>       0.93876483       0.00000000       0.63397309 </v>
   <v>       0.91088650       0.34783901       0.08490498 </v>
   <v>       0.89727104       0.37195879       0.59805058 </v>
   <v>       0.91088650       0.65216099       0.08490498 </v>
   <v>       0.89727104       0.62804121       0.59805058 </v>
   <v>       0.15677809       0.16149063       0.13249525 </v>
   <v>       0.15025955       0.17412001       0.65286832 </v>
   <v>       0.15712081       0.50000000       0.16015346 </v>
   <v>       0.17473191       0.50000000       0.65510557 </v>
   <v>       0.15677809       0.83850937       0.13249525 </v>
   <v>       0.15025955       0.82587999       0.65286832 </v>
   <v>       0.29669592       0.00000000       0.36377304 </v>
   <v>       0.34537415       0.00000000       0.84822686 </v>
   <v>       0.34627011       0.33248519       0.33162448 </v>
   <v>       0.34497166       0.32694127       0.84882740 </v>
   <v>       0.34627011       0.66751481       0.33162448 </v>
   <v>       0.34497166       0.67305873       0.84882740 </v>
   <v>       0.05929015       0.00000000       0.85191823 </v>
   <v>       0.09594424       0.32672287       0.39741111 </v>
   <v>       0.08642340       0.37216362       0.88713374 </v>
   <v>       0.09594424       0.67327713       0.39741111 </v>
   <v>       0.08642340       0.62783638       0.88713374 </v>
   <v>       0.42019886       0.16669034       0.11157917 </v>
   <v>       0.39278785       0.15769135       0.59864192 </v>
   <v>       0.41902614       0.50000000       0.10220895 </v>
   <v>       0.40817696       0.50000000       0.59742780 </v>
   <v>       0.42019886       0.83330966       0.11157917 </v>
   <v>       0.39278785       0.84230865       0.59864192 </v>
   <v>       0.99376799       0.17500373       0.11462622 </v>
   <v>       0.98841090       0.20218570       0.61472525 </v>
   <v>       0.00357327       0.50000000       0.17050959 </v>
   <v>       0.03183773       0.50000000       0.66946782 </v>
   <v>       0.99376799       0.82499627       0.11462622 </v>
   <v>       0.98841090       0.79781430       0.61472525 </v>
   <v>       0.44660706       0.00000000       0.35493914 </v>
   <v>       0.51080261       0.00000000       0.88569265 </v>
   <v>       0.51121081       0.32112372       0.36627117 </v>
   <v>       0.50871574       0.33312806       0.88450209 </v>
   <v>       0.51121081       0.67887628       0.36627117 </v>
   <v>       0.50871574       0.66687194       0.88450209 </v>
   <v>       0.68448373       0.16915121       0.28062279 </v>
   <v>       0.66283065       0.16037669       0.77613175 </v>
   <v>       0.67497470       0.50000000       0.27992833 </v>
   <v>       0.65378989       0.50000000       0.77437586 </v>
   <v>       0.68448373       0.83084879       0.28062279 </v>
   <v>       0.66283065       0.83962331       0.77613175 </v>
   <v>       0.83751564       0.00000000       0.22544995 </v>
   <v>       0.81763946       0.00000000       0.71923164 </v>
   <v>       0.83422915       0.34161184       0.21082485 </v>
   <v>       0.81543282       0.33507551       0.72705239 </v>
   <v>       0.83422915       0.65838816       0.21082485 </v>
   <v>       0.81543282       0.66492449       0.72705239 </v>
   <v>       0.85077146       0.00000000       0.46530102 </v>
   <v>       0.83720679       0.00000000       0.94727702 </v>
   <v>       0.82651298       0.33355517       0.43429400 </v>
   <v>       0.79297741       0.31560410       0.94607290 </v>
   <v>       0.82651298       0.66644483       0.43429400 </v>
   <v>       0.79297741       0.68439590       0.94607290 </v>
   <v>       0.67029034       0.15979861       0.05998646 </v>
   <v>       0.66473411       0.17284207       0.55472476 </v>
   <v>       0.67078853       0.50000000       0.06007765 </v>
   <v>       0.64965799       0.50000000       0.55275788 </v>
   <v>       0.67029034       0.84020139       0.05998646 </v>
   <v>       0.66473411       0.82715793       0.55472476 </v>
   <v>       0.50683719       0.00000000       0.13816156 </v>
   <v>       0.49371724       0.00000000       0.61684685 </v>
   <v>       0.50777494       0.33351169       0.12795833 </v>
   <v>       0.48808267       0.32664718       0.62561414 </v>
   <v>       0.50777494       0.66648831       0.12795833 </v>
   <v>       0.48808267       0.67335282       0.62561414 </v>
   <v>       0.00802150       0.17069568       0.36363509 </v>
   <v>       0.99658178       0.20287534       0.87328156 </v>
   <v>       0.01211967       0.50000000       0.40110607 </v>
   <v>       0.94641321       0.50000000       0.96014050 </v>
   <v>       0.00802150       0.82930432       0.36363509 </v>
   <v>       0.99658178       0.79712466       0.87328156 </v>
   <v>       0.16567538       0.00000000       0.24382147 </v>
   <v>       0.18689805       0.00000000       0.78476149 </v>
   <v>       0.17781395       0.33949367       0.28109230 </v>
   <v>       0.18493917       0.31332050       0.78427541 </v>
   <v>       0.17781395       0.66050633       0.28109230 </v>
   <v>       0.18493917       0.68667950       0.78427541 </v>
   <v>       0.31976740       0.18789864       0.20160964 </v>
   <v>       0.35236536       0.16938319       0.74044056 </v>
   <v>       0.33374663       0.50000000       0.21412064 </v>
   <v>       0.33670920       0.50000000       0.72540730 </v>
   <v>       0.31976740       0.81210136       0.20160964 </v>
   <v>       0.35236536       0.83061681       0.74044056 </v>
   <v>       0.32696354       0.19099188       0.44133895 </v>
   <v>       0.34318199       0.16395846       0.95679532 </v>
   <v>       0.34936596       0.50000000       0.43747964 </v>
   <v>       0.33807002       0.50000000       0.94692139 </v>
   <v>       0.32696354       0.80900812       0.44133895 </v>
   <v>       0.34318199       0.83604154       0.95679532 </v>
   <v>       0.14499044       0.00000000       0.01826142 </v>
   <v>       0.16114638       0.34044648       0.04983928 </v>
   <v>       0.18538066       0.34079566       0.55308230 </v>
   <v>       0.16114638       0.65955352       0.04983928 </v>
   <v>       0.18538066       0.65920434       0.55308230 </v>
   <v>       0.19592706       0.00000000       0.53109164 </v>
  </varray>
 </structure>
 <calculation>
  <scstep>
   <time name="total">    3.97    3.98</time>
   <energy>
    <i name="alphaZ">   5376.25786726 </i>
    <i name="ewald"> -86471.71720945 </i>
    <i name="hartreedc">  -2126.59831253 </i>
    <i name="XCdc">   2816.07945976 </i>
    <i name="pawpsdc"> 342963.60876573 </i>
    <i name="pawaedc">-374331.81186666 </i>
    <i name="eentropy">     -0.00967304 </i>
    <i name="bandstr"> -40532.61226444 </i>
    <i name="atom"> 131459.35058357 </i>
    <i name="e_fr_energy"> -20847.45264980 </i>
    <i name="e_wo_entrp"> -20847.44297676 </i>
    <i name="e_0_energy"> -20847.44781328 </i>
   </energy>
  </scstep>
  <scstep>
   <time name="total">    3.08    3.08</time>
   <energy>
    <i name="e_fr_energy"> -66799.32659992 </i>
    <i name="e_wo_entrp"> -66799.30818951 </i>
    <i name="e_0_energy"> -66799.31739472 </i>
   </energy>
  </scstep>
  <scstep>
   <time name="total">    3.48    3.48</time>
   <energy>
    <i name="e_fr_energy"> -72846.78778334 </i>
    <i name="e_wo_entrp"> -72846.76974185 </i>
    <i name="e_0_energy"> -72846.77876260 </i>
   </energy>
  </scstep>
  <scstep>
   <time name="total">    3.87    3.87</time>
   <energy>
    <i name="e_fr_energy"> -73820.62879259 </i>
    <i name="e_wo_entrp"> -73820.60774973 </i>
    <i name="e_0_energy"> -73820.61827116 </i>
   </energy>
  </scstep>
  <scstep>
   <time name="total">  235.70  235.70</time>
   <energy>
    <i name="e_fr_energy"> -41384.04420821 </i>
    <i name="e_wo_entrp"> -41384.04303282 </i>
    <i name="e_0_energy"> -41384.04362052 </i>
   </energy>
  </scstep>
  <scstep>
   <time name="total">  469.98  469.95</time>
   <energy>
    <i name="e_fr_energy">  41796.65213883 </i>
    <i name="e_wo_entrp">  41796.67977346 </i>
    <i name="e_0_energy">  41796.66595614 </i>
   </energy>
  </scstep>
  <scstep>
   <time name="total">  469.39  469.35</time>
   <energy>
    <i name="e_fr_energy">  23289.70283917 </i>
    <i name="e_wo_entrp">  23289.70479046 </i>
    <i name="e_0_energy">  23289.70381482 </i>
   </energy>
  </scstep>
  <scstep>
   <time name="total">  468.67  468.64</time>
   <energy>
    <i name="e_fr_energy">  21143.84288789 </i>
    <i name="e_wo_entrp">  21143.86637624 </i>
    <i name="e_0_energy">  21143.85463207 </i>
   </energy>
  </scstep>
  <scstep>
   <time name="total">  469.22  469.13</time>
   <energy>
    <i name="e_fr_energy">  15629.52830106 </i>
    <i name="e_wo_entrp">  15629.54385028 </i>
    <i name="e_0_energy">  15629.53607567 </i>
   </energy>
  </scstep>
  <scstep>
   <time name="total">  469.01  468.94</time>
   <energy>
    <i name="e_fr_energy">  14485.13365592 </i>
    <i name="e_wo_entrp">  14485.14120831 </i>
    <i name="e_0_energy">  14485.13743212 </i>
   </energy>
  </scstep>
  <scstep>
   <time name="total">  468.90  468.82</time>
   <energy>
    <i name="e_fr_energy">  10460.84980143 </i>
    <i name="e_wo_entrp">  10460.85929180 </i>
    <i name="e_0_energy">  10460.85454661 </i>
   </energy>
  </scstep>
  <scstep>
   <time name="total">  468.73  468.65</time>
   <energy>
    <i name="e_fr_energy">   7944.20353783 </i>
    <i name="e_wo_entrp">   7944.21579534 </i>
    <i name="e_0_energy">   7944.20966659 </i>
   </energy>
  </scstep>
  <scstep>
   <time name="total">  468.95  468.88</time>
   <energy>
    <i name="e_fr_energy">   5462.31240790 </i>
    <i name="e_wo_entrp">   5462.32203027 </i>
    <i name="e_0_energy">   5462.31721909 </i>
   </energy>
  </scstep>
  <scstep>
   <time name="total">  468.54  468.46</time>
   <energy>
    <i name="e_fr_energy">   3542.24125977 </i>
    <i name="e_wo_entrp">   3542.25084655 </i>
    <i name="e_0_energy">   3542.24605316 </i>
   </energy>
  </scstep>
  <scstep>
   <time name="total">  469.53  469.46</time>
   <energy>
    <i name="e_fr_energy">   1807.58566445 </i>
    <i name="e_wo_entrp">   1807.60565455 </i>
    <i name="e_0_energy">   1807.59565950 </i>
   </energy>
  </scstep>
  <scstep>
   <time name="total">  469.38  469.31</time>
   <energy>
    <i name="e_fr_energy">    720.57027832 </i>
    <i name="e_wo_entrp">    720.58308271 </i>
    <i name="e_0_energy">    720.57668052 </i>
   </energy>
  </scstep>
  <scstep>
   <time name="total">  469.65  469.58</time>
   <energy>
    <i name="e_fr_energy">    268.25848209 </i>
    <i name="e_wo_entrp">    268.27011836 </i>
    <i name="e_0_energy">    268.26430022 </i>
   </energy>
  </scstep>
  <scstep>
   <time name="total">  469.45  469.38</time>
   <energy>
    <i name="e_fr_energy">    -39.42305273 </i>
    <i name="e_wo_entrp">    -39.41273377 </i>
    <i name="e_0_energy">    -39.41789325 </i>
   </energy>
  </scstep>
  <scstep>
   <time name="total">  468.79  468.75</time>
   <energy>
    <i name="e_fr_energy">   -271.84345455 </i>
    <i name="e_wo_entrp">   -271.83868260 </i>
    <i name="e_0_energy">   -271.84106857 </i>
   </energy>
  </scstep>
  <scstep>
   <time name="total">  469.15  469.08</time>
   <energy>
    <i name="e_fr_energy">   -439.52753682 </i>
    <i name="e_wo_entrp">   -439.52039747 </i>
    <i name="e_0_energy">   -439.52396714 </i>
   </energy>
  </scstep>
  <scstep>
   <time name="total">  468.79  468.72</time>
   <energy>
    <i name="e_fr_energy">   -559.40952285 </i>
    <i name="e_wo_entrp">   -559.40854718 </i>
    <i name="e_0_energy">   -559.40903501 </i>
   </energy>
  </scstep>
  <scstep>
   <time name="total">  468.56  468.49</time>
   <energy>
    <i name="e_fr_energy">   -648.43188829 </i>
    <i name="e_wo_entrp">   -648.41779403 </i>
    <i name="e_0_energy">   -648.42484116 </i>
   </energy>
  </scstep>
  <scstep>
   <time name="total">  468.58  468.51</time>
   <energy>
    <i name="e_fr_energy">   -710.40712685 </i>
    <i name="e_wo_entrp">   -710.39398629 </i>
    <i name="e_0_energy">   -710.40055657 </i>
   </energy>
  </scstep>
  <scstep>
   <time name="total">  468.73  468.64</time>
   <energy>
    <i name="e_fr_energy">   -755.65058611 </i>
    <i name="e_wo_entrp">   -755.64080375 </i>
    <i name="e_0_energy">   -755.64569493 </i>
   </energy>
  </scstep>
  <scstep>
   <time name="total">  468.82  468.75</time>
   <energy>
    <i name="e_fr_energy">   -787.15331165 </i>
    <i name="e_wo_entrp">   -787.14357179 </i>
    <i name="e_0_energy">   -787.14844172 </i>
   </energy>
  </scstep>
  <scstep>
   <time name="total">  468.73  468.66</time>
   <energy>
    <i name="e_fr_energy">   -807.54158212 </i>
    <i name="e_wo_entrp">   -807.53527739 </i>
    <i name="e_0_energy">   -807.53842975 </i>
   </energy>
  </scstep>
  <scstep>
   <time name="total">  468.50  468.43</time>
   <energy>
    <i name="e_fr_energy">   -822.72902641 </i>
    <i name="e_wo_entrp">   -822.72643139 </i>
    <i name="e_0_energy">   -822.72772890 </i>
   </energy>
  </scstep>
  <scstep>
   <time name="total">  468.14  468.07</time>
   <energy>
    <i name="e_fr_energy">   -834.91785108 </i>
    <i name="e_wo_entrp">   -834.90973640 </i>
    <i name="e_0_energy">   -834.91379374 </i>
   </energy>
  </scstep>
  <scstep>
   <time name="total">  468.72  468.65</time>
   <energy>
    <i name="e_fr_energy">   -843.73808664 </i>
    <i name="e_wo_entrp">   -843.73252114 </i>
    <i name="e_0_energy">   -843.73530389 </i>
   </energy>
  </scstep>
  <scstep>
   <time name="total">  468.53  468.46</time>
   <energy>
    <i name="e_fr_energy">   -849.84195559 </i>
    <i name="e_wo_entrp">   -849.83700066 </i>
    <i name="e_0_energy">   -849.83947813 </i>
   </energy>
  </scstep>
  <scstep>
   <time name="total">  468.65  468.58</time>
   <energy>
    <i name="e_fr_energy">   -854.55524463 </i>
    <i name="e_wo_entrp">   -854.55064086 </i>
    <i name="e_0_energy">   -854.55294275 </i>
   </energy>
  </scstep>
  <scstep>
   <time name="total">  468.50  468.42</time>
   <energy>
    <i name="e_fr_energy">   -858.17331091 </i>
    <i name="e_wo_entrp">   -858.16745105 </i>
    <i name="e_0_energy">   -858.17038098 </i>
   </energy>
  </scstep>
  <scstep>
   <time name="total">  468.54  468.47</time>
   <energy>
    <i name="e_fr_energy">   -860.91446074 </i>
    <i name="e_wo_entrp">   -860.90754077 </i>
    <i name="e_0_energy">   -860.91100075 </i>
   </energy>
  </scstep>
  <scstep>
   <time name="total">  468.80  468.72</time>
   <energy>
    <i name="e_fr_energy">   -863.07761300 </i>
    <i name="e_wo_entrp">   -863.06987430 </i>
    <i name="e_0_energy">   -863.07374365 </i>
   </energy>
  </scstep>
  <scstep>
   <time name="total">  468.48  468.41</time>
   <energy>
    <i name="e_fr_energy">   -864.77751769 </i>
    <i name="e_wo_entrp">   -864.76906851 </i>
    <i name="e_0_energy">   -864.77329310 </i>
   </energy>
  </scstep>
  <scstep>
   <time name="total">  468.67  468.59</time>
   <energy>
    <i name="e_fr_energy">   -866.04188827 </i>
    <i name="e_wo_entrp">   -866.03368523 </i>
    <i name="e_0_energy">   -866.03778675 </i>
   </energy>
  </scstep>
  <scstep>
   <time name="total">  468.73  468.66</time>
   <energy>
    <i name="e_fr_energy">   -867.00484029 </i>
    <i name="e_wo_entrp">   -866.99776962 </i>
    <i name="e_0_energy">   -867.00130495 </i>
   </energy>
  </scstep>
  <scstep>
   <time name="total">  468.89  468.82</time>
   <energy>
    <i name="e_fr_energy">   -869.55659457 </i>
    <i name="e_wo_entrp">   -869.54951214 </i>
    <i name="e_0_energy">   -869.55305335 </i>
   </energy>
  </scstep>
  <scstep>
   <time name="total">  468.58  468.49</time>
   <energy>
    <i name="e_fr_energy">   -870.50436492 </i>
    <i name="e_wo_entrp">   -870.49727791 </i>
    <i name="e_0_energy">   -870.50082141 </i>
   </energy>
  </scstep>
  <scstep>
   <time name="total">  468.72  468.64</time>
   <energy>
    <i name="e_fr_energy">   -870.66902528 </i>
    <i name="e_wo_entrp">   -870.66192679 </i>
    <i name="e_0_energy">   -870.66547604 </i>
   </energy>
  </scstep>
  <scstep>
   <time name="total">  468.89  468.80</time>
   <energy>
    <i name="e_fr_energy">   -870.70110574 </i>
    <i name="e_wo_entrp">   -870.69399971 </i>
    <i name="e_0_energy">   -870.69755272 </i>
   </energy>
  </scstep>
  <scstep>
   <time name="total">  468.42  468.34</time>
   <energy>
    <i name="e_fr_energy">   -870.70624779 </i>
    <i name="e_wo_entrp">   -870.69913823 </i>
    <i name="e_0_energy">   -870.70269301 </i>
   </energy>
  </scstep>
  <scstep>
   <time name="total">  468.42  468.33</time>
   <energy>
    <i name="e_fr_energy">   -870.70793334 </i>
    <i name="e_wo_entrp">   -870.70082125 </i>
    <i name="e_0_energy">   -870.70437729 </i>
   </energy>
  </scstep>
  <scstep>
   <time name="total">  468.32  468.24</time>
   <energy>
    <i name="e_fr_energy">   -870.70851730 </i>
    <i name="e_wo_entrp">   -870.70140262 </i>
    <i name="e_0_energy">   -870.70495996 </i>
   </energy>
  </scstep>
  <scstep>
   <time name="total">  468.59  468.51</time>
   <energy>
    <i name="e_fr_energy">   -870.70877910 </i>
    <i name="e_wo_entrp">   -870.70166300 </i>
    <i name="e_0_energy">   -870.70522105 </i>
   </energy>
  </scstep>
  <scstep>
   <time name="total">  468.59  468.50</time>
   <energy>
    <i name="e_fr_energy">   -870.70887269 </i>
    <i name="e_wo_entrp">   -870.70175613 </i>
    <i name="e_0_energy">   -870.70531441 </i>
   </energy>
  </scstep>
  <scstep>
   <time name="total">  468.57  468.48</time>
   <energy>
    <i name="e_fr_energy">   -870.70890928 </i>
    <i name="e_wo_entrp">   -870.70179275 </i>
    <i name="e_0_energy">   -870.70535102 </i>
   </energy>
  </scstep>
  <scstep>
   <time name="total">  468.34  468.26</time>
   <energy>
    <i name="e_fr_energy">   -870.70892224 </i>
    <i name="e_wo_entrp">   -870.70180593 </i>
    <i name="e_0_energy">   -870.70536409 </i>
   </energy>
  </scstep>
  <scstep>
   <time name="total">  698.73  698.63</time>
   <energy>
    <i name="alphaZ">   5376.25786726 </i>
    <i name="ewald"> -86471.71720945 </i>
    <i name="hartreedc"> -34111.09276371 </i>
    <i name="XCdc">   2788.22235409 </i>
    <i name="pawpsdc"> 121747.56448394 </i>
    <i name="pawaedc">-136942.29562772 </i>
    <i name="eentropy">     -0.00711607 </i>
    <i name="bandstr">  -9009.51595420 </i>
    <i name="atom"> 131459.35058357 </i>
    <i name="e_fr_energy">   -870.70892769 </i>
    <i name="e_wo_entrp">   -870.70181162 </i>
    <i name="e_0_energy">   -870.70536966 </i>
   </energy>
  </scstep>
  <structure>
   <crystal>
    <varray name="basis" >
     <v>       0.00000000      12.28047342       0.00000000 </v>
     <v>       9.14270205       0.00000000       0.00000000 </v>
     <v>       0.00000000      -2.76826177     -11.30069772 </v>
    </varray>
    <i name="volume">   1268.80515525 </i>
    <varray name="rec_basis" >
     <v>       0.00000000       0.08143009      -0.01994742 </v>
     <v>       0.10937686      -0.00000000       0.00000000 </v>
     <v>       0.00000000       0.00000000      -0.08849011 </v>
    </varray>
   </crystal>
   <varray name="positions" >
    <v>       0.67164779       0.00000000       0.16957799 </v>
    <v>       0.65600614       0.00000000       0.64922566 </v>
    <v>       0.67254023       0.33007681       0.16406095 </v>
    <v>       0.64928279       0.32974776       0.65382934 </v>
    <v>       0.67254023       0.66992319       0.16406095 </v>
    <v>       0.64928279       0.67025224       0.65382934 </v>
    <v>       0.85863287       0.16145963       0.35962145 </v>
    <v>       0.83738011       0.16989825       0.84239544 </v>
    <v>       0.85053135       0.50000000       0.33745201 </v>
    <v>       0.81502930       0.50000000       0.84443139 </v>
    <v>       0.85863287       0.83854037       0.35962145 </v>
    <v>       0.83738011       0.83010175       0.84239544 </v>
    <v>       0.58793655       0.13037293       0.39378713 </v>
    <v>       0.59792685       0.16732778       0.90358912 </v>
    <v>       0.58845849       0.50000000       0.39178272 </v>
    <v>       0.59304883       0.50000000       0.90701587 </v>
    <v>       0.58793655       0.86962707       0.39378713 </v>
    <v>       0.59792685       0.83267222       0.90358912 </v>
    <v>       0.91777431       0.00000000       0.10797013 </v>
    <v>       0.93876483       0.00000000       0.63397309 </v>
    <v>       0.91088650       0.34783901       0.08490498 </v>
    <v>       0.89727104       0.37195879       0.59805058 </v>
    <v>       0.91088650       0.65216099       0.08490498 </v>
    <v>       0.89727104       0.62804121       0.59805058 </v>
    <v>       0.15677809       0.16149063       0.13249525 </v>
    <v>       0.15025955       0.17412001       0.65286832 </v>
    <v>       0.15712081       0.50000000       0.16015346 </v>
    <v>       0.17473191       0.50000000       0.65510557 </v>
    <v>       0.15677809       0.83850937       0.13249525 </v>
    <v>       0.15025955       0.82587999       0.65286832 </v>
    <v>       0.29669592       0.00000000       0.36377304 </v>
    <v>       0.34537415       0.00000000       0.84822686 </v>
    <v>       0.34627011       0.33248519       0.33162448 </v>
    <v>       0.34497166       0.32694127       0.84882740 </v>
    <v>       0.34627011       0.66751481       0.33162448 </v>
    <v>       0.34497166       0.67305873       0.84882740 </v>
    <v>       0.05929015       0.00000000       0.85191823 </v>
    <v>       0.09594424       0.32672287       0.39741111 </v>
    <v>       0.08642340       0.37216362       0.88713374 </v>
    <v>       0.09594424       0.67327713       0.39741111 </v>
    <v>       0.08642340       0.62783638       0.88713374 </v>
    <v>       0.42019886       0.16669034       0.11157917 </v>
    <v>       0.39278785       0.15769135       0.59864192 </v>
    <v>       0.41902614       0.50000000       0.10220895 </v>
    <v>       0.40817696       0.50000000       0.59742780 </v>
    <v>       0.42019886       0.83330966       0.11157917 </v>
    <v>       0.39278785       0.84230865       0.59864192 </v>
    <v>       0.99376799       0.17500373       0.11462622 </v>
    <v>       0.98841090       0.20218570       0.61472525 </v>
    <v>       0.00357327       0.50000000       0.17050959 </v>
    <v>       0.03183773       0.50000000       0.66946782 </v>
    <v>       0.99376799       0.82499627       0.11462622 </v>
    <v>       0.98841090       0.79781430       0.61472525 </v>
    <v>       0.44660706       0.00000000       0.35493914 </v>
    <v>       0.51080261       0.00000000       0.88569265 </v>
    <v>       0.51121081       0.32112372       0.36627117 </v>
    <v>       0.50871574       0.33312806       0.88450209 </v>
    <v>       0.51121081       0.67887628       0.36627117 </v>
    <v>       0.50871574       0.66687194       0.88450209 </v>
    <v>       0.68448373       0.16915121       0.28062279 </v>
    <v>       0.66283065       0.16037669       0.77613175 </v>
    <v>       0.67497470       0.50000000       0.27992833 </v>
    <v>       0.65378989       0.50000000       0.77437586 </v>
    <v>       0.68448373       0.83084879       0.28062279 </v>
    <v>       0.66283065       0.83962331       0.77613175 </v>
    <v>       0.83751564       0.00000000       0.22544995 </v>
    <v>       0.81763946       0.00000000       0.71923164 </v>
    <v>       0.83422915       0.34161184       0.21082485 </v>
    <v>       0.81543282       0.33507551       0.72705239 </v>
    <v>       0.83422915       0.65838816       0.21082485 </v>
    <v>       0.81543282       0.66492449       0.72705239 </v>
    <v>       0.85077146       0.00000000       0.46530102 </v>
    <v>       0.83720679       0.00000000       0.94727702 </v>
    <v>       0.82651298       0.33355517       0.43429400 </v>
    <v>       0.79297741       0.31560410       0.94607290 </v>
    <v>       0.82651298       0.66644483       0.43429400 </v>
    <v>       0.79297741       0.68439590       0.94607290 </v>
    <v>       0.67029034       0.15979861       0.05998646 </v>
    <v>       0.66473411       0.17284207       0.55472476 </v>
    <v>       0.67078853       0.50000000       0.06007765 </v>
    <v>       0.64965799       0.50000000       0.55275788 </v>
    <v>       0.67029034       0.84020139       0.05998646 </v>
    <v>       0.66473411       0.82715793       0.55472476 </v>
    <v>       0.50683719       0.00000000       0.13816156 </v>
    <v>       0.49371724       0.00000000       0.61684685 </v>
    <v>       0.50777494       0.33351169       0.12795833 </v>
    <v>       0.48808267       0.32664718       0.62561414 </v>
    <v>       0.50777494       0.66648831       0.12795833 </v>
    <v>       0.48808267       0.67335282       0.62561414 </v>
    <v>       0.00802150       0.17069568       0.36363509 </v>
    <v>       0.99658178       0.20287534       0.87328156 </v>
    <v>       0.01211967       0.50000000       0.40110607 </v>
    <v>       0.94641321       0.50000000       0.96014050 </v>
    <v>       0.00802150       0.82930432       0.36363509 </v>
    <v>       0.99658178       0.79712466       0.87328156 </v>
    <v>       0.16567538       0.00000000       0.24382147 </v>
    <v>       0.18689805       0.00000000       0.78476149 </v>
    <v>       0.17781395       0.33949367       0.28109230 </v>
    <v>       0.18493917       0.31332050       0.78427541 </v>
    <v>       0.17781395       0.66050633       0.28109230 </v>
    <v>       0.18493917       0.68667950       0.78427541 </v>
    <v>       0.31976740       0.18789864       0.20160964 </v>
    <v>       0.35236536       0.16938319       0.74044056 </v>
    <v>       0.33374663       0.50000000       0.21412064 </v>
    <v>       0.33670920       0.50000000       0.72540730 </v>
    <v>       0.31976740       0.81210136       0.20160964 </v>
    <v>       0.35236536       0.83061681       0.74044056 </v>
    <v>       0.32696354       0.19099188       0.44133895 </v>
    <v>       0.34318199       0.16395846       0.95679532 </v>
    <v>       0.34936596       0.50000000       0.43747964 </v>
    <v>       0.33807002       0.50000000       0.94692139 </v>
    <v>       0.32696354       0.80900812       0.44133895 </v>
    <v>       0.34318199       0.83604154       0.95679532 </v>
    <v>       0.14499044       0.00000000       0.01826142 </v>
    <v>       0.16114638       0.34044648       0.04983928 </v>
    <v>       0.18538066       0.34079566       0.55308230 </v>
    <v>       0.16114638       0.65955352       0.04983928 </v>
    <v>       0.18538066       0.65920434       0.55308230 </v>
    <v>       0.19592706       0.00000000       0.53109164 </v>
   </varray>
  </structure>
  <varray name="forces" >
   <v>       0.00000000       0.03842564      -0.09857356 </v>
   <v>       0.00000000       0.17022672       0.06378004 </v>
   <v>      -0.05028959       0.10522586      -0.11230491 </v>
   <v>      -0.09691990       0.10605128       0.14694581 </v>
   <v>       0.05028959       0.10522586      -0.11230491 </v>
   <v>       0.09691990       0.10605128       0.14694581 </v>
   <v>       0.04906897       0.06094456      -0.19355475 </v>
   <v>       0.12527081      -0.01936014       0.05838612 </v>
   <v>       0.00000000      -0.13541702      -0.16646713 </v>
   <v>       0.00000000       0.00269360      -0.02073735 </v>
   <v>      -0.04906897       0.06094456      -0.19355475 </v>
   <v>      -0.12527081      -0.01936014       0.05838612 </v>
   <v>      -0.07497075       0.14703844      -0.10502446 </v>
   <v>      -0.01652489      -0.08862896       0.01151406 </v>
   <v>       0.00000000       0.08703145      -0.03349677 </v>
   <v>       0.00000000      -0.09858728       0.01968948 </v>
   <v>       0.07497075       0.14703844      -0.10502446 </v>
   <v>       0.01652489      -0.08862896       0.01151406 </v>
   <v>       0.00000000       0.02737248      -0.04364874 </v>
   <v>       0.00000000      -0.16469459      -0.07498468 </v>
   <v>      -0.03641835       0.02840130      -0.14770433 </v>
   <v>       0.00813541       0.08393573       0.09391559 </v>
   <v>       0.03641835       0.02840130      -0.14770433 </v>
   <v>      -0.00813541       0.08393573       0.09391559 </v>
   <v>      -0.04178251       0.03791292      -0.01131387 </v>
   <v>       0.31300595      -0.17090113      -0.15279803 </v>
   <v>       0.00000000      -0.07367584      -0.08191698 </v>
   <v>       0.00000000      -0.21247352       0.12035941 </v>
   <v>       0.04178251       0.03791292      -0.01131387 </v>
   <v>      -0.31300595      -0.17090113      -0.15279803 </v>
   <v>       0.00000000       0.27914871       0.05813432 </v>
   <v>       0.00000000      -0.17593828       0.08427862 </v>
   <v>      -0.10550108      -0.16854987      -0.07242815 </v>
   <v>      -0.18089092      -0.10301625       0.06075712 </v>
   <v>       0.10550108      -0.16854987      -0.07242815 </v>
   <v>       0.18089092      -0.10301625       0.06075712 </v>
   <v>       0.00000000       0.31669899       0.10751405 </v>
   <v>      -0.11151714      -0.03199031       0.06571657 </v>
   <v>      -0.38436907       0.15167636      -0.14376140 </v>
   <v>       0.11151714      -0.03199031       0.06571657 </v>
   <v>       0.38436907       0.15167636      -0.14376140 </v>
   <v>       0.05555505      -0.07920082       0.05967471 </v>
   <v>       0.08066096       0.11204036      -0.05132825 </v>
   <v>       0.00000000      -0.01144126      -0.00624876 </v>
   <v>       0.00000000       0.11516256       0.01397237 </v>
   <v>      -0.05555505      -0.07920082       0.05967471 </v>
   <v>      -0.08066096       0.11204036      -0.05132825 </v>
   <v>      -0.09145080      -0.18185441       0.15463568 </v>
   <v>       0.09879777       0.02509206      -0.01048048 </v>
   <v>       0.00000000      -0.02981687       0.67060059 </v>
   <v>       0.00000000       0.72792919       0.13054459 </v>
   <v>       0.09145080      -0.18185441       0.15463568 </v>
   <v>      -0.09879777       0.02509206      -0.01048048 </v>
   <v>       0.00000000      -0.60848184      -0.07477970 </v>
   <v>       0.00000000       0.29119006      -0.07511126 </v>
   <v>       0.13095806       0.03183806      -0.04855244 </v>
   <v>       0.01781060       0.24655336      -0.09146995 </v>
   <v>      -0.13095806       0.03183806      -0.04855244 </v>
   <v>      -0.01781060       0.24655336      -0.09146995 </v>
   <v>       0.03040374       0.13949859       0.29424480 </v>
   <v>       0.03756667      -0.04976428      -0.21742637 </v>
   <v>       0.00000000      -0.05921340      -0.03960264 </v>
   <v>       0.00000000       0.18682057      -0.29180549 </v>
   <v>      -0.03040374       0.13949859       0.29424480 </v>
   <v>      -0.03756667      -0.04976428      -0.21742637 </v>
   <v>       0.00000000      -0.00433710       0.24297718 </v>
   <v>       0.00000000      -0.27725247      -0.08383831 </v>
   <v>       0.18821203      -0.13808564       0.18691402 </v>
   <v>      -0.05341717      -0.26021207      -0.25009171 </v>
   <v>      -0.18821203      -0.13808564       0.18691402 </v>
   <v>       0.05341717      -0.26021207      -0.25009171 </v>
   <v>       0.00000000       0.44093404       0.20939597 </v>
   <v>       0.00000000       0.34478376      -0.02414465 </v>
   <v>      -0.18963547       0.53345769       0.24684365 </v>
   <v>       0.00669773       0.61578359      -0.00313497 </v>
   <v>       0.18963547       0.53345769       0.24684365 </v>
   <v>      -0.00669773       0.61578359      -0.00313497 </v>
   <v>       0.00493790      -0.32843163       0.12263705 </v>
   <v>       0.07556590      -0.45596887      -0.30110538 </v>
   <v>       0.00000000      -0.34224557       0.12687460 </v>
   <v>       0.00000000      -0.37423937       0.06849744 </v>
   <v>      -0.00493790      -0.32843163       0.12263705 </v>
   <v>      -0.07556590      -0.45596887      -0.30110538 </v>
   <v>       0.00000000      -0.27261183       0.15199816 </v>
   <v>       0.00000000      -0.31875671       0.04775297 </v>
   <v>      -0.03862486      -0.25082565       0.07823021 </v>
   <v>       0.15100922      -0.09998341       0.09930362 </v>
   <v>       0.03862486      -0.25082565       0.07823021 </v>
   <v>      -0.15100922      -0.09998341       0.09930362 </v>
   <v>       0.70539985      -0.40017381      -0.13589609 </v>
   <v>       0.15636967      -0.12543651      -0.01965031 </v>
   <v>       0.00000000       0.20299602       0.26150188 </v>
   <v>       0.00000000      -0.72668789       0.04643815 </v>
   <v>      -0.70539985      -0.40017381      -0.13589609 </v>
   <v>      -0.15636967      -0.12543651      -0.01965031 </v>
   <v>       0.00000000       0.66475602       0.22205520 </v>
   <v>       0.00000000       0.22550376      -0.08458745 </v>
   <v>       0.18240139      -0.05754328      -0.15957921 </v>
   <v>      -0.07917455       0.17269601       0.08828523 </v>
   <v>      -0.18240139      -0.05754328      -0.15957921 </v>
   <v>       0.07917455       0.17269601       0.08828523 </v>
   <v>       0.14821976       0.12760432       0.24555035 </v>
   <v>       0.03492603       0.08824884       0.07405331 </v>
   <v>       0.00000000       0.12725762       0.04729407 </v>
   <v>       0.00000000      -0.16475339       0.27940961 </v>
   <v>      -0.14821976       0.12760432       0.24555035 </v>
   <v>      -0.03492603       0.08824884       0.07405331 </v>
   <v>      -0.09790068       0.31066624      -0.04116039 </v>
   <v>       0.02495755       0.42712573      -0.10875258 </v>
   <v>       0.00000000       0.26860889      -0.13714225 </v>
   <v>       0.00000000       0.42051119      -0.09464628 </v>
   <v>       0.09790068       0.31066624      -0.04116039 </v>
   <v>      -0.02495755       0.42712573      -0.10875258 </v>
   <v>       0.00000000      -0.30000208      -0.16266924 </v>
   <v>      -0.08594121      -0.37062105      -0.14682070 </v>
   <v>       0.10137375      -0.47756515      -0.03742888 </v>
   <v>       0.08594121      -0.37062105      -0.14682070 </v>
   <v>      -0.10137375      -0.47756515      -0.03742888 </v>
   <v>       0.00000000       0.02521888      -0.43034803 </v>
  </varray>
  <varray name="stress" >
   <v>     165.23538829       0.00000000       0.00000000 </v>
   <v>       0.00000000     193.40699486       7.60817610 </v>
   <v>       0.00000000       7.60817765     194.67320089 </v>
  </varray>
  <energy>
   <i name="e_fr_energy">   -870.70892769 </i>
   <i name="e_wo_entrp">   -870.70181162 </i>
   <i name="e_0_energy">   -870.70536966 </i>
  </energy>
  <time name="totalsc">21693.9321692.92</time>
  <eigenvalues>
   <array>
    <dimension dim="1">band</dimension>
    <dimension dim="2">kpoint</dimension>
    <dimension dim="3">spin</dimension>
    <field>eigene</field>
    <field>occ</field>
    <set>
     <set comment="spin 1">
      <set comment="kpoint 1">
       <r>  -19.4026    1.0000 </r>
       <r>  -19.1032    1.0000 </r>
       <r>  -18.9449    1.0000 </r>
       <r>  -18.8387    1.0000 </r>
       <r>  -18.7164    1.0000 </r>
       <r>  -18.7119    1.0000 </r>
       <r>  -18.5876    1.0000 </r>
       <r>  -18.5407    1.0000 </r>
       <r>  -18.4840    1.0000 </r>
       <r>  -18.4274    1.0000 </r>
       <r>  -18.3749    1.0000 </r>
       <r>  -18.3601    1.0000 </r>
       <r>  -18.3367    1.0000 </r>
       <r>  -18.2334    1.0000 </r>
       <r>  -18.1737    1.0000 </r>
       <r>  -18.1700    1.0000 </r>
       <r>  -18.0732    1.0000 </r>
       <r>  -18.0728    1.0000 </r>
       <r>  -18.0295    1.0000 </r>
       <r>  -18.0180    1.0000 </r>
       <r>  -18.0148    1.0000 </r>
       <r>  -17.9598    1.0000 </r>
       <r>  -17.9419    1.0000 </r>
       <r>  -17.9103    1.0000 </r>
       <r>  -17.8939    1.0000 </r>
       <r>  -17.8785    1.0000 </r>
       <r>  -17.8426    1.0000 </r>
       <r>  -17.8312    1.0000 </r>
       <r>  -17.8042    1.0000 </r>
       <r>  -17.7707    1.0000 </r>
       <r>  -17.7480    1.0000 </r>
       <r>  -17.7121    1.0000 </r>
       <r>  -17.7108    1.0000 </r>
       <r>  -17.6891    1.0000 </r>
       <r>  -17.6711    1.0000 </r>
       <r>  -17.6448    1.0000 </r>
       <r>  -17.6197    1.0000 </r>
       <r>  -17.5818    1.0000 </r>
       <r>  -17.5699    1.0000 </r>
       <r>  -17.5415    1.0000 </r>
       <r>  -17.4819    1.0000 </r>
       <r>  -17.4800    1.0000 </r>
       <r>  -17.4615    1.0000 </r>
       <r>  -17.4593    1.0000 </r>
       <r>  -17.4275    1.0000 </r>
       <r>  -17.3504    1.0000 </r>
       <r>  -17.3466    1.0000 </r>
       <r>  -17.3249    1.0000 </r>
       <r>  -17.3224    1.0000 </r>
       <r>  -17.3043    1.0000 </r>
       <r>  -17.2739    1.0000 </r>
       <r>  -17.2646    1.0000 </r>
       <r>  -17.2145    1.0000 </r>
       <r>  -17.2134    1.0000 </r>
       <r>  -17.1840    1.0000 </r>
       <r>  -17.1785    1.0000 </r>
       <r>  -17.1290    1.0000 </r>
       <r>  -17.1288    1.0000 </r>
       <r>  -17.0764    1.0000 </r>
       <r>  -17.0444    1.0000 </r>
       <r>  -17.0140    1.0000 </r>
       <r>  -16.9576    1.0000 </r>
       <r>  -16.8658    1.0000 </r>
       <r>  -16.7909    1.0000 </r>
       <r>  -16.7791    1.0000 </r>
       <r>  -16.7443    1.0000 </r>
       <r>  -16.6915    1.0000 </r>
       <r>  -16.5544    1.0000 </r>
       <r>  -16.3110    1.0000 </r>
       <r>  -16.2639    1.0000 </r>
       <r>  -15.9240    1.0000 </r>
       <r>  -13.9892    1.0000 </r>
       <r>  -13.9393    1.0000 </r>
       <r>  -13.9085    1.0000 </r>
       <r>  -13.8884    1.0000 </r>
       <r>  -13.8819    1.0000 </r>
       <r>  -13.8478    1.0000 </r>
       <r>  -13.8472    1.0000 </r>
       <r>  -13.8430    1.0000 </r>
       <r>  -13.8392    1.0000 </r>
       <r>  -13.8372    1.0000 </r>
       <r>  -13.8268    1.0000 </r>
       <r>  -13.8098    1.0000 </r>
       <r>  -13.8049    1.0000 </r>
       <r>  -13.7967    1.0000 </r>
       <r>  -13.7878    1.0000 </r>
       <r>  -13.7812    1.0000 </r>
       <r>  -13.7798    1.0000 </r>
       <r>  -13.7739    1.0000 </r>
       <r>  -13.7638    1.0000 </r>
       <r>  -13.7600    1.0000 </r>
       <r>  -13.7516    1.0000 </r>
       <r>  -13.7507    1.0000 </r>
       <r>  -13.7380    1.0000 </r>
       <r>  -13.7301    1.0000 </r>
       <r>  -13.7173    1.0000 </r>
       <r>  -13.7100    1.0000 </r>
       <r>  -13.6993    1.0000 </r>
       <r>  -13.6981    1.0000 </r>
       <r>  -13.6950    1.0000 </r>
       <r>  -13.6885    1.0000 </r>
       <r>  -13.6823    1.0000 </r>
       <r>  -13.6817    1.0000 </r>
       <r>  -13.6771    1.0000 </r>
       <r>  -13.6628    1.0000 </r>
       <r>  -13.6491    1.0000 </r>
       <r>  -13.6464    1.0000 </r>
       <r>  -13.6447    1.0000 </r>
       <r>  -13.6379    1.0000 </r>
       <r>  -13.6302    1.0000 </r>
       <r>  -13.6230    1.0000 </r>
       <r>  -13.6210    1.0000 </r>
       <r>  -13.6173    1.0000 </r>
       <r>  -13.6042    1.0000 </r>
       <r>  -13.6042    1.0000 </r>
       <r>  -13.6006    1.0000 </r>
       <r>  -13.5947    1.0000 </r>
       <r>  -13.5923    1.0000 </r>
       <r>  -13.5834    1.0000 </r>
       <r>  -13.5697    1.0000 </r>
       <r>  -13.5583    1.0000 </r>
       <r>  -13.5565    1.0000 </r>
       <r>  -13.5557    1.0000 </r>
       <r>  -13.5549    1.0000 </r>
       <r>  -13.5407    1.0000 </r>
       <r>  -13.5263    1.0000 </r>
       <r>  -13.5234    1.0000 </r>
       <r>  -13.5192    1.0000 </r>
       <r>  -13.5088    1.0000 </r>
       <r>  -13.4950    1.0000 </r>
       <r>  -13.4932    1.0000 </r>
       <r>  -13.4913    1.0000 </r>
       <r>  -13.4855    1.0000 </r>
       <r>  -13.4835    1.0000 </r>
       <r>  -13.4738    1.0000 </r>
       <r>  -13.4683    1.0000 </r>
       <r>  -13.4630    1.0000 </r>
       <r>  -13.4576    1.0000 </r>
       <r>  -13.4489    1.0000 </r>
       <r>  -13.4458    1.0000 </r>
       <r>  -13.4455    1.0000 </r>
       <r>  -13.4428    1.0000 </r>
       <r>  -13.4343    1.0000 </r>
       <r>  -13.4307    1.0000 </r>
       <r>  -13.4284    1.0000 </r>
       <r>  -13.4261    1.0000 </r>
       <r>  -13.4204    1.0000 </r>
       <r>  -13.4186    1.0000 </r>
       <r>  -13.4046    1.0000 </r>
       <r>  -13.4000    1.0000 </r>
       <r>  -13.3925    1.0000 </r>
       <r>  -13.3885    1.0000 </r>
       <r>  -13.3883    1.0000 </r>
       <r>  -13.3817    1.0000 </r>
       <r>  -13.3757    1.0000 </r>
       <r>  -13.3739    1.0000 </r>
       <r>  -13.3642    1.0000 </r>
       <r>  -13.3613    1.0000 </r>
       <r>  -13.3588    1.0000 </r>
       <r>  -13.3529    1.0000 </r>
       <r>  -13.3474    1.0000 </r>
       <r>  -13.3444    1.0000 </r>
       <r>  -13.3351    1.0000 </r>
       <r>  -13.3336    1.0000 </r>
       <r>  -13.3310    1.0000 </r>
       <r>  -13.3198    1.0000 </r>
       <r>  -13.3030    1.0000 </r>
       <r>  -13.2999    1.0000 </r>
       <r>  -13.2976    1.0000 </r>
       <r>  -13.2911    1.0000 </r>
       <r>  -13.2899    1.0000 </r>
       <r>  -13.2892    1.0000 </r>
       <r>  -13.2860    1.0000 </r>
       <r>  -13.2727    1.0000 </r>
       <r>  -13.2637    1.0000 </r>
       <r>  -13.2591    1.0000 </r>
       <r>  -13.2518    1.0000 </r>
       <r>  -13.2459    1.0000 </r>
       <r>  -13.2405    1.0000 </r>
       <r>  -13.2349    1.0000 </r>
       <r>  -13.2309    1.0000 </r>
       <r>  -13.2260    1.0000 </r>
       <r>  -13.2212    1.0000 </r>
       <r>  -13.2144    1.0000 </r>
       <r>  -13.2139    1.0000 </r>
       <r>  -13.2047    1.0000 </r>
       <r>  -13.1978    1.0000 </r>
       <r>  -13.1974    1.0000 </r>
       <r>  -13.1930    1.0000 </r>
       <r>  -13.1918    1.0000 </r>
       <r>  -13.1886    1.0000 </r>
       <r>  -13.1780    1.0000 </r>
       <r>  -13.1725    1.0000 </r>
       <r>  -13.1635    1.0000 </r>
       <r>  -13.1613    1.0000 </r>
       <r>  -13.1532    1.0000 </r>
       <r>  -13.1512    1.0000 </r>
       <r>  -13.1422    1.0000 </r>
       <r>  -13.1342    1.0000 </r>
       <r>  -13.1277    1.0000 </r>
       <r>  -13.1112    1.0000 </r>
       <r>  -13.1095    1.0000 </r>
       <r>  -13.1060    1.0000 </r>
       <r>  -13.1042    1.0000 </r>
       <r>  -13.0986    1.0000 </r>
       <r>  -13.0947    1.0000 </r>
       <r>  -13.0939    1.0000 </r>
       <r>  -13.0836    1.0000 </r>
[...]
       <r>   -13.1953   364.4065   375.2724 </r>
       <r>   -13.0642   363.5948   422.9239 </r>
       <r>   -12.9332   309.4133   463.4746 </r>
       <r>   -12.8021   247.5934   495.9234 </r>
       <r>   -12.6710   184.5333   520.1077 </r>
       <r>   -12.5400   162.5585   541.4121 </r>
       <r>   -12.4089   164.1622   562.9266 </r>
       <r>   -12.2779   129.9449   579.9568 </r>
       <r>   -12.1468    88.9748   591.6175 </r>
       <r>   -12.0158    87.9375   603.1423 </r>
       <r>   -11.8847    49.3638   609.6118 </r>
       <r>   -11.7536    14.8377   611.5564 </r>
       <r>   -11.6226     3.3850   612.0000 </r>
       <r>   -11.4915     0.0001   612.0000 </r>
       <r>   -11.3605     0.0000   612.0000 </r>
       <r>   -11.2294     0.0000   612.0000 </r>
       <r>   -11.0984     0.0000   612.0000 </r>
       <r>   -10.9673     0.0000   612.0000 </r>
       <r>   -10.8362     0.0000   612.0000 </r>
       <r>   -10.7052     0.0000   612.0000 </r>
       <r>   -10.5741     0.0000   612.0000 </r>
       <r>   -10.4431     0.0000   612.0000 </r>
       <r>   -10.3120     0.0000   612.0000 </r>
       <r>   -10.1810     0.0000   612.0000 </r>
       <r>   -10.0499     0.0000   612.0000 </r>
       <r>    -9.9188     0.0000   612.0000 </r>
       <r>    -9.7878     0.0000   612.0000 </r>
       <r>    -9.6567     0.0000   612.0000 </r>
       <r>    -9.5257     0.0000   612.0000 </r>
       <r>    -9.3946     0.0000   612.0000 </r>
       <r>    -9.2636     0.0000   612.0000 </r>
       <r>    -9.1325     0.0000   612.0000 </r>
       <r>    -9.0014     0.0000   612.0000 </r>
       <r>    -8.8704     0.0000   612.0000 </r>
       <r>    -8.7393     0.0000   612.0000 </r>
       <r>    -8.6083     0.0000   612.0000 </r>
       <r>    -8.4772     0.0000   612.0000 </r>
       <r>    -8.3462     0.0000   612.0000 </r>
       <r>    -8.2151     0.0000   612.0000 </r>
       <r>    -8.0841     0.0000   612.0000 </r>
       <r>    -7.9530     0.0000   612.0000 </r>
       <r>    -7.8219     0.0000   612.0000 </r>
       <r>    -7.6909     0.0000   612.0000 </r>
       <r>    -7.5598     0.0000   612.0000 </r>
       <r>    -7.4288     0.0000   612.0000 </r>
       <r>    -7.2977     0.0000   612.0000 </r>
       <r>    -7.1667     0.0000   612.0000 </r>
       <r>    -7.0356     0.0044   612.0006 </r>
       <r>    -6.9045     8.8521   613.1607 </r>
       <r>    -6.7735     6.4033   613.9999 </r>
       <r>    -6.6424     0.0009   614.0000 </r>
       <r>    -6.5114     0.0000   614.0000 </r>
       <r>    -6.3803     0.0000   614.0000 </r>
       <r>    -6.2493     0.0000   614.0000 </r>
       <r>    -6.1182     0.0000   614.0000 </r>
       <r>    -5.9871     0.0000   614.0000 </r>
       <r>    -5.8561     0.0005   614.0001 </r>
       <r>    -5.7250     2.3442   614.3073 </r>
       <r>    -5.5940     5.4859   615.0263 </r>
       <r>    -5.4629    10.2941   616.3754 </r>
       <r>    -5.3319    22.7104   619.3517 </r>
       <r>    -5.2008    21.8827   622.2196 </r>
       <r>    -5.0697    20.2980   624.8798 </r>
       <r>    -4.9387    28.4515   628.6085 </r>
       <r>    -4.8076    37.7692   633.5584 </r>
       <r>    -4.6766    42.8311   639.1717 </r>
       <r>    -4.5455    42.3663   644.7241 </r>
       <r>    -4.4145    45.5610   650.6952 </r>
       <r>    -4.2834    28.2343   654.3955 </r>
       <r>    -4.1524    34.4595   658.9116 </r>
       <r>    -4.0213    37.6573   663.8469 </r>
       <r>    -3.8902    39.4959   669.0231 </r>
       <r>    -3.7592    33.8045   673.4534 </r>
       <r>    -3.6281    34.9166   678.0294 </r>
       <r>    -3.4971    36.6320   682.8303 </r>
       <r>    -3.3660    33.2140   687.1832 </r>
       <r>    -3.2350    35.8363   691.8798 </r>
       <r>    -3.1039    34.1906   696.3607 </r>
       <r>    -2.9728    34.3600   700.8638 </r>
       <r>    -2.8418    45.9858   706.8906 </r>
       <r>    -2.7107    42.8141   712.5017 </r>
       <r>    -2.5797    42.2112   718.0337 </r>
       <r>    -2.4486    40.3558   723.3226 </r>
       <r>    -2.3176    50.6006   729.9542 </r>
       <r>    -2.1865    47.0603   736.1217 </r>
       <r>    -2.0554    54.1177   743.2142 </r>
       <r>    -1.9244    48.2417   749.5366 </r>
       <r>    -1.7933    46.5100   755.6321 </r>
       <r>    -1.6623    53.6829   762.6676 </r>
       <r>    -1.5312    62.5158   770.8607 </r>
       <r>    -1.4002    56.2520   778.2329 </r>
       <r>    -1.2691    53.9529   785.3038 </r>
       <r>    -1.1380    59.8377   793.1459 </r>
       <r>    -1.0070    62.3564   801.3181 </r>
       <r>    -0.8759    63.6943   809.6657 </r>
       <r>    -0.7449    61.0890   817.6718 </r>
       <r>    -0.6138    61.9970   825.7969 </r>
       <r>    -0.4828    60.0955   833.6728 </r>
       <r>    -0.3517    64.8406   842.1706 </r>
       <r>    -0.2207    62.1613   850.3173 </r>
       <r>    -0.0896    74.6402   860.0994 </r>
       <r>     0.0415    72.3149   869.5767 </r>
       <r>     0.1725    66.8763   878.3413 </r>
       <r>     0.3036    72.5636   887.8513 </r>
       <r>     0.4346    81.7642   898.5670 </r>
       <r>     0.5657    83.2563   909.4783 </r>
       <r>     0.6967    82.6393   920.3087 </r>
       <r>     0.8278    95.5793   932.8350 </r>
       <r>     0.9589    90.4589   944.6903 </r>
       <r>     1.0899    91.1549   956.6368 </r>
       <r>     1.2210   108.4981   970.8562 </r>
       <r>     1.3520   104.5620   984.5597 </r>
       <r>     1.4831    85.8416   995.8098 </r>
       <r>     1.6141    84.3832  1006.8688 </r>
       <r>     1.7452    65.0494  1015.3940 </r>
       <r>     1.8763    33.4405  1019.7766 </r>
       <r>     2.0073    31.4674  1023.9006 </r>
       <r>     2.1384    38.2896  1028.9187 </r>
       <r>     2.2694    27.5313  1032.5269 </r>
       <r>     2.4005     8.7034  1033.6675 </r>
       <r>     2.5315    22.2071  1036.5779 </r>
       <r>     2.6626    25.1259  1039.8708 </r>
       <r>     2.7937     0.9859  1040.0000 </r>
       <r>     2.9247     0.0000  1040.0000 </r>
       <r>     3.0558     0.0000  1040.0000 </r>
       <r>     3.1868     0.0000  1040.0000 </r>
       <r>     3.3179     0.0001  1040.0000 </r>
       <r>     3.4489     1.8707  1040.2452 </r>
       <r>     3.5800    15.4129  1042.2652 </r>
       <r>     3.7110     5.6584  1043.0067 </r>
       <r>     3.8421     7.0080  1043.9252 </r>
       <r>     3.9732     0.5711  1044.0000 </r>
       <r>     4.1042     0.0000  1044.0000 </r>
       <r>     4.2353     0.0740  1044.0097 </r>
       <r>     4.3663     1.9749  1044.2685 </r>
       <r>     4.4974     4.8876  1044.9091 </r>
       <r>     4.6284    13.8055  1046.7184 </r>
       <r>     4.7595     9.7723  1047.9991 </r>
       <r>     4.8906     0.0070  1048.0000 </r>
       <r>     5.0216     0.0000  1048.0000 </r>
       <r>     5.1527     0.0000  1048.0000 </r>
       <r>     5.2837     0.0000  1048.0000 </r>
       <r>     5.4148     0.3157  1048.0414 </r>
       <r>     5.5458     2.9976  1048.4342 </r>
       <r>     5.6769     5.7572  1049.1887 </r>
       <r>     5.8080    10.9374  1050.6222 </r>
       <r>     5.9390    11.0240  1052.0669 </r>
       <r>     6.0701    12.6810  1053.7289 </r>
       <r>     6.2011     2.0688  1054.0000 </r>
       <r>     6.3322     0.0001  1054.0000 </r>
       <r>     6.4632     0.0000  1054.0000 </r>
       <r>     6.5943     0.0000  1054.0000 </r>
       <r>     6.7254     0.0000  1054.0000 </r>
       <r>     6.8564     0.0000  1054.0000 </r>
       <r>     6.9875     0.0000  1054.0000 </r>
       <r>     7.1185     0.0000  1054.0000 </r>
       <r>     7.2496     0.0000  1054.0000 </r>
       <r>     7.3806     0.0000  1054.0000 </r>
       <r>     7.5117     0.0034  1054.0004 </r>
       <r>     7.6427     1.5099  1054.1983 </r>
       <r>     7.7738     4.5965  1054.8007 </r>
       <r>     7.9049     1.5203  1055.0000 </r>
       <r>     8.0359     0.0004  1055.0000 </r>
       <r>     8.1670     1.2534  1055.1643 </r>
       <r>     8.2980     2.6336  1055.5095 </r>
       <r>     8.4291     2.5139  1055.8389 </r>
       <r>     8.5601     3.5766  1056.3077 </r>
       <r>     8.6912     3.5571  1056.7738 </r>
       <r>     8.8223     7.1263  1057.7078 </r>
       <r>     8.9533     6.6394  1058.5779 </r>
       <r>     9.0844     5.0375  1059.2381 </r>
       <r>     9.2154     7.8641  1060.2688 </r>
       <r>     9.3465     5.5816  1061.0003 </r>
       <r>     9.4775     4.4161  1061.5790 </r>
       <r>     9.6086    10.5931  1062.9673 </r>
       <r>     9.7397    11.2603  1064.4430 </r>
       <r>     9.8707    14.8815  1066.3934 </r>
       <r>    10.0018    22.0875  1069.2881 </r>
       <r>    10.1328    15.8514  1071.3655 </r>
       <r>    10.2639    20.4657  1074.0477 </r>
       <r>    10.3949    25.2610  1077.3583 </r>
       <r>    10.5260    24.1886  1080.5284 </r>
       <r>    10.6571    22.4744  1083.4738 </r>
       <r>    10.7881    27.4543  1087.0719 </r>
       <r>    10.9192    29.1694  1090.8947 </r>
       <r>    11.0502    31.0287  1094.9612 </r>
       <r>    11.1813    33.6526  1099.3716 </r>
       <r>    11.3123    30.0554  1103.3106 </r>
       <r>    11.4434    29.7367  1107.2078 </r>
       <r>    11.5744    31.8567  1111.3828 </r>
       <r>    11.7055    33.0042  1115.7082 </r>
       <r>    11.8366    34.7876  1120.2674 </r>
       <r>    11.9676    44.0542  1126.0410 </r>
       <r>    12.0987    25.1195  1129.3331 </r>
       <r>    12.2297    36.0111  1134.0526 </r>
       <r>    12.3608    28.2319  1137.7526 </r>
       <r>    12.4918    31.1688  1141.8374 </r>
       <r>    12.6229    38.3835  1146.8678 </r>
       <r>    12.7540    40.0978  1152.1229 </r>
       <r>    12.8850    33.7365  1156.5443 </r>
       <r>    13.0161    29.0430  1160.3506 </r>
       <r>    13.1471    30.0767  1164.2923 </r>
       <r>    13.2782    34.6526  1168.8338 </r>
       <r>    13.4092    31.5915  1172.9741 </r>
       <r>    13.5403    41.0344  1178.3519 </r>
       <r>    13.6714    35.8295  1183.0476 </r>
       <r>    13.8024    26.7122  1186.5484 </r>
       <r>    13.9335    31.6088  1190.6910 </r>
       <r>    14.0645    34.4890  1195.2110 </r>
       <r>    14.1956    29.5765  1199.0872 </r>
       <r>    14.3266    26.1664  1202.5165 </r>
       <r>    14.4577    24.6257  1205.7438 </r>
       <r>    14.5888    27.0224  1209.2853 </r>
       <r>    14.7198    24.6776  1212.5195 </r>
       <r>    14.8509    30.3131  1216.4922 </r>
       <r>    14.9819    41.8056  1221.9711 </r>
       <r>    15.1130    59.9837  1229.8324 </r>
       <r>    15.2440    61.0550  1237.8340 </r>
       <r>    15.3751    54.3008  1244.9505 </r>
       <r>    15.5062    65.1311  1253.4864 </r>
       <r>    15.6372    28.7693  1257.2568 </r>
       <r>    15.7683    19.6170  1259.8277 </r>
       <r>    15.8993    11.5449  1261.3407 </r>
       <r>    16.0304     8.9445  1262.5130 </r>
       <r>    16.1614    15.2987  1264.5180 </r>
       <r>    16.2925     9.5051  1265.7637 </r>
       <r>    16.4235     1.7856  1265.9977 </r>
       <r>    16.5546     0.0175  1266.0000 </r>
       <r>    16.6857     0.0000  1266.0000 </r>
       <r>    16.8167     0.0000  1266.0000 </r>
       <r>    16.9478     0.0000  1266.0000 </r>
       <r>    17.0788     0.0000  1266.0000 </r>
       <r>    17.2099     0.0000  1266.0000 </r>
       <r>    17.3409     0.0000  1266.0000 </r>
       <r>    17.4720     0.0000  1266.0000 </r>
       <r>    17.6031     0.0000  1266.0000 </r>
       <r>    17.7341     0.0000  1266.0000 </r>
       <r>    17.8652     0.0000  1266.0000 </r>
       <r>    17.9962     0.0000  1266.0000 </r>
       <r>    18.1273     0.0000  1266.0000 </r>
      </set>
     </set>
    </array>
   </total>
  </dos>
 </calculation>
 <structure name="finalpos" >
  <crystal>
   <varray name="basis" >
    <v>       0.00000000      12.28047342       0.00000000 </v>
    <v>       9.14270205       0.00000000       0.00000000 </v>
    <v>       0.00000000      -2.76826177     -11.30069772 </v>
   </varray>
   <i name="volume">   1268.80515525 </i>
   <varray name="rec_basis" >
    <v>       0.00000000       0.08143009      -0.01994742 </v>
    <v>       0.10937686      -0.00000000       0.00000000 </v>
    <v>       0.00000000       0.00000000      -0.08849011 </v>
   </varray>
  </crystal>
  <varray name="positions" >
   <v>       0.67164779       0.00000000       0.16957799 </v>
   <v>       0.65600614       0.00000000       0.64922566 </v>
   <v>       0.67254023       0.33007681       0.16406095 </v>
   <v>       0.64928279       0.32974776       0.65382934 </v>
   <v>       0.67254023       0.66992319       0.16406095 </v>
   <v>       0.64928279       0.67025224       0.65382934 </v>
   <v>       0.85863287       0.16145963       0.35962145 </v>
   <v>       0.83738011       0.16989825       0.84239544 </v>
   <v>       0.85053135       0.50000000       0.33745201 </v>
   <v>       0.81502930       0.50000000       0.84443139 </v>
   <v>       0.85863287       0.83854037       0.35962145 </v>
   <v>       0.83738011       0.83010175       0.84239544 </v>
   <v>       0.58793655       0.13037293       0.39378713 </v>
   <v>       0.59792685       0.16732778       0.90358912 </v>
   <v>       0.58845849       0.50000000       0.39178272 </v>
   <v>       0.59304883       0.50000000       0.90701587 </v>
   <v>       0.58793655       0.86962707       0.39378713 </v>
   <v>       0.59792685       0.83267222       0.90358912 </v>
   <v>       0.91777431       0.00000000       0.10797013 </v>
   <v>       0.93876483       0.00000000       0.63397309 </v>
   <v>       0.91088650       0.34783901       0.08490498 </v>
   <v>       0.89727104       0.37195879       0.59805058 </v>
   <v>       0.91088650       0.65216099       0.08490498 </v>
   <v>       0.89727104       0.62804121       0.59805058 </v>
   <v>       0.15677809       0.16149063       0.13249525 </v>
   <v>       0.15025955       0.17412001       0.65286832 </v>
   <v>       0.15712081       0.50000000       0.16015346 </v>
   <v>       0.17473191       0.50000000       0.65510557 </v>
   <v>       0.15677809       0.83850937       0.13249525 </v>
   <v>       0.15025955       0.82587999       0.65286832 </v>
   <v>       0.29669592       0.00000000       0.36377304 </v>
   <v>       0.34537415       0.00000000       0.84822686 </v>
   <v>       0.34627011       0.33248519       0.33162448 </v>
   <v>       0.34497166       0.32694127       0.84882740 </v>
   <v>       0.34627011       0.66751481       0.33162448 </v>
   <v>       0.34497166       0.67305873       0.84882740 </v>
   <v>       0.05929015       0.00000000       0.85191823 </v>
   <v>       0.09594424       0.32672287       0.39741111 </v>
   <v>       0.08642340       0.37216362       0.88713374 </v>
   <v>       0.09594424       0.67327713       0.39741111 </v>
   <v>       0.08642340       0.62783638       0.88713374 </v>
   <v>       0.42019886       0.16669034       0.11157917 </v>
   <v>       0.39278785       0.15769135       0.59864192 </v>
   <v>       0.41902614       0.50000000       0.10220895 </v>
   <v>       0.40817696       0.50000000       0.59742780 </v>
   <v>       0.42019886       0.83330966       0.11157917 </v>
   <v>       0.39278785       0.84230865       0.59864192 </v>
   <v>       0.99376799       0.17500373       0.11462622 </v>
   <v>       0.98841090       0.20218570       0.61472525 </v>
   <v>       0.00357327       0.50000000       0.17050959 </v>
   <v>       0.03183773       0.50000000       0.66946782 </v>
   <v>       0.99376799       0.82499627       0.11462622 </v>
   <v>       0.98841090       0.79781430       0.61472525 </v>
   <v>       0.44660706       0.00000000       0.35493914 </v>
   <v>       0.51080261       0.00000000       0.88569265 </v>
   <v>       0.51121081       0.32112372       0.36627117 </v>
   <v>       0.50871574       0.33312806       0.88450209 </v>
   <v>       0.51121081       0.67887628       0.36627117 </v>
   <v>       0.50871574       0.66687194       0.88450209 </v>
   <v>       0.68448373       0.16915121       0.28062279 </v>
   <v>       0.66283065       0.16037669       0.77613175 </v>
   <v>       0.67497470       0.50000000       0.27992833 </v>
   <v>       0.65378989       0.50000000       0.77437586 </v>
   <v>       0.68448373       0.83084879       0.28062279 </v>
   <v>       0.66283065       0.83962331       0.77613175 </v>
   <v>       0.83751564       0.00000000       0.22544995 </v>
   <v>       0.81763946       0.00000000       0.71923164 </v>
   <v>       0.83422915       0.34161184       0.21082485 </v>
   <v>       0.81543282       0.33507551       0.72705239 </v>
   <v>       0.83422915       0.65838816       0.21082485 </v>
   <v>       0.81543282       0.66492449       0.72705239 </v>
   <v>       0.85077146       0.00000000       0.46530102 </v>
   <v>       0.83720679       0.00000000       0.94727702 </v>
   <v>       0.82651298       0.33355517       0.43429400 </v>
   <v>       0.79297741       0.31560410       0.94607290 </v>
   <v>       0.82651298       0.66644483       0.43429400 </v>
   <v>       0.79297741       0.68439590       0.94607290 </v>
   <v>       0.67029034       0.15979861       0.05998646 </v>
   <v>       0.66473411       0.17284207       0.55472476 </v>
   <v>       0.67078853       0.50000000       0.06007765 </v>
   <v>       0.64965799       0.50000000       0.55275788 </v>
   <v>       0.67029034       0.84020139       0.05998646 </v>
   <v>       0.66473411       0.82715793       0.55472476 </v>
   <v>       0.50683719       0.00000000       0.13816156 </v>
   <v>       0.49371724       0.00000000       0.61684685 </v>
   <v>       0.50777494       0.33351169       0.12795833 </v>
   <v>       0.48808267       0.32664718       0.62561414 </v>
   <v>       0.50777494       0.66648831       0.12795833 </v>
   <v>       0.48808267       0.67335282       0.62561414 </v>
   <v>       0.00802150       0.17069568       0.36363509 </v>
   <v>       0.99658178       0.20287534       0.87328156 </v>
   <v>       0.01211967       0.50000000       0.40110607 </v>
   <v>       0.94641321       0.50000000       0.96014050 </v>
   <v>       0.00802150       0.82930432       0.36363509 </v>
   <v>       0.99658178       0.79712466       0.87328156 </v>
   <v>       0.16567538       0.00000000       0.24382147 </v>
   <v>       0.18689805       0.00000000       0.78476149 </v>
   <v>       0.17781395       0.33949367       0.28109230 </v>
   <v>       0.18493917       0.31332050       0.78427541 </v>
   <v>       0.17781395       0.66050633       0.28109230 </v>
   <v>       0.18493917       0.68667950       0.78427541 </v>
   <v>       0.31976740       0.18789864       0.20160964 </v>
   <v>       0.35236536       0.16938319       0.74044056 </v>
   <v>       0.33374663       0.50000000       0.21412064 </v>
   <v>       0.33670920       0.50000000       0.72540730 </v>
   <v>       0.31976740       0.81210136       0.20160964 </v>
   <v>       0.35236536       0.83061681       0.74044056 </v>
   <v>       0.32696354       0.19099188       0.44133895 </v>
   <v>       0.34318199       0.16395846       0.95679532 </v>
   <v>       0.34936596       0.50000000       0.43747964 </v>
   <v>       0.33807002       0.50000000       0.94692139 </v>
   <v>       0.32696354       0.80900812       0.44133895 </v>
   <v>       0.34318199       0.83604154       0.95679532 </v>
   <v>       0.14499044       0.00000000       0.01826142 </v>
   <v>       0.16114638       0.34044648       0.04983928 </v>
   <v>       0.18538066       0.34079566       0.55308230 </v>
   <v>       0.16114638       0.65955352       0.04983928 </v>
   <v>       0.18538066       0.65920434       0.55308230 </v>
   <v>       0.19592706       0.00000000       0.53109164 </v>
  </varray>
 </structure>
</modeling>
