       N       E                     dE             d eps       ncg     rms          rms(c)
DAV:   1     0.217483451737E+05    0.21748E+05   -0.31770E+05 10000   0.280E+03
DAV:   2     0.482710246621E+04   -0.16921E+05   -0.15951E+05 10000   0.814E+02
DAV:   3    -0.137448773793E+03   -0.49646E+04   -0.46749E+04 12872   0.320E+02
DAV:   4    -0.757385141928E+03   -0.61994E+03   -0.60690E+03 12336   0.121E+02
DAV:   5    -0.801038361123E+03   -0.43653E+02   -0.43336E+02 14360   0.348E+01    0.612E+01
RMM:   6    -0.690279804020E+03    0.11076E+03   -0.38777E+02 13112   0.238E+01    0.215E+01
RMM:   7    -0.696926985828E+03   -0.66472E+01   -0.71481E+01 13722   0.102E+01    0.174E+01
RMM:   8    -0.692665949952E+03    0.42610E+01   -0.11452E+01 15066   0.460E+00    0.123E+01
RMM:   9    -0.695443030856E+03   -0.27771E+01   -0.91529E+00 12988   0.349E+00    0.204E+01
RMM:  10    -0.691507393178E+03    0.39356E+01   -0.28149E+00 12954   0.228E+00    0.566E+00
RMM:  11    -0.691076620998E+03    0.43077E+00   -0.62417E-01 13672   0.971E-01    0.307E+00
RMM:  12    -0.691022279762E+03    0.54341E-01   -0.86969E-01 12815   0.102E+00    0.198E+00
RMM:  13    -0.691054300689E+03   -0.32021E-01   -0.21233E-01 15557   0.530E-01    0.230E+00
RMM:  14    -0.691019044247E+03    0.35256E-01   -0.70849E-02 12959   0.263E-01    0.311E+00
RMM:  15    -0.690961197799E+03    0.57846E-01   -0.15729E-02 13123   0.177E-01    0.732E-01
RMM:  16    -0.690966508660E+03   -0.53109E-02   -0.10578E-02 13780   0.122E-01    0.116E+00
RMM:  17    -0.690963531401E+03    0.29773E-02   -0.26933E-03 14321   0.634E-02    0.868E-01
RMM:  18    -0.690964361450E+03   -0.83005E-03   -0.36326E-03 12744   0.551E-02    0.737E-01
RMM:  19    -0.690962040350E+03    0.23211E-02   -0.69653E-04 12616   0.407E-02    0.747E-02
RMM:  20    -0.690962129489E+03   -0.89139E-04   -0.16648E-04 10509   0.160E-02    0.376E-02
RMM:  21    -0.690962186382E+03   -0.56893E-04   -0.60973E-05  9032   0.976E-03    0.113E-01
RMM:  22    -0.690962127555E+03    0.58828E-04   -0.24021E-05  7832   0.733E-03    0.243E-02
RMM:  23    -0.690962134283E+03   -0.67281E-05   -0.94504E-06  6127   0.485E-03
   1 F= -.69096213E+03 E0= -.69095143E+03  d E =-.690962E+03
       N       E                     dE             d eps       ncg     rms          rms(c)
DAV:   1    -0.659282797274E+03    0.31679E+02   -0.53144E+03 11384   0.115E+02    0.171E+01
RMM:   2    -0.686708137106E+03   -0.27425E+02   -0.30745E+02 13603   0.318E+01    0.371E+00
RMM:   3    -0.692376614210E+03   -0.56685E+01   -0.63176E+01 14630   0.133E+01    0.820E+00
RMM:   4    -0.693581226614E+03   -0.12046E+01   -0.13631E+01 15791   0.554E+00    0.766E+00
RMM:   5    -0.693562541193E+03    0.18685E-01   -0.17823E+00 15487   0.200E+00    0.602E+00
RMM:   6    -0.693423836432E+03    0.13870E+00   -0.50860E-01 13265   0.121E+00    0.235E+00
RMM:   7    -0.693460475889E+03   -0.36639E-01   -0.71848E-01 13217   0.154E+00    0.264E+00
RMM:   8    -0.693436033887E+03    0.24442E-01   -0.97273E-02 15616   0.485E-01    0.187E+00
RMM:   9    -0.693407891159E+03    0.28143E-01   -0.94471E-02 13012   0.488E-01    0.234E-01
RMM:  10    -0.693409110047E+03   -0.12189E-02   -0.13034E-02 15654   0.141E-01    0.345E-01
RMM:  11    -0.693408839688E+03    0.27036E-03   -0.39683E-03 13390   0.797E-02    0.180E-01
RMM:  12    -0.693408811949E+03    0.27738E-04   -0.16519E-03 12998   0.535E-02    0.453E-02
RMM:  13    -0.693408858607E+03   -0.46657E-04   -0.52755E-04 13778   0.275E-02    0.137E-02
RMM:  14    -0.693408874399E+03   -0.15793E-04   -0.16467E-04  9730   0.134E-02    0.351E-03
RMM:  15    -0.693408879153E+03   -0.47535E-05   -0.56602E-05  7221   0.902E-03
   2 F= -.69340888E+03 E0= -.69339495E+03  d E =-.244674E+01
       N       E                     dE             d eps       ncg     rms          rms(c)
DAV:   1    -0.691894900605E+03    0.15140E+01   -0.29732E+02 12456   0.232E+01    0.433E+00
RMM:   2    -0.693441882711E+03   -0.15470E+01   -0.17169E+01 13488   0.841E+00    0.188E+00
RMM:   3    -0.693975477225E+03   -0.53359E+00   -0.51555E+00 15501   0.349E+00    0.132E+00
RMM:   4    -0.694035068178E+03   -0.59591E-01   -0.71771E-01 15769   0.111E+00    0.106E+00
RMM:   5    -0.694028220173E+03    0.68480E-02   -0.72479E-02 15733   0.394E-01    0.730E-01
RMM:   6    -0.694020428440E+03    0.77917E-02   -0.29491E-02 13171   0.274E-01    0.359E-01
RMM:   7    -0.694019856987E+03    0.57145E-03   -0.10793E-02 14421   0.146E-01    0.266E-01
RMM:   8    -0.694019372361E+03    0.48463E-03   -0.27118E-03 15021   0.728E-02    0.120E-01
RMM:   9    -0.694019255733E+03    0.11663E-03   -0.97781E-04 13462   0.419E-02    0.417E-02
RMM:  10    -0.694019282992E+03   -0.27260E-04   -0.36359E-04 13039   0.244E-02    0.351E-02
RMM:  11    -0.694019276426E+03    0.65662E-05   -0.87607E-05 10240   0.141E-02
   3 F= -.69401928E+03 E0= -.69400714E+03  d E =-.305714E+01
       N       E                     dE             d eps       ncg     rms          rms(c)
DAV:   1    -0.693213716906E+03    0.80557E+00   -0.29559E+02 10760   0.256E+01    0.390E+00
RMM:   2    -0.694615336507E+03   -0.14016E+01   -0.15259E+01 13678   0.805E+00    0.134E+00
RMM:   3    -0.694933543032E+03   -0.31821E+00   -0.35769E+00 15470   0.303E+00    0.179E+00
RMM:   4    -0.694961894773E+03   -0.28352E-01   -0.46262E-01 15625   0.106E+00    0.162E+00
RMM:   5    -0.694948048151E+03    0.13847E-01   -0.79416E-02 15524   0.409E-01    0.103E+00
RMM:   6    -0.694938988814E+03    0.90593E-02   -0.88133E-02 12823   0.410E-01    0.656E-01
RMM:   7    -0.694936033293E+03    0.29555E-02   -0.12064E-02 15612   0.161E-01    0.435E-01
RMM:   8    -0.694934040630E+03    0.19927E-02   -0.59893E-03 12728   0.844E-02    0.102E-01
RMM:   9    -0.694934066021E+03   -0.25391E-04   -0.14014E-03 14663   0.454E-02    0.434E-02
RMM:  10    -0.694934071366E+03   -0.53446E-05   -0.30045E-04 12087   0.232E-02    0.237E-02
RMM:  11    -0.694934083599E+03   -0.12233E-04   -0.16319E-04 10687   0.153E-02    0.180E-02
RMM:  12    -0.694934081940E+03    0.16589E-05   -0.42074E-05  9510   0.979E-03
   4 F= -.69493408E+03 E0= -.69492281E+03  d E =-.914806E+00
       N       E                     dE             d eps       ncg     rms          rms(c)
DAV:   1    -0.694932833449E+03    0.12502E-02   -0.78462E-01 11944   0.130E+00    0.164E-01
RMM:   2    -0.694935625377E+03   -0.27919E-02   -0.30871E-02 13447   0.363E-01    0.804E-02
RMM:   3    -0.694936178668E+03   -0.55329E-03   -0.67663E-03 15279   0.136E-01    0.667E-02
RMM:   4    -0.694936199852E+03   -0.21184E-04   -0.89604E-04 14936   0.492E-02    0.471E-02
RMM:   5    -0.694936160021E+03    0.39831E-04   -0.20783E-04 12304   0.222E-02    0.268E-02
RMM:   6    -0.694936147546E+03    0.12475E-04   -0.11174E-04 10394   0.147E-02    0.979E-03
RMM:   7    -0.694936147075E+03    0.47123E-06   -0.23867E-05  8119   0.890E-03
   5 F= -.69493615E+03 E0= -.69492495E+03  d E =-.916871E+00
       N       E                     dE             d eps       ncg     rms          rms(c)
DAV:   1    -0.694474668194E+03    0.46148E+00   -0.20044E+02 10444   0.205E+01    0.333E+00
RMM:   2    -0.695300481347E+03   -0.82581E+00   -0.92618E+00 13629   0.604E+00    0.112E+00
RMM:   3    -0.695459025304E+03   -0.15854E+00   -0.18449E+00 15519   0.225E+00    0.112E+00
RMM:   4    -0.695470393528E+03   -0.11368E-01   -0.22880E-01 15588   0.773E-01    0.963E-01
RMM:   5    -0.695462347656E+03    0.80459E-02   -0.47436E-02 15197   0.326E-01    0.539E-01
RMM:   6    -0.695459491435E+03    0.28562E-02   -0.25063E-02 12815   0.212E-01    0.205E-01
RMM:   7    -0.695459371580E+03    0.11985E-03   -0.50132E-03 15577   0.106E-01    0.133E-01
RMM:   8    -0.695459231064E+03    0.14052E-03   -0.21053E-03 13717   0.510E-02    0.396E-02
RMM:   9    -0.695459248779E+03   -0.17715E-04   -0.38962E-04 12650   0.276E-02    0.200E-02
RMM:  10    -0.695459258572E+03   -0.97931E-05   -0.14959E-04 10151   0.142E-02    0.667E-03
RMM:  11    -0.695459262782E+03   -0.42095E-05   -0.45301E-05  8870   0.931E-03
   6 F= -.69545926E+03 E0= -.69545056E+03  d E =-.523116E+00
       N       E                     dE             d eps       ncg     rms          rms(c)
DAV:   1    -0.695368528202E+03    0.90730E-01   -0.30443E+01 11320   0.791E+00    0.119E+00
RMM:   2    -0.695478788343E+03   -0.11026E+00   -0.12561E+00 13491   0.220E+00    0.445E-01
RMM:   3    -0.695500209067E+03   -0.21421E-01   -0.25233E-01 15452   0.815E-01    0.376E-01
RMM:   4    -0.695501418305E+03   -0.12092E-02   -0.30863E-02 15510   0.281E-01    0.294E-01
RMM:   5    -0.695500357961E+03    0.10603E-02   -0.67709E-03 15152   0.119E-01    0.160E-01
RMM:   6    -0.695500065907E+03    0.29205E-03   -0.31249E-03 12857   0.745E-02    0.514E-02
RMM:   7    -0.695500078994E+03   -0.13087E-04   -0.62648E-04 14557   0.357E-02    0.307E-02
RMM:   8    -0.695500085395E+03   -0.64010E-05   -0.22416E-04 10562   0.167E-02    0.108E-02
RMM:   9    -0.695500087143E+03   -0.17488E-05   -0.51915E-05  9210   0.102E-02
   7 F= -.69550009E+03 E0= -.69549320E+03  d E =-.563940E+00
       N       E                     dE             d eps       ncg     rms          rms(c)
DAV:   1    -0.695162532140E+03    0.33755E+00   -0.18513E+02 10392   0.189E+01    0.397E+00
RMM:   2    -0.695870404244E+03   -0.70787E+00   -0.83113E+00 13644   0.540E+00    0.125E+00
RMM:   3    -0.696009860318E+03   -0.13946E+00   -0.16425E+00 15479   0.200E+00    0.112E+00
RMM:   4    -0.696019965443E+03   -0.10105E-01   -0.20678E-01 15538   0.691E-01    0.937E-01
RMM:   5    -0.696013961118E+03    0.60043E-02   -0.43653E-02 15289   0.290E-01    0.449E-01
RMM:   6    -0.696012690110E+03    0.12710E-02   -0.19941E-02 12932   0.183E-01    0.159E-01
RMM:   7    -0.696012632841E+03    0.57269E-04   -0.45244E-03 15545   0.877E-02    0.641E-02
RMM:   8    -0.696012726184E+03   -0.93343E-04   -0.14019E-03 13160   0.363E-02    0.312E-02
RMM:   9    -0.696012735009E+03   -0.88253E-05   -0.31338E-04 10643   0.209E-02    0.132E-02
RMM:  10    -0.696012745333E+03   -0.10323E-04   -0.12908E-04  9882   0.115E-02    0.720E-03
RMM:  11    -0.696012747449E+03   -0.21161E-05   -0.35408E-05  8599   0.763E-03
   8 F= -.69601275E+03 E0= -.69601040E+03  d E =-.512660E+00
       N       E                     dE             d eps       ncg     rms          rms(c)
DAV:   1    -0.694744288743E+03    0.12685E+01   -0.29649E+02 10541   0.241E+01    0.656E+00
RMM:   2    -0.696004542088E+03   -0.12603E+01   -0.13940E+01 13682   0.688E+00    0.150E+00
RMM:   3    -0.696238445969E+03   -0.23390E+00   -0.27005E+00 15498   0.254E+00    0.134E+00
RMM:   4    -0.696246857813E+03   -0.84118E-02   -0.32585E-01 15434   0.887E-01    0.924E-01
RMM:   5    -0.696244556990E+03    0.23008E-02   -0.72042E-02 15496   0.382E-01    0.336E-01
RMM:   6    -0.696245363414E+03   -0.80642E-03   -0.17683E-02 15191   0.181E-01    0.118E-01
RMM:   7    -0.696245779369E+03   -0.41596E-03   -0.52349E-03 15377   0.880E-02    0.634E-02
RMM:   8    -0.696245884726E+03   -0.10536E-03   -0.16878E-03 13918   0.446E-02    0.225E-02
RMM:   9    -0.696245925442E+03   -0.40716E-04   -0.51886E-04 11451   0.245E-02    0.101E-02
RMM:  10    -0.696245939332E+03   -0.13890E-04   -0.17657E-04 10132   0.142E-02    0.366E-03
RMM:  11    -0.696245944655E+03   -0.53231E-05   -0.61579E-05  9264   0.876E-03
   9 F= -.69624594E+03 E0= -.69624458E+03  d E =-.745858E+00
       N       E                     dE             d eps       ncg     rms          rms(c)
DAV:   1    -0.695992994234E+03    0.25295E+00   -0.88672E+01 10752   0.131E+01    0.395E+00
RMM:   2    -0.696363398538E+03   -0.37040E+00   -0.40151E+00 13438   0.360E+00    0.114E+00
RMM:   3    -0.696422363692E+03   -0.58965E-01   -0.77189E-01 15430   0.135E+00    0.595E-01
RMM:   4    -0.696426108018E+03   -0.37443E-02   -0.99626E-02 15472   0.476E-01    0.343E-01
RMM:   5    -0.696425323199E+03    0.78482E-03   -0.23112E-02 15316   0.207E-01    0.923E-02
RMM:   6    -0.696425656657E+03   -0.33346E-03   -0.51153E-03 15525   0.927E-02    0.527E-02
RMM:   7    -0.696425773548E+03   -0.11689E-03   -0.14422E-03 14164   0.439E-02    0.263E-02
RMM:   8    -0.696425811670E+03   -0.38123E-04   -0.45469E-04 11418   0.242E-02    0.739E-03
RMM:   9    -0.696425825733E+03   -0.14063E-04   -0.15848E-04 10229   0.141E-02    0.424E-03
RMM:  10    -0.696425830007E+03   -0.42736E-05   -0.52632E-05  9282   0.905E-03
  10 F= -.69642583E+03 E0= -.69642010E+03  d E =-.179885E+00
       N       E                     dE             d eps       ncg     rms          rms(c)
DAV:   1    -0.696425599086E+03    0.22665E-03   -0.93922E-02 11104   0.421E-01    0.111E-01
RMM:   2    -0.696425960431E+03   -0.36134E-03   -0.41248E-03 13265   0.113E-01    0.491E-02
RMM:   3    -0.696426009608E+03   -0.49178E-04   -0.75202E-04 14749   0.423E-02    0.323E-02
RMM:   4    -0.696426005378E+03    0.42304E-05   -0.92684E-05 11311   0.164E-02
  11 F= -.69642601E+03 E0= -.69642038E+03  d E =-.180061E+00
       N       E                     dE             d eps       ncg     rms          rms(c)
DAV:   1    -0.696546122074E+03   -0.12011E+00   -0.23604E+01 10792   0.734E+00    0.865E-01
RMM:   2    -0.696643139374E+03   -0.97017E-01   -0.10193E+00 13692   0.214E+00    0.320E-01
RMM:   3    -0.696662678243E+03   -0.19539E-01   -0.22276E-01 15360   0.784E-01    0.286E-01
RMM:   4    -0.696662978454E+03   -0.30021E-03   -0.25672E-02 15579   0.274E-01    0.141E-01
RMM:   5    -0.696662775410E+03    0.20304E-03   -0.63354E-03 15121   0.123E-01    0.506E-02
RMM:   6    -0.696662844075E+03   -0.68665E-04   -0.12070E-03 15235   0.516E-02    0.309E-02
RMM:   7    -0.696662854703E+03   -0.10629E-04   -0.32071E-04 12596   0.248E-02    0.148E-02
RMM:   8    -0.696662861752E+03   -0.70485E-05   -0.10537E-04 10198   0.149E-02    0.793E-03
RMM:   9    -0.696662863050E+03   -0.12984E-05   -0.35286E-05  8998   0.100E-02
  12 F= -.69666286E+03 E0= -.69665719E+03  d E =-.236858E+00
       N       E                     dE             d eps       ncg     rms          rms(c)
DAV:   1    -0.696563608452E+03    0.99253E-01   -0.42247E+01 10888   0.983E+00    0.112E+00
RMM:   2    -0.696741758539E+03   -0.17815E+00   -0.18709E+00 13750   0.289E+00    0.417E-01
RMM:   3    -0.696777596193E+03   -0.35838E-01   -0.40739E-01 15351   0.106E+00    0.386E-01
RMM:   4    -0.696778220478E+03   -0.62428E-03   -0.47393E-02 15595   0.369E-01    0.192E-01
RMM:   5    -0.696777798257E+03    0.42222E-03   -0.11492E-02 15075   0.165E-01    0.721E-02
RMM:   6    -0.696777912823E+03   -0.11457E-03   -0.21847E-03 15457   0.687E-02    0.442E-02
RMM:   7    -0.696777927898E+03   -0.15076E-04   -0.57333E-04 13448   0.325E-02    0.196E-02
RMM:   8    -0.696777942267E+03   -0.14368E-04   -0.19239E-04 11656   0.192E-02    0.109E-02
RMM:   9    -0.696777944742E+03   -0.24755E-05   -0.60331E-05  9667   0.117E-02
  13 F= -.69677794E+03 E0= -.69677217E+03  d E =-.351939E+00
       N       E                     dE             d eps       ncg     rms          rms(c)
DAV:   1    -0.696812004345E+03   -0.34062E-01   -0.17572E+01 10840   0.624E+00    0.690E-01
RMM:   2    -0.696872851139E+03   -0.60847E-01   -0.64721E-01 13368   0.168E+00    0.247E-01
RMM:   3    -0.696885272022E+03   -0.12421E-01   -0.13764E-01 15298   0.630E-01    0.238E-01
RMM:   4    -0.696886059921E+03   -0.78790E-03   -0.15274E-02 15493   0.209E-01    0.195E-01
RMM:   5    -0.696885301533E+03    0.75839E-03   -0.40915E-03 14612   0.953E-02    0.463E-02
RMM:   6    -0.696885382195E+03   -0.80661E-04   -0.10716E-03 14480   0.472E-02    0.524E-02
RMM:   7    -0.696885351533E+03    0.30662E-04   -0.23043E-04 12533   0.219E-02    0.219E-02
RMM:   8    -0.696885356436E+03   -0.49034E-05   -0.12372E-04 10353   0.151E-02    0.133E-02
RMM:   9    -0.696885353599E+03    0.28370E-05   -0.28293E-05  8769   0.909E-03
  14 F= -.69688535E+03 E0= -.69687960E+03  d E =-.107409E+00
       N       E                     dE             d eps       ncg     rms          rms(c)
DAV:   1    -0.696751531215E+03    0.13383E+00   -0.49984E+01 10776   0.105E+01    0.116E+00
RMM:   2    -0.696928170530E+03   -0.17664E+00   -0.18783E+00 13409   0.288E+00    0.420E-01
RMM:   3    -0.696965265964E+03   -0.37095E-01   -0.40985E-01 15301   0.109E+00    0.406E-01
RMM:   4    -0.696967636609E+03   -0.23706E-02   -0.45542E-02 15522   0.359E-01    0.333E-01
RMM:   5    -0.696965416062E+03    0.22205E-02   -0.11854E-02 14674   0.164E-01    0.784E-02
RMM:   6    -0.696965638363E+03   -0.22230E-03   -0.31331E-03 14416   0.811E-02    0.864E-02
RMM:   7    -0.696965560359E+03    0.78003E-04   -0.70678E-04 14291   0.373E-02    0.346E-02
RMM:   8    -0.696965574259E+03   -0.13900E-04   -0.30629E-04 11212   0.209E-02    0.215E-02
RMM:   9    -0.696965568084E+03    0.61752E-05   -0.72432E-05  9818   0.130E-02
  15 F= -.69696557E+03 E0= -.69695984E+03  d E =-.187623E+00
       N       E                     dE             d eps       ncg     rms          rms(c)
DAV:   1    -0.696949467842E+03    0.16106E-01   -0.27973E+01 11216   0.787E+00    0.879E-01
RMM:   2    -0.697047130544E+03   -0.97663E-01   -0.10306E+00 13366   0.214E+00    0.340E-01
RMM:   3    -0.697068603838E+03   -0.21473E-01   -0.23295E-01 15244   0.813E-01    0.298E-01
RMM:   4    -0.697070119943E+03   -0.15161E-02   -0.26513E-02 15450   0.272E-01    0.231E-01
RMM:   5    -0.697069185495E+03    0.93445E-03   -0.66367E-03 14587   0.122E-01    0.620E-02
RMM:   6    -0.697069302798E+03   -0.11730E-03   -0.14574E-03 15271   0.566E-02    0.562E-02
RMM:   7    -0.697069277131E+03    0.25668E-04   -0.36038E-04 13084   0.251E-02    0.181E-02
RMM:   8    -0.697069287720E+03   -0.10589E-04   -0.13361E-04 10453   0.156E-02    0.129E-02
RMM:   9    -0.697069286854E+03    0.86546E-06   -0.36050E-05  9015   0.974E-03
  16 F= -.69706929E+03 E0= -.69706322E+03  d E =-.103719E+00
       N       E                     dE             d eps       ncg     rms          rms(c)
DAV:   1    -0.696945465604E+03    0.12382E+00   -0.40279E+01 10864   0.945E+00    0.105E+00
RMM:   2    -0.697087955954E+03   -0.14249E+00   -0.14997E+00 13385   0.259E+00    0.407E-01
RMM:   3    -0.697119922568E+03   -0.31967E-01   -0.34589E-01 15255   0.987E-01    0.352E-01
RMM:   4    -0.697121897402E+03   -0.19748E-02   -0.38642E-02 15459   0.329E-01    0.243E-01
RMM:   5    -0.697121079592E+03    0.81781E-03   -0.97323E-03 14694   0.150E-01    0.778E-02
RMM:   6    -0.697121193301E+03   -0.11371E-03   -0.19127E-03 15446   0.670E-02    0.538E-02
RMM:   7    -0.697121198373E+03   -0.50717E-05   -0.60168E-04 13868   0.313E-02    0.170E-02
RMM:   8    -0.697121208103E+03   -0.97306E-05   -0.13845E-04 10320   0.162E-02    0.105E-02
RMM:   9    -0.697121210307E+03   -0.22035E-05   -0.48605E-05  9128   0.102E-02
  17 F= -.69712121E+03 E0= -.69711557E+03  d E =-.155642E+00
       N       E                     dE             d eps       ncg     rms          rms(c)
DAV:   1    -0.697049702508E+03    0.71506E-01   -0.35102E+01 11112   0.877E+00    0.105E+00
RMM:   2    -0.697176593922E+03   -0.12689E+00   -0.13339E+00 13420   0.243E+00    0.438E-01
RMM:   3    -0.697206254388E+03   -0.29660E-01   -0.31544E-01 15250   0.930E-01    0.316E-01
RMM:   4    -0.697208380233E+03   -0.21258E-02   -0.35934E-02 15477   0.312E-01    0.212E-01
RMM:   5    -0.697207893185E+03    0.48705E-03   -0.76350E-03 14893   0.134E-01    0.561E-02
RMM:   6    -0.697208010906E+03   -0.11772E-03   -0.16530E-03 15446   0.608E-02    0.386E-02
RMM:   7    -0.697208031952E+03   -0.21046E-04   -0.48695E-04 13558   0.281E-02    0.153E-02
RMM:   8    -0.697208039243E+03   -0.72915E-05   -0.12255E-04 10141   0.155E-02    0.883E-03
RMM:   9    -0.697208041133E+03   -0.18895E-05   -0.42313E-05  9022   0.942E-03
  18 F= -.69720804E+03 E0= -.69720269E+03  d E =-.868308E-01
       N       E                     dE             d eps       ncg     rms          rms(c)
DAV:   1    -0.697114401063E+03    0.93638E-01   -0.27613E+01 11152   0.778E+00    0.919E-01
RMM:   2    -0.697212673084E+03   -0.98272E-01   -0.10329E+00 13377   0.214E+00    0.393E-01
RMM:   3    -0.697235982550E+03   -0.23309E-01   -0.24760E-01 15245   0.823E-01    0.282E-01
RMM:   4    -0.697237649285E+03   -0.16667E-02   -0.28271E-02 15461   0.277E-01    0.186E-01
RMM:   5    -0.697237308941E+03    0.34034E-03   -0.59901E-03 14891   0.119E-01    0.497E-02
RMM:   6    -0.697237402612E+03   -0.93671E-04   -0.13065E-03 15356   0.541E-02    0.342E-02
RMM:   7    -0.697237419410E+03   -0.16798E-04   -0.38465E-04 13209   0.251E-02    0.136E-02
RMM:   8    -0.697237425125E+03   -0.57150E-05   -0.97231E-05  9898   0.140E-02
  19 F= -.69723743E+03 E0= -.69723218E+03  d E =-.116215E+00
       N       E                     dE             d eps       ncg     rms          rms(c)
DAV:   1    -0.697173281473E+03    0.64138E-01   -0.29724E+01 10792   0.791E+00    0.979E-01
RMM:   2    -0.697280335280E+03   -0.10705E+00   -0.11400E+00 13455   0.216E+00    0.393E-01
RMM:   3    -0.697303448771E+03   -0.23113E-01   -0.25220E-01 15300   0.821E-01    0.311E-01
RMM:   4    -0.697305035886E+03   -0.15871E-02   -0.29716E-02 15464   0.279E-01    0.215E-01
RMM:   5    -0.697304549361E+03    0.48653E-03   -0.71517E-03 14689   0.127E-01    0.574E-02
RMM:   6    -0.697304661910E+03   -0.11255E-03   -0.16563E-03 15287   0.596E-02    0.396E-02
RMM:   7    -0.697304683187E+03   -0.21276E-04   -0.48977E-04 13183   0.268E-02    0.138E-02
RMM:   8    -0.697304692792E+03   -0.96059E-05   -0.12119E-04 10177   0.152E-02    0.652E-03
RMM:   9    -0.697304695811E+03   -0.30190E-05   -0.43468E-05  8930   0.872E-03
  20 F= -.69730470E+03 E0= -.69729960E+03  d E =-.672707E-01
       N       E                     dE             d eps       ncg     rms          rms(c)
DAV:   1    -0.697249106745E+03    0.55586E-01   -0.17710E+01 11160   0.610E+00    0.768E-01
RMM:   2    -0.697311638140E+03   -0.62531E-01   -0.66800E-01 13419   0.165E+00    0.302E-01
RMM:   3    -0.697325477113E+03   -0.13839E-01   -0.15109E-01 15305   0.632E-01    0.240E-01
RMM:   4    -0.697326421421E+03   -0.94431E-03   -0.17607E-02 15452   0.215E-01    0.166E-01
RMM:   5    -0.697326151525E+03    0.26990E-03   -0.43087E-03 14640   0.983E-02    0.461E-02
RMM:   6    -0.697326213723E+03   -0.62198E-04   -0.98672E-04 15142   0.459E-02    0.307E-02
RMM:   7    -0.697326226729E+03   -0.13006E-04   -0.29811E-04 12246   0.209E-02    0.106E-02
RMM:   8    -0.697326232364E+03   -0.56344E-05   -0.74188E-05  9750   0.125E-02
  21 F= -.69732623E+03 E0= -.69732127E+03  d E =-.888072E-01
       N       E                     dE             d eps       ncg     rms          rms(c)
DAV:   1    -0.697258755688E+03    0.67471E-01   -0.29662E+01 10816   0.785E+00    0.100E+00
RMM:   2    -0.697365068990E+03   -0.10631E+00   -0.11428E+00 13345   0.212E+00    0.431E-01
RMM:   3    -0.697388419922E+03   -0.23351E-01   -0.25492E-01 15371   0.818E-01    0.327E-01
RMM:   4    -0.697389859869E+03   -0.14399E-02   -0.30598E-02 15451   0.280E-01    0.210E-01
RMM:   5    -0.697389522751E+03    0.33712E-03   -0.73956E-03 14900   0.126E-01    0.572E-02
RMM:   6    -0.697389627411E+03   -0.10466E-03   -0.16742E-03 15248   0.588E-02    0.368E-02
RMM:   7    -0.697389655901E+03   -0.28490E-04   -0.52320E-04 13272   0.276E-02    0.140E-02
RMM:   8    -0.697389665819E+03   -0.99183E-05   -0.13743E-04 10259   0.157E-02    0.702E-03
RMM:   9    -0.697389669005E+03   -0.31858E-05   -0.49120E-05  9265   0.927E-03
  22 F= -.69738967E+03 E0= -.69738487E+03  d E =-.634366E-01
       N       E                     dE             d eps       ncg     rms          rms(c)
DAV:   1    -0.697305343287E+03    0.84323E-01   -0.27107E+01 11032   0.750E+00    0.110E+00
RMM:   2    -0.697396846493E+03   -0.91503E-01   -0.10548E+00 13380   0.204E+00    0.498E-01
RMM:   3    -0.697416629330E+03   -0.19783E-01   -0.23585E-01 15457   0.788E-01    0.338E-01
RMM:   4    -0.697418069757E+03   -0.14404E-02   -0.28868E-02 15511   0.270E-01    0.248E-01
RMM:   5    -0.697417307118E+03    0.76264E-03   -0.73198E-03 14730   0.124E-01    0.491E-02
RMM:   6    -0.697417433060E+03   -0.12594E-03   -0.16851E-03 14435   0.599E-02    0.367E-02
RMM:   7    -0.697417456018E+03   -0.22957E-04   -0.49117E-04 13426   0.286E-02    0.155E-02
RMM:   8    -0.697417466483E+03   -0.10466E-04   -0.14299E-04 10309   0.161E-02    0.629E-03
RMM:   9    -0.697417469532E+03   -0.30490E-05   -0.46557E-05  9338   0.907E-03
  23 F= -.69741747E+03 E0= -.69741103E+03  d E =-.912372E-01
       N       E                     dE             d eps       ncg     rms          rms(c)
DAV:   1    -0.697398387923E+03    0.19079E-01   -0.22218E+01 10968   0.685E+00    0.101E+00
RMM:   2    -0.697470220362E+03   -0.71832E-01   -0.87862E-01 13276   0.189E+00    0.455E-01
RMM:   3    -0.697489084274E+03   -0.18864E-01   -0.21534E-01 15429   0.753E-01    0.294E-01
RMM:   4    -0.697490467730E+03   -0.13835E-02   -0.26027E-02 15538   0.263E-01    0.168E-01
RMM:   5    -0.697490460878E+03    0.68523E-05   -0.59756E-03 15327   0.114E-01    0.374E-02
RMM:   6    -0.697490575914E+03   -0.11504E-03   -0.14235E-03 15060   0.538E-02    0.249E-02
RMM:   7    -0.697490612460E+03   -0.36545E-04   -0.42987E-04 12762   0.258E-02    0.119E-02
RMM:   8    -0.697490621068E+03   -0.86085E-05   -0.11755E-04 10169   0.148E-02    0.431E-03
RMM:   9    -0.697490624429E+03   -0.33603E-05   -0.42897E-05  9090   0.866E-03
  24 F= -.69749062E+03 E0= -.69748488E+03  d E =-.731549E-01
       N       E                     dE             d eps       ncg     rms          rms(c)
DAV:   1    -0.696630306764E+03    0.86031E+00   -0.20086E+02 10700   0.208E+01    0.392E+00
RMM:   2    -0.697412687341E+03   -0.78238E+00   -0.86634E+00 13405   0.597E+00    0.118E+00
RMM:   3    -0.697607208046E+03   -0.19452E+00   -0.21267E+00 15527   0.238E+00    0.860E-01
RMM:   4    -0.697622647515E+03   -0.15439E-01   -0.26269E-01 15582   0.840E-01    0.561E-01
RMM:   5    -0.697622876523E+03   -0.22901E-03   -0.53730E-02 15548   0.357E-01    0.166E-01
RMM:   6    -0.697623937734E+03   -0.10612E-02   -0.13123E-02 14420   0.175E-01    0.884E-02
RMM:   7    -0.697624338004E+03   -0.40027E-03   -0.44748E-03 15309   0.890E-02    0.380E-02
RMM:   8    -0.697624427493E+03   -0.89489E-04   -0.10400E-03 13215   0.379E-02    0.191E-02
RMM:   9    -0.697624450833E+03   -0.23340E-04   -0.32985E-04 10992   0.207E-02    0.644E-03
RMM:  10    -0.697624460998E+03   -0.10165E-04   -0.11730E-04 10123   0.118E-02    0.374E-03
RMM:  11    -0.697624463863E+03   -0.28652E-05   -0.39151E-05  8734   0.753E-03
  25 F= -.69762446E+03 E0= -.69761975E+03  d E =-.206994E+00
       N       E                     dE             d eps       ncg     rms          rms(c)
DAV:   1    -0.697629472219E+03   -0.50112E-02   -0.64459E+00 11456   0.366E+00    0.580E-01
RMM:   2    -0.697652353446E+03   -0.22881E-01   -0.24955E-01 13099   0.988E-01    0.241E-01
RMM:   3    -0.697658129041E+03   -0.57756E-02   -0.62946E-02 15504   0.401E-01    0.158E-01
RMM:   4    -0.697658618660E+03   -0.48962E-03   -0.74439E-03 15487   0.140E-01    0.876E-02
RMM:   5    -0.697658672397E+03   -0.53737E-04   -0.15968E-03 15080   0.592E-02    0.206E-02
RMM:   6    -0.697658704013E+03   -0.31616E-04   -0.39058E-04 13303   0.283E-02    0.124E-02
RMM:   7    -0.697658713810E+03   -0.97971E-05   -0.11866E-04 10444   0.143E-02    0.578E-03
RMM:   8    -0.697658715976E+03   -0.21654E-05   -0.34999E-05  8881   0.901E-03
  26 F= -.69765872E+03 E0= -.69765311E+03  d E =-.342521E-01
       N       E                     dE             d eps       ncg     rms          rms(c)
DAV:   1    -0.697630991034E+03    0.27723E-01   -0.12551E+01 10752   0.510E+00    0.879E-01
RMM:   2    -0.697676143057E+03   -0.45152E-01   -0.49788E-01 13141   0.138E+00    0.361E-01
RMM:   3    -0.697687416117E+03   -0.11273E-01   -0.12411E-01 15522   0.556E-01    0.219E-01
RMM:   4    -0.697688367634E+03   -0.95152E-03   -0.14657E-02 15524   0.194E-01    0.123E-01
RMM:   5    -0.697688445229E+03   -0.77595E-04   -0.30947E-03 15343   0.810E-02    0.268E-02
RMM:   6    -0.697688509102E+03   -0.63873E-04   -0.74897E-04 14342   0.384E-02    0.167E-02
RMM:   7    -0.697688529355E+03   -0.20253E-04   -0.22643E-04 11140   0.190E-02    0.854E-03
RMM:   8    -0.697688533853E+03   -0.44978E-05   -0.64142E-05  9815   0.117E-02
  27 F= -.69768853E+03 E0= -.69768200E+03  d E =-.640700E-01
       N       E                     dE             d eps       ncg     rms          rms(c)
DAV:   1    -0.697431351715E+03    0.25718E+00   -0.50206E+01 10752   0.102E+01    0.216E+00
RMM:   2    -0.697616612979E+03   -0.18526E+00   -0.20963E+00 13236   0.280E+00    0.783E-01
RMM:   3    -0.697659895165E+03   -0.43282E-01   -0.49270E-01 15541   0.112E+00    0.419E-01
RMM:   4    -0.697663798095E+03   -0.39029E-02   -0.59537E-02 15578   0.390E-01    0.264E-01
RMM:   5    -0.697663842540E+03   -0.44446E-04   -0.12523E-02 15295   0.164E-01    0.590E-02
RMM:   6    -0.697664116496E+03   -0.27396E-03   -0.32345E-03 15529   0.783E-02    0.406E-02
RMM:   7    -0.697664203770E+03   -0.87274E-04   -0.91534E-04 13689   0.369E-02    0.200E-02
RMM:   8    -0.697664223887E+03   -0.20117E-04   -0.25297E-04 10827   0.201E-02    0.570E-03
RMM:   9    -0.697664231724E+03   -0.78373E-05   -0.93239E-05  9960   0.117E-02
  28 F= -.69766423E+03 E0= -.69765946E+03  d E =-.397679E-01
       N       E                     dE             d eps       ncg     rms          rms(c)
DAV:   1    -0.697568026886E+03    0.96197E-01   -0.27356E+01 10744   0.747E+00    0.128E+00
RMM:   2    -0.697667513554E+03   -0.99487E-01   -0.11354E+00 13179   0.206E+00    0.549E-01
RMM:   3    -0.697691923969E+03   -0.24410E-01   -0.27364E-01 15490   0.820E-01    0.434E-01
RMM:   4    -0.697693753262E+03   -0.18293E-02   -0.31722E-02 15501   0.287E-01    0.257E-01
RMM:   5    -0.697693932758E+03   -0.17950E-03   -0.75217E-03 15144   0.125E-01    0.624E-02
RMM:   6    -0.697694019695E+03   -0.86937E-04   -0.17710E-03 15359   0.584E-02    0.316E-02
RMM:   7    -0.697694059315E+03   -0.39620E-04   -0.56335E-04 13087   0.286E-02    0.154E-02
RMM:   8    -0.697694068132E+03   -0.88169E-05   -0.13282E-04 10518   0.158E-02    0.545E-03
RMM:   9    -0.697694072500E+03   -0.43688E-05   -0.53224E-05  9258   0.918E-03
  29 F= -.69769407E+03 E0= -.69768776E+03  d E =-.696086E-01
       N       E                     dE             d eps       ncg     rms          rms(c)
DAV:   1    -0.697729550512E+03   -0.35482E-01   -0.16407E+00 10688   0.192E+00    0.233E-01
RMM:   2    -0.697735882259E+03   -0.63317E-02   -0.67012E-02 13651   0.537E-01    0.801E-02
RMM:   3    -0.697737046620E+03   -0.11644E-02   -0.13517E-02 15369   0.194E-01    0.722E-02
RMM:   4    -0.697737043973E+03    0.26472E-05   -0.15324E-03 15133   0.681E-02    0.329E-02
RMM:   5    -0.697737028805E+03    0.15168E-04   -0.39554E-04 14442   0.315E-02    0.113E-02
RMM:   6    -0.697737033212E+03   -0.44075E-05   -0.79303E-05 10610   0.142E-02
  30 F= -.69773703E+03 E0= -.69773076E+03  d E =-.429607E-01
       N       E                     dE             d eps       ncg     rms          rms(c)
DAV:   1    -0.697754102030E+03   -0.17073E-01   -0.14778E+01 10648   0.577E+00    0.694E-01
RMM:   2    -0.697811617590E+03   -0.57516E-01   -0.60865E-01 13654   0.163E+00    0.243E-01
RMM:   3    -0.697822625247E+03   -0.11008E-01   -0.12730E-01 15393   0.592E-01    0.219E-01
RMM:   4    -0.697822652967E+03   -0.27719E-04   -0.14200E-02 15622   0.205E-01    0.103E-01
RMM:   5    -0.697822498907E+03    0.15406E-03   -0.36330E-03 15240   0.937E-02    0.350E-02
RMM:   6    -0.697822545441E+03   -0.46534E-04   -0.74278E-04 14878   0.411E-02    0.225E-02
RMM:   7    -0.697822556334E+03   -0.10894E-04   -0.22878E-04 12310   0.226E-02    0.147E-02
RMM:   8    -0.697822558057E+03   -0.17221E-05   -0.72791E-05  9725   0.130E-02
  31 F= -.69782256E+03 E0= -.69781654E+03  d E =-.128486E+00
       N       E                     dE             d eps       ncg     rms          rms(c)
DAV:   1    -0.697515886325E+03    0.30667E+00   -0.59017E+01 10728   0.115E+01    0.142E+00
RMM:   2    -0.697750771646E+03   -0.23489E+00   -0.24869E+00 13692   0.331E+00    0.491E-01
RMM:   3    -0.697797253936E+03   -0.46482E-01   -0.53407E-01 15385   0.122E+00    0.439E-01
RMM:   4    -0.697797764437E+03   -0.51050E-03   -0.59873E-02 15623   0.421E-01    0.213E-01
RMM:   5    -0.697797123987E+03    0.64045E-03   -0.14864E-02 15261   0.192E-01    0.659E-02
RMM:   6    -0.697797330574E+03   -0.20659E-03   -0.30772E-03 15548   0.843E-02    0.447E-02
RMM:   7    -0.697797376372E+03   -0.45798E-04   -0.87995E-04 13450   0.442E-02    0.284E-02
RMM:   8    -0.697797389711E+03   -0.13338E-04   -0.31262E-04 13304   0.239E-02    0.758E-03
RMM:   9    -0.697797395086E+03   -0.53751E-05   -0.75968E-05  9484   0.114E-02
  32 F= -.69779740E+03 E0= -.69779217E+03  d E =-.103323E+00
       N       E                     dE             d eps       ncg     rms          rms(c)
DAV:   1    -0.697744221707E+03    0.53168E-01   -0.21404E+01 10552   0.695E+00    0.833E-01
RMM:   2    -0.697827879719E+03   -0.83658E-01   -0.88819E-01 13651   0.197E+00    0.287E-01
RMM:   3    -0.697844091394E+03   -0.16212E-01   -0.18699E-01 15400   0.718E-01    0.265E-01
RMM:   4    -0.697844122786E+03   -0.31391E-04   -0.20738E-02 15642   0.249E-01    0.122E-01
RMM:   5    -0.697843927059E+03    0.19573E-03   -0.52337E-03 15264   0.113E-01    0.420E-02
RMM:   6    -0.697843991511E+03   -0.64452E-04   -0.10519E-03 15146   0.495E-02    0.267E-02
RMM:   7    -0.697844005358E+03   -0.13847E-04   -0.31178E-04 12535   0.264E-02    0.155E-02
RMM:   8    -0.697844009405E+03   -0.40472E-05   -0.10182E-04 10501   0.151E-02    0.389E-03
RMM:   9    -0.697844011620E+03   -0.22149E-05   -0.31227E-05  8520   0.975E-03
  33 F= -.69784401E+03 E0= -.69783831E+03  d E =-.149939E+00
       N       E                     dE             d eps       ncg     rms          rms(c)
DAV:   1    -0.697871896770E+03   -0.27887E-01   -0.69682E+00 10736   0.386E+00    0.473E-01
RMM:   2    -0.697894862529E+03   -0.22966E-01   -0.24287E-01 13340   0.102E+00    0.153E-01
RMM:   3    -0.697899638352E+03   -0.47758E-02   -0.52467E-02 15240   0.381E-01    0.135E-01
RMM:   4    -0.697899840970E+03   -0.20262E-03   -0.56205E-03 15280   0.126E-01    0.702E-02
RMM:   5    -0.697899807251E+03    0.33720E-04   -0.12508E-03 14712   0.552E-02    0.225E-02
RMM:   6    -0.697899824485E+03   -0.17234E-04   -0.26305E-04 13361   0.248E-02    0.138E-02
RMM:   7    -0.697899829874E+03   -0.53892E-05   -0.78272E-05  9782   0.126E-02
  34 F= -.69789983E+03 E0= -.69789444E+03  d E =-.558183E-01
       N       E                     dE             d eps       ncg     rms          rms(c)
DAV:   1    -0.697768808770E+03    0.13102E+00   -0.52610E+01 10911   0.106E+01    0.133E+00
RMM:   2    -0.697948907191E+03   -0.18010E+00   -0.19048E+00 13373   0.287E+00    0.420E-01
RMM:   3    -0.697987053521E+03   -0.38146E-01   -0.41812E-01 15255   0.108E+00    0.376E-01
RMM:   4    -0.697988854999E+03   -0.18015E-02   -0.45769E-02 15376   0.357E-01    0.203E-01
RMM:   5    -0.697988526733E+03    0.32827E-03   -0.99485E-03 14949   0.157E-01    0.602E-02
RMM:   6    -0.697988683268E+03   -0.15654E-03   -0.21591E-03 15450   0.701E-02    0.395E-02
RMM:   7    -0.697988725169E+03   -0.41901E-04   -0.61423E-04 14547   0.333E-02    0.254E-02
RMM:   8    -0.697988729941E+03   -0.47720E-05   -0.16808E-04 10752   0.173E-02    0.589E-03
RMM:   9    -0.697988733989E+03   -0.40483E-05   -0.55034E-05  9192   0.106E-02
  35 F= -.69798873E+03 E0= -.69798422E+03  d E =-.144722E+00
       N       E                     dE             d eps       ncg     rms          rms(c)
DAV:   1    -0.697959110612E+03    0.29619E-01   -0.96329E+00 11320   0.453E+00    0.554E-01
RMM:   2    -0.697990900017E+03   -0.31789E-01   -0.33703E-01 13327   0.120E+00    0.180E-01
RMM:   3    -0.697997492062E+03   -0.65920E-02   -0.72573E-02 15229   0.449E-01    0.160E-01
RMM:   4    -0.697997767198E+03   -0.27514E-03   -0.79210E-03 15299   0.149E-01    0.839E-02
RMM:   5    -0.697997710813E+03    0.56385E-04   -0.17733E-03 14851   0.653E-02    0.257E-02
RMM:   6    -0.697997736996E+03   -0.26183E-04   -0.38254E-04 14101   0.293E-02    0.163E-02
RMM:   7    -0.697997744405E+03   -0.74086E-05   -0.11118E-04 10298   0.146E-02    0.102E-02
RMM:   8    -0.697997745191E+03   -0.78577E-06   -0.32314E-05  8482   0.935E-03
  36 F= -.69799775E+03 E0= -.69799361E+03  d E =-.153734E+00
       N       E                     dE             d eps       ncg     rms          rms(c)
DAV:   1    -0.697984196336E+03    0.13548E-01   -0.19377E+01 10984   0.634E+00    0.696E-01
RMM:   2    -0.698048022140E+03   -0.63826E-01   -0.67107E-01 13291   0.170E+00    0.240E-01
RMM:   3    -0.698062375130E+03   -0.14353E-01   -0.15129E-01 15178   0.641E-01    0.225E-01
RMM:   4    -0.698063240471E+03   -0.86534E-03   -0.16975E-02 15361   0.213E-01    0.134E-01
RMM:   5    -0.698063132470E+03    0.10800E-03   -0.38415E-03 14681   0.941E-02    0.477E-02
RMM:   6    -0.698063183240E+03   -0.50770E-04   -0.81171E-04 15244   0.427E-02    0.290E-02
RMM:   7    -0.698063194095E+03   -0.10856E-04   -0.24553E-04 12111   0.201E-02    0.109E-02
RMM:   8    -0.698063197986E+03   -0.38903E-05   -0.59479E-05  9307   0.119E-02
  37 F= -.69806320E+03 E0= -.69805888E+03  d E =-.654528E-01
       N       E                     dE             d eps       ncg     rms          rms(c)
DAV:   1    -0.697964742331E+03    0.98452E-01   -0.34245E+01 11064   0.844E+00    0.927E-01
RMM:   2    -0.698079136279E+03   -0.11439E+00   -0.12036E+00 13307   0.227E+00    0.322E-01
RMM:   3    -0.698104535281E+03   -0.25399E-01   -0.26786E-01 15191   0.855E-01    0.301E-01
RMM:   4    -0.698106120547E+03   -0.15853E-02   -0.30817E-02 15362   0.285E-01    0.181E-01
RMM:   5    -0.698105916873E+03    0.20367E-03   -0.68490E-03 14706   0.126E-01    0.611E-02
RMM:   6    -0.698106014475E+03   -0.97601E-04   -0.14444E-03 15409   0.570E-02    0.382E-02
RMM:   7    -0.698106033963E+03   -0.19488E-04   -0.42694E-04 13251   0.264E-02    0.141E-02
RMM:   8    -0.698106041601E+03   -0.76384E-05   -0.10331E-04  9921   0.146E-02    0.831E-03
RMM:   9    -0.698106043725E+03   -0.21234E-05   -0.37715E-05  8742   0.895E-03
  38 F= -.69810604E+03 E0= -.69810147E+03  d E =-.108299E+00
       N       E                     dE             d eps       ncg     rms          rms(c)
DAV:   1    -0.698094390486E+03    0.11651E-01   -0.36976E+00 11384   0.277E+00    0.301E-01
RMM:   2    -0.698106217146E+03   -0.11827E-01   -0.12456E-01 13254   0.729E-01    0.105E-01
RMM:   3    -0.698108850120E+03   -0.26330E-02   -0.27783E-02 15168   0.274E-01    0.985E-02
RMM:   4    -0.698109008938E+03   -0.15882E-03   -0.31766E-03 15177   0.919E-02    0.589E-02
RMM:   5    -0.698108991405E+03    0.17533E-04   -0.73933E-04 14413   0.410E-02    0.213E-02
RMM:   6    -0.698108999213E+03   -0.78087E-05   -0.14840E-04 11943   0.187E-02    0.124E-02
RMM:   7    -0.698109001372E+03   -0.21582E-05   -0.47741E-05  9132   0.101E-02
  39 F= -.69810900E+03 E0= -.69810436E+03  d E =-.111256E+00
       N       E                     dE             d eps       ncg     rms          rms(c)
DAV:   1    -0.698064282160E+03    0.44717E-01   -0.23759E+01 11032   0.719E+00    0.820E-01
RMM:   2    -0.698143489773E+03   -0.79208E-01   -0.83996E-01 13238   0.195E+00    0.263E-01
RMM:   3    -0.698163304012E+03   -0.19814E-01   -0.20775E-01 15189   0.760E-01    0.252E-01
RMM:   4    -0.698164967260E+03   -0.16632E-02   -0.23844E-02 15472   0.254E-01    0.188E-01
RMM:   5    -0.698164591672E+03    0.37559E-03   -0.51030E-03 13903   0.110E-01    0.569E-02
RMM:   6    -0.698164677997E+03   -0.86325E-04   -0.12056E-03 15024   0.540E-02    0.441E-02
RMM:   7    -0.698164681414E+03   -0.34168E-05   -0.37932E-04 13106   0.251E-02    0.151E-02
RMM:   8    -0.698164688329E+03   -0.69147E-05   -0.87337E-05  9851   0.145E-02
  40 F= -.69816469E+03 E0= -.69816021E+03  d E =-.556870E-01
       N       E                     dE             d eps       ncg     rms          rms(c)
DAV:   1    -0.698085890371E+03    0.78791E-01   -0.25390E+01 11168   0.744E+00    0.853E-01
RMM:   2    -0.698170505719E+03   -0.84615E-01   -0.89928E-01 13225   0.202E+00    0.275E-01
RMM:   3    -0.698191745681E+03   -0.21240E-01   -0.22301E-01 15181   0.789E-01    0.263E-01
RMM:   4    -0.698193542851E+03   -0.17972E-02   -0.25598E-02 15452   0.263E-01    0.198E-01
RMM:   5    -0.698193127410E+03    0.41544E-03   -0.55537E-03 13949   0.115E-01    0.602E-02
RMM:   6    -0.698193218712E+03   -0.91302E-04   -0.12952E-03 15070   0.559E-02    0.465E-02
RMM:   7    -0.698193220921E+03   -0.22083E-05   -0.41209E-04 13195   0.261E-02    0.157E-02
RMM:   8    -0.698193228617E+03   -0.76963E-05   -0.94838E-05  9923   0.149E-02
  41 F= -.69819323E+03 E0= -.69818903E+03  d E =-.842272E-01
       N       E                     dE             d eps       ncg     rms          rms(c)
DAV:   1    -0.698179315611E+03    0.13905E-01   -0.41919E+00 11512   0.302E+00    0.347E-01
RMM:   2    -0.698192837452E+03   -0.13522E-01   -0.14385E-01 13176   0.799E-01    0.111E-01
RMM:   3    -0.698196102221E+03   -0.32648E-02   -0.34427E-02 15143   0.310E-01    0.107E-01
RMM:   4    -0.698196377859E+03   -0.27564E-03   -0.40032E-03 15335   0.104E-01    0.824E-02
RMM:   5    -0.698196309660E+03    0.68199E-04   -0.92730E-04 13966   0.460E-02    0.266E-02
RMM:   6    -0.698196321735E+03   -0.12075E-04   -0.20632E-04 12907   0.221E-02    0.182E-02
RMM:   7    -0.698196322215E+03   -0.48052E-06   -0.65996E-05  9504   0.118E-02
  42 F= -.69819632E+03 E0= -.69819228E+03  d E =-.873208E-01
       N       E                     dE             d eps       ncg     rms          rms(c)
DAV:   1    -0.698144639665E+03    0.51682E-01   -0.27163E+01 10935   0.759E+00    0.923E-01
RMM:   2    -0.698230179944E+03   -0.85540E-01   -0.93255E-01 13003   0.197E+00    0.303E-01
RMM:   3    -0.698250641912E+03   -0.20462E-01   -0.21925E-01 15205   0.778E-01    0.278E-01
RMM:   4    -0.698252290943E+03   -0.16490E-02   -0.25526E-02 15442   0.261E-01    0.207E-01
RMM:   5    -0.698251878465E+03    0.41248E-03   -0.62600E-03 13707   0.120E-01    0.698E-02
RMM:   6    -0.698251943465E+03   -0.65000E-04   -0.14419E-03 15373   0.575E-02    0.438E-02
RMM:   7    -0.698251951603E+03   -0.81372E-05   -0.41464E-04 13092   0.249E-02    0.145E-02
RMM:   8    -0.698251960606E+03   -0.90033E-05   -0.10372E-04 10135   0.155E-02    0.506E-03
RMM:   9    -0.698251963965E+03   -0.33594E-05   -0.38553E-05  8702   0.788E-03
  43 F= -.69825196E+03 E0= -.69824787E+03  d E =-.556417E-01
       N       E                     dE             d eps       ncg     rms          rms(c)
DAV:   1    -0.698091040224E+03    0.16092E+00   -0.51712E+01 11109   0.105E+01    0.129E+00
RMM:   2    -0.698256964668E+03   -0.16592E+00   -0.18150E+00 13063   0.274E+00    0.425E-01
RMM:   3    -0.698295722490E+03   -0.38758E-01   -0.41643E-01 15229   0.108E+00    0.385E-01
RMM:   4    -0.698298717661E+03   -0.29952E-02   -0.48367E-02 15408   0.360E-01    0.279E-01
RMM:   5    -0.698297959350E+03    0.75831E-03   -0.11937E-02 13886   0.166E-01    0.911E-02
RMM:   6    -0.698298088283E+03   -0.12893E-03   -0.27256E-03 15397   0.792E-02    0.558E-02
RMM:   7    -0.698298114182E+03   -0.25899E-04   -0.78496E-04 14060   0.342E-02    0.197E-02
RMM:   8    -0.698298131052E+03   -0.16871E-04   -0.18879E-04 10995   0.193E-02    0.644E-03
RMM:   9    -0.698298137686E+03   -0.66337E-05   -0.72868E-05  9430   0.101E-02
  44 F= -.69829814E+03 E0= -.69829410E+03  d E =-.101815E+00
       N       E                     dE             d eps       ncg     rms          rms(c)
DAV:   1    -0.697400930411E+03    0.89720E+00   -0.20667E+02 11025   0.211E+01    0.265E+00
RMM:   2    -0.698102239765E+03   -0.70131E+00   -0.77117E+00 13095   0.573E+00    0.884E-01
RMM:   3    -0.698274758791E+03   -0.17252E+00   -0.18465E+00 15370   0.229E+00    0.795E-01
RMM:   4    -0.698287360833E+03   -0.12602E-01   -0.21547E-01 15331   0.767E-01    0.543E-01
RMM:   5    -0.698284460313E+03    0.29005E-02   -0.48715E-02 14929   0.347E-01    0.137E-01
RMM:   6    -0.698285267464E+03   -0.80715E-03   -0.10840E-02 14110   0.165E-01    0.103E-01
RMM:   7    -0.698285458560E+03   -0.19110E-03   -0.36446E-03 15188   0.817E-02    0.364E-02
RMM:   8    -0.698285532867E+03   -0.74307E-04   -0.80705E-04 13239   0.367E-02    0.173E-02
RMM:   9    -0.698285555848E+03   -0.22980E-04   -0.27138E-04 10800   0.194E-02    0.598E-03
RMM:  10    -0.698285564024E+03   -0.81760E-05   -0.92723E-05  9610   0.119E-02
  45 F= -.69828556E+03 E0= -.69828214E+03  d E =-.892418E-01
       N       E                     dE             d eps       ncg     rms          rms(c)
DAV:   1    -0.697994273440E+03    0.29128E+00   -0.78485E+01 10816   0.130E+01    0.169E+00
RMM:   2    -0.698246033241E+03   -0.25176E+00   -0.27538E+00 13065   0.340E+00    0.530E-01
RMM:   3    -0.698306154694E+03   -0.60121E-01   -0.64867E-01 15239   0.135E+00    0.494E-01
RMM:   4    -0.698310965538E+03   -0.48108E-02   -0.74939E-02 15453   0.449E-01    0.375E-01
RMM:   5    -0.698309655140E+03    0.13104E-02   -0.17636E-02 13995   0.207E-01    0.102E-01
RMM:   6    -0.698309937148E+03   -0.28201E-03   -0.41844E-03 14973   0.101E-01    0.760E-02
RMM:   7    -0.698309962755E+03   -0.25606E-04   -0.13236E-03 14341   0.471E-02    0.310E-02
RMM:   8    -0.698309987031E+03   -0.24276E-04   -0.28581E-04 12231   0.242E-02    0.123E-02
RMM:   9    -0.698309994654E+03   -0.76225E-05   -0.99823E-05  9810   0.126E-02
  46 F= -.69830999E+03 E0= -.69830612E+03  d E =-.113672E+00
       N       E                     dE             d eps       ncg     rms          rms(c)
DAV:   1    -0.698273398860E+03    0.36588E-01   -0.21363E+01 10759   0.668E+00    0.900E-01
RMM:   2    -0.698340777592E+03   -0.67379E-01   -0.75646E-01 13082   0.174E+00    0.302E-01
RMM:   3    -0.698356811499E+03   -0.16034E-01   -0.17314E-01 15245   0.684E-01    0.245E-01
RMM:   4    -0.698358111457E+03   -0.13000E-02   -0.20117E-02 15451   0.232E-01    0.173E-01
RMM:   5    -0.698357882322E+03    0.22913E-03   -0.45227E-03 14142   0.102E-01    0.447E-02
RMM:   6    -0.698357957416E+03   -0.75094E-04   -0.10805E-03 15090   0.494E-02    0.293E-02
RMM:   7    -0.698357975298E+03   -0.17882E-04   -0.30688E-04 12459   0.221E-02    0.121E-02
RMM:   8    -0.698357981473E+03   -0.61746E-05   -0.80435E-05  9868   0.137E-02
  47 F= -.69835798E+03 E0= -.69835471E+03  d E =-.479868E-01
       N       E                     dE             d eps       ncg     rms          rms(c)
DAV:   1    -0.697615960130E+03    0.74202E+00   -0.19223E+02 10984   0.202E+01    0.291E+00
RMM:   2    -0.698287196286E+03   -0.67124E+00   -0.74625E+00 13203   0.551E+00    0.945E-01
RMM:   3    -0.698445787043E+03   -0.15859E+00   -0.17047E+00 15440   0.217E+00    0.748E-01
RMM:   4    -0.698457476787E+03   -0.11690E-01   -0.19955E-01 15412   0.734E-01    0.489E-01
RMM:   5    -0.698456003378E+03    0.14734E-02   -0.40885E-02 15157   0.316E-01    0.110E-01
RMM:   6    -0.698456828687E+03   -0.82531E-03   -0.98358E-03 14221   0.155E-01    0.746E-02
RMM:   7    -0.698457087478E+03   -0.25879E-03   -0.31880E-03 15195   0.767E-02    0.302E-02
RMM:   8    -0.698457155071E+03   -0.67593E-04   -0.74076E-04 12681   0.339E-02    0.162E-02
RMM:   9    -0.698457174312E+03   -0.19241E-04   -0.24366E-04 10675   0.178E-02    0.653E-03
RMM:  10    -0.698457181665E+03   -0.73530E-05   -0.86659E-05  9652   0.109E-02
  48 F= -.69845718E+03 E0= -.69845504E+03  d E =-.147187E+00
       N       E                     dE             d eps       ncg     rms          rms(c)
DAV:   1    -0.694295249654E+03    0.41619E+01   -0.77279E+02 10937   0.411E+01    0.815E+00
RMM:   2    -0.697496949728E+03   -0.32017E+01   -0.34841E+01 13057   0.122E+01    0.216E+00
RMM:   3    -0.698247313827E+03   -0.75036E+00   -0.80995E+00 15564   0.485E+00    0.183E+00
RMM:   4    -0.698290404229E+03   -0.43090E-01   -0.96728E-01 14963   0.168E+00    0.113E+00
RMM:   5    -0.698292672914E+03   -0.22687E-02   -0.19483E-01 15696   0.726E-01    0.466E-01
RMM:   6    -0.698294372748E+03   -0.16998E-02   -0.47411E-02 13803   0.370E-01    0.161E-01
RMM:   7    -0.698295845315E+03   -0.14726E-02   -0.16123E-02 15775   0.180E-01    0.658E-02
RMM:   8    -0.698296126602E+03   -0.28129E-03   -0.31942E-03 13374   0.713E-02    0.409E-02
RMM:   9    -0.698296195423E+03   -0.68821E-04   -0.98146E-04 13163   0.370E-02    0.112E-02
RMM:  10    -0.698296227132E+03   -0.31709E-04   -0.34875E-04 10627   0.201E-02    0.626E-03
RMM:  11    -0.698296236980E+03   -0.98479E-05   -0.11544E-04  9762   0.121E-02    0.307E-03
RMM:  12    -0.698296240621E+03   -0.36406E-05   -0.44397E-05  8671   0.802E-03
  49 F= -.69829624E+03 E0= -.69829279E+03  d E =0.137540E-01
       N       E                     dE             d eps       ncg     rms          rms(c)
DAV:   1    -0.695792600982E+03    0.25036E+01   -0.54240E+02 10688   0.343E+01    0.499E+00
RMM:   2    -0.697933493529E+03   -0.21409E+01   -0.23185E+01 13131   0.987E+00    0.168E+00
RMM:   3    -0.698437050364E+03   -0.50356E+00   -0.54200E+00 15414   0.393E+00    0.183E+00
RMM:   4    -0.698471882097E+03   -0.34832E-01   -0.66255E-01 15310   0.137E+00    0.127E+00
RMM:   5    -0.698469099821E+03    0.27823E-02   -0.13468E-01 15044   0.594E-01    0.294E-01
RMM:   6    -0.698471948800E+03   -0.28490E-02   -0.33042E-02 13632   0.311E-01    0.253E-01
RMM:   7    -0.698472158103E+03   -0.20930E-03   -0.13833E-02 15010   0.163E-01    0.971E-02
RMM:   8    -0.698472327393E+03   -0.16929E-03   -0.22289E-03 15059   0.617E-02    0.716E-02
RMM:   9    -0.698472329814E+03   -0.24212E-05   -0.76271E-04 13251   0.362E-02    0.207E-02
RMM:  10    -0.698472343218E+03   -0.13404E-04   -0.21905E-04 10807   0.184E-02    0.772E-03
RMM:  11    -0.698472349445E+03   -0.62269E-05   -0.80013E-05  9386   0.115E-02
  50 F= -.69847235E+03 E0= -.69847008E+03  d E =-.162355E+00
       N       E                     dE             d eps       ncg     rms          rms(c)
DAV:   1    -0.698384227768E+03    0.88115E-01   -0.40704E+01 10606   0.921E+00    0.142E+00
RMM:   2    -0.698524963700E+03   -0.14074E+00   -0.15368E+00 13339   0.244E+00    0.467E-01
RMM:   3    -0.698555275217E+03   -0.30312E-01   -0.33133E-01 15412   0.939E-01    0.321E-01
RMM:   4    -0.698557445988E+03   -0.21708E-02   -0.38340E-02 15501   0.319E-01    0.186E-01
RMM:   5    -0.698557465238E+03   -0.19250E-04   -0.81587E-03 15274   0.134E-01    0.435E-02
RMM:   6    -0.698557633234E+03   -0.16800E-03   -0.19016E-03 15348   0.629E-02    0.272E-02
RMM:   7    -0.698557685237E+03   -0.52004E-04   -0.55917E-04 13225   0.300E-02    0.138E-02
RMM:   8    -0.698557697502E+03   -0.12265E-04   -0.15224E-04 10379   0.167E-02    0.327E-03
RMM:   9    -0.698557702195E+03   -0.46934E-05   -0.57008E-05  9423   0.988E-03
  51 F= -.69855770E+03 E0= -.69855527E+03  d E =-.853528E-01
       N       E                     dE             d eps       ncg     rms          rms(c)
DAV:   1    -0.698058593871E+03    0.49910E+00   -0.12569E+02 10782   0.162E+01    0.306E+00
RMM:   2    -0.698524115112E+03   -0.46552E+00   -0.49812E+00 13442   0.437E+00    0.906E-01
RMM:   3    -0.698621632678E+03   -0.97518E-01   -0.10812E+00 15490   0.168E+00    0.575E-01
RMM:   4    -0.698628157700E+03   -0.65250E-02   -0.12338E-01 15423   0.567E-01    0.302E-01
RMM:   5    -0.698628721227E+03   -0.56353E-03   -0.24609E-02 15520   0.234E-01    0.769E-02
RMM:   6    -0.698629246097E+03   -0.52487E-03   -0.55547E-03 15592   0.108E-01    0.446E-02
RMM:   7    -0.698629397728E+03   -0.15163E-03   -0.15955E-03 15075   0.515E-02    0.187E-02
RMM:   8    -0.698629440604E+03   -0.42876E-04   -0.45991E-04 12176   0.266E-02    0.529E-03
RMM:   9    -0.698629454456E+03   -0.13852E-04   -0.15853E-04 10397   0.150E-02    0.324E-03
RMM:  10    -0.698629458827E+03   -0.43707E-05   -0.54441E-05  9395   0.927E-03
  52 F= -.69862946E+03 E0= -.69862652E+03  d E =-.157109E+00
       N       E                     dE             d eps       ncg     rms          rms(c)
DAV:   1    -0.698637210493E+03   -0.77560E-02   -0.13426E+01 11368   0.546E+00    0.721E-01
RMM:   2    -0.698686014898E+03   -0.48804E-01   -0.51048E-01 13401   0.151E+00    0.241E-01
RMM:   3    -0.698697138384E+03   -0.11123E-01   -0.12132E-01 15369   0.580E-01    0.186E-01
RMM:   4    -0.698697711333E+03   -0.57295E-03   -0.13385E-02 15456   0.196E-01    0.920E-02
RMM:   5    -0.698697723182E+03   -0.11849E-04   -0.27976E-03 15198   0.852E-02    0.253E-02
RMM:   6    -0.698697777734E+03   -0.54551E-04   -0.63548E-04 14910   0.388E-02    0.181E-02
RMM:   7    -0.698697791144E+03   -0.13410E-04   -0.18243E-04 11901   0.197E-02    0.106E-02
RMM:   8    -0.698697793165E+03   -0.20212E-05   -0.50023E-05  9327   0.110E-02
  53 F= -.69869779E+03 E0= -.69869468E+03  d E =-.683343E-01
       N       E                     dE             d eps       ncg     rms          rms(c)
DAV:   1    -0.698636757182E+03    0.61034E-01   -0.22483E+01 10840   0.705E+00    0.941E-01
RMM:   2    -0.698720348429E+03   -0.83591E-01   -0.87384E-01 13479   0.197E+00    0.317E-01
RMM:   3    -0.698739048262E+03   -0.18700E-01   -0.20416E-01 15384   0.751E-01    0.242E-01
RMM:   4    -0.698740026186E+03   -0.97792E-03   -0.22510E-02 15512   0.253E-01    0.122E-01
RMM:   5    -0.698740029464E+03   -0.32773E-05   -0.46799E-03 15173   0.109E-01    0.325E-02
RMM:   6    -0.698740120176E+03   -0.90712E-04   -0.10584E-03 15105   0.500E-02    0.234E-02
RMM:   7    -0.698740143044E+03   -0.22868E-04   -0.30157E-04 12875   0.246E-02    0.135E-02
RMM:   8    -0.698740147109E+03   -0.40651E-05   -0.82387E-05  9811   0.133E-02
  54 F= -.69874015E+03 E0= -.69873686E+03  d E =-.110688E+00
       N       E                     dE             d eps       ncg     rms          rms(c)
DAV:   1    -0.698735262741E+03    0.48803E-02   -0.16333E+00 11400   0.189E+00    0.254E-01
RMM:   2    -0.698741054897E+03   -0.57922E-02   -0.60671E-02 13404   0.518E-01    0.846E-02
RMM:   3    -0.698742338738E+03   -0.12838E-02   -0.14049E-02 15360   0.198E-01    0.654E-02
RMM:   4    -0.698742404645E+03   -0.65907E-04   -0.15787E-03 15252   0.677E-02    0.334E-02
RMM:   5    -0.698742405391E+03   -0.74613E-06   -0.34438E-04 13814   0.301E-02    0.839E-03
RMM:   6    -0.698742411347E+03   -0.59554E-05   -0.76012E-05 10517   0.144E-02
  55 F= -.69874241E+03 E0= -.69873908E+03  d E =-.112953E+00
       N       E                     dE             d eps       ncg     rms          rms(c)
DAV:   1    -0.698721070037E+03    0.21335E-01   -0.19707E+01 10824   0.674E+00    0.719E-01
RMM:   2    -0.698789360944E+03   -0.68291E-01   -0.72199E-01 13306   0.187E+00    0.258E-01
RMM:   3    -0.698806203739E+03   -0.16843E-01   -0.18363E-01 15302   0.731E-01    0.238E-01
RMM:   4    -0.698807059229E+03   -0.85549E-03   -0.19979E-02 15413   0.242E-01    0.133E-01
RMM:   5    -0.698806838060E+03    0.22117E-03   -0.45691E-03 14724   0.109E-01    0.453E-02
RMM:   6    -0.698806910019E+03   -0.71959E-04   -0.10343E-03 15287   0.499E-02    0.327E-02
RMM:   7    -0.698806919231E+03   -0.92127E-05   -0.30799E-04 13217   0.245E-02    0.163E-02
RMM:   8    -0.698806921388E+03   -0.21565E-05   -0.76290E-05  9707   0.129E-02
  56 F= -.69880692E+03 E0= -.69880346E+03  d E =-.645100E-01
       N       E                     dE             d eps       ncg     rms          rms(c)
DAV:   1    -0.698785115103E+03    0.21804E-01   -0.88200E+00 11248   0.451E+00    0.485E-01
RMM:   2    -0.698815272351E+03   -0.30157E-01   -0.31891E-01 13321   0.124E+00    0.172E-01
RMM:   3    -0.698822462462E+03   -0.71901E-02   -0.78737E-02 15305   0.481E-01    0.157E-01
RMM:   4    -0.698822814126E+03   -0.35166E-03   -0.86306E-03 15352   0.159E-01    0.856E-02
RMM:   5    -0.698822723885E+03    0.90241E-04   -0.19811E-03 14750   0.718E-02    0.290E-02
RMM:   6    -0.698822755725E+03   -0.31840E-04   -0.45329E-04 14715   0.329E-02    0.207E-02
RMM:   7    -0.698822760296E+03   -0.45702E-05   -0.13410E-04 11240   0.166E-02    0.105E-02
RMM:   8    -0.698822761284E+03   -0.98887E-06   -0.35079E-05  8639   0.980E-03
  57 F= -.69882276E+03 E0= -.69881925E+03  d E =-.803499E-01
       N       E                     dE             d eps       ncg     rms          rms(c)
DAV:   1    -0.698802181988E+03    0.20578E-01   -0.15760E+01 10600   0.593E+00    0.657E-01
RMM:   2    -0.698853637866E+03   -0.51456E-01   -0.54317E-01 13118   0.156E+00    0.219E-01
RMM:   3    -0.698865937737E+03   -0.12300E-01   -0.13329E-01 15268   0.617E-01    0.209E-01
RMM:   4    -0.698866614989E+03   -0.67725E-03   -0.14001E-02 15464   0.200E-01    0.131E-01
RMM:   5    -0.698866417469E+03    0.19752E-03   -0.35339E-03 14288   0.910E-02    0.545E-02
RMM:   6    -0.698866447274E+03   -0.29805E-04   -0.75073E-04 15314   0.421E-02    0.314E-02
RMM:   7    -0.698866456769E+03   -0.94944E-05   -0.25750E-04 12427   0.203E-02    0.174E-02
RMM:   8    -0.698866456883E+03   -0.11425E-06   -0.59135E-05  9246   0.115E-02
  58 F= -.69886646E+03 E0= -.69886293E+03  d E =-.436956E-01
       N       E                     dE             d eps       ncg     rms          rms(c)
DAV:   1    -0.698832728912E+03    0.33728E-01   -0.12189E+01 10840   0.521E+00    0.575E-01
RMM:   2    -0.698872411753E+03   -0.39683E-01   -0.41876E-01 13106   0.137E+00    0.192E-01
RMM:   3    -0.698881910545E+03   -0.94988E-02   -0.10285E-01 15257   0.542E-01    0.184E-01
RMM:   4    -0.698882442210E+03   -0.53167E-03   -0.10866E-02 15430   0.175E-01    0.115E-01
RMM:   5    -0.698882293466E+03    0.14874E-03   -0.27430E-03 14338   0.799E-02    0.489E-02
RMM:   6    -0.698882315148E+03   -0.21682E-04   -0.57823E-04 15187   0.367E-02    0.276E-02
RMM:   7    -0.698882322832E+03   -0.76838E-05   -0.20108E-04 11699   0.179E-02    0.154E-02
RMM:   8    -0.698882322894E+03   -0.62515E-07   -0.47149E-05  8997   0.108E-02
  59 F= -.69888232E+03 E0= -.69887878E+03  d E =-.595616E-01
       N       E                     dE             d eps       ncg     rms          rms(c)
DAV:   1    -0.698846709682E+03    0.35613E-01   -0.15471E+01 10880   0.593E+00    0.636E-01
RMM:   2    -0.698896946094E+03   -0.50236E-01   -0.53142E-01 13113   0.160E+00    0.222E-01
RMM:   3    -0.698910068871E+03   -0.13123E-01   -0.13995E-01 15187   0.638E-01    0.200E-01
RMM:   4    -0.698911015403E+03   -0.94653E-03   -0.15324E-02 15464   0.207E-01    0.132E-01
RMM:   5    -0.698910818444E+03    0.19696E-03   -0.33733E-03 14220   0.897E-02    0.484E-02
RMM:   6    -0.698910862636E+03   -0.44192E-04   -0.76167E-04 15288   0.423E-02    0.315E-02
RMM:   7    -0.698910869465E+03   -0.68290E-05   -0.24533E-04 12612   0.202E-02    0.147E-02
RMM:   8    -0.698910871347E+03   -0.18820E-05   -0.56956E-05  9172   0.115E-02
  60 F= -.69891087E+03 E0= -.69890733E+03  d E =-.285485E-01
       N       E                     dE             d eps       ncg     rms          rms(c)
DAV:   1    -0.698900384475E+03    0.10485E-01   -0.38251E+00 11496   0.294E+00    0.315E-01
RMM:   2    -0.698912518916E+03   -0.12134E-01   -0.12841E-01 13072   0.780E-01    0.110E-01
RMM:   3    -0.698915631251E+03   -0.31123E-02   -0.33279E-02 15176   0.311E-01    0.990E-02
RMM:   4    -0.698915852455E+03   -0.22120E-03   -0.36520E-03 15364   0.101E-01    0.649E-02
RMM:   5    -0.698915810210E+03    0.42245E-04   -0.84593E-04 14396   0.445E-02    0.252E-02
RMM:   6    -0.698915818549E+03   -0.83386E-05   -0.17737E-04 12693   0.205E-02    0.151E-02
RMM:   7    -0.698915820557E+03   -0.20080E-05   -0.60677E-05  9453   0.114E-02
  61 F= -.69891582E+03 E0= -.69891228E+03  d E =-.334977E-01
       N       E                     dE             d eps       ncg     rms          rms(c)
DAV:   1    -0.698872003451E+03    0.43815E-01   -0.15512E+01 11008   0.598E+00    0.596E-01
RMM:   2    -0.698921097187E+03   -0.49094E-01   -0.51555E-01 13065   0.161E+00    0.203E-01
RMM:   3    -0.698934689170E+03   -0.13592E-01   -0.14205E-01 15093   0.651E-01    0.192E-01
RMM:   4    -0.698935826365E+03   -0.11372E-02   -0.15753E-02 15458   0.212E-01    0.139E-01
RMM:   5    -0.698935578563E+03    0.24780E-03   -0.31240E-03 13784   0.904E-02    0.468E-02
RMM:   6    -0.698935640034E+03   -0.61470E-04   -0.79184E-04 15170   0.448E-02    0.387E-02
RMM:   7    -0.698935635724E+03    0.43098E-05   -0.24764E-04 12604   0.215E-02    0.148E-02
RMM:   8    -0.698935639227E+03   -0.35029E-05   -0.59348E-05  9088   0.126E-02
  62 F= -.69893564E+03 E0= -.69893210E+03  d E =-.198187E-01
       N       E                     dE             d eps       ncg     rms          rms(c)
DAV:   1    -0.698930721627E+03    0.49141E-02   -0.18183E+00 11680   0.204E+00    0.203E-01
RMM:   2    -0.698936284773E+03   -0.55631E-02   -0.58425E-02 13036   0.536E-01    0.685E-02
RMM:   3    -0.698937769354E+03   -0.14846E-02   -0.15561E-02 15070   0.216E-01    0.648E-02
RMM:   4    -0.698937892444E+03   -0.12309E-03   -0.17314E-03 15318   0.710E-02    0.470E-02
RMM:   5    -0.698937867495E+03    0.24949E-04   -0.39078E-04 13336   0.311E-02    0.183E-02
RMM:   6    -0.698937871238E+03   -0.37431E-05   -0.77619E-05 10480   0.148E-02
  63 F= -.69893787E+03 E0= -.69893435E+03  d E =-.220507E-01
       N       E                     dE             d eps       ncg     rms          rms(c)
DAV:   1    -0.698914203303E+03    0.23664E-01   -0.80687E+00 10952   0.432E+00    0.447E-01
RMM:   2    -0.698940366752E+03   -0.26163E-01   -0.27328E-01 13120   0.116E+00    0.146E-01
RMM:   3    -0.698947248486E+03   -0.68817E-02   -0.72100E-02 15158   0.462E-01    0.140E-01
RMM:   4    -0.698947778521E+03   -0.53004E-03   -0.78599E-03 15437   0.150E-01    0.984E-02
RMM:   5    -0.698947668838E+03    0.10968E-03   -0.16613E-03 14240   0.644E-02    0.327E-02
RMM:   6    -0.698947698828E+03   -0.29991E-04   -0.39050E-04 14671   0.309E-02    0.255E-02
RMM:   7    -0.698947699431E+03   -0.60299E-06   -0.12040E-04 11296   0.154E-02    0.103E-02
RMM:   8    -0.698947702074E+03   -0.26433E-05   -0.33303E-05  8282   0.950E-03
  64 F= -.69894770E+03 E0= -.69894415E+03  d E =-.983084E-02
       N       E                     dE             d eps       ncg     rms          rms(c)
DAV:   1    -0.698947021737E+03    0.67769E-03   -0.27604E-01 11752   0.797E-01    0.823E-02
RMM:   2    -0.698947891725E+03   -0.86999E-03   -0.90818E-03 13074   0.209E-01    0.264E-02
RMM:   3    -0.698948114185E+03   -0.22246E-03   -0.23413E-03 15047   0.833E-02    0.253E-02
RMM:   4    -0.698948131361E+03   -0.17176E-04   -0.26044E-04 13399   0.280E-02    0.182E-02
RMM:   5    -0.698948128902E+03    0.24598E-05   -0.74029E-05 10559   0.160E-02
  65 F= -.69894813E+03 E0= -.69894458E+03  d E =-.102577E-01
       N       E                     dE             d eps       ncg     rms          rms(c)
DAV:   1    -0.698932803862E+03    0.15327E-01   -0.55839E+00 11360   0.357E+00    0.356E-01
RMM:   2    -0.698949617525E+03   -0.16814E-01   -0.17639E-01 12837   0.924E-01    0.117E-01
RMM:   3    -0.698954047654E+03   -0.44301E-02   -0.46109E-02 14987   0.375E-01    0.112E-01
RMM:   4    -0.698954431243E+03   -0.38359E-03   -0.55469E-03 15391   0.125E-01    0.802E-02
RMM:   5    -0.698954363759E+03    0.67484E-04   -0.11812E-03 13810   0.544E-02    0.301E-02
RMM:   6    -0.698954382212E+03   -0.18453E-04   -0.28140E-04 14007   0.267E-02    0.225E-02
RMM:   7    -0.698954381713E+03    0.49830E-06   -0.92417E-05 10275   0.136E-02
  66 F= -.69895438E+03 E0= -.69895085E+03  d E =-.625281E-02
       N       E                     dE             d eps       ncg     rms          rms(c)
DAV:   1    -0.698953667098E+03    0.71511E-03   -0.34033E-01 12024   0.882E-01    0.833E-02
RMM:   2    -0.698954691286E+03   -0.10242E-02   -0.10740E-02 12843   0.226E-01    0.283E-02
RMM:   3    -0.698954952586E+03   -0.26130E-03   -0.27559E-03 14928   0.916E-02    0.285E-02
RMM:   4    -0.698954974041E+03   -0.21454E-04   -0.33480E-04 13980   0.311E-02    0.201E-02
RMM:   5    -0.698954971475E+03    0.25655E-05   -0.93308E-05 10763   0.167E-02
  67 F= -.69895497E+03 E0= -.69895145E+03  d E =-.684257E-02
       N       E                     dE             d eps       ncg     rms          rms(c)
DAV:   1    -0.698949780050E+03    0.51940E-02   -0.13588E+00 11312   0.176E+00    0.178E-01
RMM:   2    -0.698953876310E+03   -0.40963E-02   -0.42990E-02 12846   0.457E-01    0.581E-02
RMM:   3    -0.698954970726E+03   -0.10944E-02   -0.11359E-02 14979   0.186E-01    0.546E-02
RMM:   4    -0.698955067355E+03   -0.96629E-04   -0.13631E-03 15277   0.626E-02    0.401E-02
RMM:   5    -0.698955052255E+03    0.15100E-04   -0.30643E-04 12839   0.278E-02    0.152E-02
RMM:   6    -0.698955055806E+03   -0.35513E-05   -0.63366E-05  9691   0.136E-02
  68 F= -.69895506E+03 E0= -.69895155E+03  d E =-.692690E-02
       N       E                     dE             d eps       ncg     rms          rms(c)
DAV:   1    -0.698953514278E+03    0.15380E-02   -0.44742E-01 11248   0.101E+00    0.102E-01
RMM:   2    -0.698954820856E+03   -0.13066E-02   -0.13717E-02 12807   0.256E-01    0.337E-02
RMM:   3    -0.698955159740E+03   -0.33888E-03   -0.35461E-03 14904   0.104E-01    0.302E-02
RMM:   4    -0.698955189593E+03   -0.29853E-04   -0.42565E-04 14703   0.353E-02    0.219E-02
RMM:   5    -0.698955185813E+03    0.37799E-05   -0.10198E-04 10708   0.167E-02    0.994E-03
RMM:   6    -0.698955186138E+03   -0.32534E-06   -0.21276E-05  7367   0.849E-03
  69 F= -.69895519E+03 E0= -.69895167E+03  d E =-.705724E-02
       N       E                     dE             d eps       ncg     rms          rms(c)
DAV:   1    -0.698934575856E+03    0.20610E-01   -0.66305E+00 11280   0.390E+00    0.392E-01
RMM:   2    -0.698954465737E+03   -0.19890E-01   -0.20792E-01 12823   0.100E+00    0.130E-01
RMM:   3    -0.698959672223E+03   -0.52065E-02   -0.53964E-02 14944   0.408E-01    0.119E-01
RMM:   4    -0.698960133404E+03   -0.46118E-03   -0.65353E-03 15439   0.137E-01    0.855E-02
RMM:   5    -0.698960075090E+03    0.58314E-04   -0.13486E-03 14173   0.575E-02    0.332E-02
RMM:   6    -0.698960093906E+03   -0.18816E-04   -0.30099E-04 13923   0.276E-02    0.233E-02
RMM:   7    -0.698960094169E+03   -0.26326E-06   -0.10158E-04 10435   0.142E-02    0.830E-03
RMM:   8    -0.698960095975E+03   -0.18061E-05   -0.26345E-05  8103   0.918E-03
  70 F= -.69896010E+03 E0= -.69895657E+03  d E =-.490984E-02
       N       E                     dE             d eps       ncg     rms          rms(c)
DAV:   1    -0.698959587684E+03    0.50649E-03   -0.18822E-01 12176   0.657E-01    0.640E-02
RMM:   2    -0.698960142140E+03   -0.55446E-03   -0.57912E-03 12803   0.165E-01    0.216E-02
RMM:   3    -0.698960281752E+03   -0.13961E-03   -0.14595E-03 14863   0.669E-02    0.200E-02
RMM:   4    -0.698960293828E+03   -0.12076E-04   -0.18136E-04 12676   0.231E-02    0.141E-02
RMM:   5    -0.698960293257E+03    0.57140E-06   -0.52438E-05  9633   0.138E-02
  71 F= -.69896029E+03 E0= -.69895676E+03  d E =-.510712E-02
       N       E                     dE             d eps       ncg     rms          rms(c)
DAV:   1    -0.698949426836E+03    0.10867E-01   -0.36845E+00 11079   0.289E+00    0.308E-01
RMM:   2    -0.698960639458E+03   -0.11213E-01   -0.11707E-01 12801   0.742E-01    0.977E-02
RMM:   3    -0.698963480852E+03   -0.28414E-02   -0.29569E-02 14939   0.300E-01    0.894E-02
RMM:   4    -0.698963724175E+03   -0.24332E-03   -0.36225E-03 15382   0.101E-01    0.619E-02
RMM:   5    -0.698963698723E+03    0.25452E-04   -0.76120E-04 14287   0.427E-02    0.230E-02
RMM:   6    -0.698963709451E+03   -0.10727E-04   -0.16882E-04 12366   0.202E-02    0.156E-02
RMM:   7    -0.698963710981E+03   -0.15307E-05   -0.54203E-05  9230   0.112E-02
  72 F= -.69896371E+03 E0= -.69896019E+03  d E =-.341772E-02
       N       E                     dE             d eps       ncg     rms          rms(c)
DAV:   1    -0.698963523433E+03    0.18602E-03   -0.10050E-01 12000   0.478E-01    0.473E-02
RMM:   2    -0.698963834891E+03   -0.31146E-03   -0.32496E-03 12827   0.123E-01    0.158E-02
RMM:   3    -0.698963910142E+03   -0.75251E-04   -0.80870E-04 14592   0.497E-02    0.155E-02
RMM:   4    -0.698963916952E+03   -0.68103E-05   -0.10877E-04 12094   0.183E-02    0.103E-02
RMM:   5    -0.698963916591E+03    0.36073E-06   -0.30972E-05  8248   0.109E-02
  73 F= -.69896392E+03 E0= -.69896040E+03  d E =-.362333E-02
       N       E                     dE             d eps       ncg     rms          rms(c)
DAV:   1    -0.698962474101E+03    0.14429E-02   -0.40034E-01 11128   0.954E-01    0.102E-01
RMM:   2    -0.698963692551E+03   -0.12184E-02   -0.12720E-02 12787   0.245E-01    0.324E-02
RMM:   3    -0.698964009016E+03   -0.31647E-03   -0.32865E-03 14917   0.996E-02    0.294E-02
RMM:   4    -0.698964036850E+03   -0.27834E-04   -0.40007E-04 14551   0.337E-02    0.211E-02
RMM:   5    -0.698964034325E+03    0.25247E-05   -0.97649E-05 10514   0.168E-02
  74 F= -.69896403E+03 E0= -.69896053E+03  d E =-.374107E-02
       N       E                     dE             d eps       ncg     rms          rms(c)
DAV:   1    -0.698955970171E+03    0.80667E-02   -0.27078E+00 11271   0.249E+00    0.254E-01
RMM:   2    -0.698963909608E+03   -0.79394E-02   -0.82808E-02 12690   0.639E-01    0.807E-02
RMM:   3    -0.698966180512E+03   -0.22709E-02   -0.23057E-02 14909   0.266E-01    0.736E-02
RMM:   4    -0.698966402491E+03   -0.22198E-03   -0.28039E-03 15435   0.895E-02    0.589E-02
RMM:   5    -0.698966375544E+03    0.26947E-04   -0.56844E-04 13552   0.370E-02    0.253E-02
RMM:   6    -0.698966383481E+03   -0.79367E-05   -0.13026E-04 11990   0.183E-02    0.184E-02
RMM:   7    -0.698966381858E+03    0.16229E-05   -0.45282E-05  9077   0.110E-02
  75 F= -.69896638E+03 E0= -.69896287E+03  d E =-.234753E-02
       N       E                     dE             d eps       ncg     rms          rms(c)
DAV:   1    -0.698966084041E+03    0.29944E-03   -0.16621E-01 11832   0.617E-01    0.581E-02
RMM:   2    -0.698966571139E+03   -0.48710E-03   -0.50738E-03 12738   0.155E-01    0.192E-02
RMM:   3    -0.698966700910E+03   -0.12977E-03   -0.13414E-03 14765   0.640E-02    0.192E-02
RMM:   4    -0.698966713306E+03   -0.12396E-04   -0.16694E-04 12661   0.222E-02    0.154E-02
RMM:   5    -0.698966712546E+03    0.75960E-06   -0.53617E-05  9456   0.134E-02
  76 F= -.69896671E+03 E0= -.69896320E+03  d E =-.267822E-02
       N       E                     dE             d eps       ncg     rms          rms(c)
DAV:   1    -0.698964496675E+03    0.22166E-02   -0.66206E-01 11280   0.123E+00    0.127E-01
RMM:   2    -0.698966440416E+03   -0.19437E-02   -0.20275E-02 12704   0.315E-01    0.401E-02
RMM:   3    -0.698966998204E+03   -0.55779E-03   -0.56502E-03 14934   0.131E-01    0.363E-02
RMM:   4    -0.698967052113E+03   -0.53909E-04   -0.67817E-04 15005   0.443E-02    0.292E-02
RMM:   5    -0.698967047056E+03    0.50565E-05   -0.15971E-04 11939   0.204E-02    0.133E-02
RMM:   6    -0.698967048036E+03   -0.97951E-06   -0.31985E-05  8635   0.989E-03
  77 F= -.69896705E+03 E0= -.69896353E+03  d E =-.301371E-02
       N       E                     dE             d eps       ncg     rms          rms(c)
DAV:   1    -0.698964624445E+03    0.24226E-02   -0.10441E+00 10927   0.154E+00    0.159E-01
RMM:   2    -0.698968007191E+03   -0.33827E-02   -0.35401E-02 12959   0.401E-01    0.515E-02
RMM:   3    -0.698968795360E+03   -0.78817E-03   -0.84097E-03 15185   0.159E-01    0.524E-02
RMM:   4    -0.698968846659E+03   -0.51299E-04   -0.98333E-04 14985   0.529E-02    0.330E-02
RMM:   5    -0.698968839217E+03    0.74422E-05   -0.25837E-04 12540   0.256E-02    0.134E-02
RMM:   6    -0.698968841201E+03   -0.19837E-05   -0.48736E-05  9369   0.119E-02
  78 F= -.69896884E+03 E0= -.69896532E+03  d E =-.179317E-02
       N       E                     dE             d eps       ncg     rms          rms(c)
DAV:   1    -0.698968722577E+03    0.11664E-03   -0.74235E-02 11832   0.410E-01    0.409E-02
RMM:   2    -0.698968976124E+03   -0.25355E-03   -0.26568E-03 12995   0.111E-01    0.140E-02
RMM:   3    -0.698969033987E+03   -0.57863E-04   -0.63130E-04 14895   0.438E-02    0.150E-02
RMM:   4    -0.698969038057E+03   -0.40705E-05   -0.86383E-05 11673   0.164E-02
  79 F= -.69896904E+03 E0= -.69896551E+03  d E =-.199002E-02
       N       E                     dE             d eps       ncg     rms          rms(c)
DAV:   1    -0.698967930981E+03    0.11030E-02   -0.29232E-01 11032   0.812E-01    0.867E-02
RMM:   2    -0.698968859371E+03   -0.92839E-03   -0.97217E-03 12988   0.205E-01    0.273E-02
RMM:   3    -0.698969061829E+03   -0.20246E-03   -0.21631E-03 15099   0.807E-02    0.260E-02
RMM:   4    -0.698969075865E+03   -0.14036E-04   -0.26600E-04 13196   0.271E-02    0.159E-02
RMM:   5    -0.698969074695E+03    0.11702E-05   -0.73206E-05 10103   0.146E-02
  80 F= -.69896907E+03 E0= -.69896555E+03  d E =-.202666E-02
       N       E                     dE             d eps       ncg     rms          rms(c)
DAV:   1    -0.698968690258E+03    0.38561E-03   -0.10826E-01 10928   0.494E-01    0.494E-02
RMM:   2    -0.698969033587E+03   -0.34333E-03   -0.35933E-03 12988   0.126E-01    0.167E-02
RMM:   3    -0.698969105117E+03   -0.71530E-04   -0.78676E-04 14910   0.493E-02    0.171E-02
RMM:   4    -0.698969109271E+03   -0.41541E-05   -0.98299E-05 12137   0.178E-02
  81 F= -.69896911E+03 E0= -.69896558E+03  d E =-.206124E-02
       N       E                     dE             d eps       ncg     rms          rms(c)
DAV:   1    -0.698968993557E+03    0.11156E-03   -0.27483E-02 11198   0.250E-01    0.238E-02
RMM:   2    -0.698969091690E+03   -0.98133E-04   -0.10304E-03 13023   0.686E-02    0.887E-03
RMM:   3    -0.698969112057E+03   -0.20367E-04   -0.23359E-04 13737   0.272E-02    0.101E-02
RMM:   4    -0.698969112946E+03   -0.88844E-06   -0.33558E-05  6937   0.125E-02
  82 F= -.69896911E+03 E0= -.69896559E+03  d E =-.206491E-02
       N       E                     dE             d eps       ncg     rms          rms(c)
DAV:   1    -0.698965856801E+03    0.32553E-02   -0.11001E+00 11190   0.160E+00    0.160E-01
RMM:   2    -0.698969255470E+03   -0.33987E-02   -0.35407E-02 12892   0.416E-01    0.529E-02
RMM:   3    -0.698970144208E+03   -0.88874E-03   -0.92557E-03 14991   0.168E-01    0.490E-02
RMM:   4    -0.698970222552E+03   -0.78344E-04   -0.10968E-03 15104   0.565E-02    0.351E-02
RMM:   5    -0.698970213646E+03    0.89064E-05   -0.25538E-04 12530   0.257E-02    0.141E-02
RMM:   6    -0.698970215558E+03   -0.19124E-05   -0.48296E-05  9415   0.122E-02
  83 F= -.69897022E+03 E0= -.69896669E+03  d E =-.110261E-02
       N       E                     dE             d eps       ncg     rms          rms(c)
DAV:   1    -0.698970206078E+03    0.75680E-05   -0.12744E-02 12064   0.173E-01    0.156E-02
RMM:   2    -0.698970253208E+03   -0.47130E-04   -0.49515E-04 13000   0.501E-02    0.589E-03
RMM:   3    -0.698970263989E+03   -0.10780E-04   -0.12455E-04 12409   0.202E-02    0.673E-03
RMM:   4    -0.698970264961E+03   -0.97207E-06   -0.21016E-05  6149   0.107E-02
  84 F= -.69897026E+03 E0= -.69896674E+03  d E =-.115201E-02
       N       E                     dE             d eps       ncg     rms          rms(c)
DAV:   1    -0.698969600743E+03    0.66325E-03   -0.32469E-01 10774   0.863E-01    0.926E-02
RMM:   2    -0.698970705728E+03   -0.11050E-02   -0.11587E-02 13297   0.234E-01    0.305E-02
RMM:   3    -0.698970960328E+03   -0.25460E-03   -0.27374E-03 15191   0.902E-02    0.292E-02
RMM:   4    -0.698970975862E+03   -0.15533E-04   -0.31218E-04 14455   0.309E-02    0.179E-02
RMM:   5    -0.698970972808E+03    0.30534E-05   -0.79395E-05 10627   0.157E-02
  85 F= -.69897097E+03 E0= -.69896745E+03  d E =-.707848E-03
       N       E                     dE             d eps       ncg     rms          rms(c)
DAV:   1    -0.698970961169E+03    0.14693E-04   -0.13317E-02 11656   0.176E-01    0.215E-02
RMM:   2    -0.698971011855E+03   -0.50685E-04   -0.53936E-04 13211   0.521E-02    0.652E-03
RMM:   3    -0.698971023961E+03   -0.12106E-04   -0.13865E-04 12692   0.209E-02    0.562E-03
RMM:   4    -0.698971025044E+03   -0.10827E-05   -0.21615E-05  6088   0.106E-02
  86 F= -.69897103E+03 E0= -.69896750E+03  d E =-.760083E-03
       N       E                     dE             d eps       ncg     rms          rms(c)
DAV:   1    -0.698970570038E+03    0.45392E-03   -0.21496E-01 10768   0.689E-01    0.754E-02
RMM:   2    -0.698971250346E+03   -0.68031E-03   -0.71418E-03 13005   0.180E-01    0.240E-02
RMM:   3    -0.698971413059E+03   -0.16271E-03   -0.17321E-03 15006   0.713E-02    0.226E-02
RMM:   4    -0.698971424063E+03   -0.11004E-04   -0.19684E-04 12650   0.243E-02    0.145E-02
RMM:   5    -0.698971422944E+03    0.11187E-05   -0.59025E-05  9978   0.148E-02
  87 F= -.69897142E+03 E0= -.69896790E+03  d E =-.397901E-03
       N       E                     dE             d eps       ncg     rms          rms(c)
DAV:   1    -0.698971412839E+03    0.11224E-04   -0.14587E-02 11512   0.180E-01    0.216E-02
RMM:   2    -0.698971462000E+03   -0.49161E-04   -0.51780E-04 12894   0.483E-02    0.657E-03
RMM:   3    -0.698971473628E+03   -0.11628E-04   -0.13424E-04 12623   0.199E-02    0.567E-03
RMM:   4    -0.698971474880E+03   -0.12516E-05   -0.21659E-05  6248   0.104E-02
  88 F= -.69897147E+03 E0= -.69896795E+03  d E =-.449836E-03
       N       E                     dE             d eps       ncg     rms          rms(c)
DAV:   1    -0.698971275639E+03    0.19799E-03   -0.57481E-02 10800   0.356E-01    0.396E-02
RMM:   2    -0.698971458386E+03   -0.18275E-03   -0.19194E-03 12994   0.944E-02    0.126E-02
RMM:   3    -0.698971503725E+03   -0.45339E-04   -0.49055E-04 14662   0.378E-02    0.114E-02
RMM:   4    -0.698971506966E+03   -0.32414E-05   -0.55111E-05  9915   0.139E-02
  89 F= -.69897151E+03 E0= -.69896799E+03  d E =-.481923E-03
       N       E                     dE             d eps       ncg     rms          rms(c)
DAV:   1    -0.698971421052E+03    0.82673E-04   -0.18696E-02 10976   0.205E-01    0.207E-02
RMM:   2    -0.698971486645E+03   -0.65593E-04   -0.68828E-04 13029   0.555E-02    0.711E-03
RMM:   3    -0.698971499601E+03   -0.12957E-04   -0.14819E-04 13029   0.218E-02    0.782E-03
RMM:   4    -0.698971500184E+03   -0.58313E-06   -0.21636E-05  6155   0.103E-02
  90 F= -.69897150E+03 E0= -.69896798E+03  d E =-.475141E-03
       N       E                     dE             d eps       ncg     rms          rms(c)
DAV:   1    -0.698971481967E+03    0.17634E-04   -0.59114E-03 10646   0.115E-01    0.117E-02
RMM:   2    -0.698971503121E+03   -0.21154E-04   -0.22181E-04 12922   0.308E-02    0.407E-03
RMM:   3    -0.698971506360E+03   -0.32392E-05   -0.45568E-05  7434   0.123E-02
  91 F= -.69897151E+03 E0= -.69896799E+03  d E =-.481317E-03
       N       E                     dE             d eps       ncg     rms          rms(c)
DAV:   1    -0.698971409719E+03    0.93402E-04   -0.78980E-02 10879   0.410E-01    0.449E-02
RMM:   2    -0.698971639845E+03   -0.23013E-03   -0.24281E-03 12675   0.105E-01    0.151E-02
RMM:   3    -0.698971698366E+03   -0.58522E-04   -0.62332E-04 14361   0.429E-02    0.136E-02
RMM:   4    -0.698971702889E+03   -0.45230E-05   -0.78323E-05 11146   0.166E-02
  92 F= -.69897170E+03 E0= -.69896818E+03  d E =-.196529E-03
       N       E                     dE             d eps       ncg     rms          rms(c)
DAV:   1    -0.698971031118E+03    0.66725E-03   -0.24715E-01 10990   0.725E-01    0.823E-02
RMM:   2    -0.698971725044E+03   -0.69393E-03   -0.73164E-03 12663   0.179E-01    0.261E-02
RMM:   3    -0.698971907588E+03   -0.18254E-03   -0.18951E-03 14861   0.739E-02    0.224E-02
RMM:   4    -0.698971922981E+03   -0.15393E-04   -0.22538E-04 12849   0.254E-02    0.152E-02
RMM:   5    -0.698971922833E+03    0.14752E-06   -0.65086E-05  9793   0.149E-02
  93 F= -.69897192E+03 E0= -.69896840E+03  d E =-.416473E-03
       N       E                     dE             d eps       ncg     rms          rms(c)
DAV:   1    -0.698968256493E+03    0.36665E-02   -0.99259E-01 10966   0.145E+00    0.164E-01
RMM:   2    -0.698971079114E+03   -0.28226E-02   -0.29742E-02 12648   0.361E-01    0.520E-02
RMM:   3    -0.698971805041E+03   -0.72593E-03   -0.74872E-03 14914   0.148E-01    0.460E-02
RMM:   4    -0.698971865382E+03   -0.60341E-04   -0.91328E-04 15126   0.503E-02    0.314E-02
RMM:   5    -0.698971860224E+03    0.51581E-05   -0.21130E-04 12267   0.221E-02    0.118E-02
RMM:   6    -0.698971861532E+03   -0.13079E-05   -0.40872E-05  8977   0.108E-02
  94 F= -.69897186E+03 E0= -.69896833E+03  d E =-.355172E-03
       N       E                     dE             d eps       ncg     rms          rms(c)
DAV:   1    -0.698969947890E+03    0.19123E-02   -0.57263E-01 10958   0.110E+00    0.124E-01
RMM:   2    -0.698971544293E+03   -0.15964E-02   -0.16810E-02 12636   0.270E-01    0.396E-02
RMM:   3    -0.698971944831E+03   -0.40054E-03   -0.41332E-03 14880   0.110E-01    0.342E-02
RMM:   4    -0.698971976496E+03   -0.31664E-04   -0.49344E-04 14554   0.375E-02    0.230E-02
RMM:   5    -0.698971973538E+03    0.29576E-05   -0.11576E-04 10643   0.176E-02    0.907E-03
RMM:   6    -0.698971974309E+03   -0.77055E-06   -0.25175E-05  7891   0.890E-03
  95 F= -.69897197E+03 E0= -.69896845E+03  d E =-.467948E-03
       N       E                     dE             d eps       ncg     rms          rms(c)
DAV:   1    -0.698971454893E+03    0.51864E-03   -0.14268E-01 10968   0.551E-01    0.629E-02
RMM:   2    -0.698971857007E+03   -0.40211E-03   -0.42401E-03 12611   0.138E-01    0.200E-02
RMM:   3    -0.698971961499E+03   -0.10449E-03   -0.10867E-03 14797   0.566E-02    0.169E-02
RMM:   4    -0.698971969596E+03   -0.80971E-05   -0.12703E-04 12523   0.197E-02    0.116E-02
RMM:   5    -0.698971969000E+03    0.59582E-06   -0.35272E-05  8416   0.117E-02
  96 F= -.69897197E+03 E0= -.69896844E+03  d E =-.462640E-03
       N       E                     dE             d eps       ncg     rms          rms(c)
DAV:   1    -0.698971876475E+03    0.93120E-04   -0.30815E-02 10952   0.256E-01    0.271E-02
RMM:   2    -0.698971963504E+03   -0.87028E-04   -0.91407E-04 12646   0.619E-02    0.908E-03
RMM:   3    -0.698971982337E+03   -0.18834E-04   -0.20724E-04 12893   0.251E-02    0.852E-03
RMM:   4    -0.698971983385E+03   -0.10473E-05   -0.26744E-05  6686   0.112E-02
  97 F= -.69897198E+03 E0= -.69896846E+03  d E =-.477024E-03
       N       E                     dE             d eps       ncg     rms          rms(c)
DAV:   1    -0.698971681109E+03    0.30123E-03   -0.13849E-01 10848   0.549E-01    0.606E-02
RMM:   2    -0.698972106527E+03   -0.42542E-03   -0.44509E-03 12972   0.139E-01    0.195E-02
RMM:   3    -0.698972206202E+03   -0.99675E-04   -0.10525E-03 14863   0.554E-02    0.182E-02
RMM:   4    -0.698972213530E+03   -0.73273E-05   -0.12364E-04 12351   0.196E-02    0.121E-02
RMM:   5    -0.698972212504E+03    0.10260E-05   -0.35874E-05  8563   0.116E-02
  98 F= -.69897221E+03 E0= -.69896869E+03  d E =-.229119E-03
       N       E                     dE             d eps       ncg     rms          rms(c)
DAV:   1    -0.698972116711E+03    0.96819E-04   -0.37971E-02 11480   0.288E-01    0.338E-02
RMM:   2    -0.698972235449E+03   -0.11874E-03   -0.12444E-03 12850   0.752E-02    0.106E-02
RMM:   3    -0.698972265428E+03   -0.29979E-04   -0.31874E-04 13290   0.306E-02    0.898E-03
RMM:   4    -0.698972268452E+03   -0.30235E-05   -0.45253E-05  9003   0.144E-02
  99 F= -.69897227E+03 E0= -.69896874E+03  d E =-.285067E-03
       N       E                     dE             d eps       ncg     rms          rms(c)
DAV:   1    -0.698972269880E+03   -0.44522E-05   -0.24746E-02 10544   0.233E-01    0.265E-02
RMM:   2    -0.698972357012E+03   -0.87132E-04   -0.91582E-04 13203   0.632E-02    0.835E-03
RMM:   3    -0.698972375052E+03   -0.18039E-04   -0.20339E-04 13284   0.245E-02    0.804E-03
RMM:   4    -0.698972376214E+03   -0.11620E-05   -0.28215E-05  7113   0.114E-02
 100 F= -.69897238E+03 E0= -.69896885E+03  d E =-.107762E-03
       N       E                     dE             d eps       ncg     rms          rms(c)
DAV:   1    -0.698972366203E+03    0.88482E-05   -0.97877E-03 11144   0.147E-01    0.171E-02
RMM:   2    -0.698972401459E+03   -0.35256E-04   -0.36971E-04 13155   0.408E-02    0.524E-03
RMM:   3    -0.698972408836E+03   -0.73763E-05   -0.86831E-05 11824   0.160E-02
 101 F= -.69897241E+03 E0= -.69896888E+03  d E =-.140384E-03
       N       E                     dE             d eps       ncg     rms          rms(c)
DAV:   1    -0.698972390089E+03    0.11370E-04   -0.20595E-02 10720   0.214E-01    0.227E-02
RMM:   2    -0.698972462343E+03   -0.72254E-04   -0.76222E-04 13254   0.587E-02    0.796E-03
RMM:   3    -0.698972478608E+03   -0.16265E-04   -0.18450E-04 13013   0.236E-02    0.781E-03
RMM:   4    -0.698972479852E+03   -0.12439E-05   -0.28149E-05  6570   0.118E-02
 102 F= -.69897248E+03 E0= -.69896895E+03  d E =-.710165E-04
       N       E                     dE             d eps       ncg     rms          rms(c)
DAV:   1    -0.698972473367E+03    0.52414E-05   -0.75655E-03 11192   0.130E-01    0.147E-02
RMM:   2    -0.698972498316E+03   -0.24949E-04   -0.26261E-04 12952   0.348E-02    0.462E-03
RMM:   3    -0.698972503582E+03   -0.52658E-05   -0.62541E-05  9801   0.139E-02
 103 F= -.69897250E+03 E0= -.69896898E+03  d E =-.947459E-04
       N       E                     dE             d eps       ncg     rms          rms(c)
DAV:   1    -0.698972468610E+03    0.29706E-04   -0.22452E-02 10902   0.222E-01    0.241E-02
RMM:   2    -0.698972540763E+03   -0.72154E-04   -0.76080E-04 12816   0.594E-02    0.836E-03
RMM:   3    -0.698972558408E+03   -0.17645E-04   -0.19918E-04 12816   0.245E-02    0.770E-03
RMM:   4    -0.698972560034E+03   -0.16264E-05   -0.30389E-05  6670   0.124E-02
 104 F= -.69897256E+03 E0= -.69896903E+03  d E =-.564527E-04
       N       E                     dE             d eps       ncg     rms          rms(c)
DAV:   1    -0.698972527008E+03    0.31400E-04   -0.17520E-02 11176   0.195E-01    0.226E-02
RMM:   2    -0.698972578899E+03   -0.51891E-04   -0.54713E-04 12612   0.507E-02    0.725E-03
RMM:   3    -0.698972592957E+03   -0.14058E-04   -0.15196E-04 12492   0.211E-02    0.583E-03
RMM:   4    -0.698972594207E+03   -0.12500E-05   -0.22178E-05  6511   0.106E-02
 105 F= -.69897259E+03 E0= -.69896907E+03  d E =-.906256E-04
       N       E                     dE             d eps       ncg     rms          rms(c)
DAV:   1    -0.698972562639E+03    0.30318E-04   -0.21826E-02 10918   0.215E-01    0.257E-02
RMM:   2    -0.698972625997E+03   -0.63358E-04   -0.67057E-04 12317   0.548E-02    0.815E-03
RMM:   3    -0.698972642722E+03   -0.16725E-04   -0.18545E-04 12473   0.232E-02    0.672E-03
RMM:   4    -0.698972644113E+03   -0.13908E-05   -0.25843E-05  6881   0.113E-02
 106 F= -.69897264E+03 E0= -.69896912E+03  d E =-.499055E-04
       N       E                     dE             d eps       ncg     rms          rms(c)
DAV:   1    -0.698972598169E+03    0.44553E-04   -0.21155E-02 11080   0.211E-01    0.255E-02
RMM:   2    -0.698972659363E+03   -0.61194E-04   -0.64723E-04 12338   0.539E-02    0.812E-03
RMM:   3    -0.698972676060E+03   -0.16697E-04   -0.18357E-04 12623   0.229E-02    0.664E-03
RMM:   4    -0.698972677544E+03   -0.14837E-05   -0.25753E-05  6950   0.112E-02
 107 F= -.69897268E+03 E0= -.69896915E+03  d E =-.833366E-04
       N       E                     dE             d eps       ncg     rms          rms(c)
DAV:   1    -0.698972638819E+03    0.37241E-04   -0.21789E-02 10912   0.212E-01    0.266E-02
RMM:   2    -0.698972700581E+03   -0.61762E-04   -0.65370E-04 12239   0.536E-02    0.816E-03
RMM:   3    -0.698972717526E+03   -0.16945E-04   -0.18371E-04 12610   0.228E-02    0.667E-03
RMM:   4    -0.698972718923E+03   -0.13972E-05   -0.25267E-05  7004   0.110E-02
 108 F= -.69897272E+03 E0= -.69896919E+03  d E =-.413793E-04
