       N       E                     dE             d eps       ncg     rms          rms(c)
DAV:   1     0.223176273423E+05    0.22318E+05   -0.32015E+05 10128   0.282E+03
DAV:   2     0.500869425585E+04   -0.17309E+05   -0.16311E+05 10128   0.818E+02
DAV:   3    -0.365679727514E+02   -0.50453E+04   -0.47548E+04 12992   0.321E+02
DAV:   4    -0.674080522827E+03   -0.63751E+03   -0.62128E+03 12520   0.121E+02
DAV:   5    -0.719733083352E+03   -0.45653E+02   -0.45127E+02 14568   0.350E+01    0.646E+01
RMM:   6    -0.590361451238E+03    0.12937E+03   -0.43869E+02 13227   0.245E+01    0.163E+01
RMM:   7    -0.594323555791E+03   -0.39621E+01   -0.71650E+01 14130   0.103E+01    0.133E+01
RMM:   8    -0.593768985984E+03    0.55457E+00   -0.99892E+00 13150   0.515E+00    0.363E+00
RMM:   9    -0.593653357281E+03    0.11563E+00   -0.25499E+00 15720   0.218E+00    0.174E+00
RMM:  10    -0.593699903992E+03   -0.46547E-01   -0.14027E+00 13371   0.139E+00    0.111E+00
RMM:  11    -0.593687754291E+03    0.12150E-01   -0.26947E-01 13303   0.869E-01    0.280E-01
RMM:  12    -0.593694629303E+03   -0.68750E-02   -0.72530E-02 15577   0.304E-01    0.295E-01
RMM:  13    -0.593695201330E+03   -0.57203E-03   -0.22002E-02 15141   0.139E-01    0.866E-02
RMM:  14    -0.593696180015E+03   -0.97869E-03   -0.11786E-02 13625   0.102E-01    0.606E-02
RMM:  15    -0.593696385964E+03   -0.20595E-03   -0.32482E-03 13565   0.527E-02    0.177E-02
RMM:  16    -0.593696541529E+03   -0.15557E-03   -0.16258E-03 11354   0.272E-02    0.681E-03
RMM:  17    -0.593696607702E+03   -0.66173E-04   -0.61919E-04 10323   0.177E-02    0.455E-03
RMM:  18    -0.593696641013E+03   -0.33311E-04   -0.34551E-04  9502   0.111E-02    0.239E-03
RMM:  19    -0.593696655823E+03   -0.14810E-04   -0.14602E-04  8824   0.754E-03    0.144E-03
RMM:  20    -0.593696665467E+03   -0.96437E-05   -0.86345E-05  7451   0.504E-03
   1 F= -.59369667E+03 E0= -.59368892E+03  d E =-.593697E+03
       N       E                     dE             d eps       ncg     rms          rms(c)
DAV:   1    -0.577914460225E+03    0.15782E+02   -0.22915E+03 12680   0.741E+01    0.106E+01
RMM:   2    -0.591530814116E+03   -0.13616E+02   -0.14974E+02 13850   0.227E+01    0.331E+00
RMM:   3    -0.595081695903E+03   -0.35509E+01   -0.37585E+01 15418   0.861E+00    0.501E+00
RMM:   4    -0.595195501054E+03   -0.11381E+00   -0.44881E+00 15090   0.301E+00    0.344E+00
RMM:   5    -0.595160410124E+03    0.35091E-01   -0.98496E-01 15854   0.133E+00    0.132E+00
RMM:   6    -0.595156187494E+03    0.42226E-02   -0.27468E-01 13660   0.761E-01    0.792E-01
RMM:   7    -0.595152840506E+03    0.33470E-02   -0.58825E-02 15003   0.356E-01    0.211E-01
RMM:   8    -0.595154128174E+03   -0.12877E-02   -0.23082E-02 13935   0.201E-01    0.235E-01
RMM:   9    -0.595153954438E+03    0.17374E-03   -0.69061E-03 14829   0.123E-01    0.450E-02
RMM:  10    -0.595154195319E+03   -0.24088E-03   -0.24881E-03 15195   0.578E-02    0.420E-02
RMM:  11    -0.595154228620E+03   -0.33301E-04   -0.59023E-04 12110   0.246E-02    0.250E-02
RMM:  12    -0.595154250439E+03   -0.21819E-04   -0.35723E-04 11530   0.212E-02    0.159E-02
RMM:  13    -0.595154253168E+03   -0.27291E-05   -0.12046E-04  9916   0.136E-02    0.400E-03
RMM:  14    -0.595154258119E+03   -0.49508E-05   -0.61096E-05  7500   0.752E-03
   2 F= -.59515426E+03 E0= -.59514558E+03  d E =-.145759E+01
       N       E                     dE             d eps       ncg     rms          rms(c)
DAV:   1    -0.594446300350E+03    0.70795E+00   -0.30149E+02 11680   0.255E+01    0.441E+00
RMM:   2    -0.595965604212E+03   -0.15193E+01   -0.16190E+01 13952   0.843E+00    0.118E+00
RMM:   3    -0.596313800848E+03   -0.34820E+00   -0.38210E+00 15396   0.306E+00    0.118E+00
RMM:   4    -0.596331877615E+03   -0.18077E-01   -0.49801E-01 15297   0.109E+00    0.691E-01
RMM:   5    -0.596329553959E+03    0.23237E-02   -0.96147E-02 15602   0.464E-01    0.211E-01
RMM:   6    -0.596330035884E+03   -0.48193E-03   -0.22235E-02 13859   0.241E-01    0.120E-01
RMM:   7    -0.596330643692E+03   -0.60781E-03   -0.82767E-03 15421   0.120E-01    0.469E-02
RMM:   8    -0.596330774758E+03   -0.13107E-03   -0.13075E-03 13652   0.403E-02    0.448E-02
RMM:   9    -0.596330790754E+03   -0.15996E-04   -0.43319E-04 11889   0.236E-02    0.106E-02
RMM:  10    -0.596330804361E+03   -0.13607E-04   -0.16034E-04 10133   0.124E-02    0.623E-03
RMM:  11    -0.596330809108E+03   -0.47471E-05   -0.60998E-05  8254   0.820E-03
   3 F= -.59633081E+03 E0= -.59632280E+03  d E =-.263414E+01
       N       E                     dE             d eps       ncg     rms          rms(c)
DAV:   1    -0.595165277609E+03    0.11655E+01   -0.39699E+02 10768   0.276E+01    0.505E+00
RMM:   2    -0.596899314748E+03   -0.17340E+01   -0.18447E+01 13734   0.814E+00    0.138E+00
RMM:   3    -0.597243005974E+03   -0.34369E+00   -0.38436E+00 15601   0.301E+00    0.203E+00
RMM:   4    -0.597270890985E+03   -0.27885E-01   -0.46386E-01 15709   0.102E+00    0.167E+00
RMM:   5    -0.597248239529E+03    0.22651E-01   -0.12852E-01 14550   0.499E-01    0.399E-01
RMM:   6    -0.597251956401E+03   -0.37169E-02   -0.40326E-02 13945   0.285E-01    0.632E-01
RMM:   7    -0.597248909099E+03    0.30473E-02   -0.16407E-02 14343   0.152E-01    0.845E-02
RMM:   8    -0.597249222923E+03   -0.31382E-03   -0.31601E-03 15365   0.682E-02    0.412E-02
RMM:   9    -0.597249303919E+03   -0.80996E-04   -0.10314E-03 13699   0.325E-02    0.197E-02
RMM:  10    -0.597249333229E+03   -0.29310E-04   -0.33878E-04 10804   0.176E-02    0.636E-03
RMM:  11    -0.597249346177E+03   -0.12948E-04   -0.14417E-04  9194   0.114E-02    0.875E-03
RMM:  12    -0.597249350145E+03   -0.39680E-05   -0.52874E-05  8020   0.713E-03
   4 F= -.59724935E+03 E0= -.59724044E+03  d E =-.918541E+00
       N       E                     dE             d eps       ncg     rms          rms(c)
DAV:   1    -0.597248396655E+03    0.94952E-03   -0.41372E-01 11576   0.886E-01    0.121E-01
RMM:   2    -0.597249949661E+03   -0.15530E-02   -0.16470E-02 13549   0.245E-01    0.392E-02
RMM:   3    -0.597250250524E+03   -0.30086E-03   -0.33927E-03 15449   0.904E-02    0.388E-02
RMM:   4    -0.597250257775E+03   -0.72510E-05   -0.37844E-04 13806   0.314E-02    0.234E-02
RMM:   5    -0.597250251600E+03    0.61749E-05   -0.10304E-04 10923   0.156E-02    0.641E-03
RMM:   6    -0.597250253382E+03   -0.17816E-05   -0.23589E-05  7152   0.814E-03
   5 F= -.59725025E+03 E0= -.59724137E+03  d E =-.919444E+00
       N       E                     dE             d eps       ncg     rms          rms(c)
DAV:   1    -0.596326280738E+03    0.92397E+00   -0.26904E+02 10936   0.235E+01    0.284E+00
RMM:   2    -0.597493557338E+03   -0.11673E+01   -0.12206E+01 13829   0.711E+00    0.939E-01
RMM:   3    -0.597761151401E+03   -0.26759E+00   -0.28107E+00 15552   0.268E+00    0.102E+00
RMM:   4    -0.597780360585E+03   -0.19209E-01   -0.32112E-01 15688   0.907E-01    0.762E-01
RMM:   5    -0.597772723995E+03    0.76366E-02   -0.71029E-02 15185   0.403E-01    0.189E-01
RMM:   6    -0.597774085719E+03   -0.13617E-02   -0.20103E-02 13913   0.217E-01    0.194E-01
RMM:   7    -0.597773996108E+03    0.89611E-04   -0.67293E-03 15114   0.107E-01    0.478E-02
RMM:   8    -0.597774142613E+03   -0.14650E-03   -0.14998E-03 14001   0.476E-02    0.377E-02
RMM:   9    -0.597774169189E+03   -0.26576E-04   -0.48394E-04 12746   0.245E-02    0.102E-02
RMM:  10    -0.597774184230E+03   -0.15040E-04   -0.16983E-04  9720   0.133E-02    0.539E-03
RMM:  11    -0.597774190762E+03   -0.65327E-05   -0.66760E-05  8558   0.828E-03
   6 F= -.59777419E+03 E0= -.59776516E+03  d E =-.523937E+00
       N       E                     dE             d eps       ncg     rms          rms(c)
DAV:   1    -0.597753470110E+03    0.20714E-01   -0.68447E+00 11672   0.370E+00    0.418E-01
RMM:   2    -0.597779083954E+03   -0.25614E-01   -0.26657E-01 13774   0.103E+00    0.137E-01
RMM:   3    -0.597784284947E+03   -0.52010E-02   -0.55156E-02 15466   0.376E-01    0.138E-01
RMM:   4    -0.597784606556E+03   -0.32161E-03   -0.67729E-03 15581   0.131E-01    0.891E-02
RMM:   5    -0.597784527091E+03    0.79465E-04   -0.16392E-03 15008   0.581E-02    0.235E-02
RMM:   6    -0.597784559595E+03   -0.32504E-04   -0.35868E-04 13261   0.276E-02    0.200E-02
RMM:   7    -0.597784564386E+03   -0.47913E-05   -0.12311E-04 10460   0.146E-02    0.672E-03
RMM:   8    -0.597784567531E+03   -0.31446E-05   -0.36876E-05  8195   0.914E-03
   7 F= -.59778457E+03 E0= -.59777557E+03  d E =-.534314E+00
       N       E                     dE             d eps       ncg     rms          rms(c)
DAV:   1    -0.597088481709E+03    0.69608E+00   -0.22420E+02 10373   0.200E+01    0.254E+00
RMM:   2    -0.597934843311E+03   -0.84636E+00   -0.88994E+00 13556   0.558E+00    0.841E-01
RMM:   3    -0.598105310622E+03   -0.17047E+00   -0.18481E+00 15531   0.208E+00    0.893E-01
RMM:   4    -0.598110237271E+03   -0.49266E-02   -0.19557E-01 15514   0.697E-01    0.533E-01
RMM:   5    -0.598106716243E+03    0.35210E-02   -0.51392E-02 15142   0.322E-01    0.152E-01
RMM:   6    -0.598107501713E+03   -0.78547E-03   -0.10236E-02 14798   0.146E-01    0.991E-02
RMM:   7    -0.598107713343E+03   -0.21163E-03   -0.34456E-03 15389   0.694E-02    0.374E-02
RMM:   8    -0.598107787929E+03   -0.74586E-04   -0.83193E-04 12839   0.311E-02    0.177E-02
RMM:   9    -0.598107815704E+03   -0.27776E-04   -0.32838E-04 10442   0.181E-02    0.539E-03
RMM:  10    -0.598107826767E+03   -0.11063E-04   -0.11487E-04  9380   0.106E-02    0.291E-03
RMM:  11    -0.598107831665E+03   -0.48974E-05   -0.50462E-05  8269   0.693E-03
   8 F= -.59810783E+03 E0= -.59809908E+03  d E =-.323264E+00
       N       E                     dE             d eps       ncg     rms          rms(c)
DAV:   1    -0.598101720496E+03    0.61063E-02   -0.21956E+00 11648   0.197E+00    0.242E-01
RMM:   2    -0.598109239537E+03   -0.75190E-02   -0.79053E-02 13509   0.523E-01    0.780E-02
RMM:   3    -0.598110618907E+03   -0.13794E-02   -0.15051E-02 15461   0.191E-01    0.797E-02
RMM:   4    -0.598110658359E+03   -0.39452E-04   -0.17356E-03 15311   0.646E-02    0.434E-02
RMM:   5    -0.598110645677E+03    0.12682E-04   -0.48170E-04 13391   0.300E-02    0.177E-02
RMM:   6    -0.598110649672E+03   -0.39953E-05   -0.88636E-05 10178   0.138E-02
   9 F= -.59811065E+03 E0= -.59810195E+03  d E =-.326082E+00
       N       E                     dE             d eps       ncg     rms          rms(c)
DAV:   1    -0.597424220484E+03    0.68643E+00   -0.21853E+02 10331   0.198E+01    0.263E+00
RMM:   2    -0.598223165803E+03   -0.79895E+00   -0.84373E+00 13518   0.537E+00    0.805E-01
RMM:   3    -0.598378456481E+03   -0.15529E+00   -0.16441E+00 15398   0.198E+00    0.862E-01
RMM:   4    -0.598382809646E+03   -0.43532E-02   -0.17097E-01 15378   0.653E-01    0.501E-01
RMM:   5    -0.598380177081E+03    0.26326E-02   -0.43045E-02 14927   0.295E-01    0.130E-01
RMM:   6    -0.598380978748E+03   -0.80167E-03   -0.92001E-03 14878   0.137E-01    0.885E-02
RMM:   7    -0.598381190253E+03   -0.21151E-03   -0.29219E-03 15363   0.632E-02    0.343E-02
RMM:   8    -0.598381270627E+03   -0.80374E-04   -0.80747E-04 12477   0.288E-02    0.157E-02
RMM:   9    -0.598381297854E+03   -0.27227E-04   -0.31357E-04 10310   0.167E-02    0.454E-03
RMM:  10    -0.598381308958E+03   -0.11104E-04   -0.11352E-04  9263   0.977E-03    0.253E-03
RMM:  11    -0.598381313689E+03   -0.47309E-05   -0.49406E-05  8141   0.651E-03
  10 F= -.59838131E+03 E0= -.59837234E+03  d E =-.270664E+00
       N       E                     dE             d eps       ncg     rms          rms(c)
DAV:   1    -0.598300360894E+03    0.80948E-01   -0.25495E+01 11096   0.672E+00    0.858E-01
RMM:   2    -0.598385026230E+03   -0.84665E-01   -0.88931E-01 13404   0.175E+00    0.260E-01
RMM:   3    -0.598401206998E+03   -0.16181E-01   -0.17074E-01 15323   0.648E-01    0.263E-01
RMM:   4    -0.598402009282E+03   -0.80228E-03   -0.20211E-02 15390   0.218E-01    0.149E-01
RMM:   5    -0.598401903111E+03    0.10617E-03   -0.50394E-03 14832   0.984E-02    0.533E-02
RMM:   6    -0.598401973981E+03   -0.70869E-04   -0.10635E-03 15439   0.442E-02    0.291E-02
RMM:   7    -0.598401998834E+03   -0.24853E-04   -0.33674E-04 11725   0.202E-02    0.109E-02
RMM:   8    -0.598402007412E+03   -0.85778E-05   -0.92490E-05  9341   0.127E-02
  11 F= -.59840201E+03 E0= -.59839307E+03  d E =-.291358E+00
       N       E                     dE             d eps       ncg     rms          rms(c)
DAV:   1    -0.597832583818E+03    0.56942E+00   -0.17265E+02 10534   0.181E+01    0.221E+00
RMM:   2    -0.598461565990E+03   -0.62898E+00   -0.65875E+00 13587   0.493E+00    0.686E-01
RMM:   3    -0.598575507245E+03   -0.11394E+00   -0.12138E+00 15423   0.181E+00    0.706E-01
RMM:   4    -0.598579661792E+03   -0.41545E-02   -0.13966E-01 15416   0.604E-01    0.390E-01
RMM:   5    -0.598578340889E+03    0.13209E-02   -0.34846E-02 15060   0.277E-01    0.112E-01
RMM:   6    -0.598578956037E+03   -0.61515E-03   -0.75759E-03 15493   0.125E-01    0.734E-02
RMM:   7    -0.598579133718E+03   -0.17768E-03   -0.23286E-03 15221   0.559E-02    0.260E-02
RMM:   8    -0.598579193955E+03   -0.60237E-04   -0.63120E-04 12673   0.277E-02    0.101E-02
RMM:   9    -0.598579218776E+03   -0.24821E-04   -0.25691E-04 10237   0.154E-02    0.567E-03
RMM:  10    -0.598579227042E+03   -0.82666E-05   -0.88705E-05  9087   0.947E-03
  12 F= -.59857923E+03 E0= -.59857095E+03  d E =-.177220E+00
       N       E                     dE             d eps       ncg     rms          rms(c)
DAV:   1    -0.598559947970E+03    0.19271E-01   -0.61918E+00 11632   0.343E+00    0.405E-01
RMM:   2    -0.598580476150E+03   -0.20528E-01   -0.21442E-01 13458   0.891E-01    0.123E-01
RMM:   3    -0.598584378391E+03   -0.39022E-02   -0.41624E-02 15352   0.328E-01    0.126E-01
RMM:   4    -0.598584548114E+03   -0.16972E-03   -0.45910E-03 15289   0.109E-01    0.679E-02
RMM:   5    -0.598584530594E+03    0.17520E-04   -0.12136E-03 14967   0.497E-02    0.285E-02
RMM:   6    -0.598584543651E+03   -0.13057E-04   -0.24565E-04 12797   0.218E-02    0.150E-02
RMM:   7    -0.598584549272E+03   -0.56209E-05   -0.85587E-05  9389   0.113E-02
  13 F= -.59858455E+03 E0= -.59857647E+03  d E =-.182542E+00
       N       E                     dE             d eps       ncg     rms          rms(c)
DAV:   1    -0.598350188597E+03    0.23436E+00   -0.74458E+01 10622   0.123E+01    0.142E+00
RMM:   2    -0.598615730091E+03   -0.26554E+00   -0.27752E+00 13556   0.331E+00    0.442E-01
RMM:   3    -0.598666155955E+03   -0.50426E-01   -0.53751E-01 15481   0.122E+00    0.459E-01
RMM:   4    -0.598668306872E+03   -0.21509E-02   -0.59320E-02 15544   0.405E-01    0.272E-01
RMM:   5    -0.598667608154E+03    0.69872E-03   -0.15264E-02 14807   0.185E-01    0.823E-02
RMM:   6    -0.598667862352E+03   -0.25420E-03   -0.33030E-03 15522   0.845E-02    0.549E-02
RMM:   7    -0.598667926401E+03   -0.64049E-04   -0.10274E-03 14739   0.377E-02    0.174E-02
RMM:   8    -0.598667952495E+03   -0.26093E-04   -0.26859E-04 10786   0.188E-02    0.100E-02
RMM:   9    -0.598667961382E+03   -0.88876E-05   -0.10824E-04  9478   0.119E-02    0.356E-03
RMM:  10    -0.598667965057E+03   -0.36747E-05   -0.38485E-05  8254   0.681E-03
  14 F= -.59866797E+03 E0= -.59866031E+03  d E =-.834158E-01
       N       E                     dE             d eps       ncg     rms          rms(c)
DAV:   1    -0.598664030324E+03    0.39311E-02   -0.12949E+00 11776   0.162E+00    0.185E-01
RMM:   2    -0.598668471134E+03   -0.44408E-02   -0.46391E-02 13516   0.426E-01    0.572E-02
RMM:   3    -0.598669317726E+03   -0.84659E-03   -0.90352E-03 15458   0.157E-01    0.587E-02
RMM:   4    -0.598669356211E+03   -0.38485E-04   -0.10039E-03 15188   0.523E-02    0.344E-02
RMM:   5    -0.598669348344E+03    0.78664E-05   -0.27814E-04 12944   0.249E-02    0.124E-02
RMM:   6    -0.598669351384E+03   -0.30399E-05   -0.52769E-05  9453   0.113E-02
  15 F= -.59866935E+03 E0= -.59866172E+03  d E =-.848021E-01
       N       E                     dE             d eps       ncg     rms          rms(c)
DAV:   1    -0.598531610603E+03    0.13774E+00   -0.45699E+01 10805   0.987E+00    0.109E+00
RMM:   2    -0.598689920787E+03   -0.15831E+00   -0.16567E+00 13517   0.266E+00    0.338E-01
RMM:   3    -0.598725129213E+03   -0.35208E-01   -0.36737E-01 15437   0.101E+00    0.352E-01
RMM:   4    -0.598727560898E+03   -0.24317E-02   -0.40146E-02 15613   0.334E-01    0.242E-01
RMM:   5    -0.598726940110E+03    0.62079E-03   -0.98428E-03 14279   0.151E-01    0.752E-02
RMM:   6    -0.598727110456E+03   -0.17035E-03   -0.22558E-03 15306   0.714E-02    0.553E-02
RMM:   7    -0.598727131645E+03   -0.21189E-04   -0.68287E-04 14292   0.312E-02    0.150E-02
RMM:   8    -0.598727149409E+03   -0.17764E-04   -0.17547E-04 10443   0.161E-02    0.117E-02
RMM:   9    -0.598727153530E+03   -0.41206E-05   -0.66447E-05  9140   0.959E-03
  16 F= -.59872715E+03 E0= -.59871944E+03  d E =-.578021E-01
       N       E                     dE             d eps       ncg     rms          rms(c)
DAV:   1    -0.598697726885E+03    0.29423E-01   -0.89290E+00 11328   0.435E+00    0.477E-01
RMM:   2    -0.598727766839E+03   -0.30040E-01   -0.31444E-01 13470   0.115E+00    0.149E-01
RMM:   3    -0.598734423078E+03   -0.66562E-02   -0.69622E-02 15417   0.438E-01    0.153E-01
RMM:   4    -0.598734909181E+03   -0.48610E-03   -0.75864E-03 15604   0.145E-01    0.111E-01
RMM:   5    -0.598734773745E+03    0.13544E-03   -0.19629E-03 14095   0.660E-02    0.383E-02
RMM:   6    -0.598734802404E+03   -0.28659E-04   -0.44025E-04 14566   0.313E-02    0.271E-02
RMM:   7    -0.598734804236E+03   -0.18319E-05   -0.13676E-04 10611   0.146E-02    0.704E-03
RMM:   8    -0.598734807883E+03   -0.36467E-05   -0.40567E-05  8804   0.101E-02
  17 F= -.59873481E+03 E0= -.59872701E+03  d E =-.654565E-01
       N       E                     dE             d eps       ncg     rms          rms(c)
DAV:   1    -0.598598347325E+03    0.13646E+00   -0.41732E+01 11023   0.951E+00    0.102E+00
RMM:   2    -0.598743507615E+03   -0.14516E+00   -0.15166E+00 13512   0.258E+00    0.324E-01
RMM:   3    -0.598776395878E+03   -0.32888E-01   -0.34378E-01 15441   0.984E-01    0.332E-01
RMM:   4    -0.598779002903E+03   -0.26070E-02   -0.38984E-02 15682   0.328E-01    0.248E-01
RMM:   5    -0.598778220693E+03    0.78221E-03   -0.91892E-03 14054   0.148E-01    0.724E-02
RMM:   6    -0.598778402547E+03   -0.18185E-03   -0.22563E-03 15072   0.723E-02    0.603E-02
RMM:   7    -0.598778406261E+03   -0.37142E-05   -0.66206E-04 13987   0.321E-02    0.149E-02
RMM:   8    -0.598778426310E+03   -0.20049E-04   -0.19156E-04 11469   0.191E-02    0.146E-02
RMM:   9    -0.598778428147E+03   -0.18374E-05   -0.63075E-05  9301   0.100E-02
  18 F= -.59877843E+03 E0= -.59877058E+03  d E =-.436203E-01
       N       E                     dE             d eps       ncg     rms          rms(c)
DAV:   1    -0.598763899558E+03    0.14527E-01   -0.43505E+00 11648   0.307E+00    0.329E-01
RMM:   2    -0.598778618062E+03   -0.14719E-01   -0.15397E-01 13485   0.815E-01    0.104E-01
RMM:   3    -0.598781853582E+03   -0.32355E-02   -0.33908E-02 15422   0.309E-01    0.105E-01
RMM:   4    -0.598782119234E+03   -0.26565E-03   -0.38864E-03 15609   0.103E-01    0.810E-02
RMM:   5    -0.598782038455E+03    0.80779E-04   -0.99850E-04 14031   0.472E-02    0.275E-02
RMM:   6    -0.598782052322E+03   -0.13867E-04   -0.22559E-04 13450   0.227E-02    0.199E-02
RMM:   7    -0.598782052489E+03   -0.16643E-06   -0.67941E-05  9118   0.114E-02
  19 F= -.59878205E+03 E0= -.59877412E+03  d E =-.472446E-01
       N       E                     dE             d eps       ncg     rms          rms(c)
DAV:   1    -0.598661024703E+03    0.12103E+00   -0.39317E+01 11070   0.909E+00    0.103E+00
RMM:   2    -0.598788845154E+03   -0.12782E+00   -0.13598E+00 13271   0.238E+00    0.337E-01
RMM:   3    -0.598817390328E+03   -0.28545E-01   -0.30060E-01 15302   0.921E-01    0.327E-01
RMM:   4    -0.598819963422E+03   -0.25731E-02   -0.36969E-02 15688   0.314E-01    0.270E-01
RMM:   5    -0.598818947968E+03    0.10155E-02   -0.90382E-03 13615   0.143E-01    0.766E-02
RMM:   6    -0.598819130405E+03   -0.18244E-03   -0.23235E-03 15236   0.712E-02    0.659E-02
RMM:   7    -0.598819115350E+03    0.15055E-04   -0.64880E-04 13531   0.309E-02    0.159E-02
RMM:   8    -0.598819134364E+03   -0.19014E-04   -0.19685E-04 11580   0.198E-02    0.923E-03
RMM:   9    -0.598819139229E+03   -0.48646E-05   -0.63145E-05  9135   0.970E-03
  20 F= -.59881914E+03 E0= -.59881062E+03  d E =-.370867E-01
       N       E                     dE             d eps       ncg     rms          rms(c)
DAV:   1    -0.598775927878E+03    0.43206E-01   -0.13180E+01 11552   0.525E+00    0.596E-01
RMM:   2    -0.598817760779E+03   -0.41833E-01   -0.44666E-01 13233   0.136E+00    0.198E-01
RMM:   3    -0.598826904236E+03   -0.91435E-02   -0.96713E-02 15254   0.522E-01    0.187E-01
RMM:   4    -0.598827762157E+03   -0.85792E-03   -0.12311E-02 15682   0.181E-01    0.157E-01
RMM:   5    -0.598827408310E+03    0.35385E-03   -0.30471E-03 13477   0.820E-02    0.451E-02
RMM:   6    -0.598827467211E+03   -0.58901E-04   -0.77356E-04 14979   0.409E-02    0.382E-02
RMM:   7    -0.598827461813E+03    0.53985E-05   -0.21652E-04 12192   0.182E-02    0.101E-02
RMM:   8    -0.598827467688E+03   -0.58749E-05   -0.70475E-05  9223   0.132E-02
  21 F= -.59882747E+03 E0= -.59881859E+03  d E =-.454152E-01
       N       E                     dE             d eps       ncg     rms          rms(c)
DAV:   1    -0.598762615673E+03    0.64846E-01   -0.26185E+01 11568   0.754E+00    0.861E-01
RMM:   2    -0.598846576267E+03   -0.83961E-01   -0.91561E-01 13390   0.198E+00    0.306E-01
RMM:   3    -0.598864901206E+03   -0.18325E-01   -0.19845E-01 15196   0.758E-01    0.260E-01
RMM:   4    -0.598866738517E+03   -0.18373E-02   -0.26513E-02 15711   0.268E-01    0.216E-01
RMM:   5    -0.598866008790E+03    0.72973E-03   -0.58426E-03 13424   0.117E-01    0.524E-02
RMM:   6    -0.598866142401E+03   -0.13361E-03   -0.16544E-03 15367   0.603E-02    0.458E-02
RMM:   7    -0.598866140431E+03    0.19692E-05   -0.40316E-04 13129   0.252E-02    0.137E-02
RMM:   8    -0.598866152698E+03   -0.12267E-04   -0.13572E-04 10523   0.169E-02    0.586E-03
RMM:   9    -0.598866155993E+03   -0.32949E-05   -0.42269E-05  8862   0.818E-03
  22 F= -.59886616E+03 E0= -.59885686E+03  d E =-.386883E-01
       N       E                     dE             d eps       ncg     rms          rms(c)
DAV:   1    -0.597942105982E+03    0.92405E+00   -0.23548E+02 11592   0.227E+01    0.275E+00
RMM:   2    -0.598746542208E+03   -0.80444E+00   -0.89827E+00 13425   0.628E+00    0.110E+00
RMM:   3    -0.598928782148E+03   -0.18224E+00   -0.20740E+00 15317   0.247E+00    0.855E-01
RMM:   4    -0.598945812972E+03   -0.17031E-01   -0.27487E-01 15627   0.872E-01    0.690E-01
RMM:   5    -0.598938596081E+03    0.72169E-02   -0.55116E-02 15029   0.370E-01    0.206E-01
RMM:   6    -0.598939255061E+03   -0.65898E-03   -0.17390E-02 13789   0.209E-01    0.130E-01
RMM:   7    -0.598939375689E+03   -0.12063E-03   -0.47614E-03 15653   0.979E-02    0.408E-02
RMM:   8    -0.598939499985E+03   -0.12430E-03   -0.12374E-03 14298   0.422E-02    0.205E-02
RMM:   9    -0.598939533926E+03   -0.33941E-04   -0.37253E-04 12117   0.230E-02    0.811E-03
RMM:  10    -0.598939548424E+03   -0.14498E-04   -0.14748E-04  9618   0.127E-02    0.417E-03
RMM:  11    -0.598939553382E+03   -0.49572E-05   -0.51811E-05  8598   0.782E-03
  23 F= -.59893955E+03 E0= -.59892874E+03  d E =-.112086E+00
       N       E                     dE             d eps       ncg     rms          rms(c)
DAV:   1    -0.594266846015E+03    0.46727E+01   -0.94694E+02 11867   0.463E+01    0.531E+00
RMM:   2    -0.597962820280E+03   -0.36960E+01   -0.41391E+01 13358   0.139E+01    0.178E+00
RMM:   3    -0.598847898152E+03   -0.88508E+00   -0.94153E+00 15671   0.538E+00    0.181E+00
RMM:   4    -0.598897389155E+03   -0.49491E-01   -0.12034E+00 15177   0.191E+00    0.119E+00
RMM:   5    -0.598887451452E+03    0.99377E-02   -0.27976E-01 15463   0.827E-01    0.370E-01
RMM:   6    -0.598890265911E+03   -0.28145E-02   -0.65647E-02 13831   0.421E-01    0.210E-01
RMM:   7    -0.598891475966E+03   -0.12101E-02   -0.19482E-02 15556   0.189E-01    0.732E-02
RMM:   8    -0.598891957704E+03   -0.48174E-03   -0.48813E-03 13587   0.821E-02    0.492E-02
RMM:   9    -0.598892095748E+03   -0.13804E-03   -0.17978E-03 14801   0.471E-02    0.249E-02
RMM:  10    -0.598892141793E+03   -0.46045E-04   -0.66728E-04 11795   0.256E-02    0.760E-03
RMM:  11    -0.598892166291E+03   -0.24498E-04   -0.25539E-04  9639   0.140E-02    0.617E-03
RMM:  12    -0.598892175563E+03   -0.92717E-05   -0.10011E-04  8986   0.990E-03    0.490E-03
RMM:  13    -0.598892178381E+03   -0.28185E-05   -0.43328E-05  8180   0.577E-03
  24 F= -.59889218E+03 E0= -.59888573E+03  d E =-.647107E-01
       N       E                     dE             d eps       ncg     rms          rms(c)
DAV:   1    -0.596774189676E+03    0.21180E+01   -0.49752E+02 11000   0.330E+01    0.404E+00
RMM:   2    -0.598529530568E+03   -0.17553E+01   -0.19650E+01 13487   0.947E+00    0.160E+00
RMM:   3    -0.598937739243E+03   -0.40821E+00   -0.46657E+00 15489   0.375E+00    0.133E+00
RMM:   4    -0.598971589712E+03   -0.33850E-01   -0.59511E-01 15597   0.129E+00    0.103E+00
RMM:   5    -0.598955602904E+03    0.15987E-01   -0.12216E-01 15217   0.555E-01    0.339E-01
RMM:   6    -0.598956113325E+03   -0.51042E-03   -0.39490E-02 13571   0.324E-01    0.184E-01
RMM:   7    -0.598956434120E+03   -0.32079E-03   -0.10401E-02 15826   0.150E-01    0.580E-02
RMM:   8    -0.598956694516E+03   -0.26040E-03   -0.26188E-03 14888   0.640E-02    0.313E-02
RMM:   9    -0.598956764357E+03   -0.69841E-04   -0.76035E-04 13999   0.339E-02    0.157E-02
RMM:  10    -0.598956789171E+03   -0.24814E-04   -0.30001E-04 10876   0.182E-02    0.755E-03
RMM:  11    -0.598956798326E+03   -0.91553E-05   -0.10349E-04  9191   0.109E-02    0.416E-03
RMM:  12    -0.598956802376E+03   -0.40501E-05   -0.45175E-05  8268   0.751E-03
  25 F= -.59895680E+03 E0= -.59894730E+03  d E =-.129335E+00
       N       E                     dE             d eps       ncg     rms          rms(c)
DAV:   1    -0.598960938037E+03   -0.41397E-02   -0.19876E+00 11224   0.205E+00    0.259E-01
RMM:   2    -0.598966660361E+03   -0.57223E-02   -0.66425E-02 13284   0.521E-01    0.110E-01
RMM:   3    -0.598967779904E+03   -0.11195E-02   -0.14062E-02 15131   0.201E-01    0.745E-02
RMM:   4    -0.598967895977E+03   -0.11607E-03   -0.19427E-03 15593   0.726E-02    0.603E-02
RMM:   5    -0.598967834829E+03    0.61148E-04   -0.42880E-04 12993   0.318E-02    0.132E-02
RMM:   6    -0.598967842587E+03   -0.77584E-05   -0.11328E-04 11114   0.162E-02    0.115E-02
RMM:   7    -0.598967842533E+03    0.54853E-07   -0.30180E-05  8583   0.942E-03
  26 F= -.59896784E+03 E0= -.59895870E+03  d E =-.110402E-01
       N       E                     dE             d eps       ncg     rms          rms(c)
DAV:   1    -0.598936905464E+03    0.30937E-01   -0.17902E+01 11520   0.614E+00    0.770E-01
RMM:   2    -0.598989951353E+03   -0.53046E-01   -0.61261E-01 13332   0.158E+00    0.313E-01
RMM:   3    -0.599000649556E+03   -0.10698E-01   -0.12892E-01 15206   0.610E-01    0.224E-01
RMM:   4    -0.599001708613E+03   -0.10591E-02   -0.17498E-02 15742   0.218E-01    0.181E-01
RMM:   5    -0.599001173193E+03    0.53542E-03   -0.38317E-03 13633   0.947E-02    0.408E-02
RMM:   6    -0.599001258739E+03   -0.85546E-04   -0.11447E-03 15091   0.492E-02    0.356E-02
RMM:   7    -0.599001258815E+03   -0.76150E-07   -0.27777E-04 12619   0.213E-02    0.106E-02
RMM:   8    -0.599001266598E+03   -0.77831E-05   -0.88810E-05  9568   0.136E-02
  27 F= -.59900127E+03 E0= -.59899285E+03  d E =-.444642E-01
       N       E                     dE             d eps       ncg     rms          rms(c)
DAV:   1    -0.598795747002E+03    0.20551E+00   -0.71550E+01 11285   0.123E+01    0.148E+00
RMM:   2    -0.599012445035E+03   -0.21670E+00   -0.24991E+00 13346   0.323E+00    0.517E-01
RMM:   3    -0.599064099923E+03   -0.51655E-01   -0.56280E-01 15267   0.126E+00    0.441E-01
RMM:   4    -0.599068958879E+03   -0.48590E-02   -0.71970E-02 15711   0.438E-01    0.365E-01
RMM:   5    -0.599066843890E+03    0.21150E-02   -0.15618E-02 13620   0.193E-01    0.889E-02
RMM:   6    -0.599067168347E+03   -0.32446E-03   -0.47428E-03 15196   0.102E-01    0.765E-02
RMM:   7    -0.599067161034E+03    0.73127E-05   -0.12040E-03 14249   0.443E-02    0.204E-02
RMM:   8    -0.599067198074E+03   -0.37039E-04   -0.37250E-04 12589   0.251E-02    0.111E-02
RMM:   9    -0.599067206687E+03   -0.86131E-05   -0.11701E-04  9752   0.137E-02    0.429E-03
RMM:  10    -0.599067211148E+03   -0.44610E-05   -0.46563E-05  8587   0.748E-03
  28 F= -.59906721E+03 E0= -.59905925E+03  d E =-.110409E+00
       N       E                     dE             d eps       ncg     rms          rms(c)
DAV:   1    -0.597930372419E+03    0.11368E+01   -0.28643E+02 11402   0.246E+01    0.271E+00
RMM:   2    -0.598895645062E+03   -0.96527E+00   -0.10370E+01 13317   0.668E+00    0.909E-01
RMM:   3    -0.599133794732E+03   -0.23815E+00   -0.25082E+00 15400   0.264E+00    0.874E-01
RMM:   4    -0.599151360064E+03   -0.17565E-01   -0.30125E-01 15612   0.919E-01    0.621E-01
RMM:   5    -0.599147102059E+03    0.42580E-02   -0.62321E-02 15096   0.391E-01    0.147E-01
RMM:   6    -0.599148400646E+03   -0.12986E-02   -0.15487E-02 13981   0.194E-01    0.130E-01
RMM:   7    -0.599148631583E+03   -0.23094E-03   -0.53488E-03 15110   0.975E-02    0.362E-02
RMM:   8    -0.599148760900E+03   -0.12932E-03   -0.12990E-03 13637   0.439E-02    0.310E-02
RMM:   9    -0.599148783353E+03   -0.22454E-04   -0.44204E-04 11667   0.234E-02    0.758E-03
RMM:  10    -0.599148799058E+03   -0.15704E-04   -0.16588E-04  9739   0.137E-02    0.328E-03
RMM:  11    -0.599148804761E+03   -0.57036E-05   -0.61553E-05  8780   0.851E-03
  29 F= -.59914880E+03 E0= -.59914354E+03  d E =-.192002E+00
       N       E                     dE             d eps       ncg     rms          rms(c)
DAV:   1    -0.599125744992E+03    0.23054E-01   -0.27947E+01 11800   0.752E+00    0.813E-01
RMM:   2    -0.599211495165E+03   -0.85750E-01   -0.90950E-01 13288   0.195E+00    0.280E-01
RMM:   3    -0.599231541134E+03   -0.20046E-01   -0.21269E-01 15355   0.763E-01    0.263E-01
RMM:   4    -0.599233283568E+03   -0.17424E-02   -0.26370E-02 15686   0.261E-01    0.200E-01
RMM:   5    -0.599232801048E+03    0.48252E-03   -0.59181E-03 14608   0.112E-01    0.585E-02
RMM:   6    -0.599232907004E+03   -0.10596E-03   -0.14266E-03 15369   0.527E-02    0.429E-02
RMM:   7    -0.599232916861E+03   -0.98577E-05   -0.39890E-04 12842   0.231E-02    0.139E-02
RMM:   8    -0.599232927860E+03   -0.10999E-04   -0.12890E-04  9986   0.147E-02    0.831E-03
RMM:   9    -0.599232930872E+03   -0.30124E-05   -0.45172E-05  8778   0.828E-03
  30 F= -.59923293E+03 E0= -.59922787E+03  d E =-.841261E-01
       N       E                     dE             d eps       ncg     rms          rms(c)
DAV:   1    -0.599025766256E+03    0.20716E+00   -0.71291E+01 11096   0.120E+01    0.130E+00
RMM:   2    -0.599248935289E+03   -0.22317E+00   -0.23626E+00 13318   0.316E+00    0.449E-01
RMM:   3    -0.599304084631E+03   -0.55149E-01   -0.58340E-01 15423   0.125E+00    0.427E-01
RMM:   4    -0.599308702541E+03   -0.46179E-02   -0.68975E-02 15687   0.420E-01    0.332E-01
RMM:   5    -0.599307287381E+03    0.14152E-02   -0.15380E-02 14680   0.182E-01    0.929E-02
RMM:   6    -0.599307581402E+03   -0.29402E-03   -0.36588E-03 15050   0.863E-02    0.736E-02
RMM:   7    -0.599307592615E+03   -0.11213E-04   -0.10690E-03 14296   0.391E-02    0.201E-02
RMM:   8    -0.599307622989E+03   -0.30374E-04   -0.31546E-04 11275   0.209E-02    0.136E-02
RMM:   9    -0.599307629968E+03   -0.69790E-05   -0.10623E-04  9680   0.121E-02    0.466E-03
RMM:  10    -0.599307633643E+03   -0.36752E-05   -0.41258E-05  8469   0.720E-03
  31 F= -.59930763E+03 E0= -.59930275E+03  d E =-.158829E+00
       N       E                     dE             d eps       ncg     rms          rms(c)
DAV:   1    -0.599266527962E+03    0.41102E-01   -0.12665E+01 11768   0.506E+00    0.541E-01
RMM:   2    -0.599304318400E+03   -0.37790E-01   -0.40104E-01 13271   0.130E+00    0.189E-01
RMM:   3    -0.599313394065E+03   -0.90757E-02   -0.96712E-02 15344   0.511E-01    0.178E-01
RMM:   4    -0.599314230466E+03   -0.83640E-03   -0.12265E-02 15669   0.175E-01    0.138E-01
RMM:   5    -0.599313990020E+03    0.24045E-03   -0.27159E-03 14534   0.756E-02    0.411E-02
RMM:   6    -0.599314035464E+03   -0.45444E-04   -0.63326E-04 14121   0.354E-02    0.297E-02
RMM:   7    -0.599314038211E+03   -0.27466E-05   -0.17732E-04 10634   0.164E-02    0.909E-03
RMM:   8    -0.599314042786E+03   -0.45754E-05   -0.57548E-05  9144   0.111E-02
  32 F= -.59931404E+03 E0= -.59930918E+03  d E =-.165238E+00
       N       E                     dE             d eps       ncg     rms          rms(c)
DAV:   1    -0.599386767214E+03   -0.72729E-01   -0.52752E+00 10888   0.334E+00    0.342E-01
RMM:   2    -0.599406420358E+03   -0.19653E-01   -0.20732E-01 13772   0.945E-01    0.119E-01
RMM:   3    -0.599410693408E+03   -0.42730E-02   -0.46575E-02 15596   0.346E-01    0.128E-01
RMM:   4    -0.599410982307E+03   -0.28890E-03   -0.53470E-03 15711   0.117E-01    0.998E-02
RMM:   5    -0.599410793266E+03    0.18904E-03   -0.14213E-03 14574   0.557E-02    0.282E-02
RMM:   6    -0.599410814935E+03   -0.21669E-04   -0.32100E-04 13554   0.271E-02    0.244E-02
RMM:   7    -0.599410810793E+03    0.41414E-05   -0.96742E-05 10335   0.139E-02
  33 F= -.59941081E+03 E0= -.59940581E+03  d E =-.967680E-01
       N       E                     dE             d eps       ncg     rms          rms(c)
DAV:   1    -0.599376067086E+03    0.34748E-01   -0.40289E+01 10752   0.924E+00    0.946E-01
RMM:   2    -0.599533367166E+03   -0.15730E+00   -0.16558E+00 13870   0.266E+00    0.330E-01
RMM:   3    -0.599566281394E+03   -0.32914E-01   -0.35774E-01 15615   0.964E-01    0.356E-01
RMM:   4    -0.599568272388E+03   -0.19910E-02   -0.39227E-02 15875   0.322E-01    0.276E-01
RMM:   5    -0.599566858692E+03    0.14137E-02   -0.11326E-02 14413   0.156E-01    0.845E-02
RMM:   6    -0.599566994028E+03   -0.13534E-03   -0.23790E-03 14809   0.744E-02    0.668E-02
RMM:   7    -0.599566970563E+03    0.23466E-04   -0.76934E-04 14120   0.343E-02    0.181E-02
RMM:   8    -0.599566988105E+03   -0.17542E-04   -0.19795E-04 11307   0.191E-02    0.962E-03
RMM:   9    -0.599566992294E+03   -0.41897E-05   -0.65200E-05  9263   0.102E-02
  34 F= -.59956699E+03 E0= -.59956157E+03  d E =-.252950E+00
       N       E                     dE             d eps       ncg     rms          rms(c)
DAV:   1    -0.599545885952E+03    0.21102E-01   -0.84677E+00 11352   0.422E+00    0.432E-01
RMM:   2    -0.599577985409E+03   -0.32099E-01   -0.33775E-01 13827   0.120E+00    0.150E-01
RMM:   3    -0.599584605314E+03   -0.66199E-02   -0.72275E-02 15607   0.433E-01    0.160E-01
RMM:   4    -0.599585034050E+03   -0.42874E-03   -0.82818E-03 15782   0.147E-01    0.123E-01
RMM:   5    -0.599584753772E+03    0.28028E-03   -0.22967E-03 14639   0.698E-02    0.366E-02
RMM:   6    -0.599584783014E+03   -0.29241E-04   -0.47891E-04 13934   0.332E-02    0.294E-02
RMM:   7    -0.599584779749E+03    0.32649E-05   -0.15501E-04 11376   0.165E-02    0.901E-03
RMM:   8    -0.599584783117E+03   -0.33679E-05   -0.46747E-05  9174   0.112E-02
  35 F= -.59958478E+03 E0= -.59957915E+03  d E =-.270740E+00
       N       E                     dE             d eps       ncg     rms          rms(c)
DAV:   1    -0.599624431011E+03   -0.39651E-01   -0.12157E+01 11376   0.513E+00    0.547E-01
RMM:   2    -0.599664279442E+03   -0.39848E-01   -0.42618E-01 13430   0.137E+00    0.183E-01
RMM:   3    -0.599673720035E+03   -0.94406E-02   -0.10046E-01 15504   0.529E-01    0.185E-01
RMM:   4    -0.599674534907E+03   -0.81487E-03   -0.11523E-02 15557   0.178E-01    0.155E-01
RMM:   5    -0.599674158832E+03    0.37608E-03   -0.29404E-03 13556   0.839E-02    0.419E-02
RMM:   6    -0.599674221840E+03   -0.63008E-04   -0.79133E-04 15158   0.425E-02    0.399E-02
RMM:   7    -0.599674209445E+03    0.12395E-04   -0.20461E-04 12243   0.185E-02    0.125E-02
RMM:   8    -0.599674214047E+03   -0.46024E-05   -0.71837E-05  9635   0.141E-02
  36 F= -.59967421E+03 E0= -.59966833E+03  d E =-.894309E-01
       N       E                     dE             d eps       ncg     rms          rms(c)
DAV:   1    -0.599550973542E+03    0.12324E+00   -0.57217E+01 11207   0.111E+01    0.119E+00
RMM:   2    -0.599743901660E+03   -0.19293E+00   -0.20625E+00 13459   0.305E+00    0.395E-01
RMM:   3    -0.599792006305E+03   -0.48105E-01   -0.50994E-01 15520   0.119E+00    0.404E-01
RMM:   4    -0.599796217569E+03   -0.42113E-02   -0.58516E-02 15642   0.398E-01    0.337E-01
RMM:   5    -0.599794436244E+03    0.17813E-02   -0.13548E-02 13744   0.184E-01    0.834E-02
RMM:   6    -0.599794785224E+03   -0.34898E-03   -0.40076E-03 15240   0.951E-02    0.885E-02
RMM:   7    -0.599794719810E+03    0.65414E-04   -0.99748E-04 13970   0.412E-02    0.254E-02
RMM:   8    -0.599794747967E+03   -0.28157E-04   -0.33354E-04 12643   0.265E-02    0.119E-02
RMM:   9    -0.599794753893E+03   -0.59265E-05   -0.94626E-05  9857   0.133E-02
  37 F= -.59979475E+03 E0= -.59978845E+03  d E =-.209971E+00
       N       E                     dE             d eps       ncg     rms          rms(c)
DAV:   1    -0.598674335772E+03    0.11204E+01   -0.22871E+02 11156   0.223E+01    0.238E+00
RMM:   2    -0.599499310640E+03   -0.82497E+00   -0.88148E+00 13549   0.632E+00    0.790E-01
RMM:   3    -0.599702488974E+03   -0.20318E+00   -0.21504E+00 15555   0.248E+00    0.828E-01
RMM:   4    -0.599719100388E+03   -0.16611E-01   -0.25567E-01 15636   0.837E-01    0.639E-01
RMM:   5    -0.599713368485E+03    0.57319E-02   -0.55805E-02 15132   0.370E-01    0.151E-01
RMM:   6    -0.599714469020E+03   -0.11005E-02   -0.14277E-02 13947   0.189E-01    0.149E-01
RMM:   7    -0.599714495674E+03   -0.26654E-04   -0.46995E-03 15279   0.938E-02    0.423E-02
RMM:   8    -0.599714615424E+03   -0.11975E-03   -0.11996E-03 14188   0.431E-02    0.283E-02
RMM:   9    -0.599714633318E+03   -0.17894E-04   -0.36041E-04 12325   0.232E-02    0.778E-03
RMM:  10    -0.599714646645E+03   -0.13327E-04   -0.13784E-04  9592   0.123E-02    0.383E-03
RMM:  11    -0.599714651169E+03   -0.45246E-05   -0.48909E-05  8435   0.791E-03
  38 F= -.59971465E+03 E0= -.59970809E+03  d E =-.129868E+00
       N       E                     dE             d eps       ncg     rms          rms(c)
DAV:   1    -0.599327658503E+03    0.38699E+00   -0.11122E+02 10987   0.156E+01    0.171E+00
RMM:   2    -0.599723212292E+03   -0.39555E+00   -0.42436E+00 13580   0.432E+00    0.566E-01
RMM:   3    -0.599812850125E+03   -0.89638E-01   -0.95664E-01 15526   0.166E+00    0.580E-01
RMM:   4    -0.599819879793E+03   -0.70297E-02   -0.11284E-01 15644   0.557E-01    0.454E-01
RMM:   5    -0.599816679278E+03    0.32005E-02   -0.26928E-02 14598   0.259E-01    0.108E-01
RMM:   6    -0.599817207617E+03   -0.52834E-03   -0.69377E-03 14590   0.128E-01    0.971E-02
RMM:   7    -0.599817211205E+03   -0.35886E-05   -0.19651E-03 15124   0.594E-02    0.293E-02
RMM:   8    -0.599817259610E+03   -0.48405E-04   -0.52454E-04 13240   0.292E-02    0.120E-02
RMM:   9    -0.599817273674E+03   -0.14064E-04   -0.15990E-04 10279   0.156E-02    0.438E-03
RMM:  10    -0.599817279830E+03   -0.61560E-05   -0.62784E-05  8782   0.895E-03
  39 F= -.59981728E+03 E0= -.59981083E+03  d E =-.232497E+00
       N       E                     dE             d eps       ncg     rms          rms(c)
DAV:   1    -0.599810687392E+03    0.65863E-02   -0.24986E+01 11136   0.745E+00    0.785E-01
RMM:   2    -0.599891049759E+03   -0.80362E-01   -0.87877E-01 13473   0.205E+00    0.263E-01
RMM:   3    -0.599912740915E+03   -0.21691E-01   -0.22849E-01 15435   0.806E-01    0.255E-01
RMM:   4    -0.599914784082E+03   -0.20432E-02   -0.26954E-02 15711   0.272E-01    0.214E-01
RMM:   5    -0.599914039920E+03    0.74416E-03   -0.55807E-03 13598   0.122E-01    0.532E-02
RMM:   6    -0.599914186181E+03   -0.14626E-03   -0.18499E-03 15377   0.652E-02    0.572E-02
RMM:   7    -0.599914150886E+03    0.35295E-04   -0.41067E-04 13346   0.278E-02    0.171E-02
RMM:   8    -0.599914161658E+03   -0.10772E-04   -0.14672E-04 11599   0.196E-02    0.790E-03
RMM:   9    -0.599914163205E+03   -0.15464E-05   -0.37991E-05  8919   0.961E-03
  40 F= -.59991416E+03 E0= -.59990765E+03  d E =-.968834E-01
       N       E                     dE             d eps       ncg     rms          rms(c)
DAV:   1    -0.599304646554E+03    0.60952E+00   -0.15735E+02 11327   0.188E+01    0.194E+00
RMM:   2    -0.599855609374E+03   -0.55096E+00   -0.59614E+00 13570   0.537E+00    0.641E-01
RMM:   3    -0.600006568820E+03   -0.15096E+00   -0.15748E+00 15482   0.212E+00    0.653E-01
RMM:   4    -0.600019797636E+03   -0.13229E-01   -0.18605E-01 15650   0.714E-01    0.516E-01
RMM:   5    -0.600015934547E+03    0.38631E-02   -0.36175E-02 14983   0.310E-01    0.137E-01
RMM:   6    -0.600016624699E+03   -0.69015E-03   -0.11370E-02 14059   0.169E-01    0.131E-01
RMM:   7    -0.600016556319E+03    0.68380E-04   -0.33134E-03 15423   0.829E-02    0.357E-02
RMM:   8    -0.600016646640E+03   -0.90321E-04   -0.88620E-04 14505   0.378E-02    0.257E-02
RMM:   9    -0.600016650928E+03   -0.42883E-05   -0.21390E-04 11280   0.195E-02    0.635E-03
RMM:  10    -0.600016659217E+03   -0.82894E-05   -0.84232E-05  9059   0.106E-02
  41 F= -.60001666E+03 E0= -.60000953E+03  d E =-.199379E+00
       N       E                     dE             d eps       ncg     rms          rms(c)
DAV:   1    -0.599951631376E+03    0.65020E-01   -0.40602E+01 11784   0.936E+00    0.990E-01
RMM:   2    -0.600081351692E+03   -0.12972E+00   -0.14087E+00 13463   0.252E+00    0.332E-01
RMM:   3    -0.600114076643E+03   -0.32725E-01   -0.34366E-01 15373   0.982E-01    0.316E-01
RMM:   4    -0.600116755215E+03   -0.26786E-02   -0.40736E-02 15626   0.335E-01    0.235E-01
RMM:   5    -0.600116041275E+03    0.71394E-03   -0.86573E-03 14110   0.149E-01    0.604E-02
RMM:   6    -0.600116217641E+03   -0.17637E-03   -0.22990E-03 15309   0.741E-02    0.524E-02
RMM:   7    -0.600116225604E+03   -0.79635E-05   -0.60586E-04 13828   0.315E-02    0.155E-02
RMM:   8    -0.600116242245E+03   -0.16641E-04   -0.17061E-04 11355   0.189E-02    0.101E-02
RMM:   9    -0.600116244765E+03   -0.25194E-05   -0.52731E-05  9296   0.977E-03
  42 F= -.60011624E+03 E0= -.60010867E+03  d E =-.995855E-01
       N       E                     dE             d eps       ncg     rms          rms(c)
DAV:   1    -0.599873454016E+03    0.24279E+00   -0.73910E+01 11544   0.126E+01    0.129E+00
RMM:   2    -0.600118138150E+03   -0.24468E+00   -0.25972E+00 13464   0.342E+00    0.438E-01
RMM:   3    -0.600177734921E+03   -0.59597E-01   -0.62255E-01 15345   0.133E+00    0.420E-01
RMM:   4    -0.600182330230E+03   -0.45953E-02   -0.76351E-02 15635   0.460E-01    0.280E-01
RMM:   5    -0.600181624528E+03    0.70570E-03   -0.15499E-02 14973   0.197E-01    0.732E-02
RMM:   6    -0.600181929720E+03   -0.30519E-03   -0.36419E-03 15280   0.930E-02    0.605E-02
RMM:   7    -0.600181978034E+03   -0.48314E-04   -0.10941E-03 14829   0.420E-02    0.181E-02
RMM:   8    -0.600182005088E+03   -0.27054E-04   -0.26783E-04 11328   0.202E-02    0.145E-02
RMM:   9    -0.600182009164E+03   -0.40755E-05   -0.92718E-05  9785   0.123E-02
  43 F= -.60018201E+03 E0= -.60017383E+03  d E =-.165350E+00
       N       E                     dE             d eps       ncg     rms          rms(c)
DAV:   1    -0.600187493744E+03   -0.54887E-02   -0.16719E+01 11576   0.614E+00    0.599E-01
RMM:   2    -0.600245416995E+03   -0.57923E-01   -0.60582E-01 13595   0.170E+00    0.201E-01
RMM:   3    -0.600259508754E+03   -0.14092E-01   -0.14899E-01 15557   0.653E-01    0.211E-01
RMM:   4    -0.600260459807E+03   -0.95105E-03   -0.16574E-02 15685   0.218E-01    0.135E-01
RMM:   5    -0.600260272446E+03    0.18736E-03   -0.37234E-03 14867   0.971E-02    0.429E-02
RMM:   6    -0.600260344494E+03   -0.72048E-04   -0.88560E-04 15373   0.455E-02    0.348E-02
RMM:   7    -0.600260348886E+03   -0.43917E-05   -0.25764E-04 12768   0.211E-02    0.927E-03
RMM:   8    -0.600260355113E+03   -0.62270E-05   -0.67801E-05  9343   0.122E-02
  44 F= -.60026036E+03 E0= -.60025200E+03  d E =-.783459E-01
       N       E                     dE             d eps       ncg     rms          rms(c)
DAV:   1    -0.600183166530E+03    0.77182E-01   -0.28186E+01 11256   0.798E+00    0.776E-01
RMM:   2    -0.600282446880E+03   -0.99280E-01   -0.10368E+00 13618   0.223E+00    0.262E-01
RMM:   3    -0.600306858631E+03   -0.24412E-01   -0.25780E-01 15558   0.857E-01    0.275E-01
RMM:   4    -0.600308516685E+03   -0.16581E-02   -0.28805E-02 15709   0.286E-01    0.174E-01
RMM:   5    -0.600308214608E+03    0.30208E-03   -0.63735E-03 14860   0.127E-01    0.546E-02
RMM:   6    -0.600308340149E+03   -0.12554E-03   -0.15149E-03 15502   0.596E-02    0.450E-02
RMM:   7    -0.600308349711E+03   -0.95621E-05   -0.44666E-04 14017   0.276E-02    0.126E-02
RMM:   8    -0.600308360539E+03   -0.10828E-04   -0.11281E-04  9981   0.142E-02    0.119E-02
RMM:   9    -0.600308361178E+03   -0.63889E-06   -0.39930E-05  8756   0.926E-03
  45 F= -.60030836E+03 E0= -.60029993E+03  d E =-.126352E+00
       N       E                     dE             d eps       ncg     rms          rms(c)
DAV:   1    -0.600301722158E+03    0.66384E-02   -0.21250E+00 11904   0.219E+00    0.212E-01
RMM:   2    -0.600308952061E+03   -0.72299E-02   -0.75471E-02 13600   0.592E-01    0.711E-02
RMM:   3    -0.600310610935E+03   -0.16589E-02   -0.17578E-02 15550   0.225E-01    0.743E-02
RMM:   4    -0.600310715755E+03   -0.10482E-03   -0.19788E-03 15474   0.754E-02    0.453E-02
RMM:   5    -0.600310699399E+03    0.16356E-04   -0.47261E-04 14476   0.340E-02    0.159E-02
RMM:   6    -0.600310706341E+03   -0.69425E-05   -0.10211E-04 11532   0.159E-02    0.115E-02
RMM:   7    -0.600310707168E+03   -0.82656E-06   -0.31845E-05  8657   0.913E-03
  46 F= -.60031071E+03 E0= -.60030228E+03  d E =-.128698E+00
       N       E                     dE             d eps       ncg     rms          rms(c)
DAV:   1    -0.600260633411E+03    0.50073E-01   -0.25254E+01 10879   0.743E+00    0.774E-01
RMM:   2    -0.600347345320E+03   -0.86712E-01   -0.90804E-01 13473   0.201E+00    0.249E-01
RMM:   3    -0.600367537440E+03   -0.20192E-01   -0.21352E-01 15513   0.775E-01    0.266E-01
RMM:   4    -0.600368844390E+03   -0.13069E-02   -0.22833E-02 15726   0.255E-01    0.179E-01
RMM:   5    -0.600368458345E+03    0.38605E-03   -0.54838E-03 14250   0.114E-01    0.581E-02
RMM:   6    -0.600368558941E+03   -0.10060E-03   -0.13021E-03 15357   0.549E-02    0.458E-02
RMM:   7    -0.600368562802E+03   -0.38603E-05   -0.37758E-04 13247   0.241E-02    0.118E-02
RMM:   8    -0.600368572636E+03   -0.98344E-05   -0.10222E-04  9856   0.141E-02    0.968E-03
RMM:   9    -0.600368574659E+03   -0.20224E-05   -0.36349E-05  8521   0.797E-03
  47 F= -.60036857E+03 E0= -.60035993E+03  d E =-.578675E-01
       N       E                     dE             d eps       ncg     rms          rms(c)
DAV:   1    -0.600327858022E+03    0.40715E-01   -0.13237E+01 11288   0.538E+00    0.559E-01
RMM:   2    -0.600372936116E+03   -0.45078E-01   -0.47173E-01 13468   0.145E+00    0.179E-01
RMM:   3    -0.600383233585E+03   -0.10297E-01   -0.10889E-01 15500   0.554E-01    0.190E-01
RMM:   4    -0.600383896148E+03   -0.66256E-03   -0.11740E-02 15691   0.183E-01    0.128E-01
RMM:   5    -0.600383710272E+03    0.18588E-03   -0.28700E-03 14402   0.816E-02    0.426E-02
RMM:   6    -0.600383758933E+03   -0.48661E-04   -0.65854E-04 15204   0.388E-02    0.323E-02
RMM:   7    -0.600383761785E+03   -0.28523E-05   -0.19561E-04 12019   0.175E-02    0.868E-03
RMM:   8    -0.600383766974E+03   -0.51890E-05   -0.56299E-05  9162   0.114E-02
  48 F= -.60038377E+03 E0= -.60037500E+03  d E =-.730598E-01
       N       E                     dE             d eps       ncg     rms          rms(c)
DAV:   1    -0.600357461358E+03    0.26300E-01   -0.14780E+01 11104   0.567E+00    0.588E-01
RMM:   2    -0.600409223561E+03   -0.51762E-01   -0.54027E-01 13571   0.154E+00    0.186E-01
RMM:   3    -0.600420554761E+03   -0.11331E-01   -0.11938E-01 15518   0.576E-01    0.199E-01
RMM:   4    -0.600421253334E+03   -0.69857E-03   -0.13243E-02 15652   0.192E-01    0.129E-01
RMM:   5    -0.600421071621E+03    0.18171E-03   -0.32908E-03 14539   0.858E-02    0.453E-02
RMM:   6    -0.600421119210E+03   -0.47588E-04   -0.71980E-04 15433   0.401E-02    0.314E-02
RMM:   7    -0.600421125588E+03   -0.63780E-05   -0.22663E-04 12038   0.181E-02    0.825E-03
RMM:   8    -0.600421130779E+03   -0.51909E-05   -0.57712E-05  9116   0.115E-02
  49 F= -.60042113E+03 E0= -.60041219E+03  d E =-.373638E-01
       N       E                     dE             d eps       ncg     rms          rms(c)
DAV:   1    -0.600404222406E+03    0.16903E-01   -0.62366E+00 11480   0.368E+00    0.380E-01
RMM:   2    -0.600425981239E+03   -0.21759E-01   -0.22710E-01 13586   0.990E-01    0.121E-01
RMM:   3    -0.600430630451E+03   -0.46492E-02   -0.49039E-02 15509   0.369E-01    0.129E-01
RMM:   4    -0.600430909966E+03   -0.27951E-03   -0.55016E-03 15569   0.123E-01    0.829E-02
RMM:   5    -0.600430840214E+03    0.69752E-04   -0.14058E-03 14683   0.555E-02    0.299E-02
RMM:   6    -0.600430858026E+03   -0.17812E-04   -0.29689E-04 13645   0.256E-02    0.197E-02
RMM:   7    -0.600430861062E+03   -0.30358E-05   -0.94250E-05  9640   0.126E-02
  50 F= -.60043086E+03 E0= -.60042182E+03  d E =-.470941E-01
       N       E                     dE             d eps       ncg     rms          rms(c)
DAV:   1    -0.600397459029E+03    0.33399E-01   -0.15631E+01 11008   0.578E+00    0.599E-01
RMM:   2    -0.600449874419E+03   -0.52415E-01   -0.54648E-01 13490   0.155E+00    0.190E-01
RMM:   3    -0.600462094184E+03   -0.12220E-01   -0.12765E-01 15442   0.592E-01    0.199E-01
RMM:   4    -0.600462981050E+03   -0.88687E-03   -0.14396E-02 15649   0.197E-01    0.134E-01
RMM:   5    -0.600462813580E+03    0.16747E-03   -0.34158E-03 14517   0.869E-02    0.479E-02
RMM:   6    -0.600462866390E+03   -0.52810E-04   -0.77552E-04 15398   0.407E-02    0.338E-02
RMM:   7    -0.600462871488E+03   -0.50981E-05   -0.23873E-04 12049   0.183E-02    0.879E-03
RMM:   8    -0.600462877518E+03   -0.60296E-05   -0.64217E-05  9087   0.117E-02
  51 F= -.60046288E+03 E0= -.60045387E+03  d E =-.320165E-01
       N       E                     dE             d eps       ncg     rms          rms(c)
DAV:   1    -0.600432261383E+03    0.30610E-01   -0.10485E+01 11264   0.473E+00    0.489E-01
RMM:   2    -0.600467215359E+03   -0.34954E-01   -0.36433E-01 13489   0.126E+00    0.155E-01
RMM:   3    -0.600475313092E+03   -0.80977E-02   -0.84620E-02 15461   0.482E-01    0.163E-01
RMM:   4    -0.600475898564E+03   -0.58547E-03   -0.94747E-03 15624   0.160E-01    0.110E-01
RMM:   5    -0.600475786714E+03    0.11185E-03   -0.23232E-03 14586   0.708E-02    0.415E-02
RMM:   6    -0.600475817669E+03   -0.30955E-04   -0.51233E-04 14738   0.329E-02    0.280E-02
RMM:   7    -0.600475820862E+03   -0.31937E-05   -0.16080E-04 10642   0.153E-02    0.718E-03
RMM:   8    -0.600475825010E+03   -0.41474E-05   -0.45513E-05  8804   0.105E-02
  52 F= -.60047583E+03 E0= -.60046684E+03  d E =-.449639E-01
       N       E                     dE             d eps       ncg     rms          rms(c)
DAV:   1    -0.600287015040E+03    0.18881E+00   -0.41892E+01 10958   0.947E+00    0.987E-01
RMM:   2    -0.600430820598E+03   -0.14381E+00   -0.14991E+00 13523   0.257E+00    0.311E-01
RMM:   3    -0.600464117776E+03   -0.33297E-01   -0.34688E-01 15472   0.982E-01    0.328E-01
RMM:   4    -0.600466425784E+03   -0.23080E-02   -0.39130E-02 15677   0.326E-01    0.214E-01
RMM:   5    -0.600465992039E+03    0.43375E-03   -0.89936E-03 14646   0.143E-01    0.680E-02
RMM:   6    -0.600466155025E+03   -0.16299E-03   -0.21008E-03 15599   0.669E-02    0.506E-02
RMM:   7    -0.600466176795E+03   -0.21770E-04   -0.61401E-04 13971   0.293E-02    0.141E-02
RMM:   8    -0.600466194060E+03   -0.17265E-04   -0.16996E-04 10302   0.162E-02    0.132E-02
RMM:   9    -0.600466196703E+03   -0.26434E-05   -0.62816E-05  9100   0.995E-03
  53 F= -.60046620E+03 E0= -.60045733E+03  d E =-.353356E-01
       N       E                     dE             d eps       ncg     rms          rms(c)
DAV:   1    -0.600382779363E+03    0.83415E-01   -0.22534E+01 10901   0.694E+00    0.721E-01
RMM:   2    -0.600458862996E+03   -0.76084E-01   -0.79251E-01 13492   0.187E+00    0.228E-01
RMM:   3    -0.600476716798E+03   -0.17854E-01   -0.18597E-01 15463   0.718E-01    0.240E-01
RMM:   4    -0.600478023791E+03   -0.13070E-02   -0.20674E-02 15648   0.237E-01    0.166E-01
RMM:   5    -0.600477735372E+03    0.28842E-03   -0.49686E-03 14534   0.105E-01    0.605E-02
RMM:   6    -0.600477805696E+03   -0.70324E-04   -0.10908E-03 15546   0.485E-02    0.419E-02
RMM:   7    -0.600477810941E+03   -0.52445E-05   -0.33174E-04 12805   0.215E-02    0.108E-02
RMM:   8    -0.600477820832E+03   -0.98915E-05   -0.92237E-05  9582   0.136E-02
  54 F= -.60047782E+03 E0= -.60046886E+03  d E =-.469598E-01
       N       E                     dE             d eps       ncg     rms          rms(c)
DAV:   1    -0.600462151312E+03    0.15660E-01   -0.87936E+00 10904   0.428E+00    0.456E-01
RMM:   2    -0.600490528440E+03   -0.28377E-01   -0.29617E-01 13397   0.113E+00    0.141E-01
RMM:   3    -0.600497365331E+03   -0.68369E-02   -0.70296E-02 15374   0.434E-01    0.144E-01
RMM:   4    -0.600497951474E+03   -0.58614E-03   -0.80928E-03 15667   0.145E-01    0.109E-01
RMM:   5    -0.600497820052E+03    0.13142E-03   -0.18993E-03 14271   0.629E-02    0.391E-02
RMM:   6    -0.600497848741E+03   -0.28689E-04   -0.43277E-04 14186   0.295E-02    0.290E-02
RMM:   7    -0.600497847015E+03    0.17261E-05   -0.12519E-04 10152   0.140E-02    0.734E-03
RMM:   8    -0.600497850940E+03   -0.39250E-05   -0.40734E-05  8743   0.978E-03
  55 F= -.60049785E+03 E0= -.60048892E+03  d E =-.200301E-01
       N       E                     dE             d eps       ncg     rms          rms(c)
DAV:   1    -0.600293901696E+03    0.20395E+00   -0.54969E+01 10906   0.107E+01    0.114E+00
RMM:   2    -0.600478718028E+03   -0.18482E+00   -0.19291E+00 13437   0.288E+00    0.355E-01
RMM:   3    -0.600523779011E+03   -0.45061E-01   -0.46354E-01 15407   0.112E+00    0.367E-01
RMM:   4    -0.600527526580E+03   -0.37476E-02   -0.53972E-02 15718   0.372E-01    0.266E-01
RMM:   5    -0.600526769991E+03    0.75659E-03   -0.11961E-02 14536   0.160E-01    0.782E-02
RMM:   6    -0.600527001060E+03   -0.23107E-03   -0.28171E-03 15496   0.750E-02    0.627E-02
RMM:   7    -0.600527019946E+03   -0.18886E-04   -0.80676E-04 14159   0.331E-02    0.178E-02
RMM:   8    -0.600527045148E+03   -0.25202E-04   -0.24004E-04 10895   0.183E-02    0.168E-02
RMM:   9    -0.600527047369E+03   -0.22204E-05   -0.81793E-05  9564   0.110E-02
  56 F= -.60052705E+03 E0= -.60051856E+03  d E =-.492265E-01
       N       E                     dE             d eps       ncg     rms          rms(c)
DAV:   1    -0.600484037883E+03    0.43007E-01   -0.11309E+01 11392   0.485E+00    0.515E-01
RMM:   2    -0.600520745323E+03   -0.36707E-01   -0.38357E-01 13412   0.128E+00    0.160E-01
RMM:   3    -0.600529719154E+03   -0.89738E-02   -0.92446E-02 15401   0.495E-01    0.166E-01
RMM:   4    -0.600530533022E+03   -0.81387E-03   -0.10600E-02 15726   0.165E-01    0.135E-01
RMM:   5    -0.600530305872E+03    0.22715E-03   -0.26375E-03 14199   0.725E-02    0.473E-02
RMM:   6    -0.600530347803E+03   -0.41932E-04   -0.59849E-04 14566   0.343E-02    0.370E-02
RMM:   7    -0.600530341635E+03    0.61684E-05   -0.17623E-04 11009   0.161E-02    0.931E-03
RMM:   8    -0.600530347418E+03   -0.57828E-05   -0.60482E-05  9146   0.114E-02
  57 F= -.60053035E+03 E0= -.60052220E+03  d E =-.525266E-01
       N       E                     dE             d eps       ncg     rms          rms(c)
DAV:   1    -0.600491659271E+03    0.38682E-01   -0.16918E+01 10887   0.577E+00    0.649E-01
RMM:   2    -0.600545052358E+03   -0.53393E-01   -0.56253E-01 13344   0.149E+00    0.198E-01
RMM:   3    -0.600558302360E+03   -0.13250E-01   -0.13651E-01 15354   0.576E-01    0.208E-01
RMM:   4    -0.600559505976E+03   -0.12036E-02   -0.15634E-02 15734   0.193E-01    0.179E-01
RMM:   5    -0.600559062581E+03    0.44339E-03   -0.41360E-03 13966   0.877E-02    0.591E-02
RMM:   6    -0.600559127968E+03   -0.65387E-04   -0.95512E-04 14728   0.423E-02    0.496E-02
RMM:   7    -0.600559113724E+03    0.14243E-04   -0.27294E-04 11885   0.194E-02    0.162E-02
RMM:   8    -0.600559120529E+03   -0.68043E-05   -0.10288E-04  9744   0.143E-02    0.977E-03
RMM:   9    -0.600559121864E+03   -0.13357E-05   -0.30505E-05  8104   0.726E-03
  58 F= -.60055912E+03 E0= -.60055151E+03  d E =-.287744E-01
       N       E                     dE             d eps       ncg     rms          rms(c)
DAV:   1    -0.599952960830E+03    0.60616E+00   -0.15171E+02 10816   0.173E+01    0.198E+00
RMM:   2    -0.600484600471E+03   -0.53164E+00   -0.56018E+00 13477   0.466E+00    0.603E-01
RMM:   3    -0.600608777548E+03   -0.12418E+00   -0.12833E+00 15405   0.180E+00    0.644E-01
RMM:   4    -0.600619538540E+03   -0.10761E-01   -0.15190E-01 15713   0.602E-01    0.518E-01
RMM:   5    -0.600615730881E+03    0.38077E-02   -0.36626E-02 14648   0.267E-01    0.133E-01
RMM:   6    -0.600616364158E+03   -0.63328E-03   -0.84417E-03 14400   0.129E-01    0.113E-01
RMM:   7    -0.600616424709E+03   -0.60550E-04   -0.25869E-03 15178   0.615E-02    0.402E-02
RMM:   8    -0.600616489005E+03   -0.64296E-04   -0.77544E-04 12989   0.320E-02    0.181E-02
RMM:   9    -0.600616508741E+03   -0.19736E-04   -0.24442E-04 10652   0.174E-02    0.428E-03
RMM:  10    -0.600616518154E+03   -0.94126E-05   -0.96006E-05  9034   0.104E-02
  59 F= -.60061652E+03 E0= -.60061042E+03  d E =-.861707E-01
       N       E                     dE             d eps       ncg     rms          rms(c)
DAV:   1    -0.597428009150E+03    0.31885E+01   -0.60293E+02 10897   0.348E+01    0.414E+00
RMM:   2    -0.599999217110E+03   -0.25712E+01   -0.27289E+01 13505   0.101E+01    0.135E+00
RMM:   3    -0.600507367009E+03   -0.50815E+00   -0.53713E+00 15524   0.385E+00    0.146E+00
RMM:   4    -0.600544823023E+03   -0.37456E-01   -0.69068E-01 15669   0.132E+00    0.110E+00
RMM:   5    -0.600526384275E+03    0.18439E-01   -0.16384E-01 15075   0.571E-01    0.277E-01
RMM:   6    -0.600528490464E+03   -0.21062E-02   -0.38723E-02 13937   0.283E-01    0.175E-01
RMM:   7    -0.600529232400E+03   -0.74194E-03   -0.10972E-02 15611   0.131E-01    0.748E-02
RMM:   8    -0.600529503468E+03   -0.27107E-03   -0.32406E-03 13560   0.632E-02    0.313E-02
RMM:   9    -0.600529604099E+03   -0.10063E-03   -0.10592E-03 13394   0.321E-02    0.120E-02
RMM:  10    -0.600529643238E+03   -0.39140E-04   -0.42160E-04 10503   0.187E-02    0.717E-03
RMM:  11    -0.600529656950E+03   -0.13711E-04   -0.15307E-04  9356   0.113E-02    0.346E-03
RMM:  12    -0.600529662491E+03   -0.55411E-05   -0.62505E-05  8394   0.771E-03
  60 F= -.60052966E+03 E0= -.60052259E+03  d E =0.684927E-03
       N       E                     dE             d eps       ncg     rms          rms(c)
DAV:   1    -0.598603003870E+03    0.19267E+01   -0.41220E+02 10783   0.286E+01    0.370E+00
RMM:   2    -0.600268212703E+03   -0.16652E+01   -0.17957E+01 13507   0.815E+00    0.129E+00
RMM:   3    -0.600613920688E+03   -0.34571E+00   -0.37635E+00 15524   0.313E+00    0.125E+00
RMM:   4    -0.600637152984E+03   -0.23232E-01   -0.44472E-01 15651   0.105E+00    0.962E-01
RMM:   5    -0.600622043981E+03    0.15109E-01   -0.11364E-01 14962   0.484E-01    0.232E-01
RMM:   6    -0.600623427987E+03   -0.13840E-02   -0.25844E-02 14034   0.239E-01    0.161E-01
RMM:   7    -0.600623788783E+03   -0.36080E-03   -0.78175E-03 15820   0.117E-01    0.575E-02
RMM:   8    -0.600623990260E+03   -0.20148E-03   -0.22165E-03 14799   0.549E-02    0.264E-02
RMM:   9    -0.600624055663E+03   -0.65403E-04   -0.70210E-04 13237   0.297E-02    0.117E-02
RMM:  10    -0.600624078147E+03   -0.22484E-04   -0.27066E-04 10186   0.162E-02    0.651E-03
RMM:  11    -0.600624086975E+03   -0.88278E-05   -0.96109E-05  8954   0.990E-03
  61 F= -.60062409E+03 E0= -.60061827E+03  d E =-.937396E-01
       N       E                     dE             d eps       ncg     rms          rms(c)
DAV:   1    -0.600610357257E+03    0.13721E-01   -0.11764E+01 10726   0.471E+00    0.561E-01
RMM:   2    -0.600646322487E+03   -0.35965E-01   -0.38412E-01 13341   0.120E+00    0.172E-01
RMM:   3    -0.600654903006E+03   -0.85805E-02   -0.89249E-02 15329   0.460E-01    0.170E-01
RMM:   4    -0.600655715497E+03   -0.81249E-03   -0.10654E-02 15699   0.155E-01    0.146E-01
RMM:   5    -0.600655441658E+03    0.27384E-03   -0.30416E-03 13844   0.730E-02    0.575E-02
RMM:   6    -0.600655455894E+03   -0.14236E-04   -0.64148E-04 14344   0.340E-02    0.375E-02
RMM:   7    -0.600655450178E+03    0.57158E-05   -0.19970E-04 10366   0.157E-02    0.985E-03
RMM:   8    -0.600655454930E+03   -0.47518E-05   -0.59549E-05  8935   0.115E-02
  62 F= -.60065545E+03 E0= -.60064967E+03  d E =-.313680E-01
       N       E                     dE             d eps       ncg     rms          rms(c)
DAV:   1    -0.600310748646E+03    0.34470E+00   -0.10569E+02 10722   0.141E+01    0.171E+00
RMM:   2    -0.600653343358E+03   -0.34259E+00   -0.36694E+00 13404   0.370E+00    0.540E-01
RMM:   3    -0.600741913027E+03   -0.88570E-01   -0.92456E-01 15365   0.144E+00    0.562E-01
RMM:   4    -0.600749466786E+03   -0.75538E-02   -0.10311E-01 15733   0.480E-01    0.482E-01
RMM:   5    -0.600745924396E+03    0.35424E-02   -0.27579E-02 13936   0.221E-01    0.124E-01
RMM:   6    -0.600746393935E+03   -0.46954E-03   -0.66284E-03 14949   0.109E-01    0.111E-01
RMM:   7    -0.600746366102E+03    0.27833E-04   -0.18688E-03 14293   0.492E-02    0.350E-02
RMM:   8    -0.600746415105E+03   -0.49003E-04   -0.58657E-04 12496   0.274E-02    0.124E-02
RMM:   9    -0.600746431551E+03   -0.16446E-04   -0.18130E-04  9988   0.144E-02    0.410E-03
RMM:  10    -0.600746438454E+03   -0.69033E-05   -0.70158E-05  8733   0.807E-03
  63 F= -.60074644E+03 E0= -.60073943E+03  d E =-.122351E+00
       N       E                     dE             d eps       ncg     rms          rms(c)
DAV:   1    -0.598808767682E+03    0.19377E+01   -0.42056E+02 10880   0.283E+01    0.338E+00
RMM:   2    -0.600481511502E+03   -0.16727E+01   -0.17720E+01 13453   0.788E+00    0.107E+00
RMM:   3    -0.600823327293E+03   -0.34182E+00   -0.36145E+00 15419   0.300E+00    0.115E+00
RMM:   4    -0.600843316438E+03   -0.19989E-01   -0.43407E-01 15597   0.102E+00    0.727E-01
RMM:   5    -0.600837927749E+03    0.53887E-02   -0.10222E-01 15018   0.444E-01    0.174E-01
RMM:   6    -0.600839886244E+03   -0.19585E-02   -0.24027E-02 14351   0.210E-01    0.124E-01
RMM:   7    -0.600840486083E+03   -0.59984E-03   -0.77298E-03 15229   0.102E-01    0.492E-02
RMM:   8    -0.600840687299E+03   -0.20122E-03   -0.21475E-03 13358   0.425E-02    0.227E-02
RMM:   9    -0.600840757381E+03   -0.70083E-04   -0.76048E-04 11245   0.243E-02    0.598E-03
RMM:  10    -0.600840784771E+03   -0.27389E-04   -0.29336E-04  9905   0.142E-02    0.493E-03
RMM:  11    -0.600840794919E+03   -0.10148E-04   -0.11233E-04  9030   0.906E-03    0.198E-03
RMM:  12    -0.600840798812E+03   -0.38937E-05   -0.44610E-05  8019   0.598E-03
  64 F= -.60084080E+03 E0= -.60083544E+03  d E =-.216712E+00
       N       E                     dE             d eps       ncg     rms          rms(c)
DAV:   1    -0.600684113439E+03    0.15668E+00   -0.51860E+01 11256   0.975E+00    0.114E+00
RMM:   2    -0.600863867865E+03   -0.17975E+00   -0.19010E+00 13471   0.256E+00    0.352E-01
RMM:   3    -0.600901756787E+03   -0.37889E-01   -0.40029E-01 15407   0.964E-01    0.366E-01
RMM:   4    -0.600904471215E+03   -0.27144E-02   -0.47263E-02 15656   0.326E-01    0.260E-01
RMM:   5    -0.600903748853E+03    0.72236E-03   -0.13646E-02 14315   0.149E-01    0.931E-02
RMM:   6    -0.600903881742E+03   -0.13289E-03   -0.30602E-03 15610   0.700E-02    0.526E-02
RMM:   7    -0.600903939825E+03   -0.58083E-04   -0.96643E-04 13250   0.302E-02    0.199E-02
RMM:   8    -0.600903967701E+03   -0.27876E-04   -0.28525E-04 10414   0.191E-02    0.133E-02
RMM:   9    -0.600903974585E+03   -0.68839E-05   -0.10882E-04  9226   0.102E-02    0.611E-03
RMM:  10    -0.600903977509E+03   -0.29243E-05   -0.38942E-05  8008   0.666E-03
  65 F= -.60090398E+03 E0= -.60089923E+03  d E =-.631787E-01
       N       E                     dE             d eps       ncg     rms          rms(c)
DAV:   1    -0.600880830521E+03    0.23144E-01   -0.73396E+00 11616   0.366E+00    0.430E-01
RMM:   2    -0.600905173186E+03   -0.24343E-01   -0.25929E-01 13435   0.947E-01    0.134E-01
RMM:   3    -0.600910262140E+03   -0.50890E-02   -0.54183E-02 15406   0.355E-01    0.138E-01
RMM:   4    -0.600910585822E+03   -0.32368E-03   -0.64078E-03 15577   0.120E-01    0.921E-02
RMM:   5    -0.600910504015E+03    0.81806E-04   -0.18303E-03 14412   0.549E-02    0.320E-02
RMM:   6    -0.600910524983E+03   -0.20967E-04   -0.42885E-04 12889   0.257E-02    0.171E-02
RMM:   7    -0.600910535216E+03   -0.10233E-04   -0.13037E-04  9412   0.124E-02    0.946E-03
RMM:   8    -0.600910538815E+03   -0.35999E-05   -0.47047E-05  8479   0.956E-03
  66 F= -.60091054E+03 E0= -.60090592E+03  d E =-.697400E-01
       N       E                     dE             d eps       ncg     rms          rms(c)
DAV:   1    -0.600967241541E+03   -0.56706E-01   -0.49970E+00 11152   0.320E+00    0.334E-01
RMM:   2    -0.600986133770E+03   -0.18892E-01   -0.19880E-01 13733   0.909E-01    0.111E-01
RMM:   3    -0.600990115072E+03   -0.39813E-02   -0.42836E-02 15555   0.331E-01    0.117E-01
RMM:   4    -0.600990362966E+03   -0.24789E-03   -0.51005E-03 15581   0.114E-01    0.769E-02
RMM:   5    -0.600990282691E+03    0.80275E-04   -0.13086E-03 14610   0.528E-02    0.213E-02
RMM:   6    -0.600990305575E+03   -0.22884E-04   -0.30739E-04 13329   0.253E-02    0.166E-02
RMM:   7    -0.600990309653E+03   -0.40783E-05   -0.90913E-05  9800   0.124E-02
  67 F= -.60099031E+03 E0= -.60098567E+03  d E =-.797708E-01
       N       E                     dE             d eps       ncg     rms          rms(c)
DAV:   1    -0.600917187806E+03    0.73118E-01   -0.43363E+01 10992   0.947E+00    0.991E-01
RMM:   2    -0.601092414242E+03   -0.17523E+00   -0.18405E+00 13828   0.274E+00    0.329E-01
RMM:   3    -0.601128448571E+03   -0.36034E-01   -0.38549E-01 15585   0.995E-01    0.350E-01
RMM:   4    -0.601130733558E+03   -0.22850E-02   -0.46102E-02 15763   0.339E-01    0.232E-01
RMM:   5    -0.601129981762E+03    0.75180E-03   -0.11821E-02 14776   0.158E-01    0.647E-02
RMM:   6    -0.601130192985E+03   -0.21122E-03   -0.28082E-03 15190   0.751E-02    0.491E-02
RMM:   7    -0.601130234557E+03   -0.41572E-04   -0.83243E-04 14193   0.333E-02    0.167E-02
RMM:   8    -0.601130254578E+03   -0.20021E-04   -0.21824E-04 10759   0.178E-02    0.918E-03
RMM:   9    -0.601130260086E+03   -0.55074E-05   -0.82084E-05  9288   0.101E-02
  68 F= -.60113026E+03 E0= -.60112556E+03  d E =-.219721E+00
       N       E                     dE             d eps       ncg     rms          rms(c)
DAV:   1    -0.600117259936E+03    0.10130E+01   -0.17366E+02 11112   0.191E+01    0.200E+00
RMM:   2    -0.600855717276E+03   -0.73846E+00   -0.77685E+00 13810   0.567E+00    0.667E-01
RMM:   3    -0.601020302508E+03   -0.16459E+00   -0.17386E+00 15616   0.211E+00    0.719E-01
RMM:   4    -0.601031416143E+03   -0.11114E-01   -0.22244E-01 15755   0.730E-01    0.451E-01
RMM:   5    -0.601029039150E+03    0.23770E-02   -0.48330E-02 15152   0.320E-01    0.108E-01
RMM:   6    -0.601029957263E+03   -0.91811E-03   -0.11140E-02 14513   0.154E-01    0.894E-02
RMM:   7    -0.601030206428E+03   -0.24917E-03   -0.36921E-03 15089   0.747E-02    0.344E-02
RMM:   8    -0.601030296837E+03   -0.90410E-04   -0.95355E-04 12753   0.332E-02    0.241E-02
RMM:   9    -0.601030313098E+03   -0.16260E-04   -0.33644E-04 10876   0.190E-02    0.655E-03
RMM:  10    -0.601030323204E+03   -0.10106E-04   -0.12002E-04  9766   0.105E-02    0.281E-03
RMM:  11    -0.601030327315E+03   -0.41119E-05   -0.45778E-05  8108   0.672E-03
  69 F= -.60103033E+03 E0= -.60102546E+03  d E =-.119788E+00
       N       E                     dE             d eps       ncg     rms          rms(c)
DAV:   1    -0.600736585567E+03    0.29374E+00   -0.85073E+01 11111   0.133E+01    0.137E+00
RMM:   2    -0.601069900430E+03   -0.33331E+00   -0.34959E+00 13757   0.382E+00    0.451E-01
RMM:   3    -0.601146131820E+03   -0.76231E-01   -0.80396E-01 15552   0.143E+00    0.488E-01
RMM:   4    -0.601151055160E+03   -0.49233E-02   -0.95321E-02 15574   0.482E-01    0.306E-01
RMM:   5    -0.601149982683E+03    0.10725E-02   -0.22612E-02 15108   0.219E-01    0.831E-02
RMM:   6    -0.601150399041E+03   -0.41636E-03   -0.50379E-03 14791   0.103E-01    0.704E-02
RMM:   7    -0.601150484985E+03   -0.85944E-04   -0.16856E-03 14788   0.493E-02    0.229E-02
RMM:   8    -0.601150525003E+03   -0.40018E-04   -0.41941E-04 11551   0.227E-02    0.157E-02
RMM:   9    -0.601150533538E+03   -0.85348E-05   -0.15055E-04 10052   0.135E-02    0.361E-03
RMM:  10    -0.601150538484E+03   -0.49465E-05   -0.54446E-05  8859   0.771E-03
  70 F= -.60115054E+03 E0= -.60114580E+03  d E =-.240000E+00
       N       E                     dE             d eps       ncg     rms          rms(c)
DAV:   1    -0.601178060919E+03   -0.27527E-01   -0.12890E+01 10952   0.527E+00    0.522E-01
RMM:   2    -0.601222488400E+03   -0.44427E-01   -0.46489E-01 13566   0.147E+00    0.173E-01
RMM:   3    -0.601233773864E+03   -0.11285E-01   -0.11788E-01 15489   0.563E-01    0.181E-01
RMM:   4    -0.601234719467E+03   -0.94560E-03   -0.13358E-02 15711   0.190E-01    0.134E-01
RMM:   5    -0.601234479115E+03    0.24035E-03   -0.27639E-03 14137   0.831E-02    0.342E-02
RMM:   6    -0.601234548765E+03   -0.69650E-04   -0.78707E-04 14783   0.424E-02    0.359E-02
RMM:   7    -0.601234544251E+03    0.45147E-05   -0.21218E-04 12276   0.197E-02    0.834E-03
RMM:   8    -0.601234550319E+03   -0.60682E-05   -0.63794E-05  9494   0.132E-02
  71 F= -.60123455E+03 E0= -.60122968E+03  d E =-.840118E-01
       N       E                     dE             d eps       ncg     rms          rms(c)
DAV:   1    -0.600934541425E+03    0.30000E+00   -0.90617E+01 11071   0.140E+01    0.138E+00
RMM:   2    -0.601269466113E+03   -0.33492E+00   -0.34974E+00 13657   0.403E+00    0.460E-01
RMM:   3    -0.601354931298E+03   -0.85465E-01   -0.88909E-01 15515   0.155E+00    0.486E-01
RMM:   4    -0.601361914622E+03   -0.69833E-02   -0.10073E-01 15742   0.518E-01    0.350E-01
RMM:   5    -0.601360404562E+03    0.15101E-02   -0.20785E-02 14735   0.225E-01    0.888E-02
RMM:   6    -0.601360847609E+03   -0.44305E-03   -0.50970E-03 14672   0.112E-01    0.911E-02
RMM:   7    -0.601360861161E+03   -0.13552E-04   -0.17428E-03 14775   0.552E-02    0.224E-02
RMM:   8    -0.601360901936E+03   -0.40775E-04   -0.39667E-04 12900   0.270E-02    0.246E-02
RMM:   9    -0.601360900423E+03    0.15128E-05   -0.13357E-04 10450   0.155E-02    0.412E-03
RMM:  10    -0.601360905105E+03   -0.46816E-05   -0.49120E-05  8605   0.883E-03
  72 F= -.60136091E+03 E0= -.60135574E+03  d E =-.210367E+00
       N       E                     dE             d eps       ncg     rms          rms(c)
DAV:   1    -0.601310269161E+03    0.50631E-01   -0.14074E+01 11488   0.550E+00    0.538E-01
RMM:   2    -0.601358608775E+03   -0.48340E-01   -0.50497E-01 13565   0.154E+00    0.180E-01
RMM:   3    -0.601371087038E+03   -0.12478E-01   -0.13043E-01 15503   0.591E-01    0.190E-01
RMM:   4    -0.601372125815E+03   -0.10388E-02   -0.14731E-02 15752   0.198E-01    0.138E-01
RMM:   5    -0.601371875645E+03    0.25017E-03   -0.30835E-03 14266   0.868E-02    0.359E-02
RMM:   6    -0.601371952938E+03   -0.77293E-04   -0.85596E-04 14779   0.440E-02    0.376E-02
RMM:   7    -0.601371949712E+03    0.32265E-05   -0.24126E-04 12498   0.207E-02    0.860E-03
RMM:   8    -0.601371956589E+03   -0.68778E-05   -0.69413E-05  9559   0.133E-02
  73 F= -.60137196E+03 E0= -.60136671E+03  d E =-.221418E+00
       N       E                     dE             d eps       ncg     rms          rms(c)
DAV:   1    -0.601343333295E+03    0.28616E-01   -0.27565E+01 11168   0.764E+00    0.742E-01
RMM:   2    -0.601438082147E+03   -0.94749E-01   -0.98945E-01 13557   0.214E+00    0.253E-01
RMM:   3    -0.601462250995E+03   -0.24169E-01   -0.25237E-01 15482   0.828E-01    0.262E-01
RMM:   4    -0.601464222668E+03   -0.19717E-02   -0.28130E-02 15768   0.277E-01    0.191E-01
RMM:   5    -0.601463719356E+03    0.50331E-03   -0.61002E-03 13913   0.122E-01    0.570E-02
RMM:   6    -0.601463852283E+03   -0.13293E-03   -0.15935E-03 15337   0.613E-02    0.528E-02
RMM:   7    -0.601463844768E+03    0.75154E-05   -0.45271E-04 13477   0.271E-02    0.121E-02
RMM:   8    -0.601463857194E+03   -0.12426E-04   -0.12346E-04 10614   0.168E-02    0.125E-02
RMM:   9    -0.601463857494E+03   -0.30048E-06   -0.38113E-05  8807   0.863E-03
  74 F= -.60146386E+03 E0= -.60145897E+03  d E =-.919009E-01
       N       E                     dE             d eps       ncg     rms          rms(c)
DAV:   1    -0.601301531798E+03    0.16233E+00   -0.49356E+01 11216   0.102E+01    0.990E-01
RMM:   2    -0.601474601825E+03   -0.17307E+00   -0.18053E+00 13608   0.289E+00    0.339E-01
RMM:   3    -0.601518527007E+03   -0.43925E-01   -0.45785E-01 15485   0.112E+00    0.351E-01
RMM:   4    -0.601521991261E+03   -0.34643E-02   -0.51663E-02 15762   0.374E-01    0.246E-01
RMM:   5    -0.601521220659E+03    0.77060E-03   -0.11024E-02 14428   0.163E-01    0.698E-02
RMM:   6    -0.601521450478E+03   -0.22982E-03   -0.26959E-03 15133   0.804E-02    0.647E-02
RMM:   7    -0.601521457161E+03   -0.66825E-05   -0.83306E-04 14359   0.370E-02    0.159E-02
RMM:   8    -0.601521478347E+03   -0.21186E-04   -0.20163E-04 11455   0.191E-02    0.171E-02
RMM:   9    -0.601521478258E+03    0.88970E-07   -0.65752E-05  9506   0.109E-02
  75 F= -.60152148E+03 E0= -.60151714E+03  d E =-.149522E+00
       N       E                     dE             d eps       ncg     rms          rms(c)
DAV:   1    -0.601513569888E+03    0.79085E-02   -0.23932E+00 11704   0.225E+00    0.217E-01
RMM:   2    -0.601521394669E+03   -0.78248E-02   -0.81707E-02 13535   0.613E-01    0.741E-02
RMM:   3    -0.601523339341E+03   -0.19447E-02   -0.20388E-02 15466   0.235E-01    0.762E-02
RMM:   4    -0.601523494695E+03   -0.15535E-03   -0.23367E-03 15585   0.796E-02    0.534E-02
RMM:   5    -0.601523460763E+03    0.33932E-04   -0.54592E-04 13729   0.359E-02    0.166E-02
RMM:   6    -0.601523470633E+03   -0.98699E-05   -0.13209E-04 11678   0.175E-02    0.134E-02
RMM:   7    -0.601523470995E+03   -0.36186E-06   -0.36832E-05  8523   0.979E-03
  76 F= -.60152347E+03 E0= -.60151926E+03  d E =-.151514E+00
       N       E                     dE             d eps       ncg     rms          rms(c)
DAV:   1    -0.601494630620E+03    0.28840E-01   -0.21564E+01 11136   0.676E+00    0.669E-01
RMM:   2    -0.601568463092E+03   -0.73832E-01   -0.77200E-01 13625   0.185E+00    0.220E-01
RMM:   3    -0.601585975248E+03   -0.17512E-01   -0.18410E-01 15549   0.708E-01    0.234E-01
RMM:   4    -0.601587251218E+03   -0.12760E-02   -0.20433E-02 15731   0.234E-01    0.161E-01
RMM:   5    -0.601586938134E+03    0.31308E-03   -0.48828E-03 14495   0.104E-01    0.540E-02
RMM:   6    -0.601587009755E+03   -0.71622E-04   -0.10703E-03 15276   0.490E-02    0.395E-02
RMM:   7    -0.601587016605E+03   -0.68498E-05   -0.32612E-04 12891   0.223E-02    0.113E-02
RMM:   8    -0.601587025330E+03   -0.87249E-05   -0.92952E-05  9807   0.139E-02
  77 F= -.60158703E+03 E0= -.60158290E+03  d E =-.635543E-01
       N       E                     dE             d eps       ncg     rms          rms(c)
DAV:   1    -0.601531478650E+03    0.55538E-01   -0.19658E+01 11288   0.646E+00    0.636E-01
RMM:   2    -0.601598399619E+03   -0.66921E-01   -0.69939E-01 13608   0.177E+00    0.210E-01
RMM:   3    -0.601614437578E+03   -0.16038E-01   -0.16886E-01 15552   0.677E-01    0.223E-01
RMM:   4    -0.601615623774E+03   -0.11862E-02   -0.18779E-02 15736   0.224E-01    0.153E-01
RMM:   5    -0.601615343331E+03    0.28044E-03   -0.44169E-03 14545   0.987E-02    0.498E-02
RMM:   6    -0.601615413558E+03   -0.70227E-04   -0.98184E-04 15290   0.468E-02    0.378E-02
RMM:   7    -0.601615419713E+03   -0.61551E-05   -0.30042E-04 12749   0.214E-02    0.992E-03
RMM:   8    -0.601615427940E+03   -0.82272E-05   -0.84208E-05  9692   0.134E-02
  78 F= -.60161543E+03 E0= -.60161139E+03  d E =-.919569E-01
       N       E                     dE             d eps       ncg     rms          rms(c)
DAV:   1    -0.601607287423E+03    0.81323E-02   -0.25968E+00 11624   0.234E+00    0.228E-01
RMM:   2    -0.601615830828E+03   -0.85434E-02   -0.89223E-02 13567   0.631E-01    0.761E-02
RMM:   3    -0.601617857385E+03   -0.20266E-02   -0.21426E-02 15535   0.241E-01    0.808E-02
RMM:   4    -0.601618006183E+03   -0.14880E-03   -0.23952E-03 15526   0.804E-02    0.549E-02
RMM:   5    -0.601617973106E+03    0.33077E-04   -0.60225E-04 13916   0.363E-02    0.192E-02
RMM:   6    -0.601617981041E+03   -0.79351E-05   -0.13033E-04 11342   0.172E-02    0.134E-02
RMM:   7    -0.601617982114E+03   -0.10733E-05   -0.40354E-05  8627   0.974E-03
  79 F= -.60161798E+03 E0= -.60161397E+03  d E =-.945111E-01
       N       E                     dE             d eps       ncg     rms          rms(c)
DAV:   1    -0.601576405274E+03    0.41576E-01   -0.21491E+01 11160   0.684E+00    0.676E-01
RMM:   2    -0.601648055997E+03   -0.71651E-01   -0.75158E-01 13462   0.186E+00    0.222E-01
RMM:   3    -0.601666071900E+03   -0.18016E-01   -0.19000E-01 15464   0.725E-01    0.238E-01
RMM:   4    -0.601667493079E+03   -0.14212E-02   -0.21003E-02 15689   0.239E-01    0.170E-01
RMM:   5    -0.601667140059E+03    0.35302E-03   -0.47767E-03 14210   0.105E-01    0.559E-02
RMM:   6    -0.601667223009E+03   -0.82950E-04   -0.11120E-03 15290   0.507E-02    0.445E-02
RMM:   7    -0.601667220888E+03    0.21216E-05   -0.33051E-04 13136   0.231E-02    0.102E-02
RMM:   8    -0.601667229329E+03   -0.84410E-05   -0.85315E-05  9774   0.138E-02
  80 F= -.60166723E+03 E0= -.60166316E+03  d E =-.492472E-01
       N       E                     dE             d eps       ncg     rms          rms(c)
DAV:   1    -0.601630763104E+03    0.36458E-01   -0.12650E+01 11376   0.525E+00    0.516E-01
RMM:   2    -0.601672678579E+03   -0.41915E-01   -0.43932E-01 13466   0.142E+00    0.170E-01
RMM:   3    -0.601682931937E+03   -0.10253E-01   -0.10845E-01 15455   0.549E-01    0.182E-01
RMM:   4    -0.601683731588E+03   -0.79965E-03   -0.12065E-02 15687   0.182E-01    0.128E-01
RMM:   5    -0.601683538277E+03    0.19331E-03   -0.27914E-03 14249   0.798E-02    0.438E-02
RMM:   6    -0.601683584728E+03   -0.46452E-04   -0.64919E-04 15175   0.383E-02    0.332E-02
RMM:   7    -0.601683584514E+03    0.21470E-06   -0.19166E-04 11983   0.175E-02    0.775E-03
RMM:   8    -0.601683589145E+03   -0.46313E-05   -0.49975E-05  9081   0.112E-02
[...]
DAV:   1    -0.602424983818E+03   -0.41035E-06   -0.52995E-05  8712   0.160E-02    0.131E-03
RMM:   2    -0.602424984738E+03   -0.92011E-06   -0.95912E-06  5167   0.650E-03
 176 F= -.60242498E+03 E0= -.60242192E+03  d E =-.857310E-04
       N       E                     dE             d eps       ncg     rms          rms(c)
DAV:   1    -0.602424984528E+03   -0.71042E-06   -0.17651E-05  6816   0.104E-02    0.120E-03
RMM:   2    -0.602424985040E+03   -0.51138E-06   -0.54895E-06  5144   0.461E-03
 177 F= -.60242499E+03 E0= -.60242192E+03  d E =-.860327E-04
       N       E                     dE             d eps       ncg     rms          rms(c)
DAV:   1    -0.602424984851E+03   -0.32220E-06   -0.31870E-06  5442   0.667E-03    0.952E-04
RMM:   2    -0.602424984953E+03   -0.10252E-06   -0.13768E-06  4546   0.218E-03
 178 F= -.60242498E+03 E0= -.60242192E+03  d E =-.859461E-04
       N       E                     dE             d eps       ncg     rms          rms(c)
DAV:   1    -0.602424985061E+03   -0.21081E-06   -0.76453E-07  5272   0.338E-03    0.453E-04
RMM:   2    -0.602424985087E+03   -0.25320E-07   -0.33011E-07  3116   0.126E-03
 179 F= -.60242499E+03 E0= -.60242192E+03  d E =-.860797E-04
       N       E                     dE             d eps       ncg     rms          rms(c)
DAV:   1    -0.602425002069E+03   -0.17008E-04   -0.30021E-03 10807   0.809E-02    0.821E-03
RMM:   2    -0.602425013054E+03   -0.10985E-04   -0.11474E-04 11138   0.218E-02    0.265E-03
RMM:   3    -0.602425014158E+03   -0.11036E-05   -0.21656E-05  6427   0.915E-03
 180 F= -.60242501E+03 E0= -.60242196E+03  d E =-.290708E-04
       N       E                     dE             d eps       ncg     rms          rms(c)
DAV:   1    -0.602425019458E+03   -0.64042E-05   -0.62629E-03 11352   0.117E-01    0.110E-02
RMM:   2    -0.602425041926E+03   -0.22468E-04   -0.23749E-04 13345   0.322E-02    0.447E-03
RMM:   3    -0.602425046081E+03   -0.41551E-05   -0.51461E-05  8836   0.124E-02
 181 F= -.60242505E+03 E0= -.60242199E+03  d E =-.609941E-04
       N       E                     dE             d eps       ncg     rms          rms(c)
DAV:   1    -0.602424967339E+03    0.74587E-04   -0.24857E-02 11000   0.233E-01    0.232E-02
RMM:   2    -0.602425053322E+03   -0.85983E-04   -0.90635E-04 13450   0.641E-02    0.815E-03
RMM:   3    -0.602425072582E+03   -0.19260E-04   -0.21392E-04 13251   0.249E-02    0.866E-03
RMM:   4    -0.602425073563E+03   -0.98075E-06   -0.30063E-05  7034   0.121E-02
 182 F= -.60242507E+03 E0= -.60242203E+03  d E =-.884759E-04
       N       E                     dE             d eps       ncg     rms          rms(c)
DAV:   1    -0.602425036133E+03    0.36449E-04   -0.68104E-03 10816   0.122E-01    0.114E-02
RMM:   2    -0.602425061740E+03   -0.25607E-04   -0.26955E-04 13349   0.342E-02    0.445E-03
RMM:   3    -0.602425066035E+03   -0.42954E-05   -0.57480E-05  8467   0.133E-02
 183 F= -.60242507E+03 E0= -.60242202E+03  d E =-.809482E-04
       N       E                     dE             d eps       ncg     rms          rms(c)
DAV:   1    -0.602425057169E+03    0.45706E-05   -0.33926E-03 11016   0.864E-02    0.108E-02
RMM:   2    -0.602425070774E+03   -0.13605E-04   -0.14261E-04 12765   0.245E-02    0.260E-03
RMM:   3    -0.602425072662E+03   -0.18883E-05   -0.26968E-05  6335   0.999E-03
 184 F= -.60242507E+03 E0= -.60242203E+03  d E =-.875752E-04
       N       E                     dE             d eps       ncg     rms          rms(c)
DAV:   1    -0.602425066811E+03    0.39626E-05   -0.82368E-04 10480   0.426E-02    0.547E-03
RMM:   2    -0.602425070283E+03   -0.34715E-05   -0.36297E-05  7934   0.120E-02
 185 F= -.60242507E+03 E0= -.60242203E+03  d E =-.851959E-04
       N       E                     dE             d eps       ncg     rms          rms(c)
DAV:   1    -0.602425070855E+03   -0.40443E-05   -0.40043E-04 10608   0.302E-02    0.362E-03
RMM:   2    -0.602425072497E+03   -0.16414E-05   -0.18529E-05  6549   0.101E-02
 186 F= -.60242507E+03 E0= -.60242203E+03  d E =-.874101E-04
       N       E                     dE             d eps       ncg     rms          rms(c)
DAV:   1    -0.602425070826E+03    0.29278E-07   -0.90614E-05  9856   0.172E-02    0.184E-03
RMM:   2    -0.602425071805E+03   -0.97925E-06   -0.10780E-05  5176   0.730E-03
 187 F= -.60242507E+03 E0= -.60242203E+03  d E =-.867187E-04
       N       E                     dE             d eps       ncg     rms          rms(c)
DAV:   1    -0.602425071936E+03   -0.11094E-05   -0.39916E-05  8288   0.127E-02    0.118E-03
RMM:   2    -0.602425072575E+03   -0.63921E-06   -0.66161E-06  5133   0.533E-03
 188 F= -.60242507E+03 E0= -.60242203E+03  d E =-.874880E-04
       N       E                     dE             d eps       ncg     rms          rms(c)
DAV:   1    -0.602425084654E+03   -0.12719E-04   -0.67810E-03 10798   0.119E-01    0.126E-02
RMM:   2    -0.602425108340E+03   -0.23686E-04   -0.24668E-04 13062   0.322E-02    0.406E-03
RMM:   3    -0.602425112376E+03   -0.40356E-05   -0.54254E-05  8391   0.129E-02
 189 F= -.60242511E+03 E0= -.60242207E+03  d E =-.398011E-04
       N       E                     dE             d eps       ncg     rms          rms(c)
DAV:   1    -0.602425113510E+03   -0.51693E-05   -0.61007E-03 11086   0.114E-01    0.114E-02
RMM:   2    -0.602425136682E+03   -0.23173E-04   -0.24550E-04 13415   0.319E-02    0.477E-03
RMM:   3    -0.602425140198E+03   -0.35153E-05   -0.46283E-05  8257   0.121E-02
 190 F= -.60242514E+03 E0= -.60242210E+03  d E =-.676230E-04
       N       E                     dE             d eps       ncg     rms          rms(c)
DAV:   1    -0.602425070358E+03    0.66325E-04   -0.24191E-02 10909   0.225E-01    0.236E-02
RMM:   2    -0.602425151985E+03   -0.81627E-04   -0.85635E-04 13242   0.614E-02    0.803E-03
RMM:   3    -0.602425170969E+03   -0.18984E-04   -0.20914E-04 13262   0.245E-02    0.828E-03
RMM:   4    -0.602425172069E+03   -0.11001E-05   -0.29896E-05  6998   0.118E-02
 191 F= -.60242517E+03 E0= -.60242214E+03  d E =-.994942E-04
       N       E                     dE             d eps       ncg     rms          rms(c)
DAV:   1    -0.602425174947E+03   -0.39782E-05   -0.10152E-02 11264   0.142E-01    0.169E-02
RMM:   2    -0.602425204989E+03   -0.30042E-04   -0.31569E-04 12587   0.371E-02    0.537E-03
RMM:   3    -0.602425212498E+03   -0.75094E-05   -0.87751E-05 10248   0.157E-02
 192 F= -.60242521E+03 E0= -.60242218E+03  d E =-.404291E-04
       N       E                     dE             d eps       ncg     rms          rms(c)
DAV:   1    -0.602425216942E+03   -0.11954E-04   -0.45698E-03 11568   0.964E-02    0.102E-02
RMM:   2    -0.602425233145E+03   -0.16202E-04   -0.17436E-04 12661   0.268E-02    0.450E-03
RMM:   3    -0.602425235634E+03   -0.24890E-05   -0.35775E-05  7223   0.110E-02
 193 F= -.60242524E+03 E0= -.60242220E+03  d E =-.635647E-04
       N       E                     dE             d eps       ncg     rms          rms(c)
DAV:   1    -0.602425202864E+03    0.30281E-04   -0.17968E-02 11054   0.190E-01    0.207E-02
RMM:   2    -0.602425259107E+03   -0.56243E-04   -0.59304E-04 12846   0.509E-02    0.704E-03
RMM:   3    -0.602425272468E+03   -0.13361E-04   -0.15178E-04 12030   0.210E-02    0.686E-03
RMM:   4    -0.602425273049E+03   -0.58056E-06   -0.23194E-05  6601   0.111E-02
 194 F= -.60242527E+03 E0= -.60242224E+03  d E =-.100980E-03
       N       E                     dE             d eps       ncg     rms          rms(c)
DAV:   1    -0.602425048705E+03    0.22376E-03   -0.71648E-02 10955   0.378E-01    0.426E-02
RMM:   2    -0.602425260235E+03   -0.21153E-03   -0.22152E-03 12968   0.958E-02    0.133E-02
RMM:   3    -0.602425310748E+03   -0.50513E-04   -0.53675E-04 14537   0.382E-02    0.125E-02
RMM:   4    -0.602425313526E+03   -0.27776E-05   -0.63290E-05 10120   0.147E-02
 195 F= -.60242531E+03 E0= -.60242229E+03  d E =-.141457E-03
       N       E                     dE             d eps       ncg     rms          rms(c)
DAV:   1    -0.602425234187E+03    0.76561E-04   -0.17082E-02 11092   0.185E-01    0.189E-02
RMM:   2    -0.602425289871E+03   -0.55685E-04   -0.58356E-04 13021   0.483E-02    0.667E-03
RMM:   3    -0.602425299869E+03   -0.99972E-05   -0.11787E-04 11929   0.188E-02    0.744E-03
RMM:   4    -0.602425299606E+03    0.26277E-06   -0.17329E-05  6271   0.972E-03
 196 F= -.60242530E+03 E0= -.60242227E+03  d E =-.127537E-03
       N       E                     dE             d eps       ncg     rms          rms(c)
DAV:   1    -0.602425279861E+03    0.20008E-04   -0.81246E-03 10806   0.127E-01    0.132E-02
RMM:   2    -0.602425305790E+03   -0.25929E-04   -0.27125E-04 12682   0.323E-02    0.472E-03
RMM:   3    -0.602425310169E+03   -0.43786E-05   -0.57781E-05  8133   0.131E-02
 197 F= -.60242531E+03 E0= -.60242229E+03  d E =-.138100E-03
       N       E                     dE             d eps       ncg     rms          rms(c)
DAV:   1    -0.602425297909E+03    0.78807E-05   -0.19884E-03 10744   0.630E-02    0.816E-03
RMM:   2    -0.602425305075E+03   -0.71652E-05   -0.74485E-05  9136   0.161E-02
 198 F= -.60242531E+03 E0= -.60242228E+03  d E =-.133006E-03
       N       E                     dE             d eps       ncg     rms          rms(c)
DAV:   1    -0.602425305376E+03   -0.74665E-05   -0.12003E-03 10304   0.483E-02    0.634E-03
RMM:   2    -0.602425308747E+03   -0.33715E-05   -0.36697E-05  6840   0.134E-02
 199 F= -.60242531E+03 E0= -.60242228E+03  d E =-.136678E-03
       N       E                     dE             d eps       ncg     rms          rms(c)
DAV:   1    -0.602425305835E+03   -0.45883E-06   -0.28322E-04 10248   0.263E-02    0.331E-03
RMM:   2    -0.602425307561E+03   -0.17263E-05   -0.19714E-05  5717   0.104E-02
 200 F= -.60242531E+03 E0= -.60242228E+03  d E =-.135492E-03
       N       E                     dE             d eps       ncg     rms          rms(c)
DAV:   1    -0.602425307920E+03   -0.20853E-05   -0.10097E-04  9688   0.190E-02    0.179E-03
RMM:   2    -0.602425309163E+03   -0.12426E-05   -0.13026E-05  5401   0.743E-03
 201 F= -.60242531E+03 E0= -.60242228E+03  d E =-.137094E-03
       N       E                     dE             d eps       ncg     rms          rms(c)
DAV:   1    -0.602425300593E+03    0.73270E-05   -0.13978E-02 11050   0.170E-01    0.180E-02
RMM:   2    -0.602425344512E+03   -0.43919E-04   -0.45675E-04 13032   0.444E-02    0.581E-03
RMM:   3    -0.602425354461E+03   -0.99486E-05   -0.11158E-04 11925   0.178E-02    0.558E-03
RMM:   4    -0.602425354892E+03   -0.43049E-06   -0.16272E-05  6218   0.922E-03
 202 F= -.60242535E+03 E0= -.60242233E+03  d E =-.457290E-04
       N       E                     dE             d eps       ncg     rms          rms(c)
DAV:   1    -0.602424970343E+03    0.38412E-03   -0.12435E-01 11050   0.504E-01    0.548E-02
RMM:   2    -0.602425340723E+03   -0.37038E-03   -0.38539E-03 13130   0.129E-01    0.169E-02
RMM:   3    -0.602425439405E+03   -0.98682E-04   -0.10084E-03 15043   0.513E-02    0.163E-02
RMM:   4    -0.602425446852E+03   -0.74473E-05   -0.11236E-04 12436   0.182E-02    0.125E-02
RMM:   5    -0.602425446248E+03    0.60363E-06   -0.39273E-05  8816   0.117E-02
 203 F= -.60242545E+03 E0= -.60242244E+03  d E =-.137086E-03
       N       E                     dE             d eps       ncg     rms          rms(c)
DAV:   1    -0.602423502388E+03    0.19445E-02   -0.49877E-01 10936   0.101E+00    0.111E-01
RMM:   2    -0.602425011105E+03   -0.15087E-02   -0.15698E-02 13198   0.259E-01    0.337E-02
RMM:   3    -0.602425399353E+03   -0.38825E-03   -0.39399E-03 15198   0.102E-01    0.328E-02
RMM:   4    -0.602425428929E+03   -0.29576E-04   -0.43815E-04 14229   0.348E-02    0.236E-02
RMM:   5    -0.602425426174E+03    0.27550E-05   -0.12509E-04 11454   0.185E-02    0.115E-02
RMM:   6    -0.602425426577E+03   -0.40278E-06   -0.25596E-05  7597   0.827E-03
 204 F= -.60242543E+03 E0= -.60242245E+03  d E =-.117415E-03
       N       E                     dE             d eps       ncg     rms          rms(c)
DAV:   1    -0.602424266816E+03    0.11594E-02   -0.31311E-01 10888   0.799E-01    0.862E-02
RMM:   2    -0.602425199953E+03   -0.93314E-03   -0.97072E-03 13143   0.206E-01    0.267E-02
RMM:   3    -0.602425445804E+03   -0.24585E-03   -0.25070E-03 15172   0.814E-02    0.262E-02
RMM:   4    -0.602425464728E+03   -0.18924E-04   -0.27268E-04 13454   0.278E-02    0.201E-02
RMM:   5    -0.602425462312E+03    0.24159E-05   -0.86179E-05 10816   0.165E-02
 205 F= -.60242546E+03 E0= -.60242246E+03  d E =-.153150E-03
       N       E                     dE             d eps       ncg     rms          rms(c)
DAV:   1    -0.602425182257E+03    0.28247E-03   -0.78127E-02 10931   0.399E-01    0.387E-02
RMM:   2    -0.602425412445E+03   -0.23019E-03   -0.23935E-03 13184   0.998E-02    0.131E-02
RMM:   3    -0.602425466261E+03   -0.53816E-04   -0.57067E-04 14842   0.387E-02    0.143E-02
RMM:   4    -0.602425468951E+03   -0.26898E-05   -0.61674E-05 10237   0.141E-02
 206 F= -.60242547E+03 E0= -.60242248E+03  d E =-.159788E-03
       N       E                     dE             d eps       ncg     rms          rms(c)
DAV:   1    -0.602425378918E+03    0.87344E-04   -0.22846E-02 11237   0.217E-01    0.200E-02
RMM:   2    -0.602425454507E+03   -0.75590E-04   -0.78670E-04 13250   0.561E-02    0.758E-03
RMM:   3    -0.602425469895E+03   -0.15387E-04   -0.17119E-04 13013   0.216E-02    0.916E-03
RMM:   4    -0.602425470323E+03   -0.42841E-06   -0.23345E-05  6382   0.102E-02
 207 F= -.60242547E+03 E0= -.60242248E+03  d E =-.161160E-03
       N       E                     dE             d eps       ncg     rms          rms(c)
DAV:   1    -0.602425446002E+03    0.23892E-04   -0.57254E-03 10888   0.109E-01    0.101E-02
RMM:   2    -0.602425466017E+03   -0.20015E-04   -0.20971E-04 12633   0.293E-02    0.403E-03
RMM:   3    -0.602425469115E+03   -0.30981E-05   -0.46328E-05  7272   0.121E-02
 208 F= -.60242547E+03 E0= -.60242248E+03  d E =-.159953E-03
       N       E                     dE             d eps       ncg     rms          rms(c)
DAV:   1    -0.602425462137E+03    0.38797E-05   -0.19881E-03 10816   0.639E-02    0.891E-03
RMM:   2    -0.602425469441E+03   -0.73036E-05   -0.77070E-05  9667   0.172E-02
 209 F= -.60242547E+03 E0= -.60242248E+03  d E =-.160279E-03
       N       E                     dE             d eps       ncg     rms          rms(c)
DAV:   1    -0.602425466707E+03   -0.45694E-05   -0.71616E-04 10416   0.389E-02    0.496E-03
RMM:   2    -0.602425469067E+03   -0.23603E-05   -0.27003E-05  6324   0.129E-02
 210 F= -.60242547E+03 E0= -.60242248E+03  d E =-.159905E-03
       N       E                     dE             d eps       ncg     rms          rms(c)
DAV:   1    -0.602425469079E+03   -0.23722E-05   -0.16374E-04 10416   0.216E-02    0.238E-03
RMM:   2    -0.602425470690E+03   -0.16113E-05   -0.17567E-05  5650   0.926E-03
 211 F= -.60242547E+03 E0= -.60242248E+03  d E =-.161528E-03
       N       E                     dE             d eps       ncg     rms          rms(c)
DAV:   1    -0.602425470121E+03   -0.10420E-05   -0.22959E-05  7576   0.132E-02    0.113E-03
RMM:   2    -0.602425470643E+03   -0.52198E-06   -0.54806E-06  5187   0.474E-03
 212 F= -.60242547E+03 E0= -.60242248E+03  d E =-.161480E-03
       N       E                     dE             d eps       ncg     rms          rms(c)
DAV:   1    -0.602425470492E+03   -0.37046E-06   -0.39138E-06  5704   0.664E-03    0.898E-04
RMM:   2    -0.602425470607E+03   -0.11544E-06   -0.13717E-06  4797   0.233E-03
 213 F= -.60242547E+03 E0= -.60242248E+03  d E =-.161444E-03
       N       E                     dE             d eps       ncg     rms          rms(c)
DAV:   1    -0.602425470654E+03   -0.16277E-06   -0.47247E-07  5320   0.276E-03    0.458E-04
RMM:   2    -0.602425470660E+03   -0.59954E-08   -0.12101E-07  2139   0.900E-04
 214 F= -.60242547E+03 E0= -.60242248E+03  d E =-.161498E-03
       N       E                     dE             d eps       ncg     rms          rms(c)
DAV:   1    -0.602425470678E+03   -0.23829E-07   -0.83620E-08  5286   0.885E-04    0.133E-04
RMM:   2    -0.602425470678E+03   -0.23283E-09   -0.65542E-10   690   0.324E-04
 215 F= -.60242547E+03 E0= -.60242248E+03  d E =-.161516E-03
       N       E                     dE             d eps       ncg     rms          rms(c)
DAV:   1    -0.602425445240E+03    0.25438E-04   -0.14463E-02 10972   0.172E-01    0.183E-02
RMM:   2    -0.602425488231E+03   -0.42990E-04   -0.44715E-04 12976   0.436E-02    0.581E-03
RMM:   3    -0.602425498912E+03   -0.10682E-04   -0.11843E-04 11903   0.176E-02    0.578E-03
RMM:   4    -0.602425499444E+03   -0.53130E-06   -0.15827E-05  6258   0.874E-03
 216 F= -.60242550E+03 E0= -.60242251E+03  d E =-.287653E-04
       N       E                     dE             d eps       ncg     rms          rms(c)
DAV:   1    -0.602425493470E+03    0.54421E-05   -0.48744E-03 11680   0.100E-01    0.118E-02
RMM:   2    -0.602425507984E+03   -0.14514E-04   -0.15174E-04 12056   0.262E-02    0.382E-03
RMM:   3    -0.602425511493E+03   -0.35082E-05   -0.41863E-05  7409   0.114E-02
 217 F= -.60242551E+03 E0= -.60242253E+03  d E =-.408142E-04
       N       E                     dE             d eps       ncg     rms          rms(c)
DAV:   1    -0.602425530516E+03   -0.22532E-04   -0.90690E-04 11062   0.454E-02    0.476E-03
RMM:   2    -0.602425535493E+03   -0.49769E-05   -0.52858E-05 10356   0.147E-02
 218 F= -.60242554E+03 E0= -.60242255E+03  d E =-.240007E-04
       N       E                     dE             d eps       ncg     rms          rms(c)
DAV:   1    -0.602425545573E+03   -0.15057E-04   -0.63140E-04 11864   0.396E-02    0.378E-03
RMM:   2    -0.602425549363E+03   -0.37893E-05   -0.42168E-05  9325   0.149E-02
 219 F= -.60242555E+03 E0= -.60242257E+03  d E =-.378700E-04
       N       E                     dE             d eps       ncg     rms          rms(c)
DAV:   1    -0.602425549112E+03   -0.35389E-05   -0.23703E-03 11112   0.740E-02    0.664E-03
RMM:   2    -0.602425561777E+03   -0.12665E-04   -0.13466E-04 13122   0.255E-02    0.379E-03
RMM:   3    -0.602425563208E+03   -0.14313E-05   -0.28445E-05  6500   0.103E-02
 220 F= -.60242556E+03 E0= -.60242258E+03  d E =-.517157E-04
       N       E                     dE             d eps       ncg     rms          rms(c)
DAV:   1    -0.602425560968E+03    0.80906E-06   -0.72851E-05  9488   0.223E-02    0.247E-03
RMM:   2    -0.602425562391E+03   -0.14237E-05   -0.16331E-05  5535   0.871E-03
 221 F= -.60242556E+03 E0= -.60242258E+03  d E =-.508990E-04
       N       E                     dE             d eps       ncg     rms          rms(c)
DAV:   1    -0.602425562679E+03   -0.17117E-05   -0.42891E-05  9452   0.148E-02    0.127E-03
RMM:   2    -0.602425563693E+03   -0.10137E-05   -0.10595E-05  5294   0.610E-03
 222 F= -.60242556E+03 E0= -.60242258E+03  d E =-.522007E-04
       N       E                     dE             d eps       ncg     rms          rms(c)
DAV:   1    -0.602425563030E+03   -0.35042E-06   -0.62017E-06  5664   0.848E-03    0.948E-04
RMM:   2    -0.602425563186E+03   -0.15628E-06   -0.18487E-06  4878   0.289E-03
 223 F= -.60242556E+03 E0= -.60242258E+03  d E =-.516937E-04
       N       E                     dE             d eps       ncg     rms          rms(c)
DAV:   1    -0.602425563417E+03   -0.38670E-06   -0.19785E-06  5416   0.423E-03    0.837E-04
RMM:   2    -0.602425563532E+03   -0.11540E-06   -0.14298E-06  5058   0.255E-03
 224 F= -.60242556E+03 E0= -.60242258E+03  d E =-.520395E-04
       N       E                     dE             d eps       ncg     rms          rms(c)
DAV:   1    -0.602425570051E+03   -0.66340E-05   -0.43118E-04 10846   0.319E-02    0.288E-03
RMM:   2    -0.602425571754E+03   -0.17037E-05   -0.17877E-05  5458   0.947E-03
 225 F= -.60242557E+03 E0= -.60242259E+03  d E =-.822224E-05
