       N       E                     dE             d eps       ncg     rms          ort
DAV:   1    -0.184271939592E+05   -0.18427E+05   -0.54203E+05  5064   0.746E+03
DAV:   2    -0.624727674171E+05   -0.44046E+05   -0.42743E+05  5064   0.119E+03
DAV:   3    -0.669681407415E+05   -0.44954E+04   -0.40041E+04  5064   0.347E+02
DAV:   4    -0.674828113965E+05   -0.51467E+03   -0.43691E+03  5064   0.102E+02
DAV:   5    -0.373647611463E+05    0.30118E+05   -0.71447E+02  5064   0.528E+01
SDA:   6     0.173845061702E+05    0.54749E+05   -0.71447E+02  5064   0.973E+05 0.000E+00
CGA:   7     0.500261125581E+04   -0.12382E+05   -0.12751E+05  5064   0.230E+05 0.105E+05
CGA:   8     0.156270170694E+04   -0.34399E+04   -0.26109E+04  5064   0.128E+05-0.858E+04
CGA:   9     0.818439987143E+03   -0.74426E+03   -0.71423E+03  5064   0.849E+04-0.174E+04
CGA:  10     0.180588385998E+03   -0.63785E+03   -0.58870E+03  5064   0.462E+04-0.114E+04
CGA:  11    -0.375384400999E+03   -0.55597E+03   -0.57045E+03  5064   0.185E+04 0.633E+02
CGA:  12    -0.694620897299E+03   -0.31924E+03   -0.32194E+03  5064   0.591E+03 0.150E+03
CGA:  13    -0.840737984114E+03   -0.14612E+03   -0.14563E+03  5064   0.234E+03 0.496E+01
CGA:  14    -0.906766194849E+03   -0.66028E+02   -0.66994E+02  5064   0.113E+03-0.549E+01
CGA:  15    -0.933485714393E+03   -0.26720E+02   -0.26725E+02  5064   0.445E+02-0.427E+00
CGA:  16    -0.945434209801E+03   -0.11948E+02   -0.13346E+02  5064   0.243E+02-0.874E+01
CGA:  17    -0.950339149369E+03   -0.49049E+01   -0.50183E+01  5064   0.116E+02-0.118E+01
CGA:  18    -0.952972414852E+03   -0.26333E+01   -0.26413E+01  5064   0.503E+01-0.165E+00
CGA:  19    -0.954270012791E+03   -0.12976E+01   -0.13021E+01  5064   0.251E+01-0.608E-01
CGA:  20    -0.954928872669E+03   -0.65886E+00   -0.65945E+00  5064   0.140E+01-0.923E-02
CGA:  21    -0.955268472101E+03   -0.33960E+00   -0.34029E+00  5064   0.641E+00-0.141E-01
CGA:  22    -0.955421880806E+03   -0.15341E+00   -0.15361E+00  5064   0.321E+00-0.325E-02
CGA:  23    -0.955504924165E+03   -0.83043E-01   -0.83634E-01  5064   0.160E+00-0.804E-02
CGA:  24    -0.955542673753E+03   -0.37750E-01   -0.37733E-01  5064   0.845E-01 0.477E-03
CGA:  25    -0.955563794081E+03   -0.21120E-01   -0.21114E-01  5064   0.505E-01 0.156E-03
CGA:  26    -0.955575402338E+03   -0.11608E-01   -0.11608E-01  5064   0.260E-01 0.695E-05
CGA:  27    -0.955581329018E+03   -0.59267E-02   -0.59279E-02  5064   0.145E-01-0.740E-04
CGA:  28    -0.955585028662E+03   -0.36996E-02   -0.37054E-02  5064   0.814E-02-0.117E-03
CGA:  29    -0.955587056310E+03   -0.20276E-02   -0.20298E-02  5064   0.419E-02-0.569E-04
CGA:  30    -0.955588186222E+03   -0.11299E-02   -0.11308E-02  5064   0.243E-02-0.173E-04
CGA:  31    -0.955588811712E+03   -0.62549E-03   -0.62549E-03  5064   0.135E-02-0.514E-06
CGA:  32    -0.955589140521E+03   -0.32881E-03   -0.32864E-03  5064   0.748E-03 0.902E-05
CGA:  33    -0.955589324354E+03   -0.18383E-03   -0.18359E-03  5064   0.408E-03 0.139E-04
CGA:  34    -0.955589429993E+03   -0.10564E-03   -0.10528E-03  5064   0.224E-03 0.137E-04
CGA:  35    -0.955589492317E+03   -0.62324E-04   -0.61942E-04  5064   0.125E-03 0.987E-05
CGA:  36    -0.955589527195E+03   -0.34878E-04   -0.34728E-04  5064   0.710E-04 0.412E-05
SDA:  37    -0.955589547064E+03   -0.19869E-04   -0.19892E-04  5064   0.418E-04-0.559E-06
CGA:  38    -0.955589563437E+03   -0.16373E-04   -0.16919E-04  5064   0.143E-04-0.319E-05
CGA:  39    -0.955589568999E+03   -0.55620E-05   -0.60429E-05  5064   0.732E-05-0.223E-05
   1 F= -.95558957E+03 E0= -.95557644E+03  d E =-.262544E-01
