 vasp.6.4.2 20Jul23 (build Nov 12 2023 22:16:35) complex                         
 executed on              LinuxNV date 2025.03.23  23:47:48
 running    4 mpi-ranks, on    1 nodes
 distrk:  each k-point on    1 cores,    4 groups
 distr:  one band on NCORE=   1 cores,    1 groups
 OpenACC runtime initialized ...    4 GPUs detected


--------------------------------------------------------------------------------------------------------


 INCAR:
   PREC = Normal
   ENCUT = 450
   NELM = 500
   IBRION = -1
   ISPIN = 1
   NSW = 0
   ISIF = 2
   EDIFF = 1E-5
   EDIFFG = -5E-3
   ISTART = 0
   ICHARG = 0
   ISMEAR = 0
   SIGMA = 0.05
   LWAVE = .T.
   LCHARG = .T.
   LREAL = Auto
   LPLANE = .TRUE.
   NPAR = 1
   KPAR = 4
   NCORE = 1
   ALGO = All
   LHFCALC = .TRUE.
   HSE06 = .TRUE.
   HFSCREEN = 0.2
   TIME = 0.4
   AEXX = 0.32
   LMAXFOCK = 4
   PRECFOCK = Fast

 POTCAR:    PAW_PBE Ga_d 06Jul2010                
 POTCAR:    PAW_PBE O 08Apr2002                   
 POTCAR:    PAW_PBE N 08Apr2002                   
 POTCAR:    PAW_PBE Ga_d 06Jul2010                
   SHA256 =  a60ddf36e14f00ea098d9e3914b3745f1b7105e68786148f49ae384e44b4226c Ga_d/POTCAR           
   COPYR  = (c) Copyright 06Jul2010 Georg Kresse                                                    
   COPYR  = This file is part of the software VASP. Any use, copying, and all other rights are regul
   COPYR  = If you do not have a valid VASP license, you may not use, copy or distribute this file. 
   VRHFIN =Ga: s2p1                                                                                 
   LEXCH  = PE                                                                                      
   EATOM  =  2148.8298 eV,  157.9345 Ry                                                             
                                                                                                    
   TITEL  = PAW_PBE Ga_d 06Jul2010                                                                  
   LULTRA =        F    use ultrasoft PP ?                                                          
   IUNSCR =        1    unscreen: 0-lin 1-nonlin 2-no                                               
   RPACOR =    1.700    partial core radius                                                         
   POMASS =   69.723; ZVAL   =   13.000    mass and valenz                                          
   RCORE  =    2.300    outmost cutoff radius                                                       
   RWIGS  =    2.300; RWIGS  =    1.217    wigner-seitz radius (au A)                               
   ENMAX  =  282.691; ENMIN  =  212.018 eV                                                          
   ICORE  =        3    local potential                                                             
   LCOR   =        T    correct aug charges                                                         
   LPAW   =        T    paw PP                                                                      
   EAUG   =  490.690                                                                                
   DEXC   =    0.000                                                                                
   RMAX   =    2.341    core radius for proj-oper                                                   
   RAUG   =    1.300    factor for augmentation sphere                                              
   RDEP   =    2.413    radius for radial grids                                                     
   RDEPT  =    1.856    core radius for aug-charge                                                  
                                                                                                    
   Atomic configuration                                                                             
    9 entries                                                                                       
     n  l   j            E        occ.                                                              
     1  0  0.50    -10228.7831   2.0000                                                             
     2  0  0.50     -1262.1604   2.0000                                                             
     2  1  1.50     -1098.6333   6.0000                                                             
     3  0  0.50      -148.1110   2.0000                                                             
     3  1  1.50       -98.8436   6.0000                                                             
     3  2  2.50       -19.1549  10.0000                                                             
     4  0  0.50        -8.9483   2.0000                                                             
     4  1  0.50        -2.5791   1.0000                                                             
     4  3  2.50        -2.7416   0.0000                                                             
   Description                                                                                      
     l       E           TYP  RCUT    TYP  RCUT                                                     
     2    -19.1549037     23  2.300                                                                 
     2     -5.4423304     23  2.300                                                                 
     0     -8.9483111     23  2.300                                                                 
     0     68.0291300     23  2.300                                                                 
     1     -2.5790802     23  2.100                                                                 
     1     81.6349560     23  2.300                                                                 
     3      6.8029130     23  2.300                                                                 
  local pseudopotential read in
  partial core-charges read in
  partial kinetic energy density read in
  atomic valenz-charges read in
  non local Contribution for L=            2  read in
    real space projection operators read in
  non local Contribution for L=            2  read in
    real space projection operators read in
  non local Contribution for L=            0  read in
    real space projection operators read in
  non local Contribution for L=            0  read in
    real space projection operators read in
  non local Contribution for L=            1  read in
    real space projection operators read in
  non local Contribution for L=            1  read in
    real space projection operators read in
    PAW grid and wavefunctions read in
 
   number of l-projection  operators is LMAX  =            6
   number of lm-projection operators is LMMAX =           18
 
 POTCAR:    PAW_PBE O 08Apr2002                   
   SHA256 =  818f92134a0a090dccd8ba1447fa70422a3b330e708bb4f08108d8ae51209ddf O/POTCAR              
   COPYR  = (c) Copyright 08Apr2002 Georg Kresse                                                    
   COPYR  = This file is part of the software VASP. Any use, copying, and all other rights are regul
   COPYR  = If you do not have a valid VASP license, you may not use, copy or distribute this file. 
   VRHFIN =O: s2p4                                                                                  
   LEXCH  = PE                                                                                      
   EATOM  =   432.3788 eV,   31.7789 Ry                                                             
                                                                                                    
   TITEL  = PAW_PBE O 08Apr2002                                                                     
   LULTRA =        F    use ultrasoft PP ?                                                          
   IUNSCR =        1    unscreen: 0-lin 1-nonlin 2-no                                               
   RPACOR =    1.200    partial core radius                                                         
   POMASS =   16.000; ZVAL   =    6.000    mass and valenz                                          
   RCORE  =    1.520    outmost cutoff radius                                                       
   RWIGS  =    1.550; RWIGS  =    0.820    wigner-seitz radius (au A)                               
   ENMAX  =  400.000; ENMIN  =  300.000 eV                                                          
   ICORE  =        2    local potential                                                             
   LCOR   =        T    correct aug charges                                                         
   LPAW   =        T    paw PP                                                                      
   EAUG   =  605.392                                                                                
   DEXC   =    0.000                                                                                
   RMAX   =    1.553    core radius for proj-oper                                                   
   RAUG   =    1.300    factor for augmentation sphere                                              
   RDEP   =    1.550    radius for radial grids                                                     
   RDEPT  =    1.329    core radius for aug-charge                                                  
                                                                                                    
   Atomic configuration                                                                             
    4 entries                                                                                       
     n  l   j            E        occ.                                                              
     1  0  0.50      -514.6923   2.0000                                                             
     2  0  0.50       -23.9615   2.0000                                                             
     2  1  0.50        -9.0305   4.0000                                                             
     3  2  1.50        -9.5241   0.0000                                                             
   Description                                                                                      
     l       E           TYP  RCUT    TYP  RCUT                                                     
     0    -23.9615318     23  1.200                                                                 
     0     -9.5240782     23  1.200                                                                 
     1     -9.0304911     23  1.520                                                                 
     1      8.1634956     23  1.520                                                                 
     2     -9.5240782      7  1.500                                                                 
  local pseudopotential read in
  partial core-charges read in
  partial kinetic energy density read in
  kinetic energy density of atom read in
  atomic valenz-charges read in
  non local Contribution for L=            0  read in
    real space projection operators read in
  non local Contribution for L=            0  read in
    real space projection operators read in
  non local Contribution for L=            1  read in
    real space projection operators read in
  non local Contribution for L=            1  read in
    real space projection operators read in
    PAW grid and wavefunctions read in
 
   number of l-projection  operators is LMAX  =            4
   number of lm-projection operators is LMMAX =            8
 
 POTCAR:    PAW_PBE N 08Apr2002                   
   SHA256 =  e053789ff3a61a86a1b75d8a110fcc91f86041011e7b0817c7c99e4e8a6349d7 N/POTCAR              
   COPYR  = (c) Copyright 08Apr2002 Georg Kresse                                                    
   COPYR  = This file is part of the software VASP. Any use, copying, and all other rights are regul
   COPYR  = If you do not have a valid VASP license, you may not use, copy or distribute this file. 
   VRHFIN =N: s2p3                                                                                  
   LEXCH  = PE                                                                                      
   EATOM  =   264.5486 eV,   19.4438 Ry                                                             
                                                                                                    
   TITEL  = PAW_PBE N 08Apr2002                                                                     
   LULTRA =        F    use ultrasoft PP ?                                                          
   IUNSCR =        1    unscreen: 0-lin 1-nonlin 2-no                                               
   RPACOR =    1.200    partial core radius                                                         
   POMASS =   14.001; ZVAL   =    5.000    mass and valenz                                          
   RCORE  =    1.500    outmost cutoff radius                                                       
   RWIGS  =    1.400; RWIGS  =    0.741    wigner-seitz radius (au A)                               
   ENMAX  =  400.000; ENMIN  =  300.000 eV                                                          
   ICORE  =        2    local potential                                                             
   LCOR   =        T    correct aug charges                                                         
   LPAW   =        T    paw PP                                                                      
   EAUG   =  627.112                                                                                
   DEXC   =    0.000                                                                                
   RMAX   =    1.529    core radius for proj-oper                                                   
   RAUG   =    1.300    factor for augmentation sphere                                              
   RDEP   =    1.514    radius for radial grids                                                     
   RDEPT  =    1.338    core radius for aug-charge                                                  
                                                                                                    
   Atomic configuration                                                                             
    4 entries                                                                                       
     n  l   j            E        occ.                                                              
     1  0  0.50      -384.7179   2.0000                                                             
     2  0  0.50       -18.5828   2.0000                                                             
     2  1  0.50        -7.0898   3.0000                                                             
     3  2  1.50        -6.8029   0.0000                                                             
   Description                                                                                      
     l       E           TYP  RCUT    TYP  RCUT                                                     
     0    -18.5828119     23  1.200                                                                 
     0    -13.5018863     23  1.200                                                                 
     1     -7.0897853     23  1.500                                                                 
     1      9.5240782     23  1.500                                                                 
     2     -6.8029130      7  1.500                                                                 
  local pseudopotential read in
  partial core-charges read in
  partial kinetic energy density read in
  atomic valenz-charges read in
  non local Contribution for L=            0  read in
    real space projection operators read in
  non local Contribution for L=            0  read in
    real space projection operators read in
  non local Contribution for L=            1  read in
    real space projection operators read in
  non local Contribution for L=            1  read in
    real space projection operators read in
    PAW grid and wavefunctions read in
 
   number of l-projection  operators is LMAX  =            4
   number of lm-projection operators is LMMAX =            8
 
 Optimization of the real space projectors (new method)

 maximal supplied QI-value         = 16.25
 optimisation between [QCUT,QGAM] = [ 10.73, 21.61] = [ 32.22,130.83] Ry 
 Optimized for a Real-space Cutoff    1.42 Angstroem

   l    n(q)    QCUT    max X(q) W(low)/X(q) W(high)/X(q)  e(spline) 
   2      8    10.726     7.143    0.22E-03    0.16E-03    0.73E-07
   2      8    10.726     5.586    0.40E-03    0.26E-03    0.10E-06
   0      9    10.726    12.382    0.25E-04    0.21E-05    0.37E-07
   0      9    10.726     6.622    0.42E-04    0.48E-05    0.77E-07
   1      9    10.726     7.935    0.27E-03    0.13E-04    0.16E-06
   1      9    10.726     2.425    0.23E-03    0.15E-04    0.14E-06
 Optimization of the real space projectors (new method)

 maximal supplied QI-value         = 24.76
 optimisation between [QCUT,QGAM] = [ 10.64, 21.54] = [ 31.73,129.89] Ry 
 Optimized for a Real-space Cutoff    1.23 Angstroem

   l    n(q)    QCUT    max X(q) W(low)/X(q) W(high)/X(q)  e(spline) 
   0      8    10.645    20.381    0.38E-03    0.60E-03    0.15E-06
   0      8    10.645    15.268    0.40E-03    0.65E-03    0.17E-06
   1      7    10.645     5.964    0.30E-03    0.63E-03    0.18E-06
   1      7    10.645     5.382    0.24E-03    0.53E-03    0.16E-06
 Optimization of the real space projectors (new method)

 maximal supplied QI-value         = 25.13
 optimisation between [QCUT,QGAM] = [ 10.81, 21.61] = [ 32.71,130.83] Ry 
 Optimized for a Real-space Cutoff    1.23 Angstroem

   l    n(q)    QCUT    max X(q) W(low)/X(q) W(high)/X(q)  e(spline) 
   0      8    10.807    79.467    0.34E-03    0.68E-03    0.21E-06
   0      8    10.807    66.151    0.34E-03    0.67E-03    0.21E-06
   1      7    10.807    14.030    0.45E-03    0.13E-02    0.11E-05
   1      7    10.807     9.831    0.48E-03    0.13E-02    0.11E-05
  PAW_PBE Ga_d 06Jul2010                :
 energy of atom  1       EATOM=-2148.8298
 kinetic energy error for atom=    0.0038 (will be added to EATOM!!)
  PAW_PBE O 08Apr2002                   :
 energy of atom  2       EATOM= -432.3788
 kinetic energy error for atom=    0.0389 (will be added to EATOM!!)
  PAW_PBE N 08Apr2002                   :
 energy of atom  3       EATOM= -264.5486
 kinetic energy error for atom=    0.0253 (will be added to EATOM!!)
 
 
 POSCAR: Ga48 O72
  positions in direct lattice
  velocities in cartesian coordinates
 exchange correlation table for  LEXCH =        8
   RHO(1)=    0.500       N(1)  =     2000
   RHO(2)=  100.500       N(2)  =     4000
 


--------------------------------------------------------------------------------------------------------


 ion  position               nearest neighbor table
   1  0.659  0.000  0.156-  85 1.94  83 1.95  79 1.95  67 2.02  61 2.08  65 2.08
   2  0.660  0.000  0.657-  86 1.94  84 1.95  80 1.95  68 2.02  62 2.08  66 2.08
   3  0.659  0.334  0.157-  87 1.94  81 1.95  79 1.95  69 2.02  63 2.08  61 2.08
   4  0.659  0.334  0.657-  88 1.94  82 1.95  80 1.95  70 2.02  64 2.07  62 2.08
   5  0.659  0.666  0.157-  89 1.94  81 1.95  83 1.95  71 2.02  63 2.08  65 2.08
   6  0.659  0.666  0.657-  90 1.94  82 1.95  84 1.95  72 2.02  64 2.07  66 2.08
   7  0.840  0.167  0.343-  91 1.94  75 1.95  73 1.95  61 2.02  67 2.08  69 2.08
   8  0.841  0.167  0.843-  92 1.94  76 1.95  74 1.95  62 2.02  70 2.08  68 2.08
   9  0.841  0.500  0.343-  93 1.94  77 1.95  75 1.95  63 2.02  71 2.08  69 2.08
  10  0.841  0.500  0.843-  94 1.94  78 1.95  76 1.95  64 2.02  72 2.08  70 2.08
  11  0.840  0.833  0.343-  95 1.94  77 1.95  73 1.95  65 2.02  67 2.08  71 2.08
  12  0.841  0.833  0.843-  96 1.94  78 1.95  74 1.95  66 2.02  72 2.08  68 2.08
  13  0.591  0.167  0.398-  80 1.84  57 1.85  55 1.85  61 1.87
  14  0.591  0.167  0.898-  79 1.84  56 1.85  58 1.85  62 1.87
  15  0.590  0.500  0.398-  82 1.84  59 1.85  57 1.85  63 1.87
  16  0.592  0.500  0.898-  81 1.84  60 1.85  58 1.85  64 1.87
  17  0.591  0.833  0.398-  84 1.84  59 1.85  55 1.85  65 1.87
  18  0.591  0.833  0.898-  83 1.84  56 1.85  60 1.85  66 1.87
  19  0.909  0.000  0.102-  74 1.84  53 1.85  49 1.85  67 1.87
  20  0.909  0.000  0.602-  73 1.84  54 1.85  50 1.85  68 1.87
  21  0.909  0.333  0.102-  76 1.84  49 1.85  51 1.85  69 1.87
  22  0.909  0.333  0.602-  75 1.84  52 1.85  50 1.85  70 1.87
  23  0.909  0.667  0.102-  78 1.84  53 1.85  51 1.85  71 1.87
  24  0.909  0.667  0.602-  77 1.84  52 1.85  54 1.85  72 1.87
  25  0.159  0.167  0.156-  49 1.95 116 1.95 115 1.95 103 2.03  97 2.06  99 2.08
  26  0.161  0.167  0.656- 120 1.95 117 1.96  50 1.97 104 2.03 100 2.07  98 2.11
  27  0.159  0.500  0.157-  51 1.94 116 1.95 118 1.95 105 2.02 101 2.08  99 2.08
  28  0.159  0.500  0.657- 117 1.94 119 1.94  52 1.95 106 2.03 102 2.08 100 2.08
  29  0.159  0.833  0.156-  53 1.95 118 1.95 115 1.95 107 2.03  97 2.06 101 2.08
  30  0.161  0.833  0.656- 120 1.95 119 1.96  54 1.97 108 2.03 102 2.07  98 2.11
  31  0.341  0.000  0.343-  55 1.94 109 1.96 113 1.96  97 2.02 103 2.07 107 2.07
  32  0.341  0.000  0.845-  56 1.95 110 1.95 114 1.95  98 2.00 104 2.08 108 2.08
  33  0.340  0.333  0.343-  57 1.95 111 1.95 109 1.97  99 2.02 103 2.07 105 2.08
  34  0.342  0.334  0.844-  58 1.94 112 1.95 110 1.95 100 2.03 104 2.07 106 2.07
  35  0.340  0.667  0.343-  59 1.95 111 1.95 113 1.97 101 2.02 107 2.07 105 2.08
  36  0.342  0.666  0.844-  60 1.94 112 1.95 114 1.95 102 2.03 108 2.07 106 2.07
  37  0.091  0.000  0.395-  91 1.86  95 1.86 120 1.86  97 1.87
  38  0.091  0.000  0.898- 115 1.84  96 1.85  92 1.85  98 1.86
  39  0.090  0.333  0.398- 117 1.84  91 1.85  93 1.85  99 1.88
  40  0.091  0.333  0.897- 116 1.84  92 1.85  94 1.85 100 1.87
  41  0.090  0.667  0.398- 119 1.84  95 1.85  93 1.85 101 1.88
  42  0.091  0.667  0.897- 118 1.84  96 1.85  94 1.85 102 1.87
  43  0.409  0.167  0.103- 110 1.84  87 1.85  85 1.85 103 1.87
  44  0.410  0.167  0.603-  88 1.84  86 1.84 109 1.85 104 1.87
  45  0.409  0.500  0.103- 112 1.84  89 1.85  87 1.85 105 1.87
  46  0.409  0.500  0.603- 111 1.84  90 1.85  88 1.85 106 1.87
  47  0.409  0.833  0.103- 114 1.84  89 1.85  85 1.85 107 1.87
  48  0.410  0.833  0.603-  90 1.84  86 1.84 113 1.85 108 1.87
  49  0.996  0.167  0.126-  21 1.85  19 1.85  25 1.95
  50  0.996  0.167  0.628-  20 1.85  22 1.85  26 1.97
  51  0.996  0.500  0.127-  21 1.85  23 1.85  27 1.94
  52  0.996  0.500  0.628-  22 1.85  24 1.85  28 1.95
  53  0.996  0.833  0.126-  23 1.85  19 1.85  29 1.95
  54  0.996  0.833  0.628-  20 1.85  24 1.85  30 1.97
  55  0.503  0.000  0.373-  13 1.85  17 1.85  31 1.94
  56  0.504  0.000  0.873-  14 1.85  18 1.85  32 1.95
  57  0.503  0.333  0.373-  13 1.85  15 1.85  33 1.95
  58  0.504  0.334  0.873-  16 1.85  14 1.85  34 1.94
  59  0.503  0.667  0.373-  17 1.85  15 1.85  35 1.95
  60  0.504  0.666  0.873-  16 1.85  18 1.85  36 1.94
  61  0.672  0.167  0.280-  13 1.87   7 2.02   1 2.08   3 2.08
  62  0.672  0.167  0.780-  14 1.87   8 2.02   4 2.08   2 2.08
  63  0.672  0.500  0.281-  15 1.87   9 2.02   3 2.08   5 2.08
  64  0.673  0.500  0.780-  16 1.87  10 2.02   4 2.07   6 2.07
  65  0.672  0.833  0.280-  17 1.87  11 2.02   1 2.08   5 2.08
  66  0.672  0.833  0.780-  18 1.87  12 2.02   6 2.08   2 2.08
  67  0.827  0.000  0.219-  19 1.87   1 2.02  11 2.08   7 2.08
  68  0.827  0.000  0.720-  20 1.87   2 2.02  12 2.08   8 2.08
  69  0.827  0.334  0.219-  21 1.87   3 2.02   9 2.08   7 2.08
  70  0.828  0.333  0.720-  22 1.87   4 2.02  10 2.08   8 2.08
  71  0.827  0.666  0.219-  23 1.87   5 2.02   9 2.08  11 2.08
  72  0.828  0.667  0.720-  24 1.87   6 2.02  10 2.08  12 2.08
  73  0.832  0.000  0.446-  20 1.84  11 1.95   7 1.95
  74  0.832  0.000  0.946-  19 1.84  12 1.95   8 1.95
  75  0.832  0.333  0.446-  22 1.84   7 1.95   9 1.95
  76  0.832  0.334  0.946-  21 1.84   8 1.95  10 1.95
  77  0.832  0.667  0.446-  24 1.84  11 1.95   9 1.95
  78  0.832  0.666  0.946-  23 1.84  12 1.95  10 1.95
  79  0.668  0.167  0.054-  14 1.84   1 1.95   3 1.95
  80  0.668  0.167  0.554-  13 1.84   4 1.95   2 1.95
  81  0.668  0.500  0.054-  16 1.84   3 1.95   5 1.95
  82  0.668  0.500  0.554-  15 1.84   6 1.95   4 1.95
  83  0.668  0.833  0.054-  18 1.84   1 1.95   5 1.95
  84  0.668  0.833  0.554-  17 1.84   6 1.95   2 1.95
  85  0.496  0.000  0.128-  43 1.85  47 1.85   1 1.94
  86  0.497  0.000  0.627-  44 1.84  48 1.84   2 1.94
  87  0.497  0.334  0.128-  43 1.85  45 1.85   3 1.94
  88  0.497  0.334  0.627-  44 1.84  46 1.85   4 1.94
  89  0.497  0.666  0.128-  47 1.85  45 1.85   5 1.94
  90  0.497  0.666  0.627-  48 1.84  46 1.85   6 1.94
  91  0.002  0.167  0.369-  39 1.85  37 1.86   7 1.94
  92  0.003  0.167  0.873-  40 1.85  38 1.85   8 1.94
  93  0.003  0.500  0.372-  39 1.85  41 1.85   9 1.94
  94  0.004  0.500  0.873-  40 1.85  42 1.85  10 1.94
  95  0.002  0.833  0.369-  41 1.85  37 1.86  11 1.94
  96  0.003  0.833  0.873-  42 1.85  38 1.85  12 1.94
  97  0.172  0.000  0.278-  37 1.87  31 2.02  25 2.06  29 2.06
  98  0.174  0.000  0.784-  38 1.86  32 2.00  26 2.11  30 2.11
  99  0.172  0.333  0.281-  39 1.88  33 2.02  25 2.08  27 2.08
 100  0.173  0.333  0.780-  40 1.87  34 2.03  26 2.07  28 2.08
 101  0.172  0.667  0.281-  41 1.88  35 2.02  29 2.08  27 2.08
 102  0.173  0.667  0.780-  42 1.87  36 2.03  30 2.07  28 2.08
 103  0.328  0.167  0.220-  43 1.87  25 2.03  31 2.07  33 2.07
 104  0.330  0.167  0.721-  44 1.87  26 2.03  34 2.07  32 2.08
 105  0.327  0.500  0.220-  45 1.87  27 2.02  35 2.08  33 2.08
 106  0.328  0.500  0.720-  46 1.87  28 2.03  36 2.07  34 2.07
 107  0.328  0.833  0.220-  47 1.87  29 2.03  31 2.07  35 2.07
 108  0.330  0.833  0.721-  48 1.87  30 2.03  36 2.07  32 2.08
 109  0.332  0.166  0.447-  44 1.85  31 1.96  33 1.97
 110  0.333  0.167  0.947-  43 1.84  34 1.95  32 1.95
 111  0.332  0.500  0.446-  46 1.84  35 1.95  33 1.95
 112  0.332  0.500  0.946-  45 1.84  36 1.95  34 1.95
 113  0.332  0.834  0.447-  48 1.85  31 1.96  35 1.97
 114  0.333  0.833  0.947-  47 1.84  36 1.95  32 1.95
 115  0.168  0.000  0.054-  38 1.84  29 1.95  25 1.95
 116  0.168  0.333  0.054-  40 1.84  25 1.95  27 1.95
 117  0.168  0.336  0.554-  39 1.84  28 1.94  26 1.96
 118  0.168  0.667  0.054-  42 1.84  29 1.95  27 1.95
 119  0.168  0.664  0.554-  41 1.84  28 1.94  30 1.96
 120  0.166  0.000  0.554-  37 1.86  30 1.95  26 1.95
 
  LATTYP: Found a simple monoclinic cell.
 ALAT       =    11.6348202465
 B/A-ratio  =     0.7858051831
 C/A-ratio  =     1.0554931797
 COS(beta)  =    -0.2379290539
  
  Lattice vectors:
  
 A1 = (   0.0000000000,  -2.7682617730, -11.3006977184)
 A2 = (  -9.1427020537,   0.0000000000,   0.0000000000)
 A3 = (   0.0000000000,  12.2804734172,   0.0000000000)


Analysis of symmetry for initial positions (statically):
=====================================================================
 Subroutine PRICEL returns:
 Original cell was already a primitive cell.
 

 Routine SETGRP: Setting up the symmetry group for a 
 simple monoclinic supercell.


 Subroutine GETGRP returns: Found  2 space group operations
 (whereof  2 operations were pure point group operations)
 out of a pool of  4 trial point group operations.


The static configuration has the point symmetry C_1h.


Analysis of symmetry for dynamics (positions and initial velocities):
=====================================================================
 Subroutine PRICEL returns:
 Original cell was already a primitive cell.
 

 Routine SETGRP: Setting up the symmetry group for a 
 simple monoclinic supercell.


 Subroutine GETGRP returns: Found  2 space group operations
 (whereof  2 operations were pure point group operations)
 out of a pool of  4 trial point group operations.


The dynamic configuration has the point symmetry C_1h.


 Subroutine INISYM returns: Found  2 space group operations
 (whereof  2 operations are pure point group operations),
 and found     1 'primitive' translations


----------------------------------------------------------------------------------------

                                     Primitive cell                                     

  volume of cell :    1268.8052

  direct lattice vectors                    reciprocal lattice vectors
     0.000000000 12.280473417  0.000000000     0.000000000  0.081430085 -0.019947423
     9.142702054  0.000000000  0.000000000     0.109376855 -0.000000000  0.000000000
     0.000000000 -2.768261773-11.300697718     0.000000000  0.000000000 -0.088490111

  length of vectors
    12.280473417  9.142702054 11.634820246     0.083837691  0.109376855  0.088490111

  position of ions in fractional coordinates (direct lattice)
     0.658921510  0.000000000  0.156380884
     0.659584347  0.000000000  0.656680698
     0.658932311  0.333508965  0.156500051
     0.659276496  0.333500794  0.656512697
     0.658932311  0.666491035  0.156500051
     0.659276496  0.666499206  0.656512697
     0.840432684  0.166726255  0.343045618
     0.840805730  0.166788631  0.843490267
     0.840656139  0.500000000  0.343175405
     0.841284837  0.500000000  0.843361507
     0.840432684  0.833273745  0.343045618
     0.840805730  0.833211369  0.843490267
     0.590991450  0.166659604  0.397657063
     0.591046954  0.166636640  0.897579987
     0.590467918  0.500000000  0.397548851
     0.591731314  0.500000000  0.897604101
     0.590991450  0.833340396  0.397657063
     0.591046954  0.833363360  0.897579987
     0.908566309  0.000000000  0.102200198
     0.908872889  0.000000000  0.602385097
     0.908733573  0.333359991  0.102398646
     0.908748900  0.333370239  0.602089236
     0.908733573  0.666640009  0.102398646
     0.908748900  0.666629761  0.602089236
     0.158836372  0.166672220  0.156048584
     0.160771731  0.167427695  0.655976658
     0.158729488  0.500000000  0.156533727
     0.158894441  0.500000000  0.656637027
     0.158836372  0.833327780  0.156048584
     0.160771731  0.832572305  0.655976658
     0.340670016  0.000000000  0.342956943
     0.340901037  0.000000000  0.844675415
     0.340309235  0.333416345  0.343400373
     0.341538974  0.333586774  0.843827249
     0.340309235  0.666583655  0.343400373
     0.341538974  0.666413226  0.843827249
     0.090526575  0.000000000  0.394788800
     0.090863284  0.000000000  0.897818785
     0.090487478  0.333170406  0.397754760
     0.091174430  0.333055392  0.897199282
     0.090487478  0.666829594  0.397754760
     0.091174430  0.666944608  0.897199282
     0.409377632  0.166897743  0.103157291
     0.410135146  0.166763540  0.603321240
     0.408780725  0.500000000  0.102612115
     0.408630099  0.500000000  0.602543375
     0.409377632  0.833102257  0.103157291
     0.410135146  0.833236460  0.603321240
     0.996100441  0.166620030  0.126406050
     0.996449739  0.166606343  0.628218664
     0.996257404  0.500000000  0.127114515
     0.996082125  0.500000000  0.627509565
     0.996100441  0.833379970  0.126406050
     0.996449739  0.833393657  0.628218664
     0.503357177  0.000000000  0.373084597
     0.503709735  0.000000000  0.873208494
     0.503057473  0.333016425  0.373051395
     0.504111005  0.333652331  0.873086008
     0.503057473  0.666983575  0.373051395
     0.504111005  0.666347669  0.873086008
     0.672222787  0.166674768  0.280413841
     0.672446187  0.166826113  0.780324496
     0.672113263  0.500000000  0.280570163
     0.672814968  0.500000000  0.780194891
     0.672222787  0.833325232  0.280413841
     0.672446187  0.833173887  0.780324496
     0.826867710  0.000000000  0.219115614
     0.827446692  0.000000000  0.719636437
     0.826849702  0.333651024  0.219153010
     0.827509334  0.333288844  0.719503511
     0.826849702  0.666348976  0.219153010
     0.827509334  0.666711156  0.719503511
     0.832138957  0.000000000  0.445747004
     0.831600731  0.000000000  0.945633273
     0.831886534  0.333293127  0.445649812
     0.831893853  0.333532496  0.945731722
     0.831886534  0.666706873  0.445649812
     0.831893853  0.666467504  0.945731722
     0.667705645  0.166755769  0.054193865
     0.668051643  0.166734865  0.554140816
     0.668027762  0.500000000  0.054237739
     0.668019692  0.500000000  0.553910006
     0.667705645  0.833244231  0.054193865
     0.668051643  0.833265135  0.554140816
     0.496458357  0.000000000  0.127955123
     0.497180326  0.000000000  0.627294399
     0.496513881  0.333672473  0.127809904
     0.496692195  0.333791776  0.626989335
     0.496513881  0.666327527  0.127809904
     0.496692195  0.666208224  0.626989335
     0.002170800  0.167302639  0.369473716
     0.003291236  0.166738328  0.872779473
     0.003062442  0.500000000  0.372144223
     0.003908445  0.500000000  0.872633859
     0.002170800  0.832697361  0.369473716
     0.003291236  0.833261672  0.872779473
     0.172379549  0.000000000  0.278268504
     0.174119372  0.000000000  0.783719330
     0.172364935  0.333031210  0.280531632
     0.172958836  0.332956105  0.780231119
     0.172364935  0.666968790  0.280531632
     0.172958836  0.667043895  0.780231119
     0.327695685  0.166977188  0.220172794
     0.329712043  0.167199690  0.721099832
     0.327098190  0.500000000  0.219577915
     0.327933160  0.500000000  0.720144731
     0.327695685  0.833022812  0.220172794
     0.329712043  0.832800310  0.721099832
     0.331629915  0.165717541  0.446793020
     0.332925896  0.167369160  0.946690370
     0.332244489  0.500000000  0.445827577
     0.332016388  0.500000000  0.946074244
     0.331629915  0.834282459  0.446793020
     0.332925896  0.832630840  0.946690370
     0.168290436  0.000000000  0.054047278
     0.167808009  0.333357106  0.054000812
     0.167974352  0.335586549  0.553910053
     0.167808009  0.666642894  0.054000812
     0.167974352  0.664413451  0.553910053
     0.165549259  0.000000000  0.553819080

  ion indices of the primitive-cell ions
   primitive index   ion index
                 1           1
                 2           2
                 3           3
                 4           4
                 5           5
                 6           6
                 7           7
                 8           8
                 9           9
                10          10
                11          11
                12          12
                13          13
                14          14
                15          15
                16          16
                17          17
                18          18
                19          19
                20          20
                21          21
                22          22
                23          23
                24          24
                25          25
                26          26
                27          27
                28          28
                29          29
                30          30
                31          31
                32          32
                33          33
                34          34
                35          35
                36          36
                37          37
                38          38
                39          39
                40          40
                41          41
                42          42
                43          43
                44          44
                45          45
                46          46
                47          47
                48          48
                49          49
                50          50
                51          51
                52          52
                53          53
                54          54
                55          55
                56          56
                57          57
                58          58
                59          59
                60          60
                61          61
                62          62
                63          63
                64          64
                65          65
                66          66
                67          67
                68          68
                69          69
                70          70
                71          71
                72          72
                73          73
                74          74
                75          75
                76          76
                77          77
                78          78
                79          79
                80          80
                81          81
                82          82
                83          83
                84          84
                85          85
                86          86
                87          87
                88          88
                89          89
                90          90
                91          91
                92          92
                93          93
                94          94
                95          95
                96          96
                97          97
                98          98
                99          99
               100         100
               101         101
               102         102
               103         103
               104         104
               105         105
               106         106
               107         107
               108         108
               109         109
               110         110
               111         111
               112         112
               113         113
               114         114
               115         115
               116         116
               117         117
               118         118
               119         119
               120         120

----------------------------------------------------------------------------------------

 
 
 KPOINTS: Automatic mesh                          

Automatic generation of k-mesh.
 Grid dimensions read from file:
 generate k-points for:    2    2    2

 Generating k-lattice:

  Cartesian coordinates                     Fractional coordinates (reciprocal lattice)
     0.000000000  0.040715043 -0.009973711     0.500000000  0.000000000  0.000000000
     0.054688428 -0.000000000  0.000000000     0.000000000  0.500000000  0.000000000
     0.000000000  0.000000000 -0.044245056     0.000000000  0.000000000  0.500000000

  Length of vectors
     0.041918846  0.054688428  0.044245056

  Shift w.r.t. Gamma in fractional coordinates (k-lattice)
     0.000000000  0.000000000  0.000000000

 
 Subroutine IBZKPT returns following result:
 ===========================================
 
 Found      8 irreducible k-points:
 
 Following reciprocal coordinates:
            Coordinates               Weight
  0.000000  0.000000  0.000000      1.000000
  0.500000  0.000000  0.000000      1.000000
  0.000000  0.500000  0.000000      1.000000
  0.500000  0.500000  0.000000      1.000000
  0.000000  0.000000  0.500000      1.000000
  0.500000  0.000000  0.500000      1.000000
  0.000000  0.500000  0.500000      1.000000
  0.500000  0.500000  0.500000      1.000000
 
 Following cartesian coordinates:
            Coordinates               Weight
  0.000000  0.000000 -0.000000      1.000000
  0.000000  0.040715 -0.009974      1.000000
  0.054688  0.000000 -0.000000      1.000000
  0.054688  0.040715 -0.009974      1.000000
  0.000000  0.000000 -0.044245      1.000000
  0.000000  0.040715 -0.054219      1.000000
  0.054688  0.000000 -0.044245      1.000000
  0.054688  0.040715 -0.054219      1.000000
 
 
 Subroutine IBZKPT_HF returns following result:
 ==============================================
 
 Found      8 k-points in 1st BZ
 the following      8 k-points will be used (e.g. in the exchange kernel)
 Following reciprocal coordinates:   # in IRBZ
  0.000000  0.000000  0.000000    0.12500000   1 t-inv F
  0.500000  0.000000  0.000000    0.12500000   2 t-inv F
  0.000000  0.500000  0.000000    0.12500000   3 t-inv F
  0.500000  0.500000  0.000000    0.12500000   4 t-inv F
  0.000000  0.000000  0.500000    0.12500000   5 t-inv F
  0.500000  0.000000  0.500000    0.12500000   6 t-inv F
  0.000000  0.500000  0.500000    0.12500000   7 t-inv F
  0.500000  0.500000  0.500000    0.12500000   8 t-inv F


--------------------------------------------------------------------------------------------------------




 Dimension of arrays:
   k-points           NKPTS =      8   k-points in BZ     NKDIM =      8   number of bands    NBANDS=    633
   number of dos      NEDOS =    301   number of ions     NIONS =    120
   non local maximal  LDIM  =      6   non local SUM 2l+1 LMDIM =     18
   total plane-waves  NPLWV = 184320
   max r-space proj   IRMAX =   1800   max aug-charges    IRDMAX=   5704
   dimension x,y,z NGX =    64 NGY =   48 NGZ =   60
   dimension x,y,z NGXF=   128 NGYF=   96 NGZF=  120
   support grid    NGXF=   128 NGYF=   96 NGZF=  120
   ions per type =              48  71   1
   NGX,Y,Z   is equivalent  to a cutoff of   8.66,  8.73,  8.57 a.u.
   NGXF,Y,Z  is equivalent  to a cutoff of  17.33, 17.46, 17.15 a.u.

 SYSTEM =  unknown system                          
 POSCAR =  Ga48 O72                                

 Startparameter for this run:
   NWRITE =      2    write-flag & timer
   PREC   = normal    normal or accurate (medium, high low for compatibility)
   ISTART =      0    job   : 0-new  1-cont  2-samecut
   ICHARG =      0    charge: 1-file 2-atom 10-const
   ISPIN  =      1    spin polarized calculation?
   LNONCOLLINEAR =      F non collinear calculations
   LSORBIT =      F    spin-orbit coupling
   INIWAV =      1    electr: 0-lowe 1-rand  2-diag
   LASPH  =      F    aspherical Exc in radial PAW
 Electronic Relaxation 1
   ENCUT  =  450.0 eV  33.07 Ry    5.75 a.u.  21.24 15.81 20.12*2*pi/ulx,y,z
   ENINI  =  450.0     initial cutoff
   ENAUG  =  627.1 eV  augmentation charge cutoff
   NELM   =    500;   NELMIN=  2; NELMDL= -5     # of ELM steps 
   EDIFF  = 0.1E-04   stopping-criterion for ELM
   LREAL  =      T    real-space projection
   NLSPLINE    = F    spline interpolate recip. space projectors
   LCOMPAT=      F    compatible to vasp.4.4
   GGA_COMPAT  = T    GGA compatible to vasp.4.4-vasp.4.6
   LMAXPAW     = -100 max onsite density
   LMAXMIX     =    2 max onsite mixed and CHGCAR
   VOSKOWN=      0    Vosko Wilk Nusair interpolation
   ROPT   =   -0.00050  -0.00050  -0.00050
 Ionic relaxation
   EDIFFG = -.5E-02   stopping-criterion for IOM
   NSW    =      0    number of steps for IOM
   NBLOCK =      1;   KBLOCK =      1    inner block; outer block 
   IBRION =     -1    ionic relax: 0-MD 1-quasi-New 2-CG
   NFREE  =      0    steps in history (QN), initial steepest desc. (CG)
   ISIF   =      2    stress and relaxation
   IWAVPR =     10    prediction:  0-non 1-charg 2-wave 3-comb
   ISYM   =      3    0-nonsym 1-usesym 2-fastsym
   LCORR  =      T    Harris-Foulkes like correction to forces

   POTIM  = 0.5000    time-step for ionic-motion
   TEIN   =    0.0    initial temperature
   TEBEG  =    0.0;   TEEND  =   0.0 temperature during run
   SMASS  =  -3.00    Nose mass-parameter (am)
   estimated Nose-frequenzy (Omega)   =  0.10E-29 period in steps = 0.13E+47 mass=  -0.345E-26a.u.
   SCALEE = 1.0000    scale energy and forces
   NPACO  =    256;   APACO  = 10.0  distance and # of slots for P.C.
   PSTRESS=    0.0 pullay stress

  Mass of Ions in am
   POMASS =  69.72 16.00 14.00
  Ionic Valenz
   ZVAL   =  13.00  6.00  5.00
  Atomic Wigner-Seitz radii
   RWIGS  =  -1.00 -1.00 -1.00
  virtual crystal weights 
   VCA    =   1.00  1.00  1.00
   NELECT =    1055.0000    total number of electrons
   NUPDOWN=      -1.0000    fix difference up-down

 DOS related values:
   EMIN   =  10.00;   EMAX   =-10.00  energy-range for DOS
   EFERMI =   0.00;   METHOD = LEGACY      
   ISMEAR =     0;   SIGMA  =   0.05  broadening in eV -4-tet -1-fermi 0-gaus

 Electronic relaxation 2 (details)
   IALGO  =     58    algorithm
   LDIAG  =      T    sub-space diagonalisation (order eigenvalues)
   LSUBROT=      F    optimize rotation matrix (better conditioning)
   TURBO    =      0    0=normal 1=particle mesh
   IRESTART =      0    0=no restart 2=restart with 2 vectors
   NREBOOT  =      0    no. of reboots
   NMIN     =      0    reboot dimension
   EREF     =   0.00    reference energy to select bands
   IMIX   =      4    mixing-type and parameters
     AMIX     =   0.40;   BMIX     =  1.00
     AMIX_MAG =   1.60;   BMIX_MAG =  1.00
     AMIN     =   0.10
     WC   =   100.;   INIMIX=   1;  MIXPRE=   1;  MAXMIX= -45

 Intra band minimization:
   WEIMIN = 0.0000     energy-eigenvalue tresh-hold
   EBREAK =  0.39E-08  absolut break condition
   DEPER  =   0.30     relativ break condition  

   TIME   =   0.40     timestep for ELM

  volume/ion in A,a.u.               =      10.57        71.35
  Fermi-wavevector in a.u.,A,eV,Ry     =   1.539433  2.909106 32.243803  2.369853
  Thomas-Fermi vector in A             =   2.645661
 
 Write flags
   LWAVE        =      T    write WAVECAR
   LDOWNSAMPLE  =      F    k-point downsampling of WAVECAR
   LCHARG       =      T    write CHGCAR
   LVTOT        =      F    write LOCPOT, total local potential
   LVHAR        =      F    write LOCPOT, Hartree potential only
   LELF         =      F    write electronic localiz. function (ELF)
   LORBIT       =      0    0 simple, 1 ext, 2 COOP (PROOUT), +10 PAW based schemes


 Dipole corrections
   LMONO  =      F    monopole corrections only (constant potential shift)
   LDIPOL =      F    correct potential (dipole corrections)
   IDIPOL =      0    1-x, 2-y, 3-z, 4-all directions 
   EPSILON=  1.0000000 bulk dielectric constant

 Exchange correlation treatment:
   GGA     =    --    GGA type
   LEXCH   =     8    internal setting for exchange type
   LIBXC   =     F    Libxc                    
   VOSKOWN =     0    Vosko Wilk Nusair interpolation
   EXXOEP  =     0    0=HF, 1=EXX-LHF (local Hartree Fock) 2=EXX OEP
   LHFCALC =     T    Hartree Fock is set to
   LSYMGRAD=     F    symmetrize gradient (conserves proper symmetry)
   PRECFOCK=fast      Normal, Fast or Accurate (Low or Medium for compatibility)
   LRHFCALC=     F    long range Hartree Fock
   LRSCOR  =     F    long range correlation only (use DFT for short range part)
   LTHOMAS =     F    Thomas Fermi screening in HF
   LMODELHF=     F    short range full HF, long range fraction AEXX
   FOCKCORR=     1    mode to apply convergence corrections
   LFOCKACE=     T    use Adeptively-Compressed-Exchange operator
   ENCUT4O =  -1.0   cutoff for four orbital integrals eV
   LMAXFOCK=     4    L truncation for augmentation on plane wave grid
   LMAXFOCKAE=  -1    L truncation for all-electron charge restoration on plane wave grid
   NMAXFOCKAE=   1    number of basis functions for all-electron charge restoration
   LFOCKAEDFT=     F  apply the AE augmentation even for DFT
   NKREDX  =     1    reduce k-point grid by
   NKREDY  =     1    reduce k-point grid by
   NKREDZ  =     1    reduce k-point grid by
   SHIFTRED=     F    shift reduced grid of Gamma
   HFKIDENT=     F    idential grid for each k-point
   ODDONLY =     F    use only odd q-grid points
   EVENONLY=     F    use only even q-grid points
   HFALPHA =   -1.0000 decay constant for conv. correction
   MCALPHA =    0.0000 extent of test-charge in conv. correction in multipole expansion
   AEXX    =    0.3200 exact exchange contribution
   HFSCREEN=    0.2000 screening length (either q_TF or 0.3 A-1)
   HFSCREENC=   0.2000 screening length for correlation (either q_TF or 0.3 A-1)
   HFRCUT  =    0.0000 spherical cutoff for potential kernel
   ALDAX   =    0.6800 LDA exchange part
   AGGAX   =    0.6800 GGA exchange part
   ALDAC   =    1.0000 LDA correlation
   AGGAC   =    1.0000 GGA correlation
   ENCUTFOCK=  -1.0 apply spherical cutoff to Coloumb kernel
   NBANDSGWLOW=     1    first orbital included in HF term
   NBLOCK_FOCK=    64    blocking factor in FOCK_ACC

 Linear response parameters
   LEPSILON=     F    determine dielectric tensor
   LRPA    =     F    only Hartree local field effects (RPA)
   LNABLA  =     F    use nabla operator in PAW spheres
   LVEL    =     F    velocity operator in full k-point grid
   CSHIFT  =0.1000    complex shift for real part using Kramers Kronig
   OMEGAMAX=  -1.0    maximum frequency
   DEG_THRESHOLD= 0.2000000E-02 threshold for treating states as degnerate
   RTIME   =   -0.100 relaxation time in fs
  (WPLASMAI=    0.000 imaginary part of plasma frequency in eV, 0.658/RTIME)
   DFIELD  = 0.0000000 0.0000000 0.0000000 field for delta impulse in time
 
  Optional k-point grid parameters
   LKPOINTS_OPT  =     F    use optional k-point grid
   KPOINTS_OPT_MODE=     1    mode for optional k-point grid
 
 Orbital magnetization related:
   ORBITALMAG=     F  switch on orbital magnetization
   LCHIMAG   =     F  perturbation theory with respect to B field
   DQ        =  0.001000  dq finite difference perturbation B field
   LLRAUG    =     F  two centre corrections for induced B field
   LBONE     =     F  B-component reconstruction in AE one-centre
   LVGVCALC  =     T  calculate vGv susceptibility
   LVGVAPPL  =     F  apply vGv susceptibility instead of pGv for G=0

 Random number generation:
   RANDOM_GENERATOR = DEFAULT
   PCG_SEED         = not used


--------------------------------------------------------------------------------------------------------


 Static calculation
 charge density and potential will be updated during run
 non-spin polarized calculation
 Conjugate gradient for all bands (Freysoldt, et al. PRB 79, 241103 (2009))
 preconditioned conjugated gradient                                        
 perform sub-space diagonalisation
    before iterative eigenvector-optimisation
 modified Broyden-mixing scheme, WC =      100.0
 initial mixing is a Kerker type mixing with AMIX =  0.4000 and BMIX =      1.0000
 Hartree-type preconditioning will be used
 using additional bands           105
 real space projection scheme for non local part
 use partial core corrections
 no Harris-corrections to forces 
 use gradient corrections 
 use of overlap-Matrix (Vanderbilt PP)
 Gauss-broadening in eV      SIGMA  =   0.05


--------------------------------------------------------------------------------------------------------


  energy-cutoff  :      450.00
  volume of cell :     1268.81
      direct lattice vectors                 reciprocal lattice vectors
     0.000000000 12.280473417  0.000000000     0.000000000  0.081430085 -0.019947423
     9.142702054  0.000000000  0.000000000     0.109376855 -0.000000000  0.000000000
     0.000000000 -2.768261773-11.300697718     0.000000000  0.000000000 -0.088490111

  length of vectors
    12.280473417  9.142702054 11.634820246     0.083837691  0.109376855  0.088490111


 
 k-points in units of 2pi/SCALE and weight: Automatic mesh                          
   0.00000000  0.00000000 -0.00000000       0.125
   0.00000000  0.04071504 -0.00997371       0.125
   0.05468843  0.00000000 -0.00000000       0.125
   0.05468843  0.04071504 -0.00997371       0.125
   0.00000000  0.00000000 -0.04424506       0.125
   0.00000000  0.04071504 -0.05421877       0.125
   0.05468843  0.00000000 -0.04424506       0.125
   0.05468843  0.04071504 -0.05421877       0.125
 
 k-points in reciprocal lattice and weights: Automatic mesh                          
   0.00000000  0.00000000  0.00000000       0.125
   0.50000000  0.00000000  0.00000000       0.125
   0.00000000  0.50000000  0.00000000       0.125
   0.50000000  0.50000000  0.00000000       0.125
   0.00000000  0.00000000  0.50000000       0.125
   0.50000000  0.00000000  0.50000000       0.125
   0.00000000  0.50000000  0.50000000       0.125
   0.50000000  0.50000000  0.50000000       0.125
 
 position of ions in fractional coordinates (direct lattice) 
   0.65892151  0.00000000  0.15638088
   0.65958435  0.00000000  0.65668070
   0.65893231  0.33350896  0.15650005
   0.65927650  0.33350079  0.65651270
   0.65893231  0.66649104  0.15650005
   0.65927650  0.66649921  0.65651270
   0.84043268  0.16672625  0.34304562
   0.84080573  0.16678863  0.84349027
   0.84065614  0.50000000  0.34317541
   0.84128484  0.50000000  0.84336151
   0.84043268  0.83327375  0.34304562
   0.84080573  0.83321137  0.84349027
   0.59099145  0.16665960  0.39765706
   0.59104695  0.16663664  0.89757999
   0.59046792  0.50000000  0.39754885
   0.59173131  0.50000000  0.89760410
   0.59099145  0.83334040  0.39765706
   0.59104695  0.83336336  0.89757999
   0.90856631  0.00000000  0.10220020
   0.90887289  0.00000000  0.60238510
   0.90873357  0.33335999  0.10239865
   0.90874890  0.33337024  0.60208924
   0.90873357  0.66664001  0.10239865
   0.90874890  0.66662976  0.60208924
   0.15883637  0.16667222  0.15604858
   0.16077173  0.16742770  0.65597666
   0.15872949  0.50000000  0.15653373
   0.15889444  0.50000000  0.65663703
   0.15883637  0.83332778  0.15604858
   0.16077173  0.83257230  0.65597666
   0.34067002  0.00000000  0.34295694
   0.34090104  0.00000000  0.84467541
   0.34030924  0.33341634  0.34340037
   0.34153897  0.33358677  0.84382725
   0.34030924  0.66658366  0.34340037
   0.34153897  0.66641323  0.84382725
   0.09052658  0.00000000  0.39478880
   0.09086328  0.00000000  0.89781878
   0.09048748  0.33317041  0.39775476
   0.09117443  0.33305539  0.89719928
   0.09048748  0.66682959  0.39775476
   0.09117443  0.66694461  0.89719928
   0.40937763  0.16689774  0.10315729
   0.41013515  0.16676354  0.60332124
   0.40878073  0.50000000  0.10261212
   0.40863010  0.50000000  0.60254337
   0.40937763  0.83310226  0.10315729
   0.41013515  0.83323646  0.60332124
   0.99610044  0.16662003  0.12640605
   0.99644974  0.16660634  0.62821866
   0.99625740  0.50000000  0.12711452
   0.99608212  0.50000000  0.62750957
   0.99610044  0.83337997  0.12640605
   0.99644974  0.83339366  0.62821866
   0.50335718  0.00000000  0.37308460
   0.50370973  0.00000000  0.87320849
   0.50305747  0.33301643  0.37305139
   0.50411101  0.33365233  0.87308601
   0.50305747  0.66698357  0.37305139
   0.50411101  0.66634767  0.87308601
   0.67222279  0.16667477  0.28041384
   0.67244619  0.16682611  0.78032450
   0.67211326  0.50000000  0.28057016
   0.67281497  0.50000000  0.78019489
   0.67222279  0.83332523  0.28041384
   0.67244619  0.83317389  0.78032450
   0.82686771  0.00000000  0.21911561
   0.82744669  0.00000000  0.71963644
   0.82684970  0.33365102  0.21915301
   0.82750933  0.33328884  0.71950351
   0.82684970  0.66634898  0.21915301
   0.82750933  0.66671116  0.71950351
   0.83213896  0.00000000  0.44574700
   0.83160073  0.00000000  0.94563327
   0.83188653  0.33329313  0.44564981
   0.83189385  0.33353250  0.94573172
   0.83188653  0.66670687  0.44564981
   0.83189385  0.66646750  0.94573172
   0.66770565  0.16675577  0.05419386
   0.66805164  0.16673486  0.55414082
   0.66802776  0.50000000  0.05423774
   0.66801969  0.50000000  0.55391001
   0.66770565  0.83324423  0.05419386
   0.66805164  0.83326514  0.55414082
   0.49645836  0.00000000  0.12795512
   0.49718033  0.00000000  0.62729440
   0.49651388  0.33367247  0.12780990
   0.49669220  0.33379178  0.62698933
   0.49651388  0.66632753  0.12780990
   0.49669220  0.66620822  0.62698933
   0.00217080  0.16730264  0.36947372
   0.00329124  0.16673833  0.87277947
   0.00306244  0.50000000  0.37214422
   0.00390844  0.50000000  0.87263386
   0.00217080  0.83269736  0.36947372
   0.00329124  0.83326167  0.87277947
   0.17237955  0.00000000  0.27826850
   0.17411937  0.00000000  0.78371933
   0.17236494  0.33303121  0.28053163
   0.17295884  0.33295611  0.78023112
   0.17236494  0.66696879  0.28053163
   0.17295884  0.66704389  0.78023112
   0.32769568  0.16697719  0.22017279
   0.32971204  0.16719969  0.72109983
   0.32709819  0.50000000  0.21957792
   0.32793316  0.50000000  0.72014473
   0.32769568  0.83302281  0.22017279
   0.32971204  0.83280031  0.72109983
   0.33162991  0.16571754  0.44679302
   0.33292590  0.16736916  0.94669037
   0.33224449  0.50000000  0.44582758
   0.33201639  0.50000000  0.94607424
   0.33162991  0.83428246  0.44679302
   0.33292590  0.83263084  0.94669037
   0.16829044  0.00000000  0.05404728
   0.16780801  0.33335711  0.05400081
   0.16797435  0.33558655  0.55391005
   0.16780801  0.66664289  0.05400081
   0.16797435  0.66441345  0.55391005
   0.16554926  0.00000000  0.55381908
 
 position of ions in cartesian coordinates  (Angst):
   0.00000000  7.65896486 -1.76721310
   0.00000000  6.28214397 -7.42095006
   3.04917310  7.65876762 -1.76855977
   3.04909840  6.27882848 -7.41905154
   6.09352896  7.65876762 -1.76855977
   6.09360366  6.27882848 -7.41905154
   1.52432847  9.37127116 -3.87665483
   1.52489876  7.99049056 -9.53202853
   4.57135103  9.37365601 -3.87812152
   4.57135103  7.99673065 -9.53057346
   7.61837358  9.37127116 -3.87665483
   7.61780330  7.99049056 -9.53202853
   1.52371910  6.15683595 -4.49380227
   1.52350915  4.77360005-10.14328011
   4.57135103  6.15070629 -4.49257940
   4.57135103  4.78193756-10.14355262
   7.61898295  6.15683595 -4.49380227
   7.61919290  4.77360005-10.14328011
   0.00000000 10.87470750 -1.15493354
   0.00000000  9.49382971 -6.80737189
   3.04781107 10.87621223 -1.15717615
   3.04790477  9.49312609 -6.80402846
   6.09489098 10.87621223 -1.15717615
   6.09479729  9.49312609 -6.80402846
   1.52383445  1.51860252 -1.76345788
   1.53074153  0.15843786 -7.41299393
   4.57135103  1.51594693 -1.76894033
   4.57135103  0.13355578 -7.42045655
   7.61886760  1.51860252 -1.76345788
   7.61196052  0.15843786 -7.41299393
   0.00000000  3.23419448 -3.87565275
   0.00000000  1.84814346 -9.54542153
   3.04832630  3.22853639 -3.88066381
   3.04988448  1.85832558 -9.53583666
   6.09437575  3.22853639 -3.88066381
   6.09281757  1.85832558 -9.53583666
   0.00000000  0.01883046 -4.46138890
   0.00000000 -1.36955328-10.14597869
   3.04607776  0.01013977 -4.49490631
   3.04502622 -1.36401731-10.13897788
   6.09662429  0.01013977 -4.49490631
   6.09767583 -1.36401731-10.13897788
   1.52589634  4.74178474 -1.16574936
   1.52466936  3.36650263 -6.81795096
   4.57135103  4.73596363 -1.15958850
   4.57135103  3.35017328 -6.80916054
   7.61680572  4.74178474 -1.16574936
   7.61803270  3.36650263 -6.81795096
   1.52335729 11.88265995 -1.42847656
   1.52323216 10.49780082 -7.09930923
   4.57135103 11.88262631 -1.43648272
   4.57135103 10.49524931 -7.09129591
   7.61934476 11.88265995 -1.42847656
   7.61946990 10.49780082 -7.09930923
   0.00000000  5.14866860 -4.21611625
   0.00000000  3.76852431 -9.86786524
   3.04466996  5.14508001 -4.21574104
   3.05048385  3.77379117 -9.86648106
   6.09803210  5.14508001 -4.21574104
   6.09221820  3.77379117 -9.86648106
   1.52385775  7.47895515 -3.16887206
   1.52524144  6.09781505 -8.81821125
   4.57135103  7.47717740 -3.17063860
   4.57135103  6.10270263 -8.81674663
   7.61884431  7.47895515 -3.16887206
   7.61746061  6.09781505 -8.81821125
   0.00000000  9.54775756 -2.47615932
   0.00000000  8.16929506 -8.13239384
   3.05047190  9.54743288 -2.47658192
   3.04716060  8.17043231 -8.13089168
   6.09223016  9.54743288 -2.47658192
   6.09554145  8.17043231 -8.13089168
   0.00000000  8.98511595 -5.03725215
   0.00000000  7.59469023-10.68631578
   3.04719975  8.98228512 -5.03615382
   3.04938823  7.59801737-10.68742831
   6.09550230  8.98228512 -5.03615382
   6.09331382  7.59801737-10.68742831
   1.52459832  8.04971862 -0.61242848
   1.52440719  6.66998360 -6.26217786
   4.57135103  8.05355291 -0.61292430
   4.57135103  6.67023017 -6.25956954
   7.61810374  8.04971862 -0.61242848
   7.61829486  6.66998360 -6.26217786
   0.00000000  5.74253037 -1.44598217
   0.00000000  4.36909467 -7.08886438
   3.05066801  5.74361425 -1.44434110
   3.05175876  4.36394469 -7.08541695
   6.09203405  5.74361425 -1.44434110
   6.09094330  4.36394469 -7.08541695
   1.52959818 -0.99614152 -4.17531078
   1.52443886 -2.37566411 -9.86301700
   4.57135103 -0.99258439 -4.20548937
   4.57135103 -2.36768140 -9.86137146
   7.61310387 -0.99614152 -4.17531078
   7.61826320 -2.37566411 -9.86301700
   0.00000000  1.34658240 -3.14462825
   0.00000000 -0.03127195 -8.85657524
   3.04480513  1.34013802 -3.17020317
   3.04411847 -0.03586759 -8.81715603
   6.09789692  1.34013802 -3.17020317
   6.09858359 -0.03586759 -8.81715603
   1.52662268  3.41476221 -2.48810620
   1.52865695  2.05282688 -8.14893123
   4.57135103  3.40907148 -2.48138364
   4.57135103  2.03362532 -8.13813792
   7.61607937  3.41476221 -2.48810620
   7.61404510  2.05282688 -8.14893123
   1.51510610  2.83573231 -5.04907286
   1.53020636  1.46780085-10.69826171
   4.57135103  2.84595217 -5.03816268
   4.57135103  1.45833727-10.69129906
   7.62759595  2.83573231 -5.04907286
   7.61249569  1.46780085-10.69826171
   0.00000000  1.91706921 -0.61077196
   3.04778469  1.91127341 -0.61024685
   3.06816783  0.52943654 -6.25957008
   6.09491736  1.91127341 -0.61024685
   6.07453423  0.52943654 -6.25957008
   0.00000000  0.49990709 -6.25854202
 


--------------------------------------------------------------------------------------------------------


 k-point   1 :   0.0000 0.0000 0.0000  plane waves:   27533
 k-point   2 :   0.5000 0.0000 0.0000  plane waves:   27522
 k-point   3 :   0.0000 0.5000 0.0000  plane waves:   27488
 k-point   4 :   0.5000 0.5000 0.0000  plane waves:   27488
 k-point   5 :   0.0000 0.0000 0.5000  plane waves:   27482
 k-point   6 :   0.5000 0.0000 0.5000  plane waves:   27476
 k-point   7 :   0.0000 0.5000 0.5000  plane waves:   27468
 k-point   8 :   0.5000 0.5000 0.5000  plane waves:   27564

 maximum and minimum number of plane-waves per node :     27564    27468

 maximum number of plane-waves:     27564
 maximum index in each direction: 
   IXMAX=   21   IYMAX=   15   IZMAX=   20
   IXMIN=  -21   IYMIN=  -16   IZMIN=  -20


 serial   3D FFT for wavefunctions
 parallel 3D FFT for charge:
    minimum data exchange during FFTs selected (reduces bandwidth)


 FFT grid for exact exchange (Hartree Fock) 
  NGX = 48; NGY = 36; NGZ = 48

 
 Radii for the augmentation spheres in the non-local exchange
 for species   1 augmentation radius   1.392 (default was   1.031)
       energy cutoff for augmentation   1800.0
 for species   2 augmentation radius   0.974 (default was   0.722)
       energy cutoff for augmentation   1800.0
 for species   3 augmentation radius   0.957 (default was   0.709)
       energy cutoff for augmentation   1800.0
 Maximum index for augmentation-charges in exchange           747
  SETUP_FOCK is finished

 total amount of memory used by VASP MPI-rank0  7269089. kBytes
=======================================================================

   base      :      30000. kBytes
   nonlr-proj:      32984. kBytes
   fftplans  :      51012. kBytes
   grid      :     102973. kBytes
   one-center:       1866. kBytes
   HF        :        194. kBytes
   wavefun   :    7050060. kBytes
 
     INWAV:  cpu time      0.0001: real time      0.0001
 Broyden mixing: mesh for mixing (old mesh)
   NGX = 43   NGY = 31   NGZ = 41
  (NGX  =128   NGY  = 96   NGZ  =120)
  gives a total of  54653 points

 charge density for first step will be calculated from the start-wavefunctions


--------------------------------------------------------------------------------------------------------


 Maximum index for non-local projection operator          1713
 Maximum index for augmentation-charges          5355 (set IRDMAX)


--------------------------------------------------------------------------------------------------------


 initial charge from wavefunction
 First call to EWALD:  gamma=   0.164
 Maximum number of real-space cells 3x 3x 3
 Maximum number of reciprocal cells 3x 2x 3

    FEWALD:  cpu time      0.0735: real time      0.0735


--------------------------------------- Ionic step        1  -------------------------------------------




--------------------------------------- Iteration      1(   1)  ---------------------------------------


    POTLOK:  cpu time      0.0318: real time      0.0319
    SETDIJ:  cpu time      0.1207: real time      0.1207
    TRIAL :  cpu time      2.8938: real time      2.9142
    CORREC:  cpu time      0.0015: real time      0.0014
    --------------------------------------------
      LOOP:  cpu time      3.9920: real time      4.0119

 eigenvalue-minimisations  : 10616
 total energy-change (2. order) :-0.1842719E+05  (-0.5420346E+05)
 number of electron    1054.9999347 magnetization 
 augmentation part      122.1203039 magnetization 

 Free energy of the ion-electron system (eV)
  ---------------------------------------------------
  alpha Z        PSCENC =      5530.94812622
  Ewald energy   TEWEN  =    -88761.51343103
  -Hartree energ DENC   =     -2111.38480209
  -exchange      EXHF   =         0.00000000
  -V(xc)+E(xc)   XCENC  =      2801.99930945
  PAW double counting   =     59955.58433651   -89158.42526921
  entropy T*S    EENTRO =        -0.00647900
  eigenvalues    EBANDS =    -40418.38854263
  atomic energy  EATOM  =    133733.99279260
  ---------------------------------------------------
  free energy    TOTEN  =    -18427.19395918 eV

  energy without entropy =   -18427.18748017  energy(sigma->0) =   -18427.19071967
  exchange ACFDT corr.  =         0.00000000  see jH, gK, PRB 81, 115126


--------------------------------------------------------------------------------------------------------




--------------------------------------- Iteration      1(   2)  ---------------------------------------


    TRIAL :  cpu time      3.1677: real time      3.1671
    CORREC:  cpu time      0.0015: real time      0.0015
    --------------------------------------------
      LOOP:  cpu time      3.1696: real time      3.1696

 eigenvalue-minimisations  : 13600
 total energy-change (2. order) :-0.4404557E+05  (-0.4274347E+05)
 number of electron    1054.9999347 magnetization 
 augmentation part      122.1203039 magnetization 

 Free energy of the ion-electron system (eV)
  ---------------------------------------------------
  alpha Z        PSCENC =      5530.94812622
  Ewald energy   TEWEN  =    -88761.51343103
  -Hartree energ DENC   =     -2111.38480209
  -exchange      EXHF   =         0.00000000
  -V(xc)+E(xc)   XCENC  =      2801.99930945
  PAW double counting   =     59955.58433651   -89158.42526921
  entropy T*S    EENTRO =        -0.01406109
  eigenvalues    EBANDS =    -84463.95441849
  atomic energy  EATOM  =    133733.99279260
  ---------------------------------------------------
  free energy    TOTEN  =    -62472.76741712 eV

  energy without entropy =   -62472.75335603  energy(sigma->0) =   -62472.76038657
  exchange ACFDT corr.  =         0.00000000  see jH, gK, PRB 81, 115126


--------------------------------------------------------------------------------------------------------




--------------------------------------- Iteration      1(   3)  ---------------------------------------


    TRIAL :  cpu time      3.3359: real time      3.3353
    CORREC:  cpu time      0.0017: real time      0.0017
    --------------------------------------------
      LOOP:  cpu time      3.3377: real time      3.3375

 eigenvalue-minimisations  : 14457
 total energy-change (2. order) :-0.4495373E+04  (-0.4004086E+04)
 number of electron    1054.9999347 magnetization 
 augmentation part      122.1203039 magnetization 

 Free energy of the ion-electron system (eV)
  ---------------------------------------------------
  alpha Z        PSCENC =      5530.94812622
  Ewald energy   TEWEN  =    -88761.51343103
  -Hartree energ DENC   =     -2111.38480209
  -exchange      EXHF   =         0.00000000
  -V(xc)+E(xc)   XCENC  =      2801.99930945
  PAW double counting   =     59955.58433651   -89158.42526921
  entropy T*S    EENTRO =        -0.04672746
  eigenvalues    EBANDS =    -88959.29507653
  atomic energy  EATOM  =    133733.99279260
  ---------------------------------------------------
  free energy    TOTEN  =    -66968.14074154 eV

  energy without entropy =   -66968.09401408  energy(sigma->0) =   -66968.11737781
  exchange ACFDT corr.  =         0.00000000  see jH, gK, PRB 81, 115126


--------------------------------------------------------------------------------------------------------




--------------------------------------- Iteration      1(   4)  ---------------------------------------


    TRIAL :  cpu time      3.6700: real time      3.6693
    CORREC:  cpu time      0.0016: real time      0.0016
    --------------------------------------------
      LOOP:  cpu time      3.6718: real time      3.6714

 eigenvalue-minimisations  : 16808
 total energy-change (2. order) :-0.5146707E+03  (-0.4369073E+03)
 number of electron    1054.9999347 magnetization 
 augmentation part      122.1203039 magnetization 

 Free energy of the ion-electron system (eV)
  ---------------------------------------------------
  alpha Z        PSCENC =      5530.94812622
  Ewald energy   TEWEN  =    -88761.51343103
  -Hartree energ DENC   =     -2111.38480209
  -exchange      EXHF   =         0.00000000
  -V(xc)+E(xc)   XCENC  =      2801.99930945
  PAW double counting   =     59955.58433651   -89158.42526921
  entropy T*S    EENTRO =        -0.04643389
  eigenvalues    EBANDS =    -89473.96602508
  atomic energy  EATOM  =    133733.99279260
  ---------------------------------------------------
  free energy    TOTEN  =    -67482.81139652 eV

  energy without entropy =   -67482.76496262  energy(sigma->0) =   -67482.78817957
  exchange ACFDT corr.  =         0.00000000  see jH, gK, PRB 81, 115126


--------------------------------------------------------------------------------------------------------




--------------------------------------- Iteration      1(   5)  ---------------------------------------


    POTLOK:  cpu time      1.3521: real time      1.3519
    SETDIJ:  cpu time      0.4783: real time      0.4782
    TRIAL :  cpu time    234.2945: real time    234.2641
    CORREC:  cpu time      0.0016: real time      0.0016
    CHARGE:  cpu time      0.2093: real time      0.2093
    --------------------------------------------
      LOOP:  cpu time    236.3360: real time    236.3057

 eigenvalue-minimisations  : 18991
 total energy-change (2. order) : 0.3011805E+05  (-0.7144653E+02)
 number of electron    1054.9997849 magnetization 
 augmentation part      497.3272191 magnetization 

 Free energy of the ion-electron system (eV)
  ---------------------------------------------------
  alpha Z        PSCENC =      5530.94812622
  Ewald energy   TEWEN  =    -88761.51343103
  -Hartree energ DENC   =     -2111.38480209
  -exchange      EXHF   =      4641.68599663
  -V(xc)+E(xc)   XCENC  =      1936.95619039
  PAW double counting   =     60599.12068976   -62674.96362173
  entropy T*S    EENTRO =        -0.02819597
  eigenvalues    EBANDS =    -90259.57489106
  atomic energy  EATOM  =    133733.99279260
  ---------------------------------------------------
  free energy    TOTEN  =    -37364.76114626 eV

  energy without entropy =   -37364.73295030  energy(sigma->0) =   -37364.74704828
  exchange ACFDT corr.  =        -0.17976031  see jH, gK, PRB 81, 115126


--------------------------------------------------------------------------------------------------------




--------------------------------------- Iteration      1(   6)  ---------------------------------------


    POTLOK:  cpu time      1.4173: real time      1.4171
    SETDIJ:  cpu time      0.4705: real time      0.4704
    TRIAL :  cpu time    233.8310: real time    233.8025
    CORREC:  cpu time    235.9775: real time    235.9487
    CHARGE:  cpu time      0.2248: real time      0.2247
    --------------------------------------------
      LOOP:  cpu time    471.9214: real time    471.8640

 eigenvalue-minimisations  :     0
 total energy-change (2. order) : 0.5474927E+05  (-0.1275075E+05)
 number of electron    1054.9998453 magnetization 
 augmentation part      491.3546012 magnetization 

 Free energy of the ion-electron system (eV)
  ---------------------------------------------------
  alpha Z        PSCENC =      5530.94812622
  Ewald energy   TEWEN  =    -88761.51343103
  -Hartree energ DENC   =    -63888.75043880
  -exchange      EXHF   =      4751.72515224
  -V(xc)+E(xc)   XCENC  =      3723.73047505
  PAW double counting   =    143137.12216005  -167477.23793093
  entropy T*S    EENTRO =        -0.01493461
  eigenvalues    EBANDS =     46634.51746078
  atomic energy  EATOM  =    133733.99279260
  ---------------------------------------------------
  free energy    TOTEN  =     17384.50617021 eV

  energy without entropy =    17384.52110482  energy(sigma->0) =    17384.51363752
  exchange ACFDT corr.  =        -0.18836655  see jH, gK, PRB 81, 115126


--------------------------------------------------------------------------------------------------------




--------------------------------------- Iteration      1(   7)  ---------------------------------------


    POTLOK:  cpu time      1.5002: real time      1.5000
    SETDIJ:  cpu time      0.4709: real time      0.4708
    TRIAL :  cpu time    233.6030: real time    233.5712
    CORREC:  cpu time    236.1312: real time    236.0997
    CHARGE:  cpu time      0.2283: real time      0.2282
    --------------------------------------------
      LOOP:  cpu time    471.9338: real time    471.8705

 eigenvalue-minimisations  :     0
 total energy-change (2. order) :-0.1238189E+05  (-0.2610886E+04)
 number of electron    1054.9998332 magnetization 
 augmentation part      466.7088004 magnetization 

 Free energy of the ion-electron system (eV)
  ---------------------------------------------------
  alpha Z        PSCENC =      5530.94812622
  Ewald energy   TEWEN  =    -88761.51343103
  -Hartree energ DENC   =    -45264.20008079
  -exchange      EXHF   =      4197.42142678
  -V(xc)+E(xc)   XCENC  =      3206.58170657
  PAW double counting   =    127638.84299262  -147631.81209597
  entropy T*S    EENTRO =        -0.04080000
  eigenvalues    EBANDS =     12352.36475341
  atomic energy  EATOM  =    133733.99279260
  ---------------------------------------------------
  free energy    TOTEN  =      5002.61125581 eV

  energy without entropy =     5002.65205581  energy(sigma->0) =     5002.63165581
  exchange ACFDT corr.  =      -194.26171374  see jH, gK, PRB 81, 115126


--------------------------------------------------------------------------------------------------------




--------------------------------------- Iteration      1(   8)  ---------------------------------------


    POTLOK:  cpu time      1.5221: real time      1.5219
    SETDIJ:  cpu time      0.4688: real time      0.4687
    TRIAL :  cpu time    234.0736: real time    234.0431
    CORREC:  cpu time    236.3785: real time    236.3455
    CHARGE:  cpu time      0.2256: real time      0.2256
    --------------------------------------------
      LOOP:  cpu time    472.6689: real time    472.6104

 eigenvalue-minimisations  :     0
 total energy-change (2. order) :-0.3439910E+04  (-0.7142269E+03)
 number of electron    1054.9998516 magnetization 
 augmentation part      446.7041167 magnetization 

 Free energy of the ion-electron system (eV)
  ---------------------------------------------------
  alpha Z        PSCENC =      5530.94812622
  Ewald energy   TEWEN  =    -88761.51343103
  -Hartree energ DENC   =    -37354.26132193
  -exchange      EXHF   =      3927.85401288
  -V(xc)+E(xc)   XCENC  =      2985.76521573
  PAW double counting   =    124818.07338175  -142235.73905337
  entropy T*S    EENTRO =        -0.02874563
  eigenvalues    EBANDS =     -1082.37721592
  atomic energy  EATOM  =    133733.99279260
  ---------------------------------------------------
  free energy    TOTEN  =      1562.70170694 eV

  energy without entropy =     1562.73045257  energy(sigma->0) =     1562.71607975
  exchange ACFDT corr.  =      -155.76711801  see jH, gK, PRB 81, 115126


--------------------------------------------------------------------------------------------------------




--------------------------------------- Iteration      1(   9)  ---------------------------------------


    POTLOK:  cpu time      1.5309: real time      1.5307
    SETDIJ:  cpu time      0.4699: real time      0.4698
    TRIAL :  cpu time    233.6330: real time    233.6008
    CORREC:  cpu time    235.9128: real time    235.8810
    CHARGE:  cpu time      0.2279: real time      0.2278
    --------------------------------------------
      LOOP:  cpu time    471.7768: real time    471.7128

 eigenvalue-minimisations  :     0
 total energy-change (2. order) :-0.7442617E+03  (-0.5886956E+03)
 number of electron    1054.9998590 magnetization 
 augmentation part      438.7278287 magnetization 

 Free energy of the ion-electron system (eV)
  ---------------------------------------------------
  alpha Z        PSCENC =      5530.94812622
  Ewald energy   TEWEN  =    -88761.51343103
  -Hartree energ DENC   =    -33461.36360234
  -exchange      EXHF   =      3769.89289991
  -V(xc)+E(xc)   XCENC  =      2863.53693928
  PAW double counting   =    122310.77185849  -137762.92707092
  entropy T*S    EENTRO =        -0.04538430
  eigenvalues    EBANDS =     -7404.86977944
  atomic energy  EATOM  =    133733.99279260
  ---------------------------------------------------
  free energy    TOTEN  =       818.43998714 eV

  energy without entropy =      818.48537144  energy(sigma->0) =      818.46267929
  exchange ACFDT corr.  =       -78.26511784  see jH, gK, PRB 81, 115126


--------------------------------------------------------------------------------------------------------




--------------------------------------- Iteration      1(  10)  ---------------------------------------


    POTLOK:  cpu time      1.4837: real time      1.4834
    SETDIJ:  cpu time      0.4692: real time      0.4691
    TRIAL :  cpu time    234.5928: real time    234.5581
    CORREC:  cpu time    235.6245: real time    235.6099
    CHARGE:  cpu time      0.2289: real time      0.2289
    --------------------------------------------
      LOOP:  cpu time    472.3994: real time    472.3500

 eigenvalue-minimisations  :     0
 total energy-change (2. order) :-0.6378516E+03  (-0.5704532E+03)
 number of electron    1054.9998439 magnetization 
 augmentation part      447.5055625 magnetization 

 Free energy of the ion-electron system (eV)
  ---------------------------------------------------
  alpha Z        PSCENC =      5530.94812622
  Ewald energy   TEWEN  =    -88761.51343103
  -Hartree energ DENC   =    -31535.09570104
  -exchange      EXHF   =      3691.19108067
  -V(xc)+E(xc)   XCENC  =      2811.10363680
  PAW double counting   =    120793.07904308  -135453.03946750
  entropy T*S    EENTRO =        -0.01382528
  eigenvalues    EBANDS =    -10630.03230950
  atomic energy  EATOM  =    133733.99279260
  ---------------------------------------------------
  free energy    TOTEN  =       180.58838600 eV

  energy without entropy =      180.60221127  energy(sigma->0) =      180.59529864
  exchange ACFDT corr.  =      -108.65664343  see jH, gK, PRB 81, 115126


--------------------------------------------------------------------------------------------------------




--------------------------------------- Iteration      1(  11)  ---------------------------------------


    POTLOK:  cpu time      1.4831: real time      1.4828
    SETDIJ:  cpu time      0.4683: real time      0.4682
    TRIAL :  cpu time    233.1391: real time    233.1029
    CORREC:  cpu time    235.2365: real time    235.1977
    CHARGE:  cpu time      0.2239: real time      0.2239
    --------------------------------------------
      LOOP:  cpu time    470.5512: real time    470.4760

 eigenvalue-minimisations  :     0
 total energy-change (2. order) :-0.5559728E+03  (-0.3219399E+03)
[...]
   0.239E-04 0.517E+02 -.304E+02   -.207E-13 -.495E+02 0.321E+02   0.000E+00 -.195E+01 -.161E+01
   0.383E-04 0.556E+02 -.333E+02   0.387E-13 -.534E+02 0.349E+02   0.000E+00 -.194E+01 -.152E+01
   -.163E+01 0.516E+02 -.294E+02   0.153E+01 -.495E+02 0.314E+02   0.890E-01 -.193E+01 -.185E+01
   -.112E+02 0.699E+02 -.403E+02   0.111E+02 -.676E+02 0.415E+02   0.782E-01 -.199E+01 -.119E+01
   -.340E+00 -.202E+02 0.147E+02   0.329E+00 0.276E+02 -.182E+02   0.922E-02 -.638E+01 0.305E+01
   0.820E+01 -.356E+02 0.133E+02   -.818E+01 0.435E+02 -.180E+02   -.363E-01 -.676E+01 0.412E+01
   0.495E-05 -.198E+02 0.156E+02   -.373E-14 0.271E+02 -.192E+02   0.000E+00 -.622E+01 0.318E+01
   0.166E-04 -.218E+02 0.152E+02   0.298E-13 0.292E+02 -.192E+02   0.000E+00 -.638E+01 0.345E+01
   0.340E+00 -.202E+02 0.147E+02   -.329E+00 0.276E+02 -.182E+02   -.922E-02 -.638E+01 0.305E+01
   -.820E+01 -.356E+02 0.133E+02   0.818E+01 0.435E+02 -.180E+02   0.363E-01 -.676E+01 0.412E+01
   -.144E-04 0.215E+02 -.107E+02   0.635E-13 -.287E+02 0.143E+02   0.000E+00 0.627E+01 -.313E+01
   -.745E-05 0.217E+02 -.179E+02   0.364E-13 -.293E+02 0.217E+02   0.000E+00 0.649E+01 -.325E+01
   0.975E+00 0.203E+02 -.121E+02   -.990E+00 -.276E+02 0.158E+02   0.197E-01 0.630E+01 -.317E+01
   -.147E+00 0.199E+02 -.163E+02   0.175E+00 -.273E+02 0.200E+02   -.268E-01 0.634E+01 -.318E+01
   -.975E+00 0.203E+02 -.121E+02   0.990E+00 -.276E+02 0.158E+02   -.197E-01 0.630E+01 -.317E+01
   0.147E+00 0.199E+02 -.163E+02   -.175E+00 -.273E+02 0.200E+02   0.268E-01 0.634E+01 -.318E+01
   0.499E+00 0.658E+02 0.395E+02   -.502E+00 -.639E+02 -.346E+02   0.271E-02 -.163E+01 -.420E+01
   0.261E+00 0.664E+02 0.356E+02   -.237E+00 -.645E+02 -.309E+02   -.207E-01 -.165E+01 -.405E+01
   0.179E-04 0.660E+02 0.405E+02   0.661E-13 -.640E+02 -.358E+02   0.000E+00 -.171E+01 -.405E+01
   0.848E-06 0.660E+02 0.359E+02   -.294E-13 -.640E+02 -.313E+02   0.000E+00 -.173E+01 -.401E+01
   -.499E+00 0.658E+02 0.395E+02   0.502E+00 -.639E+02 -.346E+02   -.271E-02 -.163E+01 -.420E+01
   -.261E+00 0.664E+02 0.356E+02   0.237E+00 -.645E+02 -.309E+02   0.207E-01 -.165E+01 -.405E+01
   -.265E-04 -.687E+02 -.330E+02   -.289E-13 0.668E+02 0.282E+02   0.000E+00 0.162E+01 0.411E+01
   0.443E-05 -.733E+02 -.390E+02   0.315E-13 0.715E+02 0.341E+02   0.000E+00 0.151E+01 0.419E+01
   0.627E+00 -.686E+02 -.346E+02   -.664E+00 0.668E+02 0.298E+02   0.307E-01 0.162E+01 0.407E+01
   0.144E+01 -.706E+02 -.386E+02   -.147E+01 0.687E+02 0.339E+02   0.247E-01 0.163E+01 0.408E+01
   -.627E+00 -.686E+02 -.346E+02   0.664E+00 0.668E+02 0.298E+02   -.307E-01 0.162E+01 0.407E+01
   -.144E+01 -.706E+02 -.386E+02   0.147E+01 0.687E+02 0.339E+02   -.247E-01 0.163E+01 0.408E+01
   -.120E-04 0.111E+03 0.677E+02   0.462E-13 -.123E+03 -.642E+02   0.000E+00 0.108E+02 -.303E+01
   -.125E-04 0.119E+03 0.616E+02   -.106E-13 -.132E+03 -.582E+02   0.000E+00 0.109E+02 -.299E+01
   0.225E+01 0.116E+03 0.658E+02   -.223E+01 -.129E+03 -.623E+02   -.255E-01 0.109E+02 -.307E+01
   -.252E-01 0.119E+03 0.624E+02   0.604E-01 -.131E+03 -.590E+02   -.306E-01 0.109E+02 -.294E+01
   -.225E+01 0.116E+03 0.658E+02   0.223E+01 -.129E+03 -.623E+02   0.255E-01 0.109E+02 -.307E+01
   0.252E-01 0.119E+03 0.624E+02   -.604E-01 -.131E+03 -.590E+02   0.306E-01 0.109E+02 -.294E+01
   0.138E-01 -.120E+03 -.631E+02   0.342E-01 0.133E+03 0.596E+02   -.421E-01 -.108E+02 0.299E+01
   0.749E+00 -.122E+03 -.636E+02   -.748E+00 0.134E+03 0.601E+02   -.212E-02 -.108E+02 0.301E+01
   0.934E-06 -.120E+03 -.632E+02   0.948E-13 0.133E+03 0.597E+02   0.000E+00 -.109E+02 0.301E+01
   -.478E-05 -.122E+03 -.641E+02   -.247E-14 0.135E+03 0.607E+02   0.000E+00 -.109E+02 0.293E+01
   -.138E-01 -.120E+03 -.631E+02   -.342E-01 0.133E+03 0.596E+02   0.421E-01 -.108E+02 0.299E+01
   -.749E+00 -.122E+03 -.636E+02   0.748E+00 0.134E+03 0.601E+02   0.212E-02 -.108E+02 0.301E+01
   -.125E-04 -.149E+02 0.149E+02   -.711E-13 0.222E+02 -.187E+02   0.000E+00 -.624E+01 0.331E+01
   -.448E-05 -.901E+01 0.100E+02   0.915E-13 0.164E+02 -.136E+02   0.000E+00 -.636E+01 0.308E+01
   -.570E+00 -.156E+02 0.152E+02   0.659E+00 0.229E+02 -.190E+02   -.760E-01 -.628E+01 0.332E+01
   -.573E+00 -.140E+02 0.112E+02   0.917E+00 0.215E+02 -.148E+02   -.301E+00 -.641E+01 0.309E+01
   0.570E+00 -.156E+02 0.152E+02   -.659E+00 0.229E+02 -.190E+02   0.760E-01 -.628E+01 0.332E+01
   0.573E+00 -.140E+02 0.112E+02   -.917E+00 0.215E+02 -.148E+02   0.301E+00 -.641E+01 0.309E+01
   0.788E+01 0.678E+01 -.309E+01   -.830E+01 -.134E+02 0.756E+01   0.341E+00 0.573E+01 -.389E+01
   0.114E+01 0.131E+02 -.195E+02   -.121E+01 -.203E+02 0.232E+02   0.601E-01 0.625E+01 -.324E+01
   0.153E-04 0.134E+02 -.116E+02   0.842E-13 -.204E+02 0.156E+02   0.000E+00 0.608E+01 -.345E+01
   0.436E-05 0.144E+02 -.160E+02   -.919E-13 -.216E+02 0.197E+02   0.000E+00 0.624E+01 -.316E+01
   -.788E+01 0.678E+01 -.309E+01   0.830E+01 -.134E+02 0.756E+01   -.341E+00 0.573E+01 -.389E+01
   -.114E+01 0.131E+02 -.195E+02   0.121E+01 -.203E+02 0.232E+02   -.601E-01 0.625E+01 -.324E+01
   -.232E-04 0.662E+02 0.513E+02   0.888E-14 -.640E+02 -.468E+02   0.000E+00 -.190E+01 -.391E+01
   -.235E-04 0.636E+02 0.829E+01   -.285E-13 -.617E+02 -.207E+01   0.000E+00 -.163E+01 -.529E+01
   0.218E+01 0.682E+02 0.422E+02   -.222E+01 -.665E+02 -.375E+02   0.323E-01 -.144E+01 -.405E+01
   0.566E+01 0.665E+02 0.323E+02   -.567E+01 -.644E+02 -.278E+02   0.354E-02 -.174E+01 -.389E+01
   -.218E+01 0.682E+02 0.422E+02   0.222E+01 -.665E+02 -.375E+02   -.323E-01 -.144E+01 -.405E+01
   -.566E+01 0.665E+02 0.323E+02   0.567E+01 -.644E+02 -.278E+02   -.354E-02 -.174E+01 -.389E+01
   -.157E+00 -.623E+02 -.352E+02   0.228E+00 0.602E+02 0.308E+02   -.652E-01 0.182E+01 0.379E+01
   0.101E+02 -.541E+02 -.468E+02   -.104E+02 0.521E+02 0.419E+02   0.197E+00 0.172E+01 0.432E+01
   0.194E-04 -.638E+02 -.362E+02   -.255E-13 0.618E+02 0.315E+02   0.000E+00 0.168E+01 0.401E+01
   0.362E-05 -.610E+02 -.405E+02   -.462E-13 0.587E+02 0.358E+02   0.000E+00 0.195E+01 0.403E+01
   0.157E+00 -.623E+02 -.352E+02   -.228E+00 0.602E+02 0.308E+02   0.652E-01 0.182E+01 0.379E+01
   -.101E+02 -.541E+02 -.468E+02   0.104E+02 0.521E+02 0.419E+02   -.197E+00 0.172E+01 0.432E+01
   0.510E+01 0.132E+03 0.681E+02   -.490E+01 -.144E+03 -.645E+02   -.180E+00 0.106E+02 -.303E+01
   0.608E-01 0.123E+03 0.576E+02   -.316E-01 -.136E+03 -.540E+02   -.282E-01 0.108E+02 -.314E+01
   0.218E-04 0.123E+03 0.647E+02   -.598E-14 -.136E+03 -.614E+02   0.000E+00 0.107E+02 -.290E+01
   0.834E-05 0.125E+03 0.606E+02   0.299E-13 -.137E+03 -.571E+02   0.000E+00 0.110E+02 -.299E+01
   -.510E+01 0.132E+03 0.681E+02   0.490E+01 -.144E+03 -.645E+02   0.180E+00 0.106E+02 -.303E+01
   -.608E-01 0.123E+03 0.576E+02   0.316E-01 -.136E+03 -.540E+02   0.282E-01 0.108E+02 -.314E+01
   -.393E-05 -.124E+03 -.642E+02   0.559E-13 0.136E+03 0.608E+02   0.000E+00 -.110E+02 0.293E+01
   -.111E+01 -.121E+03 -.639E+02   0.128E+01 0.133E+03 0.605E+02   -.147E+00 -.108E+02 0.291E+01
   0.137E+02 -.120E+03 -.638E+02   -.139E+02 0.132E+03 0.604E+02   0.104E+00 -.109E+02 0.291E+01
   0.111E+01 -.121E+03 -.639E+02   -.128E+01 0.133E+03 0.605E+02   0.147E+00 -.108E+02 0.291E+01
   -.137E+02 -.120E+03 -.638E+02   0.139E+02 0.132E+03 0.604E+02   -.104E+00 -.109E+02 0.291E+01
   -.504E-04 -.964E+02 -.552E+02   -.142E-13 0.101E+03 0.528E+02   0.000E+00 -.416E+01 0.225E+01
 -----------------------------------------------------------------------------------------------
   -.830E-04 0.118E+01 0.666E+01   0.203E-12 0.372E-11 0.125E-11   0.000E+00 -.201E+01 -.601E+01
 
 
 POSITION                                       TOTAL-FORCE (eV/Angst)
 -----------------------------------------------------------------------------------
      0.00000      7.65896     -1.76721         0.000000      0.063599      0.013052
      0.00000      6.28214     -7.42095         0.000000      0.077365      0.006453
      3.04917      7.65877     -1.76856         0.003188      0.064426      0.013072
      3.04910      6.27883     -7.41905         0.003897      0.073816      0.005060
      6.09353      7.65877     -1.76856        -0.003188      0.064426      0.013072
      6.09360      6.27883     -7.41905        -0.003897      0.073816      0.005060
      1.52433      9.37127     -3.87665        -0.001337     -0.093852      0.014347
      1.52490      7.99049     -9.53203        -0.001468     -0.061974     -0.013403
      4.57135      9.37366     -3.87812         0.000000     -0.086525      0.011437
      4.57135      7.99673     -9.53057         0.000000     -0.074885     -0.009659
      7.61837      9.37127     -3.87665         0.001337     -0.093852      0.014347
      7.61780      7.99049     -9.53203         0.001468     -0.061974     -0.013403
      1.52372      6.15684     -4.49380        -0.001207     -0.037965      0.015948
      1.52351      4.77360    -10.14328         0.004361     -0.021361      0.004919
      4.57135      6.15071     -4.49258         0.000000     -0.028555      0.017179
      4.57135      4.78194    -10.14355         0.000000     -0.025179      0.010028
      7.61898      6.15684     -4.49380         0.001207     -0.037965      0.015948
      7.61919      4.77360    -10.14328        -0.004361     -0.021361      0.004919
      0.00000     10.87471     -1.15493         0.000000      0.021851      0.006262
      0.00000      9.49383     -6.80737         0.000000     -0.016575     -0.035123
      3.04781     10.87621     -1.15718        -0.004635      0.021166     -0.000091
      3.04790      9.49313     -6.80403         0.009199      0.002595     -0.035787
      6.09489     10.87621     -1.15718         0.004635      0.021166     -0.000091
      6.09480      9.49313     -6.80403        -0.009199      0.002595     -0.035787
      1.52383      1.51860     -1.76346         0.009790      0.068325      0.035042
      1.53074      0.15844     -7.41299         0.338552     -0.004304     -0.262598
      4.57135      1.51595     -1.76894         0.000000      0.074777      0.024163
      4.57135      0.13356     -7.42046         0.000000      0.068785     -0.013411
      7.61887      1.51860     -1.76346        -0.009790      0.068325      0.035042
      7.61196      0.15844     -7.41299        -0.338552     -0.004304     -0.262598
      0.00000      3.23419     -3.87565         0.000000     -0.020154     -0.015500
      0.00000      1.84814     -9.54542         0.000000     -0.056722     -0.073776
      3.04833      3.22854     -3.88066        -0.004964     -0.052314     -0.008126
      3.04988      1.85833     -9.53584         0.005075     -0.055763     -0.043048
      6.09438      3.22854     -3.88066         0.004964     -0.052314     -0.008126
      6.09282      1.85833     -9.53584        -0.005075     -0.055763     -0.043048
      0.00000      0.01883     -4.46139         0.000000     -0.152348      0.513814
      0.00000     -1.36955    -10.14598         0.000000     -0.038127     -0.004539
      3.04608      0.01014     -4.49491         0.037134     -0.012556      0.062332
      3.04503     -1.36402    -10.13898        -0.007001     -0.036697      0.000110
      6.09662      0.01014     -4.49491        -0.037134     -0.012556      0.062332
      6.09768     -1.36402    -10.13898         0.007001     -0.036697      0.000110
      1.52590      4.74178     -1.16575         0.001089      0.022774     -0.005673
      1.52467      3.36650     -6.81795         0.024155      0.082639      0.013809
      4.57135      4.73596     -1.15959         0.000000      0.026062     -0.015050
      4.57135      3.35017     -6.80916         0.000000      0.045336     -0.011015
      7.61681      4.74178     -1.16575        -0.001089      0.022774     -0.005673
      7.61803      3.36650     -6.81795        -0.024155      0.082639      0.013809
      1.52336     11.88266     -1.42848        -0.000513     -0.170147      0.104282
      1.52323     10.49780     -7.09931        -0.034121     -0.104431      0.180635
      4.57135     11.88263     -1.43648         0.000000     -0.168683      0.109682
      4.57135     10.49525     -7.09130         0.000000     -0.155077      0.127250
      7.61934     11.88266     -1.42848         0.000513     -0.170147      0.104282
      7.61947     10.49780     -7.09931         0.034121     -0.104431      0.180635
      0.00000      5.14867     -4.21612         0.000000      0.176474     -0.115418
      0.00000      3.76852     -9.86787         0.000000      0.171674     -0.107727
      3.04467      5.14508     -4.21574         0.009940      0.175730     -0.117130
      3.05048      3.77379     -9.86648        -0.004297      0.167231     -0.106765
      6.09803      5.14508     -4.21574        -0.009940      0.175730     -0.117130
      6.09222      3.77379     -9.86648         0.004297      0.167231     -0.106765
      1.52386      7.47896     -3.16887         0.000148     -0.026169     -0.120801
      1.52524      6.09782     -8.81821        -0.001469     -0.031606     -0.109846
      4.57135      7.47718     -3.17064         0.000000     -0.026349     -0.115718
      4.57135      6.10270     -8.81675         0.000000     -0.034367     -0.110870
      7.61884      7.47896     -3.16887        -0.000148     -0.026169     -0.120801
      7.61746      6.09782     -8.81821         0.001469     -0.031606     -0.109846
      0.00000      9.54776     -2.47616         0.000000      0.035181      0.106582
      0.00000      8.16930     -8.13239         0.000000      0.035863      0.128938
      3.05047      9.54743     -2.47658        -0.001764      0.039375      0.103146
      3.04716      8.17043     -8.13089         0.002001      0.042758      0.120913
      6.09223      9.54743     -2.47658         0.001764      0.039375      0.103146
      6.09554      8.17043     -8.13089        -0.002001      0.042758      0.120913
      0.00000      8.98512     -5.03725         0.000000      0.408005     -0.076256
      0.00000      7.59469    -10.68632         0.000000      0.400124     -0.072090
      3.04720      8.98229     -5.03615        -0.005231      0.412847     -0.079091
      3.04939      7.59802    -10.68743        -0.000736      0.401836     -0.071443
      6.09550      8.98229     -5.03615         0.005231      0.412847     -0.079091
      6.09331      7.59802    -10.68743         0.000736      0.401836     -0.071443
      1.52460      8.04972     -0.61243        -0.002750     -0.397813      0.070899
      1.52441      6.66998     -6.26218        -0.001030     -0.396574      0.071784
      4.57135      8.05355     -0.61292         0.000000     -0.399115      0.070302
      4.57135      6.67023     -6.25957         0.000000     -0.399096      0.071797
      7.61810      8.04972     -0.61243         0.002750     -0.397813      0.070899
      7.61829      6.66998     -6.26218         0.001030     -0.396574      0.071784
      0.00000      5.74253     -1.44598         0.000000     -0.168086      0.112916
      0.00000      4.36909     -7.08886         0.000000     -0.182198      0.105211
      3.05067      5.74361     -1.44434        -0.002711     -0.172504      0.114127
      3.05176      4.36394     -7.08542        -0.013841     -0.179334      0.108589
      6.09203      5.74361     -1.44434         0.002711     -0.172504      0.114127
      6.09094      4.36394     -7.08542         0.013841     -0.179334      0.108589
      1.52960     -0.99614     -4.17531        -0.028538      0.207145     -0.192845
      1.52444     -2.37566     -9.86302         0.001227      0.181256     -0.121751
      4.57135     -0.99258     -4.20549         0.000000      0.171972     -0.131765
      4.57135     -2.36768     -9.86137         0.000000      0.172293     -0.108683
      7.61310     -0.99614     -4.17531         0.028538      0.207145     -0.192845
      7.61826     -2.37566     -9.86302        -0.001227      0.181256     -0.121751
      0.00000      1.34658     -3.14463         0.000000     -0.080333     -0.175578
      0.00000     -0.03127     -8.85658         0.000000     -0.000164     -0.037725
      3.04481      1.34014     -3.17020        -0.000388     -0.041703     -0.122605
      3.04412     -0.03587     -8.81716        -0.002842     -0.028508     -0.088634
      6.09790      1.34014     -3.17020         0.000388     -0.041703     -0.122605
      6.09858     -0.03587     -8.81716         0.002842     -0.028508     -0.088634
      1.52662      3.41476     -2.48811        -0.007337      0.022259      0.106024
      1.52866      2.05283     -8.14893        -0.026134     -0.022049      0.181902
      4.57135      3.40907     -2.48138         0.000000      0.027812      0.108787
      4.57135      2.03363     -8.13814         0.000000      0.035716      0.122859
      7.61608      3.41476     -2.48811         0.007337      0.022259      0.106024
      7.61405      2.05283     -8.14893         0.026134     -0.022049      0.181902
      1.51511      2.83573     -5.04907        -0.017532      0.355801     -0.087907
      1.53021      1.46780    -10.69826        -0.005144      0.396026     -0.066058
      4.57135      2.84595     -5.03816         0.000000      0.380226     -0.074330
      4.57135      1.45834    -10.69130         0.000000      0.402838     -0.067918
      7.62760      2.83573     -5.04907         0.017532      0.355801     -0.087907
      7.61250      1.46780    -10.69826         0.005144      0.396026     -0.066058
      0.00000      1.91707     -0.61077         0.000000     -0.407996      0.057825
      3.04778      1.91127     -0.61025        -0.003512     -0.400573      0.066787
      3.06817      0.52944     -6.25957        -0.066187     -0.400985      0.066580
      6.09492      1.91127     -0.61025         0.003512     -0.400573      0.066787
      6.07453      0.52944     -6.25957         0.066187     -0.400985      0.066580
      0.00000      0.49991     -6.25854         0.000000     -0.253065      0.034205
 -----------------------------------------------------------------------------------
    total drift:                               -0.000083      0.072797     -0.041514


--------------------------------------------------------------------------------------------------------



  FREE ENERGIE OF THE ION-ELECTRON SYSTEM (eV)
  ---------------------------------------------------
  free  energy   TOTEN  =      -955.58956900 eV

  energy  without entropy=     -955.56331462  energy(sigma->0) =     -955.57644181
 


--------------------------------------------------------------------------------------------------------


    POTLOK:  cpu time      1.9679: real time      1.9747


--------------------------------------------------------------------------------------------------------


 writing wavefunctions
     LOOP+:  cpu time  17068.3583: real time  17066.2474
    4ORBIT:  cpu time      0.0000: real time      0.0000

 total amount of memory used by VASP MPI-rank0  7512543. kBytes
=======================================================================

   base      :      30000. kBytes
   nonlr-proj:      47168. kBytes
   fftplans  :      51012. kBytes
   grid      :     102973. kBytes
   one-center:       1866. kBytes
   HF        :        194. kBytes
   wavefun   :    7050060. kBytes
   fock_wrk  :     229270. kBytes
 
  
  
 General timing and accounting informations for this job:
 ========================================================
  
                  Total CPU time used (sec):    17099.246
                            User time (sec):    17084.957
                          System time (sec):       14.290
                         Elapsed time (sec):    17097.525
  
                   Maximum memory used (kb):    13309888.
                   Average memory used (kb):          N/A
  
                          Minor page faults:      8603567
                          Major page faults:            4
                 Voluntary context switches:       313048
