<?xml version="1.0" encoding="ISO-8859-1"?>
<modeling>
 <generator>
  <i name="program" type="string">vasp </i>
  <i name="version" type="string">6.4.2  </i>
  <i name="subversion" type="string">20Jul23 (build Nov 12 2023 22:16:35) complex                          parallel </i>
  <i name="platform" type="string">LinuxNV </i>
  <i name="date" type="string">2025 03 23 </i>
  <i name="time" type="string">23:47:48 </i>
 </generator>
 <incar>
  <i type="int" name="ISTART">     0</i>
  <i type="string" name="PREC">Normal</i>
  <i type="string" name="ALGO">All</i>
  <i type="int" name="ISPIN">     1</i>
  <i type="int" name="ICHARG">     0</i>
  <i type="int" name="NELM">   500</i>
  <i type="int" name="IBRION">    -1</i>
  <i name="EDIFF">      0.00001000</i>
  <i name="EDIFFG">     -0.00500000</i>
  <i type="int" name="NSW">     0</i>
  <i type="int" name="ISIF">     2</i>
  <i name="ENCUT">    450.00000000</i>
  <i type="string" name="LREAL">Auto</i>
  <i type="logical" name="LPLANE"> T  </i>
  <i name="TIME">      0.40000000</i>
  <i type="int" name="ISMEAR">     0</i>
  <i name="SIGMA">      0.05000000</i>
  <i type="logical" name="LWAVE"> T  </i>
  <i type="logical" name="LCHARG"> T  </i>
  <i name="HFSCREEN">      0.20000000</i>
  <i type="logical" name="LHFCALC"> T  </i>
  <i type="int" name="LMAXFOCK">     4</i>
  <i name="AEXX">      0.32000000</i>
  <i type="string" name="PRECFOCK">Fast</i>
 </incar>
 <primitive_cell>
  <structure name="primitive_cell" >
   <crystal>
    <varray name="basis" >
     <v>       0.00000000      12.28047342       0.00000000 </v>
     <v>       9.14270205       0.00000000       0.00000000 </v>
     <v>       0.00000000      -2.76826177     -11.30069772 </v>
    </varray>
    <i name="volume">   1268.80515525 </i>
    <varray name="rec_basis" >
     <v>       0.00000000       0.08143009      -0.01994742 </v>
     <v>       0.10937686      -0.00000000       0.00000000 </v>
     <v>       0.00000000       0.00000000      -0.08849011 </v>
    </varray>
   </crystal>
   <varray name="positions" >
    <v>       0.65892151       0.00000000       0.15638088 </v>
    <v>       0.65958435       0.00000000       0.65668070 </v>
    <v>       0.65893231       0.33350896       0.15650005 </v>
    <v>       0.65927650       0.33350079       0.65651270 </v>
    <v>       0.65893231       0.66649104       0.15650005 </v>
    <v>       0.65927650       0.66649921       0.65651270 </v>
    <v>       0.84043268       0.16672625       0.34304562 </v>
    <v>       0.84080573       0.16678863       0.84349027 </v>
    <v>       0.84065614       0.50000000       0.34317541 </v>
    <v>       0.84128484       0.50000000       0.84336151 </v>
    <v>       0.84043268       0.83327375       0.34304562 </v>
    <v>       0.84080573       0.83321137       0.84349027 </v>
    <v>       0.59099145       0.16665960       0.39765706 </v>
    <v>       0.59104695       0.16663664       0.89757999 </v>
    <v>       0.59046792       0.50000000       0.39754885 </v>
    <v>       0.59173131       0.50000000       0.89760410 </v>
    <v>       0.59099145       0.83334040       0.39765706 </v>
    <v>       0.59104695       0.83336336       0.89757999 </v>
    <v>       0.90856631       0.00000000       0.10220020 </v>
    <v>       0.90887289       0.00000000       0.60238510 </v>
    <v>       0.90873357       0.33335999       0.10239865 </v>
    <v>       0.90874890       0.33337024       0.60208924 </v>
    <v>       0.90873357       0.66664001       0.10239865 </v>
    <v>       0.90874890       0.66662976       0.60208924 </v>
    <v>       0.15883637       0.16667222       0.15604858 </v>
    <v>       0.16077173       0.16742770       0.65597666 </v>
    <v>       0.15872949       0.50000000       0.15653373 </v>
    <v>       0.15889444       0.50000000       0.65663703 </v>
    <v>       0.15883637       0.83332778       0.15604858 </v>
    <v>       0.16077173       0.83257230       0.65597666 </v>
    <v>       0.34067002       0.00000000       0.34295694 </v>
    <v>       0.34090104       0.00000000       0.84467541 </v>
    <v>       0.34030924       0.33341634       0.34340037 </v>
    <v>       0.34153897       0.33358677       0.84382725 </v>
    <v>       0.34030924       0.66658366       0.34340037 </v>
    <v>       0.34153897       0.66641323       0.84382725 </v>
    <v>       0.09052658       0.00000000       0.39478880 </v>
    <v>       0.09086328       0.00000000       0.89781878 </v>
    <v>       0.09048748       0.33317041       0.39775476 </v>
    <v>       0.09117443       0.33305539       0.89719928 </v>
    <v>       0.09048748       0.66682959       0.39775476 </v>
    <v>       0.09117443       0.66694461       0.89719928 </v>
    <v>       0.40937763       0.16689774       0.10315729 </v>
    <v>       0.41013515       0.16676354       0.60332124 </v>
    <v>       0.40878073       0.50000000       0.10261212 </v>
    <v>       0.40863010       0.50000000       0.60254337 </v>
    <v>       0.40937763       0.83310226       0.10315729 </v>
    <v>       0.41013515       0.83323646       0.60332124 </v>
    <v>       0.99610044       0.16662003       0.12640605 </v>
    <v>       0.99644974       0.16660634       0.62821866 </v>
    <v>       0.99625740       0.50000000       0.12711452 </v>
    <v>       0.99608212       0.50000000       0.62750957 </v>
    <v>       0.99610044       0.83337997       0.12640605 </v>
    <v>       0.99644974       0.83339366       0.62821866 </v>
    <v>       0.50335718       0.00000000       0.37308460 </v>
    <v>       0.50370973       0.00000000       0.87320849 </v>
    <v>       0.50305747       0.33301643       0.37305139 </v>
    <v>       0.50411101       0.33365233       0.87308601 </v>
    <v>       0.50305747       0.66698357       0.37305139 </v>
    <v>       0.50411101       0.66634767       0.87308601 </v>
    <v>       0.67222279       0.16667477       0.28041384 </v>
    <v>       0.67244619       0.16682611       0.78032450 </v>
    <v>       0.67211326       0.50000000       0.28057016 </v>
    <v>       0.67281497       0.50000000       0.78019489 </v>
    <v>       0.67222279       0.83332523       0.28041384 </v>
    <v>       0.67244619       0.83317389       0.78032450 </v>
    <v>       0.82686771       0.00000000       0.21911561 </v>
    <v>       0.82744669       0.00000000       0.71963644 </v>
    <v>       0.82684970       0.33365102       0.21915301 </v>
    <v>       0.82750933       0.33328884       0.71950351 </v>
    <v>       0.82684970       0.66634898       0.21915301 </v>
    <v>       0.82750933       0.66671116       0.71950351 </v>
    <v>       0.83213896       0.00000000       0.44574700 </v>
    <v>       0.83160073       0.00000000       0.94563327 </v>
    <v>       0.83188653       0.33329313       0.44564981 </v>
    <v>       0.83189385       0.33353250       0.94573172 </v>
    <v>       0.83188653       0.66670687       0.44564981 </v>
    <v>       0.83189385       0.66646750       0.94573172 </v>
    <v>       0.66770565       0.16675577       0.05419386 </v>
    <v>       0.66805164       0.16673486       0.55414082 </v>
    <v>       0.66802776       0.50000000       0.05423774 </v>
    <v>       0.66801969       0.50000000       0.55391001 </v>
    <v>       0.66770565       0.83324423       0.05419386 </v>
    <v>       0.66805164       0.83326514       0.55414082 </v>
    <v>       0.49645836       0.00000000       0.12795512 </v>
    <v>       0.49718033       0.00000000       0.62729440 </v>
    <v>       0.49651388       0.33367247       0.12780990 </v>
    <v>       0.49669220       0.33379178       0.62698933 </v>
    <v>       0.49651388       0.66632753       0.12780990 </v>
    <v>       0.49669220       0.66620822       0.62698933 </v>
    <v>       0.00217080       0.16730264       0.36947372 </v>
    <v>       0.00329124       0.16673833       0.87277947 </v>
    <v>       0.00306244       0.50000000       0.37214422 </v>
    <v>       0.00390844       0.50000000       0.87263386 </v>
    <v>       0.00217080       0.83269736       0.36947372 </v>
    <v>       0.00329124       0.83326167       0.87277947 </v>
    <v>       0.17237955       0.00000000       0.27826850 </v>
    <v>       0.17411937       0.00000000       0.78371933 </v>
    <v>       0.17236494       0.33303121       0.28053163 </v>
    <v>       0.17295884       0.33295611       0.78023112 </v>
    <v>       0.17236494       0.66696879       0.28053163 </v>
    <v>       0.17295884       0.66704389       0.78023112 </v>
    <v>       0.32769568       0.16697719       0.22017279 </v>
    <v>       0.32971204       0.16719969       0.72109983 </v>
    <v>       0.32709819       0.50000000       0.21957792 </v>
    <v>       0.32793316       0.50000000       0.72014473 </v>
    <v>       0.32769568       0.83302281       0.22017279 </v>
    <v>       0.32971204       0.83280031       0.72109983 </v>
    <v>       0.33162991       0.16571754       0.44679302 </v>
    <v>       0.33292590       0.16736916       0.94669037 </v>
    <v>       0.33224449       0.50000000       0.44582758 </v>
    <v>       0.33201639       0.50000000       0.94607424 </v>
    <v>       0.33162991       0.83428246       0.44679302 </v>
    <v>       0.33292590       0.83263084       0.94669037 </v>
    <v>       0.16829044       0.00000000       0.05404728 </v>
    <v>       0.16780801       0.33335711       0.05400081 </v>
    <v>       0.16797435       0.33558655       0.55391005 </v>
    <v>       0.16780801       0.66664289       0.05400081 </v>
    <v>       0.16797435       0.66441345       0.55391005 </v>
    <v>       0.16554926       0.00000000       0.55381908 </v>
   </varray>
  </structure>
  <varray name="primitive_index" >
   <v type="int" >        1 </v>
   <v type="int" >        2 </v>
   <v type="int" >        3 </v>
   <v type="int" >        4 </v>
   <v type="int" >        5 </v>
   <v type="int" >        6 </v>
   <v type="int" >        7 </v>
   <v type="int" >        8 </v>
   <v type="int" >        9 </v>
   <v type="int" >       10 </v>
   <v type="int" >       11 </v>
   <v type="int" >       12 </v>
   <v type="int" >       13 </v>
   <v type="int" >       14 </v>
   <v type="int" >       15 </v>
   <v type="int" >       16 </v>
   <v type="int" >       17 </v>
   <v type="int" >       18 </v>
   <v type="int" >       19 </v>
   <v type="int" >       20 </v>
   <v type="int" >       21 </v>
   <v type="int" >       22 </v>
   <v type="int" >       23 </v>
   <v type="int" >       24 </v>
   <v type="int" >       25 </v>
   <v type="int" >       26 </v>
   <v type="int" >       27 </v>
   <v type="int" >       28 </v>
   <v type="int" >       29 </v>
   <v type="int" >       30 </v>
   <v type="int" >       31 </v>
   <v type="int" >       32 </v>
   <v type="int" >       33 </v>
   <v type="int" >       34 </v>
   <v type="int" >       35 </v>
   <v type="int" >       36 </v>
   <v type="int" >       37 </v>
   <v type="int" >       38 </v>
   <v type="int" >       39 </v>
   <v type="int" >       40 </v>
   <v type="int" >       41 </v>
   <v type="int" >       42 </v>
   <v type="int" >       43 </v>
   <v type="int" >       44 </v>
   <v type="int" >       45 </v>
   <v type="int" >       46 </v>
   <v type="int" >       47 </v>
   <v type="int" >       48 </v>
   <v type="int" >       49 </v>
   <v type="int" >       50 </v>
   <v type="int" >       51 </v>
   <v type="int" >       52 </v>
   <v type="int" >       53 </v>
   <v type="int" >       54 </v>
   <v type="int" >       55 </v>
   <v type="int" >       56 </v>
   <v type="int" >       57 </v>
   <v type="int" >       58 </v>
   <v type="int" >       59 </v>
   <v type="int" >       60 </v>
   <v type="int" >       61 </v>
   <v type="int" >       62 </v>
   <v type="int" >       63 </v>
   <v type="int" >       64 </v>
   <v type="int" >       65 </v>
   <v type="int" >       66 </v>
   <v type="int" >       67 </v>
   <v type="int" >       68 </v>
   <v type="int" >       69 </v>
   <v type="int" >       70 </v>
   <v type="int" >       71 </v>
   <v type="int" >       72 </v>
   <v type="int" >       73 </v>
   <v type="int" >       74 </v>
   <v type="int" >       75 </v>
   <v type="int" >       76 </v>
   <v type="int" >       77 </v>
   <v type="int" >       78 </v>
   <v type="int" >       79 </v>
   <v type="int" >       80 </v>
   <v type="int" >       81 </v>
   <v type="int" >       82 </v>
   <v type="int" >       83 </v>
   <v type="int" >       84 </v>
   <v type="int" >       85 </v>
   <v type="int" >       86 </v>
   <v type="int" >       87 </v>
   <v type="int" >       88 </v>
   <v type="int" >       89 </v>
   <v type="int" >       90 </v>
   <v type="int" >       91 </v>
   <v type="int" >       92 </v>
   <v type="int" >       93 </v>
   <v type="int" >       94 </v>
   <v type="int" >       95 </v>
   <v type="int" >       96 </v>
   <v type="int" >       97 </v>
   <v type="int" >       98 </v>
   <v type="int" >       99 </v>
   <v type="int" >      100 </v>
   <v type="int" >      101 </v>
   <v type="int" >      102 </v>
   <v type="int" >      103 </v>
   <v type="int" >      104 </v>
   <v type="int" >      105 </v>
   <v type="int" >      106 </v>
   <v type="int" >      107 </v>
   <v type="int" >      108 </v>
   <v type="int" >      109 </v>
   <v type="int" >      110 </v>
   <v type="int" >      111 </v>
   <v type="int" >      112 </v>
   <v type="int" >      113 </v>
   <v type="int" >      114 </v>
   <v type="int" >      115 </v>
   <v type="int" >      116 </v>
   <v type="int" >      117 </v>
   <v type="int" >      118 </v>
   <v type="int" >      119 </v>
   <v type="int" >      120 </v>
  </varray>
 </primitive_cell>
 <kpoints>
  <generation param="Gamma">
   <v type="int" name="divisions">       2        2        2 </v>
   <v name="usershift">      0.00000000       0.00000000       0.00000000 </v>
   <v name="genvec1">      0.50000000       0.00000000       0.00000000 </v>
   <v name="genvec2">      0.00000000       0.50000000       0.00000000 </v>
   <v name="genvec3">      0.00000000       0.00000000       0.50000000 </v>
   <v name="shift">      0.00000000       0.00000000       0.00000000 </v>
  </generation>
  <varray name="kpointlist" >
   <v>       0.00000000       0.00000000       0.00000000 </v>
   <v>       0.50000000       0.00000000       0.00000000 </v>
   <v>       0.00000000       0.50000000       0.00000000 </v>
   <v>       0.50000000       0.50000000       0.00000000 </v>
   <v>       0.00000000       0.00000000       0.50000000 </v>
   <v>       0.50000000       0.00000000       0.50000000 </v>
   <v>       0.00000000       0.50000000       0.50000000 </v>
   <v>       0.50000000       0.50000000       0.50000000 </v>
  </varray>
  <varray name="weights" >
   <v>       0.12500000 </v>
   <v>       0.12500000 </v>
   <v>       0.12500000 </v>
   <v>       0.12500000 </v>
   <v>       0.12500000 </v>
   <v>       0.12500000 </v>
   <v>       0.12500000 </v>
   <v>       0.12500000 </v>
  </varray>
 </kpoints>
 <parameters>
  <separator name="general" >
   <i type="string" name="SYSTEM">unknown system</i>
   <i type="logical" name="LCOMPAT"> F  </i>
  </separator>
  <separator name="electronic" >
   <i type="string" name="PREC">normal</i>
   <i name="ENMAX">    450.00000000</i>
   <i name="ENAUG">    627.11200000</i>
   <i name="EDIFF">      0.00001000</i>
   <i type="int" name="IALGO">    58</i>
   <i type="int" name="IWAVPR">    10</i>
   <i type="int" name="NBANDS">   633</i>
   <i type="int" name="NBANDSLOW">    -1</i>
   <i type="int" name="NBANDSHIGH">    -1</i>
   <i name="NELECT">   1055.00000000</i>
   <i type="int" name="TURBO">     0</i>
   <i type="int" name="IRESTART">     0</i>
   <i type="int" name="NREBOOT">     0</i>
   <i type="int" name="NMIN">     0</i>
   <i name="EREF">      0.00000000</i>
   <separator name="electronic smearing" >
    <i type="int" name="ISMEAR">     0</i>
    <i name="SIGMA">      0.05000000</i>
    <i name="KSPACING">      0.50000000</i>
    <i type="logical" name="KGAMMA"> T  </i>
    <i type="logical" name="KBLOWUP"> T  </i>
   </separator>
   <separator name="electronic projectors" >
    <i type="logical" name="LREAL"> T  </i>
    <v name="ROPT">     -0.00050000     -0.00050000     -0.00050000</v>
    <i type="int" name="LMAXPAW">  -100</i>
    <i type="int" name="LMAXMIX">     2</i>
    <i type="logical" name="NLSPLINE"> F  </i>
   </separator>
   <separator name="electronic startup" >
    <i type="int" name="ISTART">     0</i>
    <i type="int" name="ICHARG">     0</i>
    <i type="int" name="INIWAV">     1</i>
   </separator>
   <separator name="electronic spin" >
    <i type="int" name="ISPIN">     1</i>
    <i type="logical" name="LNONCOLLINEAR"> F  </i>
    <v name="MAGMOM">      1.00000000      1.00000000      1.00000000      1.00000000      1.00000000      1.00000000      1.00000000      1.00000000      1.00000000      1.00000000      1.00000000      1.00000000      1.00000000      1.00000000      1.00000000      1.00000000      1.00000000      1.00000000      1.00000000      1.00000000
      1.00000000      1.00000000      1.00000000      1.00000000      1.00000000      1.00000000      1.00000000      1.00000000      1.00000000      1.00000000      1.00000000      1.00000000      1.00000000      1.00000000      1.00000000      1.00000000      1.00000000      1.00000000      1.00000000      1.00000000
      1.00000000      1.00000000      1.00000000      1.00000000      1.00000000      1.00000000      1.00000000      1.00000000      1.00000000      1.00000000      1.00000000      1.00000000      1.00000000      1.00000000      1.00000000      1.00000000      1.00000000      1.00000000      1.00000000      1.00000000
      1.00000000      1.00000000      1.00000000      1.00000000      1.00000000      1.00000000      1.00000000      1.00000000      1.00000000      1.00000000      1.00000000      1.00000000      1.00000000      1.00000000      1.00000000      1.00000000      1.00000000      1.00000000      1.00000000      1.00000000
      1.00000000      1.00000000      1.00000000      1.00000000      1.00000000      1.00000000      1.00000000      1.00000000      1.00000000      1.00000000      1.00000000      1.00000000      1.00000000      1.00000000      1.00000000      1.00000000      1.00000000      1.00000000      1.00000000      1.00000000
      1.00000000      1.00000000      1.00000000      1.00000000      1.00000000      1.00000000      1.00000000      1.00000000      1.00000000      1.00000000      1.00000000      1.00000000      1.00000000      1.00000000      1.00000000      1.00000000      1.00000000      1.00000000      1.00000000      1.00000000
</v>
    <i name="NUPDOWN">     -1.00000000</i>
    <i type="logical" name="LSORBIT"> F  </i>
    <v name="SAXIS">      0.00000000      0.00000000      1.00000000</v>
    <i type="logical" name="LSPIRAL"> F  </i>
    <v name="QSPIRAL">      0.00000000      0.00000000      0.00000000</v>
    <i type="logical" name="LZEROZ"> F  </i>
   </separator>
   <separator name="electronic exchange-correlation" >
    <i type="logical" name="LASPH"> F  </i>
    <i type="logical" name="LMETAGGA"> F  </i>
   </separator>
   <separator name="electronic convergence" >
    <i type="int" name="NELM">   500</i>
    <i type="int" name="NELMDL">    -5</i>
    <i type="int" name="NELMIN">     2</i>
    <i name="ENINI">    450.00000000</i>
    <separator name="electronic convergence detail" >
     <i type="logical" name="LDIAG"> T  </i>
     <i type="logical" name="LSUBROT"> F  </i>
     <i name="WEIMIN">      0.00000000</i>
     <i name="EBREAK">      0.00000000</i>
     <i name="DEPER">      0.30000000</i>
     <i type="int" name="NRMM">     4</i>
     <i name="TIME">      0.40000000</i>
    </separator>
   </separator>
   <separator name="electronic mixer" >
    <i name="AMIX">      0.40000000</i>
    <i name="BMIX">      1.00000000</i>
    <i name="AMIN">      0.10000000</i>
    <i name="AMIX_MAG">      1.60000000</i>
    <i name="BMIX_MAG">      1.00000000</i>
    <separator name="electronic mixer details" >
     <i type="int" name="IMIX">     4</i>
     <i type="logical" name="MIXFIRST"> F  </i>
     <i type="int" name="MAXMIX">   -45</i>
     <i name="WC">    100.00000000</i>
     <i type="int" name="INIMIX">     1</i>
     <i type="int" name="MIXPRE">     1</i>
     <i type="int" name="MREMOVE">     5</i>
    </separator>
   </separator>
   <separator name="electronic dipolcorrection" >
    <i type="logical" name="LDIPOL"> F  </i>
    <i type="logical" name="LMONO"> F  </i>
    <i type="int" name="IDIPOL">     0</i>
    <i name="EPSILON">      1.00000000</i>
    <v name="DIPOL">   -100.00000000   -100.00000000   -100.00000000</v>
    <i name="EFIELD">      0.00000000</i>
   </separator>
  </separator>
  <separator name="grids" >
   <i type="int" name="NGX">    64</i>
   <i type="int" name="NGY">    48</i>
   <i type="int" name="NGZ">    60</i>
   <i type="int" name="NGXF">   128</i>
   <i type="int" name="NGYF">    96</i>
   <i type="int" name="NGZF">   120</i>
   <i type="logical" name="ADDGRID"> F  </i>
  </separator>
  <separator name="ionic" >
   <i type="int" name="NSW">     0</i>
   <i type="int" name="IBRION">    -1</i>
   <i type="int" name="MDALGO">     0</i>
   <i type="int" name="ISIF">     2</i>
   <i name="PSTRESS">      0.00000000</i>
   <i name="EDIFFG">     -0.00500000</i>
   <i type="int" name="NFREE">     0</i>
   <i name="POTIM">      0.50000000</i>
   <i name="SMASS">     -3.00000000</i>
   <i name="SCALEE">      1.00000000</i>
  </separator>
  <separator name="ionic md" >
   <i name="TEBEG">      0.00010000</i>
   <i name="TEEND">      0.00010000</i>
   <i type="int" name="NBLOCK">     1</i>
   <i type="int" name="KBLOCK">     1</i>
   <i type="int" name="NPACO">   256</i>
   <i name="APACO">     10.00000000</i>
  </separator>
  <separator name="symmetry" >
   <i type="int" name="ISYM">     3</i>
   <i name="SYMPREC">      0.00001000</i>
  </separator>
  <separator name="dos" >
   <i type="int" name="LORBIT">     0</i>
   <v name="RWIGS">     -1.00000000     -1.00000000     -1.00000000</v>
   <i type="int" name="NEDOS">   301</i>
   <i name="EMIN">     10.00000000</i>
   <i name="EMAX">    -10.00000000</i>
   <i name="EFERMI">      0.00000000</i>
  </separator>
  <separator name="writing" >
   <i type="int" name="NWRITE">     2</i>
   <i type="logical" name="LWAVE"> T  </i>
   <i type="logical" name="LDOWNSAMPLE"> F  </i>
   <i type="logical" name="LCHARG"> T  </i>
   <i type="logical" name="LPARD"> F  </i>
   <i type="logical" name="LVTOT"> F  </i>
   <i type="logical" name="LVHAR"> F  </i>
   <i type="logical" name="LELF"> F  </i>
   <i type="logical" name="LOPTICS"> F  </i>
   <v name="STM">      0.00000000      0.00000000      0.00000000      0.00000000      0.00000000      0.00000000      0.00000000</v>
  </separator>
  <separator name="performance" >
   <i type="int" name="NPAR">     1</i>
   <i type="int" name="NSIM">     4</i>
   <i type="int" name="NBLK">    -1</i>
   <i type="logical" name="LPLANE"> T  </i>
   <i type="logical" name="LSCALAPACK"> T  </i>
   <i type="logical" name="LSCAAWARE"> F  </i>
   <i type="logical" name="LSCALU"> F  </i>
   <i type="logical" name="LASYNC"> F  </i>
   <i type="logical" name="LORBITALREAL"> F  </i>
  </separator>
  <separator name="miscellaneous" >
   <i type="int" name="IDIOT">     3</i>
   <i type="int" name="PHON_NSTRUCT">    -1</i>
   <i type="logical" name="LMUSIC"> F  </i>
   <v name="POMASS">     69.72300000     16.00000000     14.00100000</v>
   <v name="DARWINR">      0.00000000      0.00000000      0.00000000</v>
   <v name="DARWINV">      1.00000000      1.00000000      1.00000000</v>
   <i type="logical" name="LCORR"> T  </i>
  </separator>
  <i type="logical" name="GGA_COMPAT"> T  </i>
  <i type="logical" name="LBERRY"> F  </i>
  <i type="int" name="ICORELEVEL">     0</i>
  <i type="logical" name="LDAU"> F  </i>
  <i type="int" name="I_CONSTRAINED_M">     0</i>
  <separator name="electronic exchange-correlation" >
   <i type="string" name="GGA">--</i>
   <i type="int" name="VOSKOWN">     0</i>
   <i type="logical" name="LHFCALC"> T  </i>
   <i type="string" name="PRECFOCK">fast</i>
   <i type="logical" name="LSYMGRAD"> F  </i>
   <i type="logical" name="LHFONE"> F  </i>
   <i type="logical" name="LRHFCALC"> F  </i>
   <i type="logical" name="LTHOMAS"> F  </i>
   <i type="logical" name="LMODELHF"> F  </i>
   <i type="logical" name="LFOCKACE"> T  </i>
   <i name="ENCUT4O">     -1.00000000</i>
   <i type="int" name="EXXOEP">     0</i>
   <i type="int" name="FOURORBIT">     0</i>
   <i name="AEXX">      0.32000000</i>
   <i name="HFALPHA">     -1.00000000</i>
   <i name="MCALPHA">      0.00000000</i>
   <i name="ALDAX">      0.68000000</i>
   <i name="AGGAX">      0.68000000</i>
   <i name="ALDAC">      1.00000000</i>
   <i name="AGGAC">      1.00000000</i>
   <i type="int" name="NKREDX">     1</i>
   <i type="int" name="NKREDY">     1</i>
   <i type="int" name="NKREDZ">     1</i>
   <i type="logical" name="SHIFTRED"> F  </i>
   <i type="logical" name="ODDONLY"> F  </i>
   <i type="logical" name="EVENONLY"> F  </i>
   <i type="int" name="LMAXFOCK">     4</i>
   <i type="int" name="NMAXFOCKAE">     1</i>
   <i type="logical" name="LFOCKAEDFT"> F  </i>
   <i name="HFSCREEN">      0.20000000</i>
   <i name="HFSCREENC">      0.20000000</i>
   <i type="int" name="NBANDSGWLOW">     1</i>
  </separator>
  <separator name="vdW DFT" >
   <i type="logical" name="LUSE_VDW"> F  </i>
   <i type="int" name="IVDW_NL">     1</i>
   <i type="logical" name="LSPIN_VDW"> F  </i>
   <i name="Zab_VDW">     -0.84910000</i>
   <i name="PARAM1">      0.12340000</i>
   <i name="PARAM2">      1.00000000</i>
   <i name="PARAM3">      0.00000000</i>
  </separator>
  <separator name="model GW" >
   <i type="int" name="MODEL_GW">     0</i>
   <i name="MODEL_EPS0">      6.34402578</i>
   <i name="MODEL_ALPHA">      1.00000000</i>
  </separator>
  <separator name="linear response parameters" >
   <i type="logical" name="LEPSILON"> F  </i>
   <i type="logical" name="LRPA"> F  </i>
   <i type="logical" name="LNABLA"> F  </i>
   <i type="logical" name="LVEL"> F  </i>
   <i name="CSHIFT">      0.10000000</i>
   <i name="OMEGAMAX">     -1.00000000</i>
   <i name="DEG_THRESHOLD">      0.00200000</i>
   <i name="RTIME">     -0.10000000</i>
   <i name="WPLASMAI">      0.00000000</i>
   <v name="DFIELD">      0.00000000      0.00000000      0.00000000</v>
   <v name="WPLASMA">      0.00000000      0.00000000      0.00000000      0.00000000      0.00000000      0.00000000      0.00000000      0.00000000      0.00000000</v>
  </separator>
  <separator name="orbital magnetization" >
   <i type="logical" name="NUCIND"> F  </i>
   <v name="MAGPOS">      0.00000000      0.00000000      0.00000000</v>
   <i type="logical" name="LNICSALL"> T  </i>
   <i type="logical" name="ORBITALMAG"> F  </i>
   <i type="logical" name="LMAGBLOCH"> F  </i>
   <i type="logical" name="LCHIMAG"> F  </i>
   <i type="logical" name="LGAUGE"> T  </i>
   <i type="int" name="MAGATOM">     0</i>
   <v name="MAGDIPOL">      0.00000000      0.00000000      0.00000000</v>
   <v name="AVECCONST">      0.00000000      0.00000000      0.00000000</v>
  </separator>
  <separator name="response functions" >
   <i type="logical" name="LALL_IN_ONE"> F  </i>
   <i type="int" name="IALL_IN_ONE">    -1</i>
   <i type="int" name="NBANDS_WAVE">    -1</i>
   <i type="logical" name="LFINITE_TEMPERATURE"> F  </i>
   <i type="logical" name="LADDER"> F  </i>
   <i type="logical" name="LRPAFORCE"> F  </i>
   <i type="logical" name="LFXC"> F  </i>
   <i type="logical" name="LHARTREE"> T  </i>
   <i type="int" name="IBSE">     0</i>
   <v type="int" name="KPOINT">    -1     0     0     0</v>
   <i type="logical" name="LTCTC"> F  </i>
   <i type="logical" name="LTCTE"> F  </i>
   <i type="logical" name="LTETE"> F  </i>
   <i type="logical" name="LTRIPLET"> F  </i>
   <i type="logical" name="LFXCEPS"> F  </i>
   <i type="logical" name="LFXHEG"> F  </i>
   <i type="int" name="NATURALO">     2</i>
   <i type="logical" name="LHOLEGF"> F  </i>
   <i type="logical" name="L2ORDER"> F  </i>
   <i type="logical" name="LDMP1"> F  </i>
   <i type="logical" name="LMP2LT"> F  </i>
   <i type="logical" name="LSMP2LT"> F  </i>
   <i type="logical" name="LGWLF"> F  </i>
   <i name="ENCUTGW">     -1.60000002</i>
   <i name="ENCUTGWSOFT">     -1.60000002</i>
   <i name="ENCUTLF">     -1.00000000</i>
   <i type="logical" name="LESF_SPLINES"> F  </i>
   <i type="int" name="LMAXMP2">    -1</i>
   <i name="SCISSOR">      0.00000000</i>
   <i type="int" name="NOMEGA">     0</i>
   <i type="int" name="NOMEGAR">     0</i>
   <i type="int" name="NBANDSGW">    -1</i>
   <i type="int" name="NBANDSO">    -1</i>
   <i type="int" name="NBANDSV">    -1</i>
   <i type="int" name="NELMGW">     1</i>
   <i type="int" name="NELMHF">     1</i>
   <i type="int" name="DIM">     3</i>
   <i type="int" name="IESPILON">     4</i>
   <i type="int" name="ANTIRES">     0</i>
   <i name="OMEGAMAX">    -30.00000000</i>
   <i name="OMEGAMIN">    -30.00000000</i>
   <i name="OMEGATL">   -200.00000000</i>
   <i type="int" name="OMEGAGRID">     0</i>
   <i name="CSHIFT">     -0.10000000</i>
   <i type="logical" name="LSELFENERGY"> F  </i>
   <i type="logical" name="LSPECTRAL"> F  </i>
   <i type="logical" name="LSPECTRALGW"> F  </i>
   <i type="logical" name="LSINGLES"> F  </i>
   <i type="logical" name="LFERMIGW"> F  </i>
   <i type="logical" name="ODDONLYGW"> F  </i>
   <i type="logical" name="EVENONLYGW"> F  </i>
   <i type="int" name="NKREDLFX">     1</i>
   <i type="int" name="NKREDLFY">     1</i>
   <i type="int" name="NKREDLFZ">     1</i>
   <i type="int" name="MAXMEM">  2800</i>
   <i type="int" name="TELESCOPE">     0</i>
   <i type="int" name="NTAUPAR">    -1</i>
   <i type="int" name="NOMEGAPAR">    -1</i>
   <i name="DAMP_NEWTON">      0.80000001</i>
   <i name="LAMBDA">      1.00000000</i>
  </separator>
  <separator name="External order field" >
   <i name="OFIELD_KAPPA">      0.00000000</i>
   <v name="OFIELD_K">      0.00000000      0.00000000      0.00000000</v>
   <i name="OFIELD_Q6_NEAR">      0.00000000</i>
   <i name="OFIELD_Q6_FAR">      0.00000000</i>
   <i name="OFIELD_A">      0.00000000</i>
  </separator>
  <separator name="optional k-points parameters" >
   <i type="int" name="KPOINTS_OPT_MODE">     1</i>
   <i type="logical" name="LKPOINTS_OPT"> F  </i>
  </separator>
 </parameters>
 <atominfo>
  <atoms>     120 </atoms>
  <types>       3 </types>
  <array name="atoms" >
   <dimension dim="1">ion</dimension>
   <field type="string">element</field>
   <field type="int">atomtype</field>
   <set>
    <rc><c>Ga</c><c>   1</c></rc>
    <rc><c>Ga</c><c>   1</c></rc>
    <rc><c>Ga</c><c>   1</c></rc>
    <rc><c>Ga</c><c>   1</c></rc>
    <rc><c>Ga</c><c>   1</c></rc>
    <rc><c>Ga</c><c>   1</c></rc>
    <rc><c>Ga</c><c>   1</c></rc>
    <rc><c>Ga</c><c>   1</c></rc>
    <rc><c>Ga</c><c>   1</c></rc>
    <rc><c>Ga</c><c>   1</c></rc>
    <rc><c>Ga</c><c>   1</c></rc>
    <rc><c>Ga</c><c>   1</c></rc>
    <rc><c>Ga</c><c>   1</c></rc>
    <rc><c>Ga</c><c>   1</c></rc>
    <rc><c>Ga</c><c>   1</c></rc>
    <rc><c>Ga</c><c>   1</c></rc>
    <rc><c>Ga</c><c>   1</c></rc>
    <rc><c>Ga</c><c>   1</c></rc>
    <rc><c>Ga</c><c>   1</c></rc>
    <rc><c>Ga</c><c>   1</c></rc>
    <rc><c>Ga</c><c>   1</c></rc>
    <rc><c>Ga</c><c>   1</c></rc>
    <rc><c>Ga</c><c>   1</c></rc>
    <rc><c>Ga</c><c>   1</c></rc>
    <rc><c>Ga</c><c>   1</c></rc>
    <rc><c>Ga</c><c>   1</c></rc>
    <rc><c>Ga</c><c>   1</c></rc>
    <rc><c>Ga</c><c>   1</c></rc>
    <rc><c>Ga</c><c>   1</c></rc>
    <rc><c>Ga</c><c>   1</c></rc>
    <rc><c>Ga</c><c>   1</c></rc>
    <rc><c>Ga</c><c>   1</c></rc>
    <rc><c>Ga</c><c>   1</c></rc>
    <rc><c>Ga</c><c>   1</c></rc>
    <rc><c>Ga</c><c>   1</c></rc>
    <rc><c>Ga</c><c>   1</c></rc>
    <rc><c>Ga</c><c>   1</c></rc>
    <rc><c>Ga</c><c>   1</c></rc>
    <rc><c>Ga</c><c>   1</c></rc>
    <rc><c>Ga</c><c>   1</c></rc>
    <rc><c>Ga</c><c>   1</c></rc>
    <rc><c>Ga</c><c>   1</c></rc>
    <rc><c>Ga</c><c>   1</c></rc>
    <rc><c>Ga</c><c>   1</c></rc>
    <rc><c>Ga</c><c>   1</c></rc>
    <rc><c>Ga</c><c>   1</c></rc>
    <rc><c>Ga</c><c>   1</c></rc>
    <rc><c>Ga</c><c>   1</c></rc>
    <rc><c>O </c><c>   2</c></rc>
    <rc><c>O </c><c>   2</c></rc>
    <rc><c>O </c><c>   2</c></rc>
    <rc><c>O </c><c>   2</c></rc>
    <rc><c>O </c><c>   2</c></rc>
    <rc><c>O </c><c>   2</c></rc>
    <rc><c>O </c><c>   2</c></rc>
    <rc><c>O </c><c>   2</c></rc>
    <rc><c>O </c><c>   2</c></rc>
    <rc><c>O </c><c>   2</c></rc>
    <rc><c>O </c><c>   2</c></rc>
    <rc><c>O </c><c>   2</c></rc>
    <rc><c>O </c><c>   2</c></rc>
    <rc><c>O </c><c>   2</c></rc>
    <rc><c>O </c><c>   2</c></rc>
    <rc><c>O </c><c>   2</c></rc>
    <rc><c>O </c><c>   2</c></rc>
    <rc><c>O </c><c>   2</c></rc>
    <rc><c>O </c><c>   2</c></rc>
    <rc><c>O </c><c>   2</c></rc>
    <rc><c>O </c><c>   2</c></rc>
    <rc><c>O </c><c>   2</c></rc>
    <rc><c>O </c><c>   2</c></rc>
    <rc><c>O </c><c>   2</c></rc>
    <rc><c>O </c><c>   2</c></rc>
    <rc><c>O </c><c>   2</c></rc>
    <rc><c>O </c><c>   2</c></rc>
    <rc><c>O </c><c>   2</c></rc>
    <rc><c>O </c><c>   2</c></rc>
    <rc><c>O </c><c>   2</c></rc>
    <rc><c>O </c><c>   2</c></rc>
    <rc><c>O </c><c>   2</c></rc>
    <rc><c>O </c><c>   2</c></rc>
    <rc><c>O </c><c>   2</c></rc>
    <rc><c>O </c><c>   2</c></rc>
    <rc><c>O </c><c>   2</c></rc>
    <rc><c>O </c><c>   2</c></rc>
    <rc><c>O </c><c>   2</c></rc>
    <rc><c>O </c><c>   2</c></rc>
    <rc><c>O </c><c>   2</c></rc>
    <rc><c>O </c><c>   2</c></rc>
    <rc><c>O </c><c>   2</c></rc>
    <rc><c>O </c><c>   2</c></rc>
    <rc><c>O </c><c>   2</c></rc>
    <rc><c>O </c><c>   2</c></rc>
    <rc><c>O </c><c>   2</c></rc>
    <rc><c>O </c><c>   2</c></rc>
    <rc><c>O </c><c>   2</c></rc>
    <rc><c>O </c><c>   2</c></rc>
    <rc><c>O </c><c>   2</c></rc>
    <rc><c>O </c><c>   2</c></rc>
    <rc><c>O </c><c>   2</c></rc>
    <rc><c>O </c><c>   2</c></rc>
    <rc><c>O </c><c>   2</c></rc>
    <rc><c>O </c><c>   2</c></rc>
    <rc><c>O </c><c>   2</c></rc>
    <rc><c>O </c><c>   2</c></rc>
    <rc><c>O </c><c>   2</c></rc>
    <rc><c>O </c><c>   2</c></rc>
    <rc><c>O </c><c>   2</c></rc>
    <rc><c>O </c><c>   2</c></rc>
    <rc><c>O </c><c>   2</c></rc>
    <rc><c>O </c><c>   2</c></rc>
    <rc><c>O </c><c>   2</c></rc>
    <rc><c>O </c><c>   2</c></rc>
    <rc><c>O </c><c>   2</c></rc>
    <rc><c>O </c><c>   2</c></rc>
    <rc><c>O </c><c>   2</c></rc>
    <rc><c>O </c><c>   2</c></rc>
    <rc><c>O </c><c>   2</c></rc>
    <rc><c>O </c><c>   2</c></rc>
    <rc><c>N </c><c>   3</c></rc>
   </set>
  </array>
  <array name="atomtypes" >
   <dimension dim="1">type</dimension>
   <field type="int">atomspertype</field>
   <field type="string">element</field>
   <field>mass</field>
   <field>valence</field>
   <field type="string">pseudopotential</field>
   <set>
    <rc><c>  48</c><c>Ga</c><c>     69.72300000</c><c>     13.00000000</c><c>  PAW_PBE Ga_d 06Jul2010                </c></rc>
    <rc><c>  71</c><c>O </c><c>     16.00000000</c><c>      6.00000000</c><c>  PAW_PBE O 08Apr2002                   </c></rc>
    <rc><c>   1</c><c>N </c><c>     14.00100000</c><c>      5.00000000</c><c>  PAW_PBE N 08Apr2002                   </c></rc>
   </set>
  </array>
 </atominfo>
 <structure name="initialpos" >
  <crystal>
   <varray name="basis" >
    <v>       0.00000000      12.28047342       0.00000000 </v>
    <v>       9.14270205       0.00000000       0.00000000 </v>
    <v>       0.00000000      -2.76826177     -11.30069772 </v>
   </varray>
   <i name="volume">   1268.80515525 </i>
   <varray name="rec_basis" >
    <v>       0.00000000       0.08143009      -0.01994742 </v>
    <v>       0.10937686      -0.00000000       0.00000000 </v>
    <v>       0.00000000       0.00000000      -0.08849011 </v>
   </varray>
  </crystal>
  <varray name="positions" >
   <v>       0.65892151       0.00000000       0.15638088 </v>
   <v>       0.65958435       0.00000000       0.65668070 </v>
   <v>       0.65893231       0.33350896       0.15650005 </v>
   <v>       0.65927650       0.33350079       0.65651270 </v>
   <v>       0.65893231       0.66649104       0.15650005 </v>
   <v>       0.65927650       0.66649921       0.65651270 </v>
   <v>       0.84043268       0.16672625       0.34304562 </v>
   <v>       0.84080573       0.16678863       0.84349027 </v>
   <v>       0.84065614       0.50000000       0.34317541 </v>
   <v>       0.84128484       0.50000000       0.84336151 </v>
   <v>       0.84043268       0.83327375       0.34304562 </v>
   <v>       0.84080573       0.83321137       0.84349027 </v>
   <v>       0.59099145       0.16665960       0.39765706 </v>
   <v>       0.59104695       0.16663664       0.89757999 </v>
   <v>       0.59046792       0.50000000       0.39754885 </v>
   <v>       0.59173131       0.50000000       0.89760410 </v>
   <v>       0.59099145       0.83334040       0.39765706 </v>
   <v>       0.59104695       0.83336336       0.89757999 </v>
   <v>       0.90856631       0.00000000       0.10220020 </v>
   <v>       0.90887289       0.00000000       0.60238510 </v>
   <v>       0.90873357       0.33335999       0.10239865 </v>
   <v>       0.90874890       0.33337024       0.60208924 </v>
   <v>       0.90873357       0.66664001       0.10239865 </v>
   <v>       0.90874890       0.66662976       0.60208924 </v>
   <v>       0.15883637       0.16667222       0.15604858 </v>
   <v>       0.16077173       0.16742770       0.65597666 </v>
   <v>       0.15872949       0.50000000       0.15653373 </v>
   <v>       0.15889444       0.50000000       0.65663703 </v>
   <v>       0.15883637       0.83332778       0.15604858 </v>
   <v>       0.16077173       0.83257230       0.65597666 </v>
   <v>       0.34067002       0.00000000       0.34295694 </v>
   <v>       0.34090104       0.00000000       0.84467541 </v>
   <v>       0.34030924       0.33341634       0.34340037 </v>
   <v>       0.34153897       0.33358677       0.84382725 </v>
   <v>       0.34030924       0.66658366       0.34340037 </v>
   <v>       0.34153897       0.66641323       0.84382725 </v>
   <v>       0.09052658       0.00000000       0.39478880 </v>
   <v>       0.09086328       0.00000000       0.89781878 </v>
   <v>       0.09048748       0.33317041       0.39775476 </v>
   <v>       0.09117443       0.33305539       0.89719928 </v>
   <v>       0.09048748       0.66682959       0.39775476 </v>
   <v>       0.09117443       0.66694461       0.89719928 </v>
   <v>       0.40937763       0.16689774       0.10315729 </v>
   <v>       0.41013515       0.16676354       0.60332124 </v>
   <v>       0.40878073       0.50000000       0.10261212 </v>
   <v>       0.40863010       0.50000000       0.60254337 </v>
   <v>       0.40937763       0.83310226       0.10315729 </v>
   <v>       0.41013515       0.83323646       0.60332124 </v>
   <v>       0.99610044       0.16662003       0.12640605 </v>
   <v>       0.99644974       0.16660634       0.62821866 </v>
   <v>       0.99625740       0.50000000       0.12711452 </v>
   <v>       0.99608212       0.50000000       0.62750957 </v>
   <v>       0.99610044       0.83337997       0.12640605 </v>
   <v>       0.99644974       0.83339366       0.62821866 </v>
   <v>       0.50335718       0.00000000       0.37308460 </v>
   <v>       0.50370973       0.00000000       0.87320849 </v>
   <v>       0.50305747       0.33301643       0.37305139 </v>
   <v>       0.50411101       0.33365233       0.87308601 </v>
   <v>       0.50305747       0.66698357       0.37305139 </v>
   <v>       0.50411101       0.66634767       0.87308601 </v>
   <v>       0.67222279       0.16667477       0.28041384 </v>
   <v>       0.67244619       0.16682611       0.78032450 </v>
   <v>       0.67211326       0.50000000       0.28057016 </v>
   <v>       0.67281497       0.50000000       0.78019489 </v>
   <v>       0.67222279       0.83332523       0.28041384 </v>
   <v>       0.67244619       0.83317389       0.78032450 </v>
   <v>       0.82686771       0.00000000       0.21911561 </v>
   <v>       0.82744669       0.00000000       0.71963644 </v>
   <v>       0.82684970       0.33365102       0.21915301 </v>
   <v>       0.82750933       0.33328884       0.71950351 </v>
   <v>       0.82684970       0.66634898       0.21915301 </v>
   <v>       0.82750933       0.66671116       0.71950351 </v>
   <v>       0.83213896       0.00000000       0.44574700 </v>
   <v>       0.83160073       0.00000000       0.94563327 </v>
   <v>       0.83188653       0.33329313       0.44564981 </v>
   <v>       0.83189385       0.33353250       0.94573172 </v>
   <v>       0.83188653       0.66670687       0.44564981 </v>
   <v>       0.83189385       0.66646750       0.94573172 </v>
   <v>       0.66770565       0.16675577       0.05419386 </v>
   <v>       0.66805164       0.16673486       0.55414082 </v>
   <v>       0.66802776       0.50000000       0.05423774 </v>
   <v>       0.66801969       0.50000000       0.55391001 </v>
   <v>       0.66770565       0.83324423       0.05419386 </v>
   <v>       0.66805164       0.83326514       0.55414082 </v>
   <v>       0.49645836       0.00000000       0.12795512 </v>
   <v>       0.49718033       0.00000000       0.62729440 </v>
   <v>       0.49651388       0.33367247       0.12780990 </v>
   <v>       0.49669220       0.33379178       0.62698933 </v>
   <v>       0.49651388       0.66632753       0.12780990 </v>
   <v>       0.49669220       0.66620822       0.62698933 </v>
   <v>       0.00217080       0.16730264       0.36947372 </v>
   <v>       0.00329124       0.16673833       0.87277947 </v>
   <v>       0.00306244       0.50000000       0.37214422 </v>
   <v>       0.00390844       0.50000000       0.87263386 </v>
   <v>       0.00217080       0.83269736       0.36947372 </v>
   <v>       0.00329124       0.83326167       0.87277947 </v>
   <v>       0.17237955       0.00000000       0.27826850 </v>
   <v>       0.17411937       0.00000000       0.78371933 </v>
   <v>       0.17236494       0.33303121       0.28053163 </v>
   <v>       0.17295884       0.33295611       0.78023112 </v>
   <v>       0.17236494       0.66696879       0.28053163 </v>
   <v>       0.17295884       0.66704389       0.78023112 </v>
   <v>       0.32769568       0.16697719       0.22017279 </v>
   <v>       0.32971204       0.16719969       0.72109983 </v>
   <v>       0.32709819       0.50000000       0.21957792 </v>
   <v>       0.32793316       0.50000000       0.72014473 </v>
   <v>       0.32769568       0.83302281       0.22017279 </v>
   <v>       0.32971204       0.83280031       0.72109983 </v>
   <v>       0.33162991       0.16571754       0.44679302 </v>
   <v>       0.33292590       0.16736916       0.94669037 </v>
   <v>       0.33224449       0.50000000       0.44582758 </v>
   <v>       0.33201639       0.50000000       0.94607424 </v>
   <v>       0.33162991       0.83428246       0.44679302 </v>
   <v>       0.33292590       0.83263084       0.94669037 </v>
   <v>       0.16829044       0.00000000       0.05404728 </v>
   <v>       0.16780801       0.33335711       0.05400081 </v>
   <v>       0.16797435       0.33558655       0.55391005 </v>
   <v>       0.16780801       0.66664289       0.05400081 </v>
   <v>       0.16797435       0.66441345       0.55391005 </v>
   <v>       0.16554926       0.00000000       0.55381908 </v>
  </varray>
 </structure>
 <calculation>
  <scstep>
   <time name="total">    3.99    4.01</time>
   <energy>
    <i name="alphaZ">   5530.94812622 </i>
    <i name="ewald"> -88761.51343103 </i>
    <i name="hartreedc">  -2111.38480209 </i>
    <i name="XCdc">   2801.99930945 </i>
    <i name="pawpsdc">  59955.58433651 </i>
    <i name="pawaedc"> -89158.42526921 </i>
    <i name="eentropy">     -0.00647900 </i>
    <i name="bandstr"> -40418.38854263 </i>
    <i name="atom"> 133733.99279260 </i>
    <i name="e_fr_energy"> -18427.19395918 </i>
    <i name="e_wo_entrp"> -18427.18748017 </i>
    <i name="e_0_energy"> -18427.19071967 </i>
   </energy>
  </scstep>
  <scstep>
   <time name="total">    3.17    3.17</time>
   <energy>
    <i name="e_fr_energy"> -62472.76741712 </i>
    <i name="e_wo_entrp"> -62472.75335603 </i>
    <i name="e_0_energy"> -62472.76038657 </i>
   </energy>
  </scstep>
  <scstep>
   <time name="total">    3.34    3.34</time>
   <energy>
    <i name="e_fr_energy"> -66968.14074154 </i>
    <i name="e_wo_entrp"> -66968.09401408 </i>
    <i name="e_0_energy"> -66968.11737781 </i>
   </energy>
  </scstep>
  <scstep>
   <time name="total">    3.67    3.67</time>
   <energy>
    <i name="e_fr_energy"> -67482.81139652 </i>
    <i name="e_wo_entrp"> -67482.76496262 </i>
    <i name="e_0_energy"> -67482.78817957 </i>
   </energy>
  </scstep>
  <scstep>
   <time name="total">  236.34  236.31</time>
   <energy>
    <i name="e_fr_energy"> -37364.76114626 </i>
    <i name="e_wo_entrp"> -37364.73295030 </i>
    <i name="e_0_energy"> -37364.74704828 </i>
   </energy>
  </scstep>
  <scstep>
   <time name="total">  471.92  471.86</time>
   <energy>
    <i name="e_fr_energy">  17384.50617021 </i>
    <i name="e_wo_entrp">  17384.52110482 </i>
    <i name="e_0_energy">  17384.51363752 </i>
   </energy>
  </scstep>
  <scstep>
   <time name="total">  471.93  471.87</time>
   <energy>
    <i name="e_fr_energy">   5002.61125581 </i>
    <i name="e_wo_entrp">   5002.65205581 </i>
    <i name="e_0_energy">   5002.63165581 </i>
   </energy>
  </scstep>
  <scstep>
   <time name="total">  472.67  472.61</time>
   <energy>
    <i name="e_fr_energy">   1562.70170694 </i>
    <i name="e_wo_entrp">   1562.73045257 </i>
    <i name="e_0_energy">   1562.71607975 </i>
   </energy>
  </scstep>
  <scstep>
   <time name="total">  471.78  471.71</time>
   <energy>
    <i name="e_fr_energy">    818.43998714 </i>
    <i name="e_wo_entrp">    818.48537144 </i>
    <i name="e_0_energy">    818.46267929 </i>
   </energy>
  </scstep>
  <scstep>
   <time name="total">  472.40  472.35</time>
   <energy>
    <i name="e_fr_energy">    180.58838600 </i>
    <i name="e_wo_entrp">    180.60221127 </i>
    <i name="e_0_energy">    180.59529864 </i>
   </energy>
  </scstep>
  <scstep>
   <time name="total">  470.55  470.48</time>
   <energy>
    <i name="e_fr_energy">   -375.38440100 </i>
    <i name="e_wo_entrp">   -375.37271982 </i>
    <i name="e_0_energy">   -375.37856041 </i>
   </energy>
  </scstep>
  <scstep>
   <time name="total">  470.53  470.45</time>
   <energy>
    <i name="e_fr_energy">   -694.62089730 </i>
    <i name="e_wo_entrp">   -694.61828720 </i>
    <i name="e_0_energy">   -694.61959225 </i>
   </energy>
  </scstep>
  <scstep>
   <time name="total">  469.99  469.91</time>
   <energy>
    <i name="e_fr_energy">   -840.73798411 </i>
    <i name="e_wo_entrp">   -840.73076993 </i>
    <i name="e_0_energy">   -840.73437702 </i>
   </energy>
  </scstep>
  <scstep>
   <time name="total">  470.29  470.22</time>
   <energy>
    <i name="e_fr_energy">   -906.76619485 </i>
    <i name="e_wo_entrp">   -906.75581173 </i>
    <i name="e_0_energy">   -906.76100329 </i>
   </energy>
  </scstep>
  <scstep>
   <time name="total">  469.72  469.66</time>
   <energy>
    <i name="e_fr_energy">   -933.48571439 </i>
    <i name="e_wo_entrp">   -933.47987547 </i>
    <i name="e_0_energy">   -933.48279493 </i>
   </energy>
  </scstep>
  <scstep>
   <time name="total">  470.24  470.19</time>
   <energy>
    <i name="e_fr_energy">   -945.43420980 </i>
    <i name="e_wo_entrp">   -945.42882019 </i>
    <i name="e_0_energy">   -945.43151500 </i>
   </energy>
  </scstep>
  <scstep>
   <time name="total">  470.15  470.09</time>
   <energy>
    <i name="e_fr_energy">   -950.33914937 </i>
    <i name="e_wo_entrp">   -950.33428314 </i>
    <i name="e_0_energy">   -950.33671625 </i>
   </energy>
  </scstep>
  <scstep>
   <time name="total">  470.00  469.93</time>
   <energy>
    <i name="e_fr_energy">   -952.97241485 </i>
    <i name="e_wo_entrp">   -952.96529161 </i>
    <i name="e_0_energy">   -952.96885323 </i>
   </energy>
  </scstep>
  <scstep>
   <time name="total">  469.99  469.93</time>
   <energy>
    <i name="e_fr_energy">   -954.27001279 </i>
    <i name="e_wo_entrp">   -954.25840440 </i>
    <i name="e_0_energy">   -954.26420860 </i>
   </energy>
  </scstep>
  <scstep>
   <time name="total">  470.58  470.52</time>
   <energy>
    <i name="e_fr_energy">   -954.92887267 </i>
    <i name="e_wo_entrp">   -954.91061994 </i>
    <i name="e_0_energy">   -954.91974631 </i>
   </energy>
  </scstep>
  <scstep>
   <time name="total">  470.39  470.35</time>
   <energy>
    <i name="e_fr_energy">   -955.26847210 </i>
    <i name="e_wo_entrp">   -955.24582741 </i>
    <i name="e_0_energy">   -955.25714976 </i>
   </energy>
  </scstep>
  <scstep>
   <time name="total">  470.31  470.25</time>
   <energy>
    <i name="e_fr_energy">   -955.42188081 </i>
    <i name="e_wo_entrp">   -955.39666286 </i>
    <i name="e_0_energy">   -955.40927183 </i>
   </energy>
  </scstep>
  <scstep>
   <time name="total">  470.58  470.51</time>
   <energy>
    <i name="e_fr_energy">   -955.50492416 </i>
    <i name="e_wo_entrp">   -955.48099447 </i>
    <i name="e_0_energy">   -955.49295932 </i>
   </energy>
  </scstep>
  <scstep>
   <time name="total">  470.51  470.44</time>
   <energy>
    <i name="e_fr_energy">   -955.54267375 </i>
    <i name="e_wo_entrp">   -955.51936394 </i>
    <i name="e_0_energy">   -955.53101885 </i>
   </energy>
  </scstep>
  <scstep>
   <time name="total">  470.24  470.18</time>
   <energy>
    <i name="e_fr_energy">   -955.56379408 </i>
    <i name="e_wo_entrp">   -955.53986206 </i>
    <i name="e_0_energy">   -955.55182807 </i>
   </energy>
  </scstep>
  <scstep>
   <time name="total">  470.45  470.39</time>
   <energy>
    <i name="e_fr_energy">   -955.57540234 </i>
    <i name="e_wo_entrp">   -955.55038340 </i>
    <i name="e_0_energy">   -955.56289287 </i>
   </energy>
  </scstep>
  <scstep>
   <time name="total">  470.34  470.28</time>
   <energy>
    <i name="e_fr_energy">   -955.58132902 </i>
    <i name="e_wo_entrp">   -955.55531064 </i>
    <i name="e_0_energy">   -955.56831983 </i>
   </energy>
  </scstep>
  <scstep>
   <time name="total">  470.12  470.07</time>
   <energy>
    <i name="e_fr_energy">   -955.58502866 </i>
    <i name="e_wo_entrp">   -955.55860069 </i>
    <i name="e_0_energy">   -955.57181468 </i>
   </energy>
  </scstep>
  <scstep>
   <time name="total">  470.54  470.48</time>
   <energy>
    <i name="e_fr_energy">   -955.58705631 </i>
    <i name="e_wo_entrp">   -955.56062291 </i>
    <i name="e_0_energy">   -955.57383961 </i>
   </energy>
  </scstep>
  <scstep>
   <time name="total">  470.06  469.99</time>
   <energy>
    <i name="e_fr_energy">   -955.58818622 </i>
    <i name="e_wo_entrp">   -955.56187246 </i>
    <i name="e_0_energy">   -955.57502934 </i>
   </energy>
  </scstep>
  <scstep>
   <time name="total">  470.40  470.34</time>
   <energy>
    <i name="e_fr_energy">   -955.58881171 </i>
    <i name="e_wo_entrp">   -955.56258536 </i>
    <i name="e_0_energy">   -955.57569854 </i>
   </energy>
  </scstep>
  <scstep>
   <time name="total">  470.26  470.20</time>
   <energy>
    <i name="e_fr_energy">   -955.58914052 </i>
    <i name="e_wo_entrp">   -955.56294962 </i>
    <i name="e_0_energy">   -955.57604507 </i>
   </energy>
  </scstep>
  <scstep>
   <time name="total">  470.29  470.24</time>
   <energy>
    <i name="e_fr_energy">   -955.58932435 </i>
    <i name="e_wo_entrp">   -955.56313477 </i>
    <i name="e_0_energy">   -955.57622956 </i>
   </energy>
  </scstep>
  <scstep>
   <time name="total">  470.16  470.10</time>
   <energy>
    <i name="e_fr_energy">   -955.58942999 </i>
    <i name="e_wo_entrp">   -955.56322819 </i>
    <i name="e_0_energy">   -955.57632909 </i>
   </energy>
  </scstep>
  <scstep>
   <time name="total">  470.49  470.42</time>
   <energy>
    <i name="e_fr_energy">   -955.58949232 </i>
    <i name="e_wo_entrp">   -955.56327688 </i>
    <i name="e_0_energy">   -955.57638460 </i>
   </energy>
  </scstep>
  <scstep>
   <time name="total">  470.49  470.42</time>
   <energy>
    <i name="e_fr_energy">   -955.58952720 </i>
    <i name="e_wo_entrp">   -955.56329909 </i>
    <i name="e_0_energy">   -955.57641314 </i>
   </energy>
  </scstep>
  <scstep>
   <time name="total">  470.18  470.11</time>
   <energy>
    <i name="e_fr_energy">   -955.58954706 </i>
    <i name="e_wo_entrp">   -955.56330977 </i>
    <i name="e_0_energy">   -955.57642842 </i>
   </energy>
  </scstep>
  <scstep>
   <time name="total">  470.44  470.38</time>
   <energy>
    <i name="e_fr_energy">   -955.58956344 </i>
    <i name="e_wo_entrp">   -955.56331551 </i>
    <i name="e_0_energy">   -955.57643947 </i>
   </energy>
  </scstep>
  <scstep>
   <time name="total">  700.79  700.70</time>
   <energy>
    <i name="alphaZ">   5530.94812622 </i>
    <i name="ewald"> -88761.51343103 </i>
    <i name="hartreedc"> -33838.06037908 </i>
    <i name="XCdc">   2912.08754290 </i>
    <i name="pawpsdc"> 121342.37491155 </i>
    <i name="pawaedc">-136914.85356622 </i>
    <i name="eentropy">     -0.02625438 </i>
    <i name="bandstr">  -8846.12550648 </i>
    <i name="atom"> 133733.99279260 </i>
    <i name="e_fr_energy">   -955.58956900 </i>
    <i name="e_wo_entrp">   -955.56331462 </i>
    <i name="e_0_energy">   -955.57644181 </i>
   </energy>
  </scstep>
  <structure>
   <crystal>
    <varray name="basis" >
     <v>       0.00000000      12.28047342       0.00000000 </v>
     <v>       9.14270205       0.00000000       0.00000000 </v>
     <v>       0.00000000      -2.76826177     -11.30069772 </v>
    </varray>
    <i name="volume">   1268.80515525 </i>
    <varray name="rec_basis" >
     <v>       0.00000000       0.08143009      -0.01994742 </v>
     <v>       0.10937686      -0.00000000       0.00000000 </v>
     <v>       0.00000000       0.00000000      -0.08849011 </v>
    </varray>
   </crystal>
   <varray name="positions" >
    <v>       0.65892151       0.00000000       0.15638088 </v>
    <v>       0.65958435       0.00000000       0.65668070 </v>
    <v>       0.65893231       0.33350896       0.15650005 </v>
    <v>       0.65927650       0.33350079       0.65651270 </v>
    <v>       0.65893231       0.66649104       0.15650005 </v>
    <v>       0.65927650       0.66649921       0.65651270 </v>
    <v>       0.84043268       0.16672625       0.34304562 </v>
    <v>       0.84080573       0.16678863       0.84349027 </v>
    <v>       0.84065614       0.50000000       0.34317541 </v>
    <v>       0.84128484       0.50000000       0.84336151 </v>
    <v>       0.84043268       0.83327375       0.34304562 </v>
    <v>       0.84080573       0.83321137       0.84349027 </v>
    <v>       0.59099145       0.16665960       0.39765706 </v>
    <v>       0.59104695       0.16663664       0.89757999 </v>
    <v>       0.59046792       0.50000000       0.39754885 </v>
    <v>       0.59173131       0.50000000       0.89760410 </v>
    <v>       0.59099145       0.83334040       0.39765706 </v>
    <v>       0.59104695       0.83336336       0.89757999 </v>
    <v>       0.90856631       0.00000000       0.10220020 </v>
    <v>       0.90887289       0.00000000       0.60238510 </v>
    <v>       0.90873357       0.33335999       0.10239865 </v>
    <v>       0.90874890       0.33337024       0.60208924 </v>
    <v>       0.90873357       0.66664001       0.10239865 </v>
    <v>       0.90874890       0.66662976       0.60208924 </v>
    <v>       0.15883637       0.16667222       0.15604858 </v>
    <v>       0.16077173       0.16742770       0.65597666 </v>
    <v>       0.15872949       0.50000000       0.15653373 </v>
    <v>       0.15889444       0.50000000       0.65663703 </v>
    <v>       0.15883637       0.83332778       0.15604858 </v>
    <v>       0.16077173       0.83257230       0.65597666 </v>
    <v>       0.34067002       0.00000000       0.34295694 </v>
    <v>       0.34090104       0.00000000       0.84467541 </v>
    <v>       0.34030924       0.33341634       0.34340037 </v>
    <v>       0.34153897       0.33358677       0.84382725 </v>
    <v>       0.34030924       0.66658366       0.34340037 </v>
    <v>       0.34153897       0.66641323       0.84382725 </v>
    <v>       0.09052658       0.00000000       0.39478880 </v>
    <v>       0.09086328       0.00000000       0.89781878 </v>
    <v>       0.09048748       0.33317041       0.39775476 </v>
    <v>       0.09117443       0.33305539       0.89719928 </v>
    <v>       0.09048748       0.66682959       0.39775476 </v>
    <v>       0.09117443       0.66694461       0.89719928 </v>
    <v>       0.40937763       0.16689774       0.10315729 </v>
    <v>       0.41013515       0.16676354       0.60332124 </v>
    <v>       0.40878073       0.50000000       0.10261212 </v>
    <v>       0.40863010       0.50000000       0.60254337 </v>
    <v>       0.40937763       0.83310226       0.10315729 </v>
    <v>       0.41013515       0.83323646       0.60332124 </v>
    <v>       0.99610044       0.16662003       0.12640605 </v>
    <v>       0.99644974       0.16660634       0.62821866 </v>
    <v>       0.99625740       0.50000000       0.12711452 </v>
    <v>       0.99608212       0.50000000       0.62750957 </v>
    <v>       0.99610044       0.83337997       0.12640605 </v>
    <v>       0.99644974       0.83339366       0.62821866 </v>
    <v>       0.50335718       0.00000000       0.37308460 </v>
    <v>       0.50370973       0.00000000       0.87320849 </v>
    <v>       0.50305747       0.33301643       0.37305139 </v>
    <v>       0.50411101       0.33365233       0.87308601 </v>
    <v>       0.50305747       0.66698357       0.37305139 </v>
    <v>       0.50411101       0.66634767       0.87308601 </v>
    <v>       0.67222279       0.16667477       0.28041384 </v>
    <v>       0.67244619       0.16682611       0.78032450 </v>
    <v>       0.67211326       0.50000000       0.28057016 </v>
    <v>       0.67281497       0.50000000       0.78019489 </v>
    <v>       0.67222279       0.83332523       0.28041384 </v>
    <v>       0.67244619       0.83317389       0.78032450 </v>
    <v>       0.82686771       0.00000000       0.21911561 </v>
    <v>       0.82744669       0.00000000       0.71963644 </v>
    <v>       0.82684970       0.33365102       0.21915301 </v>
    <v>       0.82750933       0.33328884       0.71950351 </v>
    <v>       0.82684970       0.66634898       0.21915301 </v>
    <v>       0.82750933       0.66671116       0.71950351 </v>
    <v>       0.83213896       0.00000000       0.44574700 </v>
    <v>       0.83160073       0.00000000       0.94563327 </v>
    <v>       0.83188653       0.33329313       0.44564981 </v>
    <v>       0.83189385       0.33353250       0.94573172 </v>
    <v>       0.83188653       0.66670687       0.44564981 </v>
    <v>       0.83189385       0.66646750       0.94573172 </v>
    <v>       0.66770565       0.16675577       0.05419386 </v>
    <v>       0.66805164       0.16673486       0.55414082 </v>
    <v>       0.66802776       0.50000000       0.05423774 </v>
    <v>       0.66801969       0.50000000       0.55391001 </v>
    <v>       0.66770565       0.83324423       0.05419386 </v>
    <v>       0.66805164       0.83326514       0.55414082 </v>
    <v>       0.49645836       0.00000000       0.12795512 </v>
    <v>       0.49718033       0.00000000       0.62729440 </v>
    <v>       0.49651388       0.33367247       0.12780990 </v>
    <v>       0.49669220       0.33379178       0.62698933 </v>
    <v>       0.49651388       0.66632753       0.12780990 </v>
    <v>       0.49669220       0.66620822       0.62698933 </v>
    <v>       0.00217080       0.16730264       0.36947372 </v>
    <v>       0.00329124       0.16673833       0.87277947 </v>
    <v>       0.00306244       0.50000000       0.37214422 </v>
    <v>       0.00390844       0.50000000       0.87263386 </v>
    <v>       0.00217080       0.83269736       0.36947372 </v>
    <v>       0.00329124       0.83326167       0.87277947 </v>
    <v>       0.17237955       0.00000000       0.27826850 </v>
    <v>       0.17411937       0.00000000       0.78371933 </v>
    <v>       0.17236494       0.33303121       0.28053163 </v>
    <v>       0.17295884       0.33295611       0.78023112 </v>
    <v>       0.17236494       0.66696879       0.28053163 </v>
    <v>       0.17295884       0.66704389       0.78023112 </v>
    <v>       0.32769568       0.16697719       0.22017279 </v>
    <v>       0.32971204       0.16719969       0.72109983 </v>
    <v>       0.32709819       0.50000000       0.21957792 </v>
    <v>       0.32793316       0.50000000       0.72014473 </v>
    <v>       0.32769568       0.83302281       0.22017279 </v>
    <v>       0.32971204       0.83280031       0.72109983 </v>
    <v>       0.33162991       0.16571754       0.44679302 </v>
    <v>       0.33292590       0.16736916       0.94669037 </v>
    <v>       0.33224449       0.50000000       0.44582758 </v>
    <v>       0.33201639       0.50000000       0.94607424 </v>
    <v>       0.33162991       0.83428246       0.44679302 </v>
    <v>       0.33292590       0.83263084       0.94669037 </v>
    <v>       0.16829044       0.00000000       0.05404728 </v>
    <v>       0.16780801       0.33335711       0.05400081 </v>
    <v>       0.16797435       0.33558655       0.55391005 </v>
    <v>       0.16780801       0.66664289       0.05400081 </v>
    <v>       0.16797435       0.66441345       0.55391005 </v>
    <v>       0.16554926       0.00000000       0.55381908 </v>
   </varray>
  </structure>
  <varray name="forces" >
   <v>       0.00000000       0.06359919       0.01305210 </v>
   <v>       0.00000000       0.07736514       0.00645314 </v>
   <v>       0.00318766       0.06442638       0.01307197 </v>
   <v>       0.00389690       0.07381556       0.00506012 </v>
   <v>      -0.00318766       0.06442638       0.01307197 </v>
   <v>      -0.00389690       0.07381556       0.00506012 </v>
   <v>      -0.00133714      -0.09385246       0.01434685 </v>
   <v>      -0.00146766      -0.06197421      -0.01340324 </v>
   <v>       0.00000000      -0.08652538       0.01143694 </v>
   <v>       0.00000000      -0.07488468      -0.00965885 </v>
   <v>       0.00133714      -0.09385246       0.01434685 </v>
   <v>       0.00146766      -0.06197421      -0.01340324 </v>
   <v>      -0.00120688      -0.03796510       0.01594828 </v>
   <v>       0.00436106      -0.02136096       0.00491893 </v>
   <v>       0.00000000      -0.02855541       0.01717894 </v>
   <v>       0.00000000      -0.02517920       0.01002810 </v>
   <v>       0.00120688      -0.03796510       0.01594828 </v>
   <v>      -0.00436106      -0.02136096       0.00491893 </v>
   <v>       0.00000000       0.02185114       0.00626239 </v>
   <v>       0.00000000      -0.01657490      -0.03512281 </v>
   <v>      -0.00463476       0.02116624      -0.00009143 </v>
   <v>       0.00919870       0.00259509      -0.03578658 </v>
   <v>       0.00463476       0.02116624      -0.00009143 </v>
   <v>      -0.00919870       0.00259509      -0.03578658 </v>
   <v>       0.00978960       0.06832451       0.03504166 </v>
   <v>       0.33855157      -0.00430409      -0.26259845 </v>
   <v>       0.00000000       0.07477727       0.02416256 </v>
   <v>       0.00000000       0.06878491      -0.01341146 </v>
   <v>      -0.00978960       0.06832451       0.03504166 </v>
   <v>      -0.33855157      -0.00430409      -0.26259845 </v>
   <v>       0.00000000      -0.02015417      -0.01549961 </v>
   <v>       0.00000000      -0.05672220      -0.07377562 </v>
   <v>      -0.00496363      -0.05231440      -0.00812600 </v>
   <v>       0.00507529      -0.05576267      -0.04304811 </v>
   <v>       0.00496363      -0.05231440      -0.00812600 </v>
   <v>      -0.00507529      -0.05576267      -0.04304811 </v>
   <v>       0.00000000      -0.15234819       0.51381442 </v>
   <v>       0.00000000      -0.03812656      -0.00453895 </v>
   <v>       0.03713412      -0.01255583       0.06233190 </v>
   <v>      -0.00700140      -0.03669701       0.00010997 </v>
   <v>      -0.03713412      -0.01255583       0.06233190 </v>
   <v>       0.00700140      -0.03669701       0.00010997 </v>
   <v>       0.00108881       0.02277422      -0.00567262 </v>
   <v>       0.02415532       0.08263946       0.01380859 </v>
   <v>       0.00000000       0.02606185      -0.01505008 </v>
   <v>       0.00000000       0.04533638      -0.01101488 </v>
   <v>      -0.00108881       0.02277422      -0.00567262 </v>
   <v>      -0.02415532       0.08263946       0.01380859 </v>
   <v>      -0.00051286      -0.17014681       0.10428196 </v>
   <v>      -0.03412150      -0.10443141       0.18063537 </v>
   <v>       0.00000000      -0.16868271       0.10968166 </v>
   <v>       0.00000000      -0.15507661       0.12725048 </v>
   <v>       0.00051286      -0.17014681       0.10428196 </v>
   <v>       0.03412150      -0.10443141       0.18063537 </v>
   <v>       0.00000000       0.17647426      -0.11541833 </v>
   <v>       0.00000000       0.17167407      -0.10772707 </v>
   <v>       0.00993977       0.17572998      -0.11712953 </v>
   <v>      -0.00429685       0.16723067      -0.10676526 </v>
   <v>      -0.00993977       0.17572998      -0.11712953 </v>
   <v>       0.00429685       0.16723067      -0.10676526 </v>
   <v>       0.00014793      -0.02616853      -0.12080082 </v>
   <v>      -0.00146904      -0.03160616      -0.10984557 </v>
   <v>       0.00000000      -0.02634860      -0.11571787 </v>
   <v>       0.00000000      -0.03436690      -0.11086976 </v>
   <v>      -0.00014793      -0.02616853      -0.12080082 </v>
   <v>       0.00146904      -0.03160616      -0.10984557 </v>
   <v>       0.00000000       0.03518092       0.10658209 </v>
   <v>       0.00000000       0.03586316       0.12893848 </v>
   <v>      -0.00176435       0.03937510       0.10314582 </v>
   <v>       0.00200074       0.04275779       0.12091259 </v>
   <v>       0.00176435       0.03937510       0.10314582 </v>
   <v>      -0.00200074       0.04275779       0.12091259 </v>
   <v>       0.00000000       0.40800489      -0.07625601 </v>
   <v>       0.00000000       0.40012401      -0.07209009 </v>
   <v>      -0.00523068       0.41284663      -0.07909098 </v>
   <v>      -0.00073568       0.40183551      -0.07144349 </v>
   <v>       0.00523068       0.41284663      -0.07909098 </v>
   <v>       0.00073568       0.40183551      -0.07144349 </v>
   <v>      -0.00274964      -0.39781307       0.07089934 </v>
   <v>      -0.00102954      -0.39657429       0.07178365 </v>
   <v>       0.00000000      -0.39911476       0.07030159 </v>
   <v>       0.00000000      -0.39909620       0.07179748 </v>
   <v>       0.00274964      -0.39781307       0.07089934 </v>
   <v>       0.00102954      -0.39657429       0.07178365 </v>
   <v>       0.00000000      -0.16808561       0.11291641 </v>
   <v>       0.00000000      -0.18219815       0.10521108 </v>
   <v>      -0.00271098      -0.17250356       0.11412693 </v>
   <v>      -0.01384114      -0.17933388       0.10858900 </v>
   <v>       0.00271098      -0.17250356       0.11412693 </v>
   <v>       0.01384114      -0.17933388       0.10858900 </v>
   <v>      -0.02853764       0.20714515      -0.19284542 </v>
   <v>       0.00122734       0.18125617      -0.12175065 </v>
   <v>       0.00000000       0.17197161      -0.13176455 </v>
   <v>       0.00000000       0.17229268      -0.10868284 </v>
   <v>       0.02853764       0.20714515      -0.19284542 </v>
   <v>      -0.00122734       0.18125617      -0.12175065 </v>
   <v>       0.00000000      -0.08033279      -0.17557833 </v>
   <v>       0.00000000      -0.00016368      -0.03772479 </v>
   <v>      -0.00038822      -0.04170269      -0.12260477 </v>
   <v>      -0.00284151      -0.02850811      -0.08863415 </v>
   <v>       0.00038822      -0.04170269      -0.12260477 </v>
   <v>       0.00284151      -0.02850811      -0.08863415 </v>
   <v>      -0.00733686       0.02225880       0.10602411 </v>
   <v>      -0.02613431      -0.02204887       0.18190174 </v>
   <v>       0.00000000       0.02781210       0.10878747 </v>
   <v>       0.00000000       0.03571589       0.12285855 </v>
   <v>       0.00733686       0.02225880       0.10602411 </v>
   <v>       0.02613431      -0.02204887       0.18190174 </v>
   <v>      -0.01753244       0.35580053      -0.08790726 </v>
   <v>      -0.00514434       0.39602609      -0.06605812 </v>
   <v>       0.00000000       0.38022602      -0.07433008 </v>
   <v>       0.00000000       0.40283824      -0.06791761 </v>
   <v>       0.01753244       0.35580053      -0.08790726 </v>
   <v>       0.00514434       0.39602609      -0.06605812 </v>
   <v>       0.00000000      -0.40799618       0.05782488 </v>
   <v>      -0.00351248      -0.40057338       0.06678692 </v>
   <v>      -0.06618676      -0.40098452       0.06657968 </v>
   <v>       0.00351248      -0.40057338       0.06678692 </v>
   <v>       0.06618676      -0.40098452       0.06657968 </v>
   <v>       0.00000000      -0.25306462       0.03420493 </v>
  </varray>
  <varray name="stress" >
   <v>     -47.81635983       0.00000000       0.00000000 </v>
   <v>       0.00000000     -45.85139945       0.63633088 </v>
   <v>       0.00000000       0.63633089     -40.54701422 </v>
  </varray>
  <energy>
   <i name="e_fr_energy">   -955.58956900 </i>
   <i name="e_wo_entrp">   -955.56331462 </i>
   <i name="e_0_energy">   -955.57644181 </i>
  </energy>
  <time name="totalsc">17068.3617066.25</time>
  <eigenvalues>
   <array>
    <dimension dim="1">band</dimension>
    <dimension dim="2">kpoint</dimension>
    <dimension dim="3">spin</dimension>
    <field>eigene</field>
    <field>occ</field>
    <set>
     <set comment="spin 1">
      <set comment="kpoint 1">
       <r>  -18.6434    1.0000 </r>
       <r>  -18.3720    1.0000 </r>
       <r>  -18.2987    1.0000 </r>
       <r>  -18.2327    1.0000 </r>
       <r>  -18.1062    1.0000 </r>
       <r>  -17.9560    1.0000 </r>
       <r>  -17.9489    1.0000 </r>
       <r>  -17.8797    1.0000 </r>
       <r>  -17.8140    1.0000 </r>
       <r>  -17.7810    1.0000 </r>
       <r>  -17.7787    1.0000 </r>
       <r>  -17.6957    1.0000 </r>
       <r>  -17.6922    1.0000 </r>
       <r>  -17.6688    1.0000 </r>
       <r>  -17.6653    1.0000 </r>
       <r>  -17.6619    1.0000 </r>
       <r>  -17.6445    1.0000 </r>
       <r>  -17.6266    1.0000 </r>
       <r>  -17.5016    1.0000 </r>
       <r>  -17.4986    1.0000 </r>
       <r>  -17.4975    1.0000 </r>
       <r>  -17.4840    1.0000 </r>
       <r>  -17.4803    1.0000 </r>
       <r>  -17.4797    1.0000 </r>
       <r>  -17.4739    1.0000 </r>
       <r>  -17.4626    1.0000 </r>
       <r>  -17.3560    1.0000 </r>
       <r>  -17.3499    1.0000 </r>
       <r>  -17.3447    1.0000 </r>
       <r>  -17.3246    1.0000 </r>
       <r>  -17.3238    1.0000 </r>
       <r>  -17.2957    1.0000 </r>
       <r>  -17.2930    1.0000 </r>
       <r>  -17.2921    1.0000 </r>
       <r>  -17.2592    1.0000 </r>
       <r>  -17.2582    1.0000 </r>
       <r>  -17.2384    1.0000 </r>
       <r>  -17.2352    1.0000 </r>
       <r>  -17.2239    1.0000 </r>
       <r>  -17.1531    1.0000 </r>
       <r>  -17.1514    1.0000 </r>
       <r>  -17.1465    1.0000 </r>
       <r>  -17.1380    1.0000 </r>
       <r>  -17.1343    1.0000 </r>
       <r>  -17.1335    1.0000 </r>
       <r>  -17.1247    1.0000 </r>
       <r>  -17.1148    1.0000 </r>
       <r>  -17.0880    1.0000 </r>
       <r>  -17.0420    1.0000 </r>
       <r>  -17.0055    1.0000 </r>
       <r>  -16.9923    1.0000 </r>
       <r>  -16.9849    1.0000 </r>
       <r>  -16.9719    1.0000 </r>
       <r>  -16.9512    1.0000 </r>
       <r>  -16.9000    1.0000 </r>
       <r>  -16.8981    1.0000 </r>
       <r>  -16.8893    1.0000 </r>
       <r>  -16.8875    1.0000 </r>
       <r>  -16.8811    1.0000 </r>
       <r>  -16.8703    1.0000 </r>
       <r>  -16.8680    1.0000 </r>
       <r>  -16.8678    1.0000 </r>
       <r>  -16.8645    1.0000 </r>
       <r>  -16.8640    1.0000 </r>
       <r>  -16.8544    1.0000 </r>
       <r>  -16.8533    1.0000 </r>
       <r>  -16.8505    1.0000 </r>
       <r>  -16.8458    1.0000 </r>
       <r>  -16.8386    1.0000 </r>
       <r>  -16.7835    1.0000 </r>
       <r>  -16.7497    1.0000 </r>
       <r>  -13.8625    1.0000 </r>
       <r>  -13.0281    1.0000 </r>
       <r>  -13.0115    1.0000 </r>
       <r>  -13.0027    1.0000 </r>
       <r>  -13.0016    1.0000 </r>
       <r>  -12.9865    1.0000 </r>
       <r>  -12.9772    1.0000 </r>
       <r>  -12.9718    1.0000 </r>
       <r>  -12.9695    1.0000 </r>
       <r>  -12.9654    1.0000 </r>
       <r>  -12.9605    1.0000 </r>
       <r>  -12.9582    1.0000 </r>
       <r>  -12.9565    1.0000 </r>
       <r>  -12.9530    1.0000 </r>
       <r>  -12.9451    1.0000 </r>
       <r>  -12.9273    1.0000 </r>
       <r>  -12.9257    1.0000 </r>
       <r>  -12.9182    1.0000 </r>
       <r>  -12.9165    1.0000 </r>
       <r>  -12.9140    1.0000 </r>
       <r>  -12.9127    1.0000 </r>
       <r>  -12.9091    1.0000 </r>
       <r>  -12.9043    1.0000 </r>
       <r>  -12.9035    1.0000 </r>
       <r>  -12.9013    1.0000 </r>
       <r>  -12.9005    1.0000 </r>
       <r>  -12.8996    1.0000 </r>
       <r>  -12.8963    1.0000 </r>
       <r>  -12.8952    1.0000 </r>
       <r>  -12.8936    1.0000 </r>
       <r>  -12.8934    1.0000 </r>
       <r>  -12.8882    1.0000 </r>
       <r>  -12.8839    1.0000 </r>
       <r>  -12.8838    1.0000 </r>
       <r>  -12.8803    1.0000 </r>
       <r>  -12.8776    1.0000 </r>
       <r>  -12.8772    1.0000 </r>
       <r>  -12.8762    1.0000 </r>
       <r>  -12.8737    1.0000 </r>
       <r>  -12.8731    1.0000 </r>
       <r>  -12.8671    1.0000 </r>
       <r>  -12.8658    1.0000 </r>
       <r>  -12.8643    1.0000 </r>
       <r>  -12.8630    1.0000 </r>
       <r>  -12.8630    1.0000 </r>
       <r>  -12.8600    1.0000 </r>
       <r>  -12.8578    1.0000 </r>
       <r>  -12.8576    1.0000 </r>
       <r>  -12.8564    1.0000 </r>
       <r>  -12.8550    1.0000 </r>
       <r>  -12.8529    1.0000 </r>
       <r>  -12.8520    1.0000 </r>
       <r>  -12.8487    1.0000 </r>
       <r>  -12.8425    1.0000 </r>
       <r>  -12.8417    1.0000 </r>
       <r>  -12.8394    1.0000 </r>
       <r>  -12.8360    1.0000 </r>
       <r>  -12.8343    1.0000 </r>
       <r>  -12.8321    1.0000 </r>
       <r>  -12.8258    1.0000 </r>
       <r>  -12.8198    1.0000 </r>
       <r>  -12.8129    1.0000 </r>
       <r>  -12.8051    1.0000 </r>
       <r>  -12.7964    1.0000 </r>
       <r>  -12.7896    1.0000 </r>
       <r>  -12.7886    1.0000 </r>
       <r>  -12.7778    1.0000 </r>
       <r>  -12.7756    1.0000 </r>
       <r>  -12.7735    1.0000 </r>
       <r>  -12.7733    1.0000 </r>
       <r>  -12.7663    1.0000 </r>
       <r>  -12.7647    1.0000 </r>
       <r>  -12.7618    1.0000 </r>
       <r>  -12.7603    1.0000 </r>
       <r>  -12.7581    1.0000 </r>
       <r>  -12.7556    1.0000 </r>
       <r>  -12.7536    1.0000 </r>
       <r>  -12.7506    1.0000 </r>
       <r>  -12.7497    1.0000 </r>
       <r>  -12.7480    1.0000 </r>
       <r>  -12.7476    1.0000 </r>
       <r>  -12.7455    1.0000 </r>
       <r>  -12.7452    1.0000 </r>
       <r>  -12.7408    1.0000 </r>
       <r>  -12.7377    1.0000 </r>
       <r>  -12.7363    1.0000 </r>
       <r>  -12.7358    1.0000 </r>
       <r>  -12.7332    1.0000 </r>
       <r>  -12.7306    1.0000 </r>
       <r>  -12.7297    1.0000 </r>
       <r>  -12.7268    1.0000 </r>
       <r>  -12.7251    1.0000 </r>
       <r>  -12.7235    1.0000 </r>
       <r>  -12.7231    1.0000 </r>
       <r>  -12.7217    1.0000 </r>
       <r>  -12.7191    1.0000 </r>
       <r>  -12.7179    1.0000 </r>
       <r>  -12.7154    1.0000 </r>
       <r>  -12.7143    1.0000 </r>
       <r>  -12.7137    1.0000 </r>
       <r>  -12.7130    1.0000 </r>
       <r>  -12.7124    1.0000 </r>
       <r>  -12.7107    1.0000 </r>
       <r>  -12.7088    1.0000 </r>
       <r>  -12.7061    1.0000 </r>
       <r>  -12.7006    1.0000 </r>
       <r>  -12.7006    1.0000 </r>
       <r>  -12.6986    1.0000 </r>
       <r>  -12.6976    1.0000 </r>
       <r>  -12.6963    1.0000 </r>
       <r>  -12.6945    1.0000 </r>
       <r>  -12.6919    1.0000 </r>
       <r>  -12.6872    1.0000 </r>
       <r>  -12.6858    1.0000 </r>
       <r>  -12.6757    1.0000 </r>
       <r>  -12.6738    1.0000 </r>
       <r>  -12.6682    1.0000 </r>
       <r>  -12.6644    1.0000 </r>
       <r>  -12.6615    1.0000 </r>
       <r>  -12.6543    1.0000 </r>
       <r>  -12.6508    1.0000 </r>
       <r>  -12.6500    1.0000 </r>
       <r>  -12.6474    1.0000 </r>
       <r>  -12.6469    1.0000 </r>
       <r>  -12.6457    1.0000 </r>
       <r>  -12.6360    1.0000 </r>
       <r>  -12.6354    1.0000 </r>
       <r>  -12.6240    1.0000 </r>
       <r>  -12.6238    1.0000 </r>
       <r>  -12.6190    1.0000 </r>
       <r>  -12.6175    1.0000 </r>
       <r>  -12.6138    1.0000 </r>
       <r>  -12.6115    1.0000 </r>
       <r>  -12.6107    1.0000 </r>
       <r>  -12.6089    1.0000 </r>
       <r>  -12.6086    1.0000 </r>
       <r>  -12.6047    1.0000 </r>
       <r>  -12.6027    1.0000 </r>
       <r>  -12.6009    1.0000 </r>
       <r>  -12.5998    1.0000 </r>
       <r>  -12.5984    1.0000 </r>
       <r>  -12.5941    1.0000 </r>
       <r>  -12.5918    1.0000 </r>
       <r>  -12.5912    1.0000 </r>
       <r>  -12.5877    1.0000 </r>
       <r>  -12.5840    1.0000 </r>
       <r>  -12.5835    1.0000 </r>
       <r>  -12.5822    1.0000 </r>
       <r>  -12.5753    1.0000 </r>
       <r>  -12.5745    1.0000 </r>
       <r>  -12.5707    1.0000 </r>
       <r>  -12.5694    1.0000 </r>
       <r>  -12.5673    1.0000 </r>
       <r>  -12.5657    1.0000 </r>
       <r>  -12.5629    1.0000 </r>
       <r>  -12.5619    1.0000 </r>
       <r>  -12.5583    1.0000 </r>
       <r>  -12.5571    1.0000 </r>
       <r>  -12.5566    1.0000 </r>
       <r>  -12.5565    1.0000 </r>
       <r>  -12.5558    1.0000 </r>
       <r>  -12.5491    1.0000 </r>
       <r>  -12.5478    1.0000 </r>
       <r>  -12.5436    1.0000 </r>
       <r>  -12.5423    1.0000 </r>
       <r>  -12.5413    1.0000 </r>
       <r>  -12.5393    1.0000 </r>
       <r>  -12.5358    1.0000 </r>
       <r>  -12.5335    1.0000 </r>
       <r>  -12.5327    1.0000 </r>
       <r>  -12.5320    1.0000 </r>
       <r>  -12.5264    1.0000 </r>
       <r>  -12.5261    1.0000 </r>
       <r>  -12.5247    1.0000 </r>
       <r>  -12.5197    1.0000 </r>
       <r>  -12.5170    1.0000 </r>
       <r>  -12.5127    1.0000 </r>
       <r>  -12.5102    1.0000 </r>
       <r>  -12.5091    1.0000 </r>
       <r>  -12.5052    1.0000 </r>
       <r>  -12.5031    1.0000 </r>
       <r>  -12.4920    1.0000 </r>
       <r>  -12.4910    1.0000 </r>
       <r>  -12.4905    1.0000 </r>
       <r>  -12.4898    1.0000 </r>
       <r>  -12.4836    1.0000 </r>
       <r>  -12.4810    1.0000 </r>
       <r>  -12.4765    1.0000 </r>
       <r>  -12.4754    1.0000 </r>
       <r>  -12.4718    1.0000 </r>
       <r>  -12.4711    1.0000 </r>
       <r>  -12.4591    1.0000 </r>
       <r>  -12.4565    1.0000 </r>
       <r>  -12.4544    1.0000 </r>
       <r>  -12.4348    1.0000 </r>
[...]
       <r>   -12.0695   119.3218   574.4063 </r>
       <r>   -11.9336    89.5090   586.5728 </r>
       <r>   -11.7977   115.6712   602.2954 </r>
       <r>   -11.6618   116.5578   618.1385 </r>
       <r>   -11.5258    27.6718   621.8998 </r>
       <r>   -11.3899     0.7372   622.0000 </r>
       <r>   -11.2540     0.0000   622.0000 </r>
       <r>   -11.1181     0.0000   622.0000 </r>
       <r>   -10.9821     0.0000   622.0000 </r>
       <r>   -10.8462     0.0000   622.0000 </r>
       <r>   -10.7103     0.3187   622.0433 </r>
       <r>   -10.5744    13.8351   623.9238 </r>
       <r>   -10.4384     0.5603   624.0000 </r>
       <r>   -10.3025     0.0000   624.0000 </r>
       <r>   -10.1666     0.0000   624.0000 </r>
       <r>   -10.0307     0.0000   624.0000 </r>
       <r>    -9.8947     0.0000   624.0000 </r>
       <r>    -9.7588     0.0000   624.0000 </r>
       <r>    -9.6229     0.0000   624.0000 </r>
       <r>    -9.4870     0.0000   624.0000 </r>
       <r>    -9.3510     0.0000   624.0000 </r>
       <r>    -9.2151     0.0000   624.0000 </r>
       <r>    -9.0792     0.0000   624.0000 </r>
       <r>    -8.9433     0.0000   624.0000 </r>
       <r>    -8.8073     0.0000   624.0000 </r>
       <r>    -8.6714     0.0000   624.0000 </r>
       <r>    -8.5355     0.0000   624.0000 </r>
       <r>    -8.3996     0.0000   624.0000 </r>
       <r>    -8.2636     0.0000   624.0000 </r>
       <r>    -8.1277     0.0000   624.0000 </r>
       <r>    -7.9918     0.0000   624.0000 </r>
       <r>    -7.8559     0.0000   624.0000 </r>
       <r>    -7.7199     0.0000   624.0000 </r>
       <r>    -7.5840     0.0000   624.0000 </r>
       <r>    -7.4481     0.0000   624.0000 </r>
       <r>    -7.3122     0.0000   624.0000 </r>
       <r>    -7.1762     0.0000   624.0000 </r>
       <r>    -7.0403     0.0000   624.0000 </r>
       <r>    -6.9044     0.0000   624.0000 </r>
       <r>    -6.7685     0.0000   624.0000 </r>
       <r>    -6.6325     0.0000   624.0000 </r>
       <r>    -6.4966     0.0000   624.0000 </r>
       <r>    -6.3607     0.0000   624.0000 </r>
       <r>    -6.2248     0.0000   624.0000 </r>
       <r>    -6.0888     0.0000   624.0000 </r>
       <r>    -5.9529     0.0000   624.0000 </r>
       <r>    -5.8170     0.0000   624.0000 </r>
       <r>    -5.6811     0.0000   624.0000 </r>
       <r>    -5.5451     0.0000   624.0000 </r>
       <r>    -5.4092     0.0000   624.0000 </r>
       <r>    -5.2733     0.0001   624.0000 </r>
       <r>    -5.1374     2.0098   624.2732 </r>
       <r>    -5.0014     6.7785   625.1946 </r>
       <r>    -4.8655    20.5541   627.9884 </r>
       <r>    -4.7296    24.1896   631.2764 </r>
       <r>    -4.5937    35.2422   636.0666 </r>
       <r>    -4.4577    28.9702   640.0044 </r>
       <r>    -4.3218    51.3557   646.9849 </r>
       <r>    -4.1859    42.3745   652.7447 </r>
       <r>    -4.0500    63.8039   661.4172 </r>
       <r>    -3.9140    47.7366   667.9058 </r>
       <r>    -3.7781    34.1614   672.5492 </r>
       <r>    -3.6422    64.5178   681.3187 </r>
       <r>    -3.5063    32.0847   685.6799 </r>
       <r>    -3.3703    31.3990   689.9478 </r>
       <r>    -3.2344    22.8249   693.0502 </r>
       <r>    -3.0985    37.7479   698.1811 </r>
       <r>    -2.9626    37.3932   703.2638 </r>
       <r>    -2.8266    40.5775   708.7793 </r>
       <r>    -2.6907    31.7833   713.0994 </r>
       <r>    -2.5548    30.6016   717.2589 </r>
       <r>    -2.4189    40.2309   722.7273 </r>
       <r>    -2.2829    32.6233   727.1616 </r>
       <r>    -2.1470    55.6171   734.7214 </r>
       <r>    -2.0111    35.6149   739.5623 </r>
       <r>    -1.8752    35.5232   744.3908 </r>
       <r>    -1.7392    58.8198   752.3859 </r>
       <r>    -1.6033    84.0280   763.8074 </r>
       <r>    -1.4674    54.0000   771.1473 </r>
       <r>    -1.3315    59.9466   779.2956 </r>
       <r>    -1.1955    71.4874   789.0125 </r>
       <r>    -1.0596    49.0550   795.6803 </r>
       <r>    -0.9237    40.1918   801.1433 </r>
       <r>    -0.7878    82.4491   812.3502 </r>
       <r>    -0.6518    64.4885   821.1158 </r>
       <r>    -0.5159    79.8526   831.9698 </r>
       <r>    -0.3800    69.5992   841.4300 </r>
       <r>    -0.2441    52.4336   848.5571 </r>
       <r>    -0.1081    76.6996   858.9824 </r>
       <r>     0.0278    72.6411   868.8562 </r>
       <r>     0.1637    82.4331   880.0609 </r>
       <r>     0.2996    78.8953   890.7847 </r>
       <r>     0.4356    58.4914   898.7351 </r>
       <r>     0.5715    68.5761   908.0563 </r>
       <r>     0.7074   102.6315   922.0065 </r>
       <r>     0.8433    83.4965   933.3558 </r>
       <r>     0.9793    91.4920   945.7918 </r>
       <r>     1.1152    82.4609   957.0003 </r>
       <r>     1.2511   123.2694   973.7557 </r>
       <r>     1.3870   114.8806   989.3708 </r>
       <r>     1.5230   126.1239  1006.5142 </r>
       <r>     1.6589   130.9209  1024.3096 </r>
       <r>     1.7948    84.0603  1035.7355 </r>
       <r>     1.9307    49.7285  1042.4948 </r>
       <r>     2.0667    58.4317  1050.4371 </r>
       <r>     2.2026    25.6224  1053.9199 </r>
       <r>     2.3385     0.5897  1054.0000 </r>
       <r>     2.4744     0.0000  1054.0000 </r>
       <r>     2.6104     0.0000  1054.0000 </r>
       <r>     2.7463     0.0000  1054.0000 </r>
       <r>     2.8822     0.0000  1054.0000 </r>
       <r>     3.0181     0.0000  1054.0000 </r>
       <r>     3.1541     0.0000  1054.0000 </r>
       <r>     3.2900     0.0000  1054.0000 </r>
       <r>     3.4259     0.0098  1054.0013 </r>
       <r>     3.5618     9.5721  1055.3024 </r>
       <r>     3.6978     5.1317  1055.9999 </r>
       <r>     3.8337     0.0004  1056.0000 </r>
       <r>     3.9696     0.0000  1056.0000 </r>
       <r>     4.1055     0.0000  1056.0000 </r>
       <r>     4.2415     0.0000  1056.0000 </r>
       <r>     4.3774     0.0000  1056.0000 </r>
       <r>     4.5133     0.0000  1056.0000 </r>
       <r>     4.6492     0.0000  1056.0000 </r>
       <r>     4.7852     0.0000  1056.0000 </r>
       <r>     4.9211     0.0000  1056.0000 </r>
       <r>     5.0570     0.0000  1056.0000 </r>
       <r>     5.1929     0.0000  1056.0000 </r>
       <r>     5.3289     0.0000  1056.0000 </r>
       <r>     5.4648     0.0000  1056.0000 </r>
       <r>     5.6007     0.0000  1056.0000 </r>
       <r>     5.7366     0.0000  1056.0000 </r>
       <r>     5.8726     0.0000  1056.0000 </r>
       <r>     6.0085     0.0000  1056.0000 </r>
       <r>     6.1444     0.0000  1056.0000 </r>
       <r>     6.2803     0.0000  1056.0000 </r>
       <r>     6.4163     0.0000  1056.0000 </r>
       <r>     6.5522     0.0000  1056.0000 </r>
       <r>     6.6881     0.0033  1056.0005 </r>
       <r>     6.8240     1.5150  1056.2064 </r>
       <r>     6.9599     0.3209  1056.2500 </r>
       <r>     7.0959     0.0000  1056.2500 </r>
       <r>     7.2318     0.0000  1056.2500 </r>
       <r>     7.3677     0.0000  1056.2500 </r>
       <r>     7.5036     0.0070  1056.2510 </r>
       <r>     7.6396     2.9844  1056.6566 </r>
       <r>     7.7755     4.3192  1057.2437 </r>
       <r>     7.9114     0.1095  1057.2586 </r>
       <r>     8.0473     4.0399  1057.8077 </r>
       <r>     8.1833     3.2411  1058.2482 </r>
       <r>     8.3192     0.0129  1058.2500 </r>
       <r>     8.4551     0.1738  1058.2736 </r>
       <r>     8.5910     9.0550  1059.5044 </r>
       <r>     8.7270     5.1935  1060.2104 </r>
       <r>     8.8629     4.2851  1060.7928 </r>
       <r>     8.9988     6.6540  1061.6972 </r>
       <r>     9.1347     2.5897  1062.0493 </r>
       <r>     9.2707     5.7991  1062.8375 </r>
       <r>     9.4066    13.0256  1064.6080 </r>
       <r>     9.5425     2.8711  1064.9983 </r>
       <r>     9.6784     2.1607  1065.2920 </r>
       <r>     9.8144    11.7889  1066.8944 </r>
       <r>     9.9503    15.1013  1068.9470 </r>
       <r>    10.0862    10.8822  1070.4262 </r>
       <r>    10.2221     6.2273  1071.2726 </r>
       <r>    10.3581    18.8254  1073.8315 </r>
       <r>    10.4940    27.2150  1077.5306 </r>
       <r>    10.6299    32.0482  1081.8868 </r>
       <r>    10.7658    44.8571  1087.9840 </r>
       <r>    10.9018    45.8769  1094.2198 </r>
       <r>    11.0377    33.4246  1098.7630 </r>
       <r>    11.1736    16.3645  1100.9874 </r>
       <r>    11.3095    34.9017  1105.7314 </r>
       <r>    11.4455    30.8441  1109.9239 </r>
       <r>    11.5814    28.4562  1113.7918 </r>
       <r>    11.7173    43.3374  1119.6824 </r>
       <r>    11.8532    33.4753  1124.2325 </r>
       <r>    11.9892    39.4664  1129.5970 </r>
       <r>    12.1251    24.4247  1132.9169 </r>
       <r>    12.2610    22.1262  1135.9244 </r>
       <r>    12.3969    39.9361  1141.3527 </r>
       <r>    12.5329    41.9575  1147.0558 </r>
       <r>    12.6688    52.6622  1154.2139 </r>
       <r>    12.8047    28.2520  1158.0540 </r>
       <r>    12.9406    14.8210  1160.0686 </r>
       <r>    13.0766     7.7217  1161.1181 </r>
       <r>    13.2125    19.6497  1163.7890 </r>
       <r>    13.3484    21.7130  1166.7404 </r>
       <r>    13.4843    24.2706  1170.0394 </r>
       <r>    13.6203    29.7993  1174.0898 </r>
       <r>    13.7562    25.9295  1177.6143 </r>
       <r>    13.8921    28.2819  1181.4585 </r>
       <r>    14.0280    33.9630  1186.0749 </r>
       <r>    14.1640    27.6803  1189.8374 </r>
       <r>    14.2999    23.2539  1192.9981 </r>
       <r>    14.4358    16.0191  1195.1755 </r>
       <r>    14.5717    17.6653  1197.5767 </r>
       <r>    14.7077    24.8898  1200.9598 </r>
       <r>    14.8436    20.3052  1203.7198 </r>
       <r>    14.9795    18.3950  1206.2201 </r>
       <r>    15.1154    22.1126  1209.2258 </r>
       <r>    15.2514    28.6908  1213.1256 </r>
       <r>    15.3873    27.4355  1216.8547 </r>
       <r>    15.5232    30.2465  1220.9660 </r>
       <r>    15.6591    29.6437  1224.9953 </r>
       <r>    15.7951    22.0866  1227.9974 </r>
       <r>    15.9310    26.9223  1231.6568 </r>
       <r>    16.0669    24.4442  1234.9794 </r>
       <r>    16.2028    20.7579  1237.8009 </r>
       <r>    16.3388    25.2127  1241.2280 </r>
       <r>    16.4747    22.0138  1244.2202 </r>
       <r>    16.6106    17.9733  1246.6632 </r>
       <r>    16.7465    18.1096  1249.1247 </r>
       <r>    16.8825    25.6042  1252.6050 </r>
       <r>    17.0184    13.8179  1254.4832 </r>
       <r>    17.1543    15.4224  1256.5795 </r>
       <r>    17.2902    15.2419  1258.6512 </r>
       <r>    17.4262    10.3100  1260.0526 </r>
       <r>    17.5621     9.2211  1261.3060 </r>
       <r>    17.6980    13.5381  1263.1461 </r>
       <r>    17.8339     4.4557  1263.7518 </r>
       <r>    17.9699     3.0841  1264.1710 </r>
       <r>    18.1058     1.8043  1264.4162 </r>
       <r>    18.2417     4.5860  1265.0396 </r>
       <r>    18.3776     4.3225  1265.6271 </r>
       <r>    18.5136     2.7298  1265.9982 </r>
       <r>    18.6495     0.0135  1266.0000 </r>
       <r>    18.7854     0.0000  1266.0000 </r>
       <r>    18.9213     0.0000  1266.0000 </r>
       <r>    19.0573     0.0000  1266.0000 </r>
       <r>    19.1932     0.0000  1266.0000 </r>
       <r>    19.3291     0.0000  1266.0000 </r>
       <r>    19.4650     0.0000  1266.0000 </r>
       <r>    19.6010     0.0000  1266.0000 </r>
       <r>    19.7369     0.0000  1266.0000 </r>
       <r>    19.8728     0.0000  1266.0000 </r>
       <r>    20.0087     0.0000  1266.0000 </r>
       <r>    20.1447     0.0000  1266.0000 </r>
       <r>    20.2806     0.0000  1266.0000 </r>
      </set>
     </set>
    </array>
   </total>
  </dos>
 </calculation>
 <structure name="finalpos" >
  <crystal>
   <varray name="basis" >
    <v>       0.00000000      12.28047342       0.00000000 </v>
    <v>       9.14270205       0.00000000       0.00000000 </v>
    <v>       0.00000000      -2.76826177     -11.30069772 </v>
   </varray>
   <i name="volume">   1268.80515525 </i>
   <varray name="rec_basis" >
    <v>       0.00000000       0.08143009      -0.01994742 </v>
    <v>       0.10937686      -0.00000000       0.00000000 </v>
    <v>       0.00000000       0.00000000      -0.08849011 </v>
   </varray>
  </crystal>
  <varray name="positions" >
   <v>       0.65892151       0.00000000       0.15638088 </v>
   <v>       0.65958435       0.00000000       0.65668070 </v>
   <v>       0.65893231       0.33350896       0.15650005 </v>
   <v>       0.65927650       0.33350079       0.65651270 </v>
   <v>       0.65893231       0.66649104       0.15650005 </v>
   <v>       0.65927650       0.66649921       0.65651270 </v>
   <v>       0.84043268       0.16672625       0.34304562 </v>
   <v>       0.84080573       0.16678863       0.84349027 </v>
   <v>       0.84065614       0.50000000       0.34317541 </v>
   <v>       0.84128484       0.50000000       0.84336151 </v>
   <v>       0.84043268       0.83327375       0.34304562 </v>
   <v>       0.84080573       0.83321137       0.84349027 </v>
   <v>       0.59099145       0.16665960       0.39765706 </v>
   <v>       0.59104695       0.16663664       0.89757999 </v>
   <v>       0.59046792       0.50000000       0.39754885 </v>
   <v>       0.59173131       0.50000000       0.89760410 </v>
   <v>       0.59099145       0.83334040       0.39765706 </v>
   <v>       0.59104695       0.83336336       0.89757999 </v>
   <v>       0.90856631       0.00000000       0.10220020 </v>
   <v>       0.90887289       0.00000000       0.60238510 </v>
   <v>       0.90873357       0.33335999       0.10239865 </v>
   <v>       0.90874890       0.33337024       0.60208924 </v>
   <v>       0.90873357       0.66664001       0.10239865 </v>
   <v>       0.90874890       0.66662976       0.60208924 </v>
   <v>       0.15883637       0.16667222       0.15604858 </v>
   <v>       0.16077173       0.16742770       0.65597666 </v>
   <v>       0.15872949       0.50000000       0.15653373 </v>
   <v>       0.15889444       0.50000000       0.65663703 </v>
   <v>       0.15883637       0.83332778       0.15604858 </v>
   <v>       0.16077173       0.83257230       0.65597666 </v>
   <v>       0.34067002       0.00000000       0.34295694 </v>
   <v>       0.34090104       0.00000000       0.84467541 </v>
   <v>       0.34030924       0.33341634       0.34340037 </v>
   <v>       0.34153897       0.33358677       0.84382725 </v>
   <v>       0.34030924       0.66658366       0.34340037 </v>
   <v>       0.34153897       0.66641323       0.84382725 </v>
   <v>       0.09052658       0.00000000       0.39478880 </v>
   <v>       0.09086328       0.00000000       0.89781878 </v>
   <v>       0.09048748       0.33317041       0.39775476 </v>
   <v>       0.09117443       0.33305539       0.89719928 </v>
   <v>       0.09048748       0.66682959       0.39775476 </v>
   <v>       0.09117443       0.66694461       0.89719928 </v>
   <v>       0.40937763       0.16689774       0.10315729 </v>
   <v>       0.41013515       0.16676354       0.60332124 </v>
   <v>       0.40878073       0.50000000       0.10261212 </v>
   <v>       0.40863010       0.50000000       0.60254337 </v>
   <v>       0.40937763       0.83310226       0.10315729 </v>
   <v>       0.41013515       0.83323646       0.60332124 </v>
   <v>       0.99610044       0.16662003       0.12640605 </v>
   <v>       0.99644974       0.16660634       0.62821866 </v>
   <v>       0.99625740       0.50000000       0.12711452 </v>
   <v>       0.99608212       0.50000000       0.62750957 </v>
   <v>       0.99610044       0.83337997       0.12640605 </v>
   <v>       0.99644974       0.83339366       0.62821866 </v>
   <v>       0.50335718       0.00000000       0.37308460 </v>
   <v>       0.50370973       0.00000000       0.87320849 </v>
   <v>       0.50305747       0.33301643       0.37305139 </v>
   <v>       0.50411101       0.33365233       0.87308601 </v>
   <v>       0.50305747       0.66698357       0.37305139 </v>
   <v>       0.50411101       0.66634767       0.87308601 </v>
   <v>       0.67222279       0.16667477       0.28041384 </v>
   <v>       0.67244619       0.16682611       0.78032450 </v>
   <v>       0.67211326       0.50000000       0.28057016 </v>
   <v>       0.67281497       0.50000000       0.78019489 </v>
   <v>       0.67222279       0.83332523       0.28041384 </v>
   <v>       0.67244619       0.83317389       0.78032450 </v>
   <v>       0.82686771       0.00000000       0.21911561 </v>
   <v>       0.82744669       0.00000000       0.71963644 </v>
   <v>       0.82684970       0.33365102       0.21915301 </v>
   <v>       0.82750933       0.33328884       0.71950351 </v>
   <v>       0.82684970       0.66634898       0.21915301 </v>
   <v>       0.82750933       0.66671116       0.71950351 </v>
   <v>       0.83213896       0.00000000       0.44574700 </v>
   <v>       0.83160073       0.00000000       0.94563327 </v>
   <v>       0.83188653       0.33329313       0.44564981 </v>
   <v>       0.83189385       0.33353250       0.94573172 </v>
   <v>       0.83188653       0.66670687       0.44564981 </v>
   <v>       0.83189385       0.66646750       0.94573172 </v>
   <v>       0.66770565       0.16675577       0.05419386 </v>
   <v>       0.66805164       0.16673486       0.55414082 </v>
   <v>       0.66802776       0.50000000       0.05423774 </v>
   <v>       0.66801969       0.50000000       0.55391001 </v>
   <v>       0.66770565       0.83324423       0.05419386 </v>
   <v>       0.66805164       0.83326514       0.55414082 </v>
   <v>       0.49645836       0.00000000       0.12795512 </v>
   <v>       0.49718033       0.00000000       0.62729440 </v>
   <v>       0.49651388       0.33367247       0.12780990 </v>
   <v>       0.49669220       0.33379178       0.62698933 </v>
   <v>       0.49651388       0.66632753       0.12780990 </v>
   <v>       0.49669220       0.66620822       0.62698933 </v>
   <v>       0.00217080       0.16730264       0.36947372 </v>
   <v>       0.00329124       0.16673833       0.87277947 </v>
   <v>       0.00306244       0.50000000       0.37214422 </v>
   <v>       0.00390844       0.50000000       0.87263386 </v>
   <v>       0.00217080       0.83269736       0.36947372 </v>
   <v>       0.00329124       0.83326167       0.87277947 </v>
   <v>       0.17237955       0.00000000       0.27826850 </v>
   <v>       0.17411937       0.00000000       0.78371933 </v>
   <v>       0.17236494       0.33303121       0.28053163 </v>
   <v>       0.17295884       0.33295611       0.78023112 </v>
   <v>       0.17236494       0.66696879       0.28053163 </v>
   <v>       0.17295884       0.66704389       0.78023112 </v>
   <v>       0.32769568       0.16697719       0.22017279 </v>
   <v>       0.32971204       0.16719969       0.72109983 </v>
   <v>       0.32709819       0.50000000       0.21957792 </v>
   <v>       0.32793316       0.50000000       0.72014473 </v>
   <v>       0.32769568       0.83302281       0.22017279 </v>
   <v>       0.32971204       0.83280031       0.72109983 </v>
   <v>       0.33162991       0.16571754       0.44679302 </v>
   <v>       0.33292590       0.16736916       0.94669037 </v>
   <v>       0.33224449       0.50000000       0.44582758 </v>
   <v>       0.33201639       0.50000000       0.94607424 </v>
   <v>       0.33162991       0.83428246       0.44679302 </v>
   <v>       0.33292590       0.83263084       0.94669037 </v>
   <v>       0.16829044       0.00000000       0.05404728 </v>
   <v>       0.16780801       0.33335711       0.05400081 </v>
   <v>       0.16797435       0.33558655       0.55391005 </v>
   <v>       0.16780801       0.66664289       0.05400081 </v>
   <v>       0.16797435       0.66441345       0.55391005 </v>
   <v>       0.16554926       0.00000000       0.55381908 </v>
  </varray>
 </structure>
</modeling>
