       N       E                     dE             d eps       ncg     rms          rms(c)
DAV:   1     0.217697750425E+05    0.21770E+05   -0.31799E+05 10000   0.281E+03
DAV:   2     0.483110488765E+04   -0.16939E+05   -0.15968E+05 10000   0.815E+02
DAV:   3    -0.146848133360E+03   -0.49780E+04   -0.46966E+04 12848   0.321E+02
DAV:   4    -0.765777820503E+03   -0.61893E+03   -0.60453E+03 12384   0.121E+02
DAV:   5    -0.807280554402E+03   -0.41503E+02   -0.41151E+02 14184   0.339E+01    0.599E+01
RMM:   6    -0.702102201220E+03    0.10518E+03   -0.36863E+02 13149   0.234E+01    0.214E+01
RMM:   7    -0.708220298459E+03   -0.61181E+01   -0.74650E+01 13707   0.102E+01    0.197E+01
RMM:   8    -0.703503051747E+03    0.47172E+01   -0.12076E+01 14944   0.477E+00    0.133E+01
RMM:   9    -0.702406649616E+03    0.10964E+01   -0.40004E+00 14106   0.235E+00    0.103E+01
RMM:  10    -0.707340751441E+03   -0.49341E+01   -0.65868E+00 12097   0.319E+00    0.193E+01
RMM:  11    -0.702578416914E+03    0.47623E+01   -0.24104E+00 13977   0.184E+00    0.823E+00
RMM:  12    -0.702357494468E+03    0.22092E+00   -0.54569E-01 14402   0.856E-01    0.779E+00
RMM:  13    -0.702240187983E+03    0.11731E+00   -0.71762E-01 13066   0.901E-01    0.590E+00
RMM:  14    -0.701957370682E+03    0.28282E+00   -0.25491E-01 13330   0.572E-01    0.384E+00
RMM:  15    -0.701900890321E+03    0.56480E-01   -0.58947E-02 15546   0.285E-01    0.331E+00
RMM:  16    -0.701850404274E+03    0.50486E-01   -0.24891E-02 13523   0.159E-01    0.289E+00
RMM:  17    -0.701788664756E+03    0.61740E-01   -0.19967E-02 12984   0.129E-01    0.182E+00
RMM:  18    -0.701787755634E+03    0.90912E-03   -0.38395E-03 14754   0.716E-02    0.176E+00
RMM:  19    -0.701768766393E+03    0.18989E-01   -0.14366E-02 13332   0.102E-01    0.146E+00
RMM:  20    -0.701779185198E+03   -0.10419E-01   -0.50272E-03 13715   0.928E-02    0.248E+00
RMM:  21    -0.701765215255E+03    0.13970E-01   -0.77532E-03 14037   0.956E-02    0.175E+00
RMM:  22    -0.701762675618E+03    0.25396E-02   -0.26069E-03 13550   0.514E-02    0.115E+00
RMM:  23    -0.701761036437E+03    0.16392E-02   -0.73221E-04 11797   0.353E-02    0.468E-01
RMM:  24    -0.701761903879E+03   -0.86744E-03   -0.47502E-04 11533   0.317E-02    0.370E-01
RMM:  25    -0.701761688443E+03    0.21544E-03   -0.19151E-04 10814   0.182E-02    0.953E-02
RMM:  26    -0.701761844302E+03   -0.15586E-03   -0.62100E-05  9470   0.134E-02    0.962E-02
RMM:  27    -0.701761841664E+03    0.26385E-05   -0.48190E-05  8344   0.925E-03
   1 F= -.70176184E+03 E0= -.70174575E+03  d E =-.701762E+03
       N       E                     dE             d eps       ncg     rms          rms(c)
DAV:   1    -0.701205863158E+03    0.55598E+00   -0.18860E+02 11312   0.192E+01    0.436E+00
RMM:   2    -0.702834919409E+03   -0.16291E+01   -0.10629E+01 13839   0.636E+00    0.726E+00
RMM:   3    -0.702653870280E+03    0.18105E+00   -0.27873E+00 14806   0.248E+00    0.721E+00
RMM:   4    -0.702317014101E+03    0.33686E+00   -0.43406E-01 15437   0.973E-01    0.328E+00
RMM:   5    -0.702274146196E+03    0.42868E-01   -0.74973E-02 15378   0.392E-01    0.178E+00
RMM:   6    -0.702264377113E+03    0.97691E-02   -0.28796E-02 13146   0.231E-01    0.243E+00
RMM:   7    -0.702229063868E+03    0.35313E-01   -0.11963E-02 13906   0.162E-01    0.100E+00
RMM:   8    -0.702219321413E+03    0.97425E-02   -0.26199E-02 13438   0.219E-01    0.811E-01
RMM:   9    -0.702214119285E+03    0.52021E-02   -0.19746E-02 13268   0.172E-01    0.349E-01
RMM:  10    -0.702213975447E+03    0.14384E-03   -0.23144E-03 14786   0.782E-02    0.126E-01
RMM:  11    -0.702214069915E+03   -0.94469E-04   -0.61133E-04 12971   0.331E-02    0.113E-01
RMM:  12    -0.702214010997E+03    0.58919E-04   -0.16267E-04 11395   0.199E-02    0.562E-02
RMM:  13    -0.702214007622E+03    0.33746E-05   -0.52121E-05  9332   0.108E-02
   2 F= -.70221401E+03 E0= -.70218791E+03  d E =-.452166E+00
       N       E                     dE             d eps       ncg     rms          rms(c)
DAV:   1    -0.702213938411E+03    0.72586E-04   -0.61012E-02 11272   0.347E-01    0.854E-02
RMM:   2    -0.702214751563E+03   -0.81315E-03   -0.30155E-03 13743   0.105E-01    0.281E-01
RMM:   3    -0.702214222654E+03    0.52891E-03   -0.61532E-04 13838   0.398E-02    0.131E-01
RMM:   4    -0.702214175896E+03    0.46759E-04   -0.97742E-05 10569   0.170E-02    0.394E-02
RMM:   5    -0.702214177909E+03   -0.20136E-05   -0.24007E-05  7206   0.994E-03
   3 F= -.70221418E+03 E0= -.70218795E+03  d E =-.452336E+00
       N       E                     dE             d eps       ncg     rms          rms(c)
DAV:   1    -0.701996409715E+03    0.21777E+00   -0.95730E+01 10288   0.129E+01    0.220E+00
RMM:   2    -0.702683012404E+03   -0.68660E+00   -0.35753E+00 13469   0.345E+00    0.777E+00
RMM:   3    -0.702446094575E+03    0.23692E+00   -0.77763E-01 15044   0.136E+00    0.347E+00
RMM:   4    -0.702388507506E+03    0.57587E-01   -0.12499E-01 15274   0.513E-01    0.144E+00
RMM:   5    -0.702392341396E+03   -0.38339E-02   -0.31334E-02 15183   0.227E-01    0.178E+00
RMM:   6    -0.702377603650E+03    0.14738E-01   -0.70418E-03 13853   0.114E-01    0.869E-01
RMM:   7    -0.702374060465E+03    0.35432E-02   -0.64442E-03 13724   0.876E-02    0.582E-01
RMM:   8    -0.702371400056E+03    0.26604E-02   -0.73338E-03 13122   0.938E-02    0.412E-01
RMM:   9    -0.702370482106E+03    0.91795E-03   -0.17931E-03 13786   0.562E-02    0.129E-01
RMM:  10    -0.702370478872E+03    0.32339E-05   -0.48871E-04 12710   0.294E-02    0.553E-02
RMM:  11    -0.702370506675E+03   -0.27803E-04   -0.12065E-04 10640   0.153E-02    0.514E-02
RMM:  12    -0.702370500151E+03    0.65238E-05   -0.38969E-05  9088   0.943E-03
   4 F= -.70237050E+03 E0= -.70234396E+03  d E =-.156322E+00
       N       E                     dE             d eps       ncg     rms          rms(c)
DAV:   1    -0.702369510604E+03    0.99607E-03   -0.47310E-01 11416   0.908E-01    0.158E-01
RMM:   2    -0.702373644956E+03   -0.41344E-02   -0.17515E-02 13275   0.242E-01    0.791E-01
RMM:   3    -0.702371000444E+03    0.26445E-02   -0.36224E-03 14951   0.947E-02    0.165E-01
RMM:   4    -0.702371344368E+03   -0.34392E-03   -0.51714E-04 13196   0.366E-02    0.840E-02
RMM:   5    -0.702371315546E+03    0.28823E-04   -0.10105E-04 10709   0.168E-02    0.773E-02
RMM:   6    -0.702371289992E+03    0.25553E-04   -0.30798E-05  8189   0.869E-03    0.472E-02
RMM:   7    -0.702371285225E+03    0.47673E-05   -0.22100E-05  7604   0.723E-03
   5 F= -.70237129E+03 E0= -.70234475E+03  d E =-.157107E+00
       N       E                     dE             d eps       ncg     rms          rms(c)
DAV:   1    -0.702260696793E+03    0.11059E+00   -0.58095E+01 10170   0.100E+01    0.206E+00
RMM:   2    -0.702936185339E+03   -0.67549E+00   -0.20852E+00 13236   0.261E+00    0.865E+00
RMM:   3    -0.702492487130E+03    0.44370E+00   -0.45813E-01 15047   0.105E+00    0.286E+00
RMM:   4    -0.702464046231E+03    0.28441E-01   -0.77510E-02 15253   0.404E-01    0.785E-01
RMM:   5    -0.702466334623E+03   -0.22884E-02   -0.14116E-02 15203   0.175E-01    0.617E-01
RMM:   6    -0.702466243577E+03    0.91046E-04   -0.42311E-03 15066   0.767E-02    0.751E-01
RMM:   7    -0.702464136768E+03    0.21068E-02   -0.25406E-03 13012   0.568E-02    0.513E-01
RMM:   8    -0.702462124291E+03    0.20125E-02   -0.30763E-03 12898   0.624E-02    0.196E-01
RMM:   9    -0.702462017763E+03    0.10653E-03   -0.12192E-03 13263   0.429E-02    0.113E-01
RMM:  10    -0.702461969806E+03    0.47957E-04   -0.18744E-04 11649   0.209E-02    0.562E-02
RMM:  11    -0.702461968153E+03    0.16536E-05   -0.60718E-05 10088   0.111E-02
   6 F= -.70246197E+03 E0= -.70243536E+03  d E =-.906829E-01
       N       E                     dE             d eps       ncg     rms          rms(c)
DAV:   1    -0.702437078786E+03    0.24891E-01   -0.98031E+00 10784   0.412E+00    0.856E-01
RMM:   2    -0.702578017327E+03   -0.14094E+00   -0.34959E-01 13248   0.106E+00    0.507E+00
RMM:   3    -0.702459394256E+03    0.11862E+00   -0.74574E-02 14972   0.433E-01    0.691E-01
RMM:   4    -0.702471547478E+03   -0.12153E-01   -0.12397E-02 15179   0.171E-01    0.484E-01
RMM:   5    -0.702471358545E+03    0.18893E-03   -0.21391E-03 14848   0.705E-02    0.406E-01
RMM:   6    -0.702470780316E+03    0.57823E-03   -0.57469E-04 12877   0.308E-02    0.219E-01
RMM:   7    -0.702470476751E+03    0.30357E-03   -0.56228E-04 11633   0.288E-02    0.140E-01
RMM:   8    -0.702470292093E+03    0.18466E-03   -0.51452E-04 12024   0.262E-02    0.766E-02
RMM:   9    -0.702470269321E+03    0.22772E-04   -0.12793E-04 10709   0.162E-02    0.351E-02
RMM:  10    -0.702470265829E+03    0.34926E-05   -0.25633E-05  7868   0.863E-03
   7 F= -.70247027E+03 E0= -.70244371E+03  d E =-.989806E-01
       N       E                     dE             d eps       ncg     rms          rms(c)
DAV:   1    -0.702341355145E+03    0.12891E+00   -0.48988E+01 10248   0.927E+00    0.127E+00
RMM:   2    -0.702566117823E+03   -0.22476E+00   -0.15856E+00 12945   0.240E+00    0.361E+00
RMM:   3    -0.702522367544E+03    0.43750E-01   -0.37508E-01 15021   0.953E-01    0.123E+00
RMM:   4    -0.702526631165E+03   -0.42636E-02   -0.44730E-02 15208   0.327E-01    0.101E+00
RMM:   5    -0.702523126852E+03    0.35043E-02   -0.81587E-03 15427   0.128E-01    0.707E-01
RMM:   6    -0.702521258282E+03    0.18686E-02   -0.25367E-03 14900   0.674E-02    0.369E-01
RMM:   7    -0.702519461955E+03    0.17963E-02   -0.58397E-03 12690   0.842E-02    0.256E-01
RMM:   8    -0.702519191571E+03    0.27038E-03   -0.12119E-03 13602   0.445E-02    0.172E-01
RMM:   9    -0.702519045965E+03    0.14561E-03   -0.41194E-04 11907   0.276E-02    0.567E-02
RMM:  10    -0.702519031070E+03    0.14895E-04   -0.88922E-05 10578   0.139E-02    0.236E-02
RMM:  11    -0.702519033060E+03   -0.19901E-05   -0.37516E-05  9202   0.897E-03
   8 F= -.70251903E+03 E0= -.70249194E+03  d E =-.487672E-01
       N       E                     dE             d eps       ncg     rms          rms(c)
DAV:   1    -0.702518196039E+03    0.83503E-03   -0.33336E-01 11384   0.765E-01    0.103E-01
RMM:   2    -0.702519779373E+03   -0.15833E-02   -0.10370E-02 12904   0.194E-01    0.376E-01
RMM:   3    -0.702519365463E+03    0.41391E-03   -0.24583E-03 14961   0.768E-02    0.113E-01
RMM:   4    -0.702519401196E+03   -0.35733E-04   -0.29852E-04 12706   0.271E-02    0.553E-02
RMM:   5    -0.702519378924E+03    0.22272E-04   -0.57815E-05  9426   0.137E-02    0.391E-02
RMM:   6    -0.702519384949E+03   -0.60242E-05   -0.22574E-05  7665   0.718E-03
   9 F= -.70251938E+03 E0= -.70249233E+03  d E =-.491191E-01
       N       E                     dE             d eps       ncg     rms          rms(c)
DAV:   1    -0.702449351272E+03    0.70028E-01   -0.28695E+01 10264   0.714E+00    0.986E-01
RMM:   2    -0.702602161642E+03   -0.15281E+00   -0.87874E-01 12847   0.181E+00    0.379E+00
RMM:   3    -0.702548165602E+03    0.53996E-01   -0.22259E-01 15003   0.740E-01    0.855E-01
RMM:   4    -0.702561910110E+03   -0.13745E-01   -0.30152E-02 15289   0.262E-01    0.158E+00
RMM:   5    -0.702552110778E+03    0.97993E-02   -0.66626E-03 15040   0.117E-01    0.603E-01
RMM:   6    -0.702551743076E+03    0.36770E-03   -0.18864E-03 14734   0.611E-02    0.284E-01
RMM:   7    -0.702551265771E+03    0.47731E-03   -0.18919E-03 12605   0.499E-02    0.277E-01
RMM:   8    -0.702550596899E+03    0.66887E-03   -0.15114E-03 12831   0.457E-02    0.138E-01
RMM:   9    -0.702550480061E+03    0.11684E-03   -0.34608E-04 12716   0.261E-02    0.563E-02
RMM:  10    -0.702550477983E+03    0.20776E-05   -0.68384E-05 10335   0.124E-02
  10 F= -.70255048E+03 E0= -.70252259E+03  d E =-.310930E-01
       N       E                     dE             d eps       ncg     rms          rms(c)
DAV:   1    -0.702543418060E+03    0.70620E-02   -0.25400E+00 10784   0.213E+00    0.287E-01
RMM:   2    -0.702556161138E+03   -0.12743E-01   -0.78127E-02 12859   0.538E-01    0.114E+00
RMM:   3    -0.702551894916E+03    0.42662E-02   -0.18766E-02 14985   0.217E-01    0.215E-01
RMM:   4    -0.702552601966E+03   -0.70705E-03   -0.23300E-03 14921   0.760E-02    0.171E-01
RMM:   5    -0.702552414186E+03    0.18778E-03   -0.42245E-04 13520   0.304E-02    0.943E-02
RMM:   6    -0.702552456058E+03   -0.41871E-04   -0.15147E-04 10456   0.163E-02    0.160E-01
RMM:   7    -0.702552358333E+03    0.97725E-04   -0.14913E-04 10444   0.159E-02    0.103E-01
RMM:   8    -0.702552303907E+03    0.54425E-04   -0.12674E-04 10310   0.147E-02    0.361E-02
RMM:   9    -0.702552297648E+03    0.62594E-05   -0.28211E-05  8881   0.909E-03
  11 F= -.70255230E+03 E0= -.70252421E+03  d E =-.329127E-01
       N       E                     dE             d eps       ncg     rms          rms(c)
DAV:   1    -0.702483345472E+03    0.68958E-01   -0.25622E+01 10304   0.679E+00    0.830E-01
RMM:   2    -0.702570890741E+03   -0.87545E-01   -0.76133E-01 12688   0.170E+00    0.186E+00
RMM:   3    -0.702576155030E+03   -0.52643E-02   -0.19592E-01 14932   0.698E-01    0.968E-01
RMM:   4    -0.702575982447E+03    0.17258E-03   -0.22008E-02 15203   0.236E-01    0.614E-01
RMM:   5    -0.702574559926E+03    0.14225E-02   -0.41041E-03 15380   0.909E-02    0.453E-01
RMM:   6    -0.702574273256E+03    0.28667E-03   -0.12603E-03 14543   0.460E-02    0.366E-01
RMM:   7    -0.702573147423E+03    0.11258E-02   -0.25510E-03 12592   0.575E-02    0.203E-01
RMM:   8    -0.702572920195E+03    0.22723E-03   -0.90212E-04 12825   0.381E-02    0.848E-02
RMM:   9    -0.702572903576E+03    0.16619E-04   -0.12214E-04 10607   0.177E-02    0.433E-02
RMM:  10    -0.702572899823E+03    0.37529E-05   -0.39106E-05  8826   0.877E-03
  12 F= -.70257290E+03 E0= -.70254458E+03  d E =-.206022E-01
       N       E                     dE             d eps       ncg     rms          rms(c)
DAV:   1    -0.702572185231E+03    0.71834E-03   -0.26560E-01 11480   0.693E-01    0.851E-02
RMM:   2    -0.702573051700E+03   -0.86647E-03   -0.80301E-03 12705   0.174E-01    0.169E-01
RMM:   3    -0.702573167402E+03   -0.11570E-03   -0.19942E-03 14856   0.706E-02    0.117E-01
RMM:   4    -0.702573135661E+03    0.31742E-04   -0.22119E-04 12498   0.245E-02    0.403E-02
RMM:   5    -0.702573135593E+03    0.67972E-07   -0.47703E-05  9009   0.126E-02
  13 F= -.70257314E+03 E0= -.70254474E+03  d E =-.208379E-01
       N       E                     dE             d eps       ncg     rms          rms(c)
DAV:   1    -0.702538443649E+03    0.34692E-01   -0.12867E+01 10343   0.490E+00    0.713E-01
RMM:   2    -0.702624308887E+03   -0.85865E-01   -0.42190E-01 13179   0.125E+00    0.356E+00
RMM:   3    -0.702580330100E+03    0.43979E-01   -0.92320E-02 14926   0.495E-01    0.801E-01
RMM:   4    -0.702589660800E+03   -0.93307E-02   -0.13913E-02 15282   0.190E-01    0.106E+00
RMM:   5    -0.702584824730E+03    0.48361E-02   -0.27961E-03 14984   0.791E-02    0.385E-01
RMM:   6    -0.702584626851E+03    0.19788E-03   -0.85664E-04 13641   0.405E-02    0.218E-01
RMM:   7    -0.702584111404E+03    0.51545E-03   -0.16203E-03 12834   0.472E-02    0.119E-01
RMM:   8    -0.702584057882E+03    0.53522E-04   -0.36290E-04 12569   0.254E-02    0.812E-02
RMM:   9    -0.702584028218E+03    0.29664E-04   -0.72899E-05 10516   0.136E-02    0.314E-02
RMM:  10    -0.702584026719E+03    0.14998E-05   -0.19826E-05  7412   0.713E-03
  14 F= -.70258403E+03 E0= -.70255526E+03  d E =-.108911E-01
       N       E                     dE             d eps       ncg     rms          rms(c)
DAV:   1    -0.702583606501E+03    0.42172E-03   -0.15559E-01 11408   0.540E-01    0.837E-02
RMM:   2    -0.702584854577E+03   -0.12481E-02   -0.51813E-03 13172   0.139E-01    0.455E-01
RMM:   3    -0.702584059907E+03    0.79467E-03   -0.11463E-03 14742   0.556E-02    0.677E-02
RMM:   4    -0.702584215406E+03   -0.15550E-03   -0.16657E-04 12294   0.220E-02    0.102E-01
RMM:   5    -0.702584167754E+03    0.47652E-04   -0.36349E-05  8480   0.117E-02    0.336E-02
RMM:   6    -0.702584169180E+03   -0.14260E-05   -0.13183E-05  6620   0.612E-03
  15 F= -.70258417E+03 E0= -.70255537E+03  d E =-.110336E-01
       N       E                     dE             d eps       ncg     rms          rms(c)
DAV:   1    -0.702554495992E+03    0.29672E-01   -0.10927E+01 10526   0.455E+00    0.662E-01
RMM:   2    -0.702624198321E+03   -0.69702E-01   -0.34451E-01 12979   0.115E+00    0.291E+00
RMM:   3    -0.702591590836E+03    0.32607E-01   -0.83488E-02 14898   0.468E-01    0.777E-01
RMM:   4    -0.702597045889E+03   -0.54551E-02   -0.12066E-02 15259   0.176E-01    0.944E-01
RMM:   5    -0.702593476632E+03    0.35693E-02   -0.23423E-03 14982   0.738E-02    0.385E-01
RMM:   6    -0.702593189474E+03    0.28716E-03   -0.72894E-04 13363   0.379E-02    0.182E-01
RMM:   7    -0.702592807233E+03    0.38224E-03   -0.10998E-03 12672   0.402E-02    0.888E-02
RMM:   8    -0.702592772772E+03    0.34462E-04   -0.28521E-04 12122   0.226E-02    0.427E-02
RMM:   9    -0.702592773834E+03   -0.10623E-05   -0.44829E-05  9758   0.116E-02
  16 F= -.70259277E+03 E0= -.70256368E+03  d E =-.860465E-02
       N       E                     dE             d eps       ncg     rms          rms(c)
DAV:   1    -0.702591091522E+03    0.16812E-02   -0.58018E-01 11104   0.105E+00    0.160E-01
RMM:   2    -0.702595283659E+03   -0.41921E-02   -0.18314E-02 12982   0.263E-01    0.794E-01
RMM:   3    -0.702592890153E+03    0.23935E-02   -0.43885E-03 14829   0.108E-01    0.162E-01
RMM:   4    -0.702593404727E+03   -0.51457E-03   -0.64739E-04 13827   0.417E-02    0.251E-01
RMM:   5    -0.702593139199E+03    0.26553E-03   -0.14034E-04 11483   0.210E-02    0.856E-02
RMM:   6    -0.702593138943E+03    0.25540E-06   -0.48273E-05  8977   0.110E-02
  17 F= -.70259314E+03 E0= -.70256395E+03  d E =-.896976E-02
       N       E                     dE             d eps       ncg     rms          rms(c)
DAV:   1    -0.702570006799E+03    0.23132E-01   -0.78775E+00 10414   0.390E+00    0.495E-01
RMM:   2    -0.702605734355E+03   -0.35728E-01   -0.23924E-01 12820   0.983E-01    0.195E+00
RMM:   3    -0.702597252969E+03    0.84814E-02   -0.62354E-02 14980   0.403E-01    0.591E-01
RMM:   4    -0.702599918820E+03   -0.26659E-02   -0.81996E-03 15271   0.146E-01    0.535E-01
RMM:   5    -0.702598449855E+03    0.14690E-02   -0.14845E-03 15132   0.562E-02    0.320E-01
RMM:   6    -0.702598207330E+03    0.24253E-03   -0.48257E-04 12801   0.291E-02    0.180E-01
RMM:   7    -0.702597862053E+03    0.34528E-03   -0.10446E-03 13084   0.387E-02    0.693E-02
RMM:   8    -0.702597853986E+03    0.80664E-05   -0.20307E-04 11777   0.197E-02    0.357E-02
RMM:   9    -0.702597851807E+03    0.21794E-05   -0.31036E-05  9319   0.100E-02
  18 F= -.70259785E+03 E0= -.70256845E+03  d E =-.471286E-02
       N       E                     dE             d eps       ncg     rms          rms(c)
DAV:   1    -0.702597826527E+03    0.27460E-04   -0.67945E-03 11256   0.115E-01    0.144E-02
RMM:   2    -0.702597856121E+03   -0.29595E-04   -0.20468E-04 11994   0.300E-02    0.507E-02
RMM:   3    -0.702597850126E+03    0.59957E-05   -0.55607E-05  8180   0.131E-02
  19 F= -.70259785E+03 E0= -.70256849E+03  d E =-.471118E-02
       N       E                     dE             d eps       ncg     rms          rms(c)
DAV:   1    -0.702577926585E+03    0.19930E-01   -0.62616E+00 10568   0.360E+00    0.382E-01
RMM:   2    -0.702597341543E+03   -0.19415E-01   -0.19047E-01 12821   0.917E-01    0.574E-01
RMM:   3    -0.702603831984E+03   -0.64904E-02   -0.53884E-02 15009   0.379E-01    0.904E-01
RMM:   4    -0.702601559721E+03    0.22723E-02   -0.65153E-03 15345   0.133E-01    0.233E-01
RMM:   5    -0.702601666688E+03   -0.10697E-03   -0.11249E-03 15180   0.504E-02    0.145E-01
RMM:   6    -0.702601676490E+03   -0.98017E-05   -0.30451E-04 12406   0.229E-02    0.179E-01
RMM:   7    -0.702601413832E+03    0.26266E-03   -0.39681E-04 11676   0.255E-02    0.867E-02
RMM:   8    -0.702601456541E+03   -0.42709E-04   -0.32096E-04 11779   0.226E-02    0.109E-01
RMM:   9    -0.702601385371E+03    0.71170E-04   -0.76426E-05 10142   0.138E-02    0.367E-02
RMM:  10    -0.702601378661E+03    0.67104E-05   -0.17249E-05  7041   0.730E-03
  20 F= -.70260138E+03 E0= -.70257180E+03  d E =-.352853E-02
       N       E                     dE             d eps       ncg     rms          rms(c)
DAV:   1    -0.702601356670E+03    0.28701E-04   -0.41459E-03 10840   0.925E-02    0.109E-02
RMM:   2    -0.702601374399E+03   -0.17729E-04   -0.12712E-04 11317   0.244E-02    0.393E-02
RMM:   3    -0.702601370342E+03    0.40572E-05   -0.32263E-05  6843   0.107E-02
  21 F= -.70260137E+03 E0= -.70257179E+03  d E =-.352022E-02
       N       E                     dE             d eps       ncg     rms          rms(c)
DAV:   1    -0.702593460157E+03    0.79142E-02   -0.27815E+00 10632   0.243E+00    0.331E-01
RMM:   2    -0.702614690714E+03   -0.21231E-01   -0.89664E-02 12857   0.616E-01    0.200E+00
RMM:   3    -0.702601722580E+03    0.12968E-01   -0.23272E-02 14995   0.258E-01    0.317E-01
RMM:   4    -0.702605128501E+03   -0.34059E-02   -0.33497E-03 15218   0.976E-02    0.549E-01
RMM:   5    -0.702603708354E+03    0.14201E-02   -0.62485E-04 14346   0.395E-02    0.105E-01
RMM:   6    -0.702603865947E+03   -0.15759E-03   -0.23834E-04 11202   0.208E-02    0.125E-01
RMM:   7    -0.702603734675E+03    0.13127E-03   -0.21528E-04 10915   0.194E-02    0.407E-02
RMM:   8    -0.702603734346E+03    0.32966E-06   -0.87974E-05 10232   0.136E-02
  22 F= -.70260373E+03 E0= -.70257393E+03  d E =-.236400E-02
       N       E                     dE             d eps       ncg     rms          rms(c)
DAV:   1    -0.702602333454E+03    0.14012E-02   -0.38476E-01 11152   0.904E-01    0.124E-01
RMM:   2    -0.702604998805E+03   -0.26654E-02   -0.12531E-02 12866   0.232E-01    0.663E-01
RMM:   3    -0.702603568294E+03    0.14305E-02   -0.32277E-03 14955   0.960E-02    0.114E-01
RMM:   4    -0.702603952185E+03   -0.38389E-03   -0.44781E-04 13669   0.365E-02    0.191E-01
RMM:   5    -0.702603784583E+03    0.16760E-03   -0.94418E-05 11015   0.180E-02    0.367E-02
RMM:   6    -0.702603800094E+03   -0.15511E-04   -0.34616E-05  8532   0.954E-03    0.320E-02
RMM:   7    -0.702603791054E+03    0.90396E-05   -0.30355E-05  8260   0.841E-03
  23 F= -.70260379E+03 E0= -.70257402E+03  d E =-.242071E-02
       N       E                     dE             d eps       ncg     rms          rms(c)
DAV:   1    -0.702596393630E+03    0.74065E-02   -0.24586E+00 10680   0.229E+00    0.275E-01
RMM:   2    -0.702606039552E+03   -0.96459E-02   -0.72383E-02 12480   0.568E-01    0.833E-01
RMM:   3    -0.702605560628E+03    0.47892E-03   -0.21257E-02 15018   0.244E-01    0.446E-01
RMM:   4    -0.702605849278E+03   -0.28865E-03   -0.29260E-03 15112   0.887E-02    0.301E-01
RMM:   5    -0.702605348237E+03    0.50104E-03   -0.50412E-04 14131   0.359E-02    0.120E-01
RMM:   6    -0.702605360584E+03   -0.12348E-04   -0.13924E-04 10264   0.162E-02    0.104E-01
RMM:   7    -0.702605289492E+03    0.71093E-04   -0.23844E-04 11013   0.201E-02    0.631E-02
RMM:   8    -0.702605265447E+03    0.24045E-04   -0.92245E-05 10376   0.139E-02    0.271E-02
RMM:   9    -0.702605262121E+03    0.33258E-05   -0.17304E-05  6930   0.780E-03
  24 F= -.70260526E+03 E0= -.70257544E+03  d E =-.147107E-02
       N       E                     dE             d eps       ncg     rms          rms(c)
DAV:   1    -0.702604815709E+03    0.44974E-03   -0.14336E-01 11512   0.552E-01    0.684E-02
RMM:   2    -0.702605375986E+03   -0.56028E-03   -0.42705E-03 12491   0.135E-01    0.200E-01
RMM:   3    -0.702605347638E+03    0.28348E-04   -0.11998E-03 14905   0.578E-02    0.107E-01
RMM:   4    -0.702605375829E+03   -0.28192E-04   -0.17335E-04 12456   0.217E-02    0.799E-02
RMM:   5    -0.702605338023E+03    0.37806E-04   -0.36182E-05  8729   0.119E-02    0.249E-02
RMM:   6    -0.702605341494E+03   -0.34706E-05   -0.11436E-05  6486   0.556E-03
  25 F= -.70260534E+03 E0= -.70257546E+03  d E =-.155044E-02
       N       E                     dE             d eps       ncg     rms          rms(c)
DAV:   1    -0.702603322664E+03    0.20154E-02   -0.76823E-01 10480   0.128E+00    0.168E-01
RMM:   2    -0.702607882048E+03   -0.45594E-02   -0.27150E-02 13113   0.336E-01    0.718E-01
RMM:   3    -0.702606226719E+03    0.16553E-02   -0.61973E-03 15133   0.133E-01    0.194E-01
RMM:   4    -0.702606597283E+03   -0.37056E-03   -0.90610E-04 14683   0.495E-02    0.198E-01
RMM:   5    -0.702606426891E+03    0.17039E-03   -0.19074E-04 12101   0.225E-02    0.120E-01
RMM:   6    -0.702606385060E+03    0.41831E-04   -0.59224E-05  9116   0.121E-02    0.513E-02
RMM:   7    -0.702606376157E+03    0.89032E-05   -0.69159E-05  9658   0.116E-02
  26 F= -.70260638E+03 E0= -.70257666E+03  d E =-.103466E-02
       N       E                     dE             d eps       ncg     rms          rms(c)
DAV:   1    -0.702605904330E+03    0.48073E-03   -0.11033E-01 11136   0.488E-01    0.680E-02
RMM:   2    -0.702606642406E+03   -0.73808E-03   -0.38546E-03 13079   0.127E-01    0.319E-01
RMM:   3    -0.702606296799E+03    0.34561E-03   -0.88519E-04 14944   0.509E-02    0.732E-02
RMM:   4    -0.702606381400E+03   -0.84601E-04   -0.14609E-04 12241   0.200E-02    0.946E-02
RMM:   5    -0.702606346296E+03    0.35104E-04   -0.36332E-05  8829   0.117E-02    0.511E-02
RMM:   6    -0.702606338863E+03    0.74329E-05   -0.12617E-05  6613   0.598E-03
  27 F= -.70260634E+03 E0= -.70257644E+03  d E =-.997369E-03
       N       E                     dE             d eps       ncg     rms          rms(c)
DAV:   1    -0.702606262331E+03    0.83965E-04   -0.24872E-02 10438   0.234E-01    0.316E-02
RMM:   2    -0.702606436260E+03   -0.17393E-03   -0.99748E-04 12985   0.674E-02    0.150E-01
RMM:   3    -0.702606365524E+03    0.70736E-04   -0.23218E-04 13245   0.273E-02    0.394E-02
RMM:   4    -0.702606380240E+03   -0.14716E-04   -0.37609E-05  8218   0.123E-02    0.374E-02
RMM:   5    -0.702606374761E+03    0.54788E-05   -0.10930E-05  5990   0.699E-03
  28 F= -.70260637E+03 E0= -.70257648E+03  d E =-.103327E-02
       N       E                     dE             d eps       ncg     rms          rms(c)
DAV:   1    -0.702604717204E+03    0.16630E-02   -0.58270E-01 10654   0.111E+00    0.147E-01
RMM:   2    -0.702607945713E+03   -0.32285E-02   -0.19110E-02 12842   0.285E-01    0.595E-01
RMM:   3    -0.702606770052E+03    0.11757E-02   -0.48482E-03 15008   0.117E-01    0.124E-01
RMM:   4    -0.702607051944E+03   -0.28189E-03   -0.61919E-04 14275   0.420E-02    0.146E-01
RMM:   5    -0.702606971892E+03    0.80052E-04   -0.12649E-04 11542   0.194E-02    0.103E-01
RMM:   6    -0.702606943784E+03    0.28109E-04   -0.42813E-05  8688   0.107E-02    0.433E-02
RMM:   7    -0.702606939373E+03    0.44110E-05   -0.33822E-05  8458   0.871E-03
  29 F= -.70260694E+03 E0= -.70257694E+03  d E =-.564612E-03
       N       E                     dE             d eps       ncg     rms          rms(c)
DAV:   1    -0.702606389708E+03    0.55408E-03   -0.13259E-01 11086   0.532E-01    0.669E-02
RMM:   2    -0.702606983561E+03   -0.59385E-03   -0.41361E-03 12703   0.136E-01    0.223E-01
RMM:   3    -0.702606864043E+03    0.11952E-03   -0.11049E-03 14824   0.563E-02    0.649E-02
RMM:   4    -0.702606915719E+03   -0.51676E-04   -0.15322E-04 12406   0.209E-02    0.828E-02
RMM:   5    -0.702606890325E+03    0.25395E-04   -0.36103E-05  8534   0.119E-02    0.469E-02
RMM:   6    -0.702606884948E+03    0.53765E-05   -0.12646E-05  6588   0.606E-03
  30 F= -.70260688E+03 E0= -.70257695E+03  d E =-.510188E-03
       N       E                     dE             d eps       ncg     rms          rms(c)
DAV:   1    -0.702606738987E+03    0.15134E-03   -0.46064E-02 10686   0.314E-01    0.463E-02
RMM:   2    -0.702607005223E+03   -0.26624E-03   -0.16180E-03 12866   0.838E-02    0.158E-01
RMM:   3    -0.702606925264E+03    0.79959E-04   -0.41266E-04 13969   0.346E-02    0.608E-02
RMM:   4    -0.702606933522E+03   -0.82576E-05   -0.67898E-05 10154   0.150E-02
  31 F= -.70260693E+03 E0= -.70257698E+03  d E =-.558761E-03
       N       E                     dE             d eps       ncg     rms          rms(c)
DAV:   1    -0.702605255120E+03    0.16701E-02   -0.53852E-01 10708   0.110E+00    0.207E-01
RMM:   2    -0.702613806260E+03   -0.85511E-02   -0.20599E-02 13265   0.291E-01    0.129E+00
RMM:   3    -0.702606410985E+03    0.73953E-02   -0.48969E-03 14754   0.123E-01    0.137E-01
RMM:   4    -0.702607435909E+03   -0.10249E-02   -0.81356E-04 14704   0.483E-02    0.182E-01
RMM:   5    -0.702607377590E+03    0.58320E-04   -0.16589E-04 11701   0.213E-02    0.153E-01
RMM:   6    -0.702607293040E+03    0.84550E-04   -0.55699E-05  9186   0.122E-02    0.402E-02
RMM:   7    -0.702607292030E+03    0.10100E-05   -0.35938E-05  8681   0.949E-03
  32 F= -.70260729E+03 E0= -.70257744E+03  d E =-.358508E-03
       N       E                     dE             d eps       ncg     rms          rms(c)
DAV:   1    -0.702607280227E+03    0.12813E-04   -0.10584E-04  8775   0.334E-02    0.153E-02
RMM:   2    -0.702607311994E+03   -0.31767E-04   -0.40206E-05  7533   0.109E-02    0.814E-02
RMM:   3    -0.702607281548E+03    0.30446E-04   -0.11504E-05  6070   0.710E-03    0.261E-02
RMM:   4    -0.702607282574E+03   -0.10263E-05   -0.46851E-06  5849   0.445E-03
  33 F= -.70260728E+03 E0= -.70257730E+03  d E =-.349052E-03
       N       E                     dE             d eps       ncg     rms          rms(c)
DAV:   1    -0.702606585722E+03    0.69583E-03   -0.22427E-01 10806   0.718E-01    0.860E-02
RMM:   2    -0.702607716089E+03   -0.11304E-02   -0.77941E-03 13191   0.191E-01    0.316E-01
RMM:   3    -0.702607503325E+03    0.21276E-03   -0.19289E-03 14891   0.762E-02    0.143E-01
RMM:   4    -0.702607549498E+03   -0.46173E-04   -0.28761E-04 13071   0.292E-02    0.970E-02
RMM:   5    -0.702607518294E+03    0.31204E-04   -0.63261E-05 10509   0.166E-02    0.733E-02
RMM:   6    -0.702607498121E+03    0.20173E-04   -0.19803E-05  7267   0.752E-03    0.253E-02
RMM:   7    -0.702607494545E+03    0.35756E-05   -0.18105E-05  6930   0.691E-03
  34 F= -.70260749E+03 E0= -.70257752E+03  d E =-.211971E-03
       N       E                     dE             d eps       ncg     rms          rms(c)
DAV:   1    -0.702607475371E+03    0.22750E-04   -0.31343E-03 11807   0.865E-02    0.156E-02
RMM:   2    -0.702607502298E+03   -0.26927E-04   -0.13128E-04 12738   0.264E-02    0.571E-02
RMM:   3    -0.702607492287E+03    0.10011E-04   -0.34925E-05  7190   0.115E-02    0.383E-02
RMM:   4    -0.702607488664E+03    0.36226E-05   -0.93448E-06  5888   0.706E-03
  35 F= -.70260749E+03 E0= -.70257755E+03  d E =-.206090E-03
       N       E                     dE             d eps       ncg     rms          rms(c)
DAV:   1    -0.702607486327E+03    0.59599E-05   -0.13236E-03 10590   0.557E-02    0.167E-02
RMM:   2    -0.702607549482E+03   -0.63155E-04   -0.79552E-05  9680   0.171E-02    0.118E-01
RMM:   3    -0.702607484088E+03    0.65394E-04   -0.18456E-05  6444   0.926E-03    0.126E-02
RMM:   4    -0.702607491833E+03   -0.77445E-05   -0.61993E-06  5840   0.601E-03
  36 F= -.70260749E+03 E0= -.70257756E+03  d E =-.209259E-03
       N       E                     dE             d eps       ncg     rms          rms(c)
DAV:   1    -0.702607110919E+03    0.37317E-03   -0.15206E-01 10818   0.589E-01    0.158E-01
RMM:   2    -0.702613798077E+03   -0.66872E-02   -0.71186E-03 13247   0.163E-01    0.123E+00
RMM:   3    -0.702606740341E+03    0.70577E-02   -0.19146E-03 14273   0.774E-02    0.943E-02
RMM:   4    -0.702607669358E+03   -0.92902E-03   -0.36480E-04 12756   0.322E-02    0.846E-02
RMM:   5    -0.702607676079E+03   -0.67208E-05   -0.76440E-05  9993   0.166E-02
  37 F= -.70260768E+03 E0= -.70257769E+03  d E =-.184246E-03
       N       E                     dE             d eps       ncg     rms          rms(c)
DAV:   1    -0.702607666937E+03    0.24215E-05   -0.11094E-03 11240   0.508E-02    0.297E-02
RMM:   2    -0.702607816262E+03   -0.14933E-03   -0.99608E-05  9997   0.178E-02    0.199E-01
RMM:   3    -0.702607641856E+03    0.17441E-03   -0.34838E-05  7652   0.113E-02    0.383E-02
RMM:   4    -0.702607664659E+03   -0.22803E-04   -0.13949E-05  6255   0.725E-03    0.176E-02
RMM:   5    -0.702607668640E+03   -0.39807E-05   -0.64258E-06  5936   0.527E-03
  38 F= -.70260767E+03 E0= -.70257770E+03  d E =-.176807E-03
       N       E                     dE             d eps       ncg     rms          rms(c)
DAV:   1    -0.702607652263E+03    0.12397E-04   -0.39653E-03 11322   0.963E-02    0.300E-02
RMM:   2    -0.702607889407E+03   -0.23714E-03   -0.21841E-04 12772   0.297E-02    0.248E-01
RMM:   3    -0.702607629034E+03    0.26037E-03   -0.63630E-05  9189   0.150E-02    0.261E-02
RMM:   4    -0.702607666128E+03   -0.37094E-04   -0.14552E-05  6093   0.862E-03    0.109E-02
RMM:   5    -0.702607667566E+03   -0.14384E-05   -0.47981E-06  5876   0.550E-03
  39 F= -.70260767E+03 E0= -.70257773E+03  d E =-.175733E-03
       N       E                     dE             d eps       ncg     rms          rms(c)
DAV:   1    -0.702607290088E+03    0.37604E-03   -0.12021E-01 10622   0.515E-01    0.542E-02
RMM:   2    -0.702607698191E+03   -0.40810E-03   -0.41463E-03 13111   0.135E-01    0.614E-02
RMM:   3    -0.702607843770E+03   -0.14558E-03   -0.96401E-04 14931   0.529E-02    0.143E-01
RMM:   4    -0.702607783023E+03    0.60748E-04   -0.13733E-04 12313   0.200E-02    0.551E-02
RMM:   5    -0.702607780777E+03    0.22456E-05   -0.33019E-05  8358   0.121E-02
  40 F= -.70260778E+03 E0= -.70257795E+03  d E =-.113211E-03
       N       E                     dE             d eps       ncg     rms          rms(c)
DAV:   1    -0.702607766667E+03    0.16356E-04   -0.17563E-03 10645   0.628E-02    0.228E-02
RMM:   2    -0.702607794353E+03   -0.27686E-04   -0.93361E-05  9884   0.178E-02    0.758E-02
RMM:   3    -0.702607768683E+03    0.25670E-04   -0.22733E-05  6785   0.903E-03    0.250E-02
RMM:   4    -0.702607777182E+03   -0.84987E-05   -0.10713E-05  6043   0.652E-03
  41 F= -.70260778E+03 E0= -.70257786E+03  d E =-.109616E-03
       N       E                     dE             d eps       ncg     rms          rms(c)
DAV:   1    -0.702607770906E+03   -0.22233E-05   -0.86290E-04 11270   0.447E-02    0.306E-02
RMM:   2    -0.702608013201E+03   -0.24229E-03   -0.11441E-04  9661   0.160E-02    0.249E-01
RMM:   3    -0.702607744920E+03    0.26828E-03   -0.48322E-05  8181   0.115E-02    0.450E-02
RMM:   4    -0.702607770551E+03   -0.25631E-04   -0.15602E-05  6280   0.686E-03    0.151E-02
RMM:   5    -0.702607771365E+03   -0.81486E-06   -0.44735E-06  5811   0.448E-03
  42 F= -.70260777E+03 E0= -.70257786E+03  d E =-.103799E-03
       N       E                     dE             d eps       ncg     rms          rms(c)
DAV:   1    -0.702607501583E+03    0.26897E-03   -0.94897E-02 10806   0.451E-01    0.595E-02
RMM:   2    -0.702608136320E+03   -0.63474E-03   -0.30948E-03 12830   0.114E-01    0.310E-01
RMM:   3    -0.702607805837E+03    0.33048E-03   -0.75133E-04 14719   0.469E-02    0.559E-02
RMM:   4    -0.702607903028E+03   -0.97191E-04   -0.12041E-04 11884   0.186E-02    0.111E-01
RMM:   5    -0.702607848119E+03    0.54909E-04   -0.28163E-05  8034   0.109E-02    0.195E-02
RMM:   6    -0.702607854150E+03   -0.60305E-05   -0.10435E-05  6274   0.552E-03
  43 F= -.70260785E+03 E0= -.70257800E+03  d E =-.827844E-04
       N       E                     dE             d eps       ncg     rms          rms(c)
DAV:   1    -0.702607835846E+03    0.12273E-04   -0.49200E-03 11680   0.104E-01    0.192E-02
RMM:   2    -0.702607883685E+03   -0.47838E-04   -0.18181E-04 12274   0.274E-02    0.783E-02
RMM:   3    -0.702607853712E+03    0.29973E-04   -0.42216E-05  8110   0.118E-02    0.379E-02
RMM:   4    -0.702607852155E+03    0.15563E-05   -0.10346E-05  6023   0.739E-03
  44 F= -.70260785E+03 E0= -.70257796E+03  d E =-.807900E-04
       N       E                     dE             d eps       ncg     rms          rms(c)
DAV:   1    -0.702607844700E+03    0.90115E-05   -0.18442E-03 10496   0.634E-02    0.169E-02
RMM:   2    -0.702607901462E+03   -0.56762E-04   -0.94754E-05  9752   0.182E-02    0.109E-01
RMM:   3    -0.702607844298E+03    0.57164E-04   -0.20421E-05  6536   0.935E-03    0.896E-03
RMM:   4    -0.702607851812E+03   -0.75139E-05   -0.63206E-06  5834   0.615E-03
  45 F= -.70260785E+03 E0= -.70257798E+03  d E =-.804466E-04
       N       E                     dE             d eps       ncg     rms          rms(c)
DAV:   1    -0.702607850230E+03   -0.59320E-05   -0.56243E-04 10310   0.349E-02    0.978E-03
RMM:   2    -0.702607875827E+03   -0.25597E-04   -0.25890E-05  6596   0.102E-02    0.823E-02
RMM:   3    -0.702607847913E+03    0.27914E-04   -0.71014E-06  5882   0.653E-03    0.688E-03
RMM:   4    -0.702607852440E+03   -0.45274E-05   -0.25575E-06  5698   0.379E-03
  46 F= -.70260785E+03 E0= -.70257798E+03  d E =-.810748E-04
       N       E                     dE             d eps       ncg     rms          rms(c)
DAV:   1    -0.702607851754E+03   -0.38411E-05   -0.13804E-04  9830   0.175E-02    0.618E-03
RMM:   2    -0.702607858968E+03   -0.72141E-05   -0.83668E-06  5525   0.581E-03
  47 F= -.70260786E+03 E0= -.70257803E+03  d E =-.876026E-04
       N       E                     dE             d eps       ncg     rms          rms(c)
DAV:   1    -0.702607850779E+03    0.97498E-06   -0.64349E-05  8950   0.133E-02    0.507E-03
RMM:   2    -0.702607854693E+03   -0.39143E-05   -0.94366E-06  5291   0.596E-03
  48 F= -.70260785E+03 E0= -.70257801E+03  d E =-.833278E-04
       N       E                     dE             d eps       ncg     rms          rms(c)
DAV:   1    -0.702607852153E+03   -0.13743E-05   -0.11065E-05  6037   0.825E-03    0.813E-03
RMM:   2    -0.702607867222E+03   -0.15069E-04   -0.60959E-06  5424   0.410E-03    0.614E-02
RMM:   3    -0.702607850399E+03    0.16823E-04   -0.28277E-06  4993   0.325E-03    0.877E-03
RMM:   4    -0.702607852328E+03   -0.19282E-05   -0.85712E-07  2984   0.178E-03
  49 F= -.70260785E+03 E0= -.70257795E+03  d E =-.809621E-04
       N       E                     dE             d eps       ncg     rms          rms(c)
DAV:   1    -0.702607852314E+03   -0.19150E-05   -0.18829E-06  5232   0.258E-03    0.121E-03
RMM:   2    -0.702607852526E+03   -0.21151E-06   -0.68531E-07  4469   0.189E-03
  50 F= -.70260785E+03 E0= -.70257795E+03  d E =-.811605E-04
       N       E                     dE             d eps       ncg     rms          rms(c)
DAV:   1    -0.702607852389E+03   -0.74629E-07   -0.64575E-07  5164   0.155E-03    0.167E-03
RMM:   2    -0.702607853058E+03   -0.66865E-06   -0.13067E-07  1661   0.856E-04
  51 F= -.70260785E+03 E0= -.70257796E+03  d E =-.816923E-04
       N       E                     dE             d eps       ncg     rms          rms(c)
DAV:   1    -0.702607676009E+03    0.17638E-03   -0.61546E-02 10926   0.373E-01    0.515E-02
RMM:   2    -0.702608169541E+03   -0.49353E-03   -0.21649E-03 13156   0.975E-02    0.270E-01
RMM:   3    -0.702607872454E+03    0.29709E-03   -0.49879E-04 14449   0.394E-02    0.311E-02
RMM:   4    -0.702607925141E+03   -0.52687E-04   -0.77675E-05 10844   0.160E-02    0.436E-02
RMM:   5    -0.702607918282E+03    0.68586E-05   -0.18458E-05  6511   0.922E-03
  52 F= -.70260792E+03 E0= -.70257801E+03  d E =-.652246E-04
       N       E                     dE             d eps       ncg     rms          rms(c)
DAV:   1    -0.702607915139E+03    0.10002E-04   -0.47053E-05  8351   0.125E-02    0.154E-02
RMM:   2    -0.702607948810E+03   -0.33670E-04   -0.18651E-05  6491   0.706E-03    0.967E-02
RMM:   3    -0.702607908310E+03    0.40500E-04   -0.91243E-06  6130   0.556E-03    0.190E-02
RMM:   4    -0.702607913911E+03   -0.56007E-05   -0.39804E-06  5864   0.366E-03
  53 F= -.70260791E+03 E0= -.70257804E+03  d E =-.608530E-04
       N       E                     dE             d eps       ncg     rms          rms(c)
DAV:   1    -0.702607915180E+03   -0.68698E-05   -0.30484E-05  8624   0.109E-02    0.206E-02
RMM:   2    -0.702608017620E+03   -0.10244E-03   -0.39638E-05  8254   0.809E-03    0.158E-01
RMM:   3    -0.702607901500E+03    0.11612E-03   -0.22110E-05  6972   0.692E-03    0.196E-02
RMM:   4    -0.702607913286E+03   -0.11786E-04   -0.55090E-06  5417   0.400E-03    0.860E-03
RMM:   5    -0.702607913742E+03   -0.45513E-06   -0.19146E-06  5157   0.273E-03
  54 F= -.70260791E+03 E0= -.70257803E+03  d E =-.606839E-04
       N       E                     dE             d eps       ncg     rms          rms(c)
DAV:   1    -0.702607854626E+03    0.58661E-04   -0.24479E-02 10768   0.238E-01    0.695E-02
RMM:   2    -0.702609183328E+03   -0.13287E-02   -0.12204E-03 13311   0.671E-02    0.578E-01
RMM:   3    -0.702607716635E+03    0.14667E-02   -0.34030E-04 12632   0.329E-02    0.482E-02
RMM:   4    -0.702607946295E+03   -0.22966E-03   -0.70421E-05  8660   0.162E-02    0.522E-02
RMM:   5    -0.702607942746E+03    0.35492E-05   -0.18497E-05  6709   0.892E-03
  55 F= -.70260794E+03 E0= -.70257803E+03  d E =-.290047E-04
       N       E                     dE             d eps       ncg     rms          rms(c)
DAV:   1    -0.702607942209E+03    0.40867E-05   -0.21217E-05  7462   0.105E-02    0.956E-03
RMM:   2    -0.702607947826E+03   -0.56172E-05   -0.82949E-06  5874   0.582E-03
  56 F= -.70260795E+03 E0= -.70257802E+03  d E =-.340843E-04
       N       E                     dE             d eps       ncg     rms          rms(c)
DAV:   1    -0.702607941276E+03    0.93270E-06   -0.29675E-05  7404   0.103E-02    0.130E-02
RMM:   2    -0.702607979503E+03   -0.38227E-04   -0.13595E-05  6167   0.582E-03    0.960E-02
RMM:   3    -0.702607936066E+03    0.43437E-04   -0.64798E-06  5555   0.502E-03    0.121E-02
RMM:   4    -0.702607941811E+03   -0.57449E-05   -0.18948E-06  5196   0.277E-03
  57 F= -.70260794E+03 E0= -.70257806E+03  d E =-.280691E-04
       N       E                     dE             d eps       ncg     rms          rms(c)
DAV:   1    -0.702607876013E+03    0.60052E-04   -0.23539E-02 10804   0.231E-01    0.245E-02
RMM:   2    -0.702607973025E+03   -0.97011E-04   -0.77361E-04 12962   0.596E-02    0.820E-02
RMM:   3    -0.702607965564E+03    0.74608E-05   -0.18998E-04 12814   0.243E-02    0.317E-02
RMM:   4    -0.702607971287E+03   -0.57228E-05   -0.27850E-05  7004   0.118E-02
  58 F= -.70260797E+03 E0= -.70257804E+03  d E =-.294761E-04
       N       E                     dE             d eps       ncg     rms          rms(c)
DAV:   1    -0.702607956145E+03    0.94194E-05   -0.21120E-03 10648   0.698E-02    0.155E-02
RMM:   2    -0.702607989316E+03   -0.33171E-04   -0.93414E-05 10268   0.190E-02    0.793E-02
RMM:   3    -0.702607960612E+03    0.28704E-04   -0.20911E-05  6529   0.939E-03    0.869E-03
RMM:   4    -0.702607966604E+03   -0.59925E-05   -0.67662E-06  5842   0.611E-03
  59 F= -.70260797E+03 E0= -.70257808E+03  d E =-.247936E-04
       N       E                     dE             d eps       ncg     rms          rms(c)
DAV:   1    -0.702607962160E+03   -0.15480E-05   -0.11813E-03 10470   0.519E-02    0.154E-02
RMM:   2    -0.702608020378E+03   -0.58218E-04   -0.60624E-05  8662   0.149E-02    0.122E-01
RMM:   3    -0.702607958263E+03    0.62116E-04   -0.16548E-05  6367   0.868E-03    0.205E-02
RMM:   4    -0.702607966136E+03   -0.78733E-05   -0.56256E-06  5834   0.582E-03
  60 F= -.70260797E+03 E0= -.70257807E+03  d E =-.243253E-04
