 running    4 mpi-ranks, on    1 nodes
 distrk:  each k-point on    1 cores,    4 groups
 distr:  one band on    1 cores,    1 groups
 OpenACC runtime initialized ...    4 GPUs detected
 vasp.6.4.2 20Jul23 (build Nov 12 2023 22:16:35) complex                         
 POSCAR found type information on POSCAR GaO P 
 POSCAR found :  3 types and     120 ions
 scaLAPACK will be used selectively (only on CPU)
 LDA part: xc-table for Pade appr. of Perdew
 POSCAR, INCAR and KPOINTS ok, starting setup
 FFT: planning ... GRIDC
 FFT: planning ... GRID_SOFT
 FFT: planning ... GRID
 WAVECAR not read
 entering main loop
       N       E                     dE             d eps       ncg     rms          rms(c)
DAV:   1     0.219307760500E+05    0.21931E+05   -0.32080E+05 10128   0.282E+03
DAV:   2     0.485552484109E+04   -0.17075E+05   -0.16100E+05 10128   0.815E+02
DAV:   3    -0.144202399286E+03   -0.49997E+04   -0.47035E+04 12920   0.320E+02
DAV:   4    -0.769096234072E+03   -0.62489E+03   -0.61192E+03 12480   0.121E+02
DAV:   5    -0.813342441956E+03   -0.44246E+02   -0.43913E+02 14592   0.347E+01    0.609E+01
RMM:   6    -0.701708393488E+03    0.11163E+03   -0.37952E+02 13178   0.235E+01    0.166E+01
RMM:   7    -0.705236172191E+03   -0.35278E+01   -0.63808E+01 14013   0.966E+00    0.133E+01
RMM:   8    -0.705057734410E+03    0.17844E+00   -0.97674E+00 12791   0.532E+00    0.435E+00
RMM:   9    -0.704655994404E+03    0.40174E+00   -0.28376E+00 15147   0.219E+00    0.141E+00
RMM:  10    -0.704713548316E+03   -0.57554E-01   -0.99051E-01 13273   0.115E+00    0.991E-01
RMM:  11    -0.704709050459E+03    0.44979E-02   -0.20163E-01 13608   0.756E-01    0.362E-01
RMM:  12    -0.704709957959E+03   -0.90750E-03   -0.44156E-02 15422   0.267E-01    0.181E-01
RMM:  13    -0.704711161850E+03   -0.12039E-02   -0.17072E-02 15021   0.134E-01    0.730E-02
RMM:  14    -0.704711473724E+03   -0.31187E-03   -0.32929E-03 13791   0.674E-02    0.992E-03
RMM:  15    -0.704711602978E+03   -0.12925E-03   -0.13478E-03 12610   0.329E-02    0.106E-02
RMM:  16    -0.704711641813E+03   -0.38835E-04   -0.36606E-04 10674   0.205E-02    0.240E-03
RMM:  17    -0.704711660023E+03   -0.18210E-04   -0.16361E-04  9638   0.113E-02    0.238E-03
RMM:  18    -0.704711664657E+03   -0.46338E-05   -0.52515E-05  8744   0.775E-03
   1 F= -.70471166E+03 E0= -.70470201E+03  d E =-.704712E+03
 curvature:   0.00 expect dE= 0.000E+00 dE for cont linesearch  0.000E+00
 trial: gam= 0.00000 g(F)=  0.140E+02 g(S)=  0.000E+00 ort = 0.000E+00 (trialstep = 0.100E+01)
 search vector abs. value=  0.140E+02
 bond charge predicted
       N       E                     dE             d eps       ncg     rms          rms(c)
DAV:   1    -0.637499761009E+03    0.67212E+02   -0.93652E+03 11360   0.149E+02    0.308E+01
RMM:   2    -0.691148574677E+03   -0.53649E+02   -0.59731E+02 14012   0.411E+01    0.469E+00
RMM:   3    -0.704932389667E+03   -0.13784E+02   -0.12194E+02 14835   0.156E+01    0.128E+01
RMM:   4    -0.705825202617E+03   -0.89281E+00   -0.16338E+01 15535   0.622E+00    0.126E+01
RMM:   5    -0.705975897386E+03   -0.15069E+00   -0.24025E+00 15870   0.217E+00    0.117E+01
RMM:   6    -0.705855540949E+03    0.12036E+00   -0.41267E-01 14628   0.961E-01    0.846E+00
RMM:   7    -0.705763415055E+03    0.92126E-01   -0.36769E+00 13757   0.314E+00    0.926E+00
RMM:   8    -0.705652511406E+03    0.11090E+00   -0.18484E-01 14054   0.679E-01    0.553E+00
RMM:   9    -0.705553389247E+03    0.99122E-01   -0.42470E-01 13194   0.119E+00    0.127E+00
RMM:  10    -0.705555055912E+03   -0.16667E-02   -0.24330E-02 15041   0.236E-01    0.425E-01
RMM:  11    -0.705555102353E+03   -0.46441E-04   -0.61364E-03 13223   0.130E-01    0.275E-01
RMM:  12    -0.705554907962E+03    0.19439E-03   -0.16478E-03 14743   0.661E-02    0.130E-01
RMM:  13    -0.705554837237E+03    0.70725E-04   -0.70774E-04 12847   0.481E-02    0.120E-02
RMM:  14    -0.705554862502E+03   -0.25265E-04   -0.25629E-04 12910   0.216E-02    0.586E-03
RMM:  15    -0.705554864653E+03   -0.21515E-05   -0.40746E-05  7543   0.115E-02
   2 F= -.70555486E+03 E0= -.70554823E+03  d E =-.843200E+00
 trial-energy change:   -0.843200  1 .order   -3.624696  -14.005156    6.755764
 step:   0.4742(harm=  0.6746)  dis= 0.19231  next Energy=  -707.735501 (dE=-0.302E+01)
 bond charge predicted
       N       E                     dE             d eps       ncg     rms          rms(c)
DAV:   1    -0.701930272922E+03    0.36246E+01   -0.12377E+03 14712   0.552E+01    0.690E+00
RMM:   2    -0.706097647327E+03   -0.41674E+01   -0.44727E+01 13495   0.129E+01    0.182E+00
RMM:   3    -0.707333380375E+03   -0.12357E+01   -0.11867E+01 15338   0.504E+00    0.126E+00
RMM:   4    -0.707498192000E+03   -0.16481E+00   -0.17602E+00 15585   0.180E+00    0.104E+00
RMM:   5    -0.707511892681E+03   -0.13701E-01   -0.19912E-01 15810   0.649E-01    0.547E-01
RMM:   6    -0.707509885045E+03    0.20076E-02   -0.47534E-02 13421   0.420E-01    0.333E-01
RMM:   7    -0.707511162627E+03   -0.12776E-02   -0.15333E-02 15903   0.175E-01    0.171E-01
RMM:   8    -0.707511076940E+03    0.85687E-04   -0.27622E-03 13456   0.947E-02    0.510E-02
RMM:   9    -0.707511135021E+03   -0.58081E-04   -0.69638E-04 14446   0.361E-02    0.142E-02
RMM:  10    -0.707511148621E+03   -0.13600E-04   -0.15959E-04 11045   0.183E-02    0.598E-03
RMM:  11    -0.707511152073E+03   -0.34520E-05   -0.48756E-05  8814   0.100E-02
   3 F= -.70751115E+03 E0= -.70750176E+03  d E =-.279949E+01
 curvature:  -0.21 expect dE=-0.474E+00 dE for cont linesearch -0.264E-03
 trial: gam= 0.17127 g(F)=  0.227E+01 g(S)=  0.000E+00 ort =-0.133E+00 (trialstep = 0.895E+00)
 search vector abs. value=  0.263E+01
 bond charge predicted
       N       E                     dE             d eps       ncg     rms          rms(c)
DAV:   1    -0.706002021633E+03    0.15091E+01   -0.44767E+02 12848   0.306E+01    0.398E+00
RMM:   2    -0.707506535737E+03   -0.15045E+01   -0.16073E+01 13163   0.759E+00    0.145E+00
RMM:   3    -0.707850451716E+03   -0.34392E+00   -0.37278E+00 15330   0.307E+00    0.137E+00
RMM:   4    -0.707872362265E+03   -0.21911E-01   -0.41772E-01 15411   0.975E-01    0.991E-01
RMM:   5    -0.707865439696E+03    0.69226E-02   -0.71402E-02 14950   0.402E-01    0.225E-01
RMM:   6    -0.707866957640E+03   -0.15179E-02   -0.17848E-02 14828   0.192E-01    0.167E-01
RMM:   7    -0.707866864200E+03    0.93441E-04   -0.45082E-03 15043   0.914E-02    0.687E-02
RMM:   8    -0.707866936002E+03   -0.71803E-04   -0.10099E-03 14171   0.392E-02    0.366E-02
RMM:   9    -0.707866958064E+03   -0.22061E-04   -0.30085E-04 11626   0.220E-02    0.124E-02
RMM:  10    -0.707866965040E+03   -0.69766E-05   -0.10445E-04  9998   0.121E-02    0.666E-03
RMM:  11    -0.707866967503E+03   -0.24632E-05   -0.34401E-05  8575   0.788E-03
   4 F= -.70786697E+03 E0= -.70785786E+03  d E =-.355815E+00
 trial-energy change:   -0.355815  1 .order   -0.515171   -2.007018    0.976677
 step:   0.5328(harm=  0.6019)  dis= 0.07990  next Energy=  -708.075064 (dE=-0.564E+00)
 bond charge predicted
       N       E                     dE             d eps       ncg     rms          rms(c)
DAV:   1    -0.707795096967E+03    0.71868E-01   -0.64915E+01 11542   0.115E+01    0.170E+00
RMM:   2    -0.708018138690E+03   -0.22304E+00   -0.23530E+00 13412   0.305E+00    0.492E-01
RMM:   3    -0.708067882856E+03   -0.49744E-01   -0.53285E-01 15158   0.117E+00    0.439E-01
RMM:   4    -0.708070467737E+03   -0.25849E-02   -0.60151E-02 15227   0.381E-01    0.219E-01
RMM:   5    -0.708070399951E+03    0.67785E-04   -0.10913E-02 15060   0.156E-01    0.649E-02
RMM:   6    -0.708070587705E+03   -0.18775E-03   -0.22876E-03 15233   0.679E-02    0.388E-02
RMM:   7    -0.708070626283E+03   -0.38578E-04   -0.62825E-04 13869   0.326E-02    0.199E-02
RMM:   8    -0.708070637746E+03   -0.11463E-04   -0.16560E-04 11013   0.166E-02    0.727E-03
RMM:   9    -0.708070641659E+03   -0.39130E-05   -0.53927E-05  9018   0.971E-03
   5 F= -.70807064E+03 E0= -.70806146E+03  d E =-.559490E+00
 curvature:  -0.33 expect dE=-0.287E+00 dE for cont linesearch -0.264E-04
 trial: gam= 0.33583 g(F)=  0.862E+00 g(S)=  0.000E+00 ort = 0.144E-01 (trialstep = 0.822E+00)
 search vector abs. value=  0.117E+01
 bond charge predicted
       N       E                     dE             d eps       ncg     rms          rms(c)
DAV:   1    -0.707551418000E+03    0.51922E+00   -0.18847E+02 10528   0.190E+01    0.224E+00
RMM:   2    -0.708274186824E+03   -0.72277E+00   -0.77326E+00 13583   0.531E+00    0.748E-01
RMM:   3    -0.708395661575E+03   -0.12147E+00   -0.14464E+00 15364   0.197E+00    0.817E-01
RMM:   4    -0.708391832620E+03    0.38290E-02   -0.13771E-01 14989   0.639E-01    0.348E-01
RMM:   5    -0.708389751155E+03    0.20815E-02   -0.38029E-02 15001   0.298E-01    0.160E-01
RMM:   6    -0.708389879604E+03   -0.12845E-03   -0.63899E-03 15662   0.124E-01    0.748E-02
RMM:   7    -0.708389889591E+03   -0.99879E-05   -0.17543E-03 13928   0.610E-02    0.342E-02
RMM:   8    -0.708389905163E+03   -0.15571E-04   -0.53133E-04 14187   0.320E-02    0.116E-02
RMM:   9    -0.708389916031E+03   -0.10868E-04   -0.14457E-04 10453   0.152E-02    0.637E-03
RMM:  10    -0.708389919101E+03   -0.30707E-05   -0.42306E-05  9233   0.900E-03
   6 F= -.70838992E+03 E0= -.70838047E+03  d E =-.319277E+00
 trial-energy change:   -0.319277  1 .order   -0.338844   -0.712970    0.035281
 step:   0.7769(harm=  0.7837)  dis= 0.03376  next Energy=  -708.390899 (dE=-0.320E+00)
 bond charge predicted
       N       E                     dE             d eps       ncg     rms          rms(c)
DAV:   1    -0.708388669177E+03    0.12469E-02   -0.58064E-01 11376   0.106E+00    0.116E-01
RMM:   2    -0.708390487129E+03   -0.18180E-02   -0.19555E-02 13074   0.271E-01    0.392E-02
RMM:   3    -0.708390827098E+03   -0.33997E-03   -0.40654E-03 15200   0.105E-01    0.431E-02
RMM:   4    -0.708390815205E+03    0.11894E-04   -0.37412E-04 13594   0.351E-02    0.156E-02
RMM:   5    -0.708390812837E+03    0.23676E-05   -0.12645E-04 11692   0.183E-02    0.100E-02
RMM:   6    -0.708390813114E+03   -0.27697E-06   -0.22625E-05  7290   0.914E-03
   7 F= -.70839081E+03 E0= -.70838138E+03  d E =-.320171E+00
 curvature:  -0.51 expect dE=-0.158E+00 dE for cont linesearch -0.778E-05
 trial: gam= 0.34226 g(F)=  0.308E+00 g(S)=  0.000E+00 ort = 0.421E-02 (trialstep = 0.813E+00)
 search vector abs. value=  0.448E+00
 bond charge predicted
       N       E                     dE             d eps       ncg     rms          rms(c)
DAV:   1    -0.708252828498E+03    0.13798E+00   -0.65767E+01 10832   0.119E+01    0.130E+00
RMM:   2    -0.708492036270E+03   -0.23921E+00   -0.25229E+00 13588   0.334E+00    0.424E-01
RMM:   3    -0.708545991603E+03   -0.53955E-01   -0.57807E-01 15331   0.128E+00    0.428E-01
RMM:   4    -0.708548595282E+03   -0.26037E-02   -0.63805E-02 15562   0.427E-01    0.239E-01
RMM:   5    -0.708547963262E+03    0.63202E-03   -0.14525E-02 14983   0.192E-01    0.828E-02
RMM:   6    -0.708548226461E+03   -0.26320E-03   -0.32376E-03 15559   0.876E-02    0.663E-02
RMM:   7    -0.708548243093E+03   -0.16631E-04   -0.89009E-04 14977   0.411E-02    0.189E-02
RMM:   8    -0.708548263139E+03   -0.20046E-04   -0.22843E-04 12152   0.198E-02    0.110E-02
RMM:   9    -0.708548266784E+03   -0.36455E-05   -0.69717E-05  9524   0.123E-02
   8 F= -.70854827E+03 E0= -.70853899E+03  d E =-.157454E+00
 trial-energy change:   -0.157454  1 .order   -0.157727   -0.251984   -0.063471
 step:   1.0872(harm=  1.0872)  dis= 0.03472  next Energy=  -708.559226 (dE=-0.168E+00)
 bond charge predicted
       N       E                     dE             d eps       ncg     rms          rms(c)
DAV:   1    -0.708528398671E+03    0.19864E-01   -0.74739E+00 11472   0.399E+00    0.432E-01
RMM:   2    -0.708553915895E+03   -0.25517E-01   -0.26870E-01 13462   0.108E+00    0.141E-01
RMM:   3    -0.708559515561E+03   -0.55997E-02   -0.60255E-02 15294   0.412E-01    0.141E-01
RMM:   4    -0.708559774264E+03   -0.25870E-03   -0.65967E-03 15476   0.138E-01    0.790E-02
RMM:   5    -0.708559708122E+03    0.66142E-04   -0.16167E-03 14878   0.631E-02    0.297E-02
RMM:   6    -0.708559735476E+03   -0.27354E-04   -0.35549E-04 14281   0.285E-02    0.226E-02
RMM:   7    -0.708559736298E+03   -0.82204E-06   -0.98182E-05 10396   0.144E-02
   9 F= -.70855974E+03 E0= -.70855051E+03  d E =-.168923E+00
 curvature:  -0.79 expect dE=-0.136E+00 dE for cont linesearch -0.522E-05
 trial: gam= 0.55501 g(F)=  0.173E+00 g(S)=  0.000E+00 ort = 0.172E-02 (trialstep = 0.868E+00)
 search vector abs. value=  0.313E+00
 bond charge predicted
       N       E                     dE             d eps       ncg     rms          rms(c)
DAV:   1    -0.708432618345E+03    0.12712E+00   -0.52060E+01 10792   0.105E+01    0.119E+00
RMM:   2    -0.708611446866E+03   -0.17883E+00   -0.18858E+00 13470   0.281E+00    0.358E-01
RMM:   3    -0.708652364112E+03   -0.40917E-01   -0.42889E-01 15256   0.108E+00    0.372E-01
RMM:   4    -0.708654711053E+03   -0.23469E-02   -0.44444E-02 15494   0.350E-01    0.241E-01
RMM:   5    -0.708653962774E+03    0.74828E-03   -0.10735E-02 14255   0.158E-01    0.893E-02
RMM:   6    -0.708654071460E+03   -0.10869E-03   -0.22855E-03 15494   0.727E-02    0.535E-02
RMM:   7    -0.708654089640E+03   -0.18180E-04   -0.67917E-04 14195   0.321E-02    0.165E-02
RMM:   8    -0.708654098405E+03   -0.87647E-05   -0.14318E-04 10277   0.165E-02    0.671E-03
RMM:   9    -0.708654102171E+03   -0.37665E-05   -0.51151E-05  9100   0.952E-03
  10 F= -.70865410E+03 E0= -.70864490E+03  d E =-.943659E-01
 trial-energy change:   -0.094366  1 .order   -0.092861   -0.150628   -0.035095
 step:   1.1079(harm=  1.1318)  dis= 0.03253  next Energy=  -708.658981 (dE=-0.992E-01)
 bond charge predicted
       N       E                     dE             d eps       ncg     rms          rms(c)
DAV:   1    -0.708643649941E+03    0.10448E-01   -0.39751E+00 11440   0.288E+00    0.323E-01
RMM:   2    -0.708656506650E+03   -0.12857E-01   -0.13547E-01 13203   0.758E-01    0.992E-02
RMM:   3    -0.708659618836E+03   -0.31122E-02   -0.32728E-02 15213   0.299E-01    0.100E-01
RMM:   4    -0.708659803047E+03   -0.18421E-03   -0.34188E-03 15290   0.971E-02    0.642E-02
RMM:   5    -0.708659752872E+03    0.50175E-04   -0.81004E-04 14134   0.446E-02    0.231E-02
RMM:   6    -0.708659763686E+03   -0.10813E-04   -0.17838E-04 12864   0.206E-02    0.155E-02
RMM:   7    -0.708659764384E+03   -0.69840E-06   -0.52358E-05  9183   0.109E-02
  11 F= -.70865976E+03 E0= -.70865057E+03  d E =-.100028E+00
 curvature:  -1.01 expect dE=-0.885E-01 dE for cont linesearch -0.329E-04
 trial: gam= 0.49750 g(F)=  0.876E-01 g(S)=  0.000E+00 ort = 0.319E-02 (trialstep = 0.916E+00)
 search vector abs. value=  0.168E+00
 bond charge predicted
       N       E                     dE             d eps       ncg     rms          rms(c)
DAV:   1    -0.708584322209E+03    0.75441E-01   -0.28327E+01 10848   0.778E+00    0.923E-01
RMM:   2    -0.708683067151E+03   -0.98745E-01   -0.10520E+00 13404   0.212E+00    0.292E-01
RMM:   3    -0.708705109459E+03   -0.22042E-01   -0.23773E-01 15357   0.818E-01    0.284E-01
RMM:   4    -0.708706230030E+03   -0.11206E-02   -0.26595E-02 15547   0.275E-01    0.180E-01
RMM:   5    -0.708705646980E+03    0.58305E-03   -0.62872E-03 14628   0.125E-01    0.503E-02
RMM:   6    -0.708705741506E+03   -0.94526E-04   -0.15160E-03 14751   0.600E-02    0.444E-02
RMM:   7    -0.708705747480E+03   -0.59743E-05   -0.49253E-04 13758   0.296E-02    0.155E-02
RMM:   8    -0.708705751955E+03   -0.44744E-05   -0.11405E-04 10120   0.146E-02    0.787E-03
RMM:   9    -0.708705753017E+03   -0.10625E-05   -0.33765E-05  8664   0.871E-03
  12 F= -.70870575E+03 E0= -.70869654E+03  d E =-.459886E-01
 trial-energy change:   -0.045989  1 .order   -0.045354   -0.081683   -0.009024
 step:   1.0235(harm=  1.0298)  dis= 0.02817  next Energy=  -708.706283 (dE=-0.465E-01)
 bond charge predicted
       N       E                     dE             d eps       ncg     rms          rms(c)
DAV:   1    -0.708704777750E+03    0.97420E-03   -0.39040E-01 11608   0.911E-01    0.106E-01
RMM:   2    -0.708706088188E+03   -0.13104E-02   -0.13956E-02 13319   0.243E-01    0.339E-02
RMM:   3    -0.708706378645E+03   -0.29046E-03   -0.31559E-03 15329   0.936E-02    0.319E-02
RMM:   4    -0.708706393198E+03   -0.14554E-04   -0.35144E-04 14060   0.317E-02    0.195E-02
RMM:   5    -0.708706387003E+03    0.61958E-05   -0.93777E-05 11080   0.166E-02
  13 F= -.70870639E+03 E0= -.70869717E+03  d E =-.466226E-01
 curvature:  -0.97 expect dE=-0.485E-01 dE for cont linesearch -0.145E-05
 trial: gam= 0.59556 g(F)=  0.501E-01 g(S)=  0.000E+00 ort = 0.501E-03 (trialstep = 0.938E+00)
 search vector abs. value=  0.110E+00
 bond charge predicted
       N       E                     dE             d eps       ncg     rms          rms(c)
DAV:   1    -0.708650765723E+03    0.55627E-01   -0.20697E+01 10759   0.658E+00    0.749E-01
RMM:   2    -0.708720929221E+03   -0.70163E-01   -0.73936E-01 13386   0.173E+00    0.230E-01
RMM:   3    -0.708735689140E+03   -0.14760E-01   -0.15648E-01 15330   0.659E-01    0.234E-01
RMM:   4    -0.708736239857E+03   -0.55072E-03   -0.16490E-02 15328   0.216E-01    0.134E-01
RMM:   5    -0.708736081974E+03    0.15788E-03   -0.41884E-03 14775   0.987E-02    0.539E-02
RMM:   6    -0.708736127312E+03   -0.45338E-04   -0.85760E-04 15343   0.442E-02    0.320E-02
RMM:   7    -0.708736137416E+03   -0.10103E-04   -0.28202E-04 12554   0.216E-02    0.119E-02
RMM:   8    -0.708736141114E+03   -0.36980E-05   -0.66692E-05  9431   0.124E-02
  14 F= -.70873614E+03 E0= -.70872705E+03  d E =-.297541E-01
 trial-energy change:   -0.029754  1 .order   -0.029103   -0.047292   -0.010913
 step:   1.1852(harm=  1.2188)  dis= 0.02792  next Energy=  -708.737594 (dE=-0.312E-01)
 bond charge predicted
       N       E                     dE             d eps       ncg     rms          rms(c)
DAV:   1    -0.708732151952E+03    0.39855E-02   -0.14456E+00 11392   0.174E+00    0.193E-01
RMM:   2    -0.708736954311E+03   -0.48024E-02   -0.50564E-02 13310   0.455E-01    0.603E-02
RMM:   3    -0.708737991560E+03   -0.10372E-02   -0.11025E-02 15315   0.174E-01    0.619E-02
RMM:   4    -0.708738032284E+03   -0.40724E-04   -0.11545E-03 14992   0.572E-02    0.360E-02
RMM:   5    -0.708738020779E+03    0.11505E-04   -0.31605E-04 13206   0.277E-02    0.155E-02
RMM:   6    -0.708738022983E+03   -0.22035E-05   -0.58718E-05  9726   0.124E-02
  15 F= -.70873802E+03 E0= -.70872896E+03  d E =-.316360E-01
 curvature:  -1.31 expect dE=-0.371E-01 dE for cont linesearch -0.264E-04
 trial: gam= 0.52134 g(F)=  0.282E-01 g(S)=  0.000E+00 ort = 0.149E-02 (trialstep = 0.987E+00)
 search vector abs. value=  0.598E-01
 bond charge predicted
       N       E                     dE             d eps       ncg     rms          rms(c)
DAV:   1    -0.708704906432E+03    0.33114E-01   -0.12379E+01 10800   0.509E+00    0.563E-01
RMM:   2    -0.708746291690E+03   -0.41385E-01   -0.43439E-01 13402   0.134E+00    0.179E-01
RMM:   3    -0.708755218758E+03   -0.89271E-02   -0.94796E-02 15270   0.509E-01    0.183E-01
RMM:   4    -0.708755583487E+03   -0.36473E-03   -0.99876E-03 15375   0.167E-01    0.102E-01
RMM:   5    -0.708755505207E+03    0.78279E-04   -0.24388E-03 14804   0.743E-02    0.432E-02
RMM:   6    -0.708755528729E+03   -0.23521E-04   -0.48792E-04 14721   0.326E-02    0.240E-02
RMM:   7    -0.708755534748E+03   -0.60197E-05   -0.15227E-04 10871   0.161E-02    0.825E-03
RMM:   8    -0.708755536889E+03   -0.21409E-05   -0.37521E-05  8808   0.102E-02
  16 F= -.70875554E+03 E0= -.70874650E+03  d E =-.175139E-01
 trial-energy change:   -0.017514  1 .order   -0.016900   -0.028634   -0.005165
 step:   1.1702(harm=  1.2043)  dis= 0.02193  next Energy=  -708.756020 (dE=-0.180E-01)
 bond charge predicted
       N       E                     dE             d eps       ncg     rms          rms(c)
DAV:   1    -0.708754508213E+03    0.10265E-02   -0.42686E-01 11584   0.945E-01    0.102E-01
RMM:   2    -0.708755903518E+03   -0.13953E-02   -0.14649E-02 13329   0.245E-01    0.330E-02
RMM:   3    -0.708756210154E+03   -0.30664E-03   -0.32681E-03 15241   0.939E-02    0.340E-02
RMM:   4    -0.708756222772E+03   -0.12618E-04   -0.34468E-04 13789   0.309E-02    0.192E-02
RMM:   5    -0.708756220047E+03    0.27249E-05   -0.93246E-05 10937   0.161E-02
  17 F= -.70875622E+03 E0= -.70874719E+03  d E =-.181971E-01
 curvature:  -1.21 expect dE=-0.185E-01 dE for cont linesearch -0.282E-04
 trial: gam= 0.54303 g(F)=  0.153E-01 g(S)=  0.000E+00 ort = 0.118E-02 (trialstep = 0.102E+01)
 search vector abs. value=  0.342E-01
 bond charge predicted
       N       E                     dE             d eps       ncg     rms          rms(c)
DAV:   1    -0.708736357915E+03    0.19865E-01   -0.69290E+00 10744   0.383E+00    0.441E-01
RMM:   2    -0.708759657234E+03   -0.23299E-01   -0.24438E-01 13291   0.103E+00    0.145E-01
RMM:   3    -0.708765352520E+03   -0.56953E-02   -0.59654E-02 15255   0.404E-01    0.136E-01
RMM:   4    -0.708765702871E+03   -0.35035E-03   -0.63570E-03 15446   0.135E-01    0.876E-02
RMM:   5    -0.708765627396E+03    0.75475E-04   -0.14315E-03 14718   0.595E-02    0.289E-02
RMM:   6    -0.708765651336E+03   -0.23941E-04   -0.31688E-04 13763   0.276E-02    0.218E-02
RMM:   7    -0.708765653463E+03   -0.21263E-05   -0.10511E-04 10812   0.145E-02    0.822E-03
RMM:   8    -0.708765655062E+03   -0.15997E-05   -0.27881E-05  8038   0.894E-03
  18 F= -.70876566E+03 E0= -.70875664E+03  d E =-.943502E-02
 trial-energy change:   -0.009435  1 .order   -0.009173   -0.016283   -0.002063
 step:   1.1557(harm=  1.1722)  dis= 0.01692  next Energy=  -708.765789 (dE=-0.957E-02)
 bond charge predicted
       N       E                     dE             d eps       ncg     rms          rms(c)
DAV:   1    -0.708765377596E+03    0.27587E-03   -0.11549E-01 11744   0.495E-01    0.550E-02
RMM:   2    -0.708765761179E+03   -0.38358E-03   -0.40157E-03 13257   0.131E-01    0.183E-02
RMM:   3    -0.708765853423E+03   -0.92243E-04   -0.97305E-04 15072   0.514E-02    0.174E-02
RMM:   4    -0.708765859193E+03   -0.57704E-05   -0.10662E-04 12117   0.179E-02    0.111E-02
RMM:   5    -0.708765858235E+03    0.95833E-06   -0.30645E-05  8524   0.107E-02
  19 F= -.70876586E+03 E0= -.70875685E+03  d E =-.963819E-02
 curvature:  -1.24 expect dE=-0.114E-01 dE for cont linesearch -0.719E-05
 trial: gam= 0.63431 g(F)=  0.919E-02 g(S)=  0.000E+00 ort = 0.445E-03 (trialstep = 0.105E+01)
 search vector abs. value=  0.235E-01
 bond charge predicted
       N       E                     dE             d eps       ncg     rms          rms(c)
DAV:   1    -0.708749495857E+03    0.16363E-01   -0.53707E+00 10912   0.340E+00    0.356E-01
RMM:   2    -0.708767160430E+03   -0.17665E-01   -0.18574E-01 13422   0.912E-01    0.116E-01
RMM:   3    -0.708771362682E+03   -0.42023E-02   -0.44671E-02 15202   0.352E-01    0.118E-01
RMM:   4    -0.708771563791E+03   -0.20111E-03   -0.48917E-03 15400   0.117E-01    0.645E-02
RMM:   5    -0.708771519222E+03    0.44569E-04   -0.11007E-03 14867   0.522E-02    0.242E-02
RMM:   6    -0.708771534642E+03   -0.15420E-04   -0.23182E-04 13334   0.233E-02    0.173E-02
RMM:   7    -0.708771535724E+03   -0.10822E-05   -0.72332E-05  9948   0.126E-02
  20 F= -.70877154E+03 E0= -.70876256E+03  d E =-.567749E-02
 trial-energy change:   -0.005677  1 .order   -0.005317   -0.009943   -0.000691
 step:   1.1130(harm=  1.1286)  dis= 0.01306  next Energy=  -708.771557 (dE=-0.570E-02)
 bond charge predicted
       N       E                     dE             d eps       ncg     rms          rms(c)
DAV:   1    -0.708771515278E+03    0.19364E-04   -0.19457E-02 11608   0.205E-01    0.182E-02
RMM:   2    -0.708771582177E+03   -0.66899E-04   -0.70555E-04 13408   0.581E-02    0.715E-03
RMM:   3    -0.708771597250E+03   -0.15073E-04   -0.17137E-04 12909   0.224E-02    0.803E-03
RMM:   4    -0.708771598135E+03   -0.88471E-06   -0.24482E-05  6519   0.108E-02
  21 F= -.70877160E+03 E0= -.70876263E+03  d E =-.573990E-02
 curvature:  -1.35 expect dE=-0.757E-02 dE for cont linesearch -0.694E-05
 trial: gam= 0.57624 g(F)=  0.562E-02 g(S)=  0.000E+00 ort = 0.348E-03 (trialstep = 0.106E+01)
 search vector abs. value=  0.138E-01
 bond charge predicted
       N       E                     dE             d eps       ncg     rms          rms(c)
DAV:   1    -0.708762623055E+03    0.89742E-02   -0.30793E+00 11072   0.261E+00    0.262E-01
RMM:   2    -0.708772955698E+03   -0.10333E-01   -0.10775E-01 13439   0.712E-01    0.879E-02
RMM:   3    -0.708775585033E+03   -0.26293E-02   -0.27400E-02 15115   0.277E-01    0.860E-02
RMM:   4    -0.708775767528E+03   -0.18250E-03   -0.30490E-03 15360   0.924E-02    0.535E-02
RMM:   5    -0.708775744563E+03    0.22965E-04   -0.65417E-04 14488   0.409E-02    0.190E-02
RMM:   6    -0.708775755659E+03   -0.11096E-04   -0.14812E-04 12193   0.188E-02    0.143E-02
RMM:   7    -0.708775756497E+03   -0.83757E-06   -0.45836E-05  9204   0.108E-02
  22 F= -.70877576E+03 E0= -.70876676E+03  d E =-.415836E-02
 trial-energy change:   -0.004158  1 .order   -0.003829   -0.006189   -0.001468
 step:   1.2822(harm=  1.3931)  dis= 0.01019  next Energy=  -708.775911 (dE=-0.431E-02)
 bond charge predicted
       N       E                     dE             d eps       ncg     rms          rms(c)
DAV:   1    -0.708775492372E+03    0.26329E-03   -0.13222E-01 11680   0.541E-01    0.508E-02
RMM:   2    -0.708775939936E+03   -0.44756E-03   -0.46540E-03 13465   0.147E-01    0.180E-02
RMM:   3    -0.708776047986E+03   -0.10805E-03   -0.11430E-03 14892   0.564E-02    0.186E-02
RMM:   4    -0.708776055138E+03   -0.71526E-05   -0.13223E-04 12265   0.198E-02    0.115E-02
RMM:   5    -0.708776054264E+03    0.87442E-06   -0.37615E-05  9049   0.118E-02
  23 F= -.70877605E+03 E0= -.70876706E+03  d E =-.445613E-02
 curvature:  -1.47 expect dE=-0.626E-02 dE for cont linesearch -0.580E-04
 trial: gam= 0.71378 g(F)=  0.426E-02 g(S)=  0.000E+00 ort = 0.739E-03 (trialstep = 0.111E+01)
 search vector abs. value=  0.124E-01
 bond charge predicted
       N       E                     dE             d eps       ncg     rms          rms(c)
DAV:   1    -0.708767861462E+03    0.81937E-02   -0.28954E+00 11176   0.250E+00    0.268E-01
RMM:   2    -0.708777243501E+03   -0.93820E-02   -0.98718E-02 13179   0.662E-01    0.889E-02
RMM:   3    -0.708779549452E+03   -0.23060E-02   -0.24295E-02 15189   0.262E-01    0.859E-02
RMM:   4    -0.708779676362E+03   -0.12691E-03   -0.27465E-03 15362   0.885E-02    0.479E-02
RMM:   5    -0.708779662876E+03    0.13486E-04   -0.58925E-04 14494   0.386E-02    0.171E-02
RMM:   6    -0.708779672102E+03   -0.92253E-05   -0.12700E-04 11720   0.176E-02    0.121E-02
RMM:   7    -0.708779673148E+03   -0.10463E-05   -0.40083E-05  8993   0.103E-02
  24 F= -.70877967E+03 E0= -.70877066E+03  d E =-.361888E-02
 trial-energy change:   -0.003619  1 .order   -0.003306   -0.005302   -0.001310
 step:   1.3379(harm=  1.4695)  dis= 0.01118  next Energy=  -708.779813 (dE=-0.376E-02)
 bond charge predicted
       N       E                     dE             d eps       ncg     rms          rms(c)
DAV:   1    -0.708779434763E+03    0.23734E-03   -0.12716E-01 11824   0.523E-01    0.533E-02
RMM:   2    -0.708779849546E+03   -0.41478E-03   -0.43515E-03 13214   0.138E-01    0.184E-02
RMM:   3    -0.708779945703E+03   -0.96157E-04   -0.10301E-03 14932   0.536E-02    0.185E-02
RMM:   4    -0.708779950930E+03   -0.52271E-05   -0.12323E-04 12026   0.191E-02    0.101E-02
RMM:   5    -0.708779950306E+03    0.62485E-06   -0.31631E-05  8652   0.109E-02
  25 F= -.70877995E+03 E0= -.70877093E+03  d E =-.389604E-02
 curvature:  -1.65 expect dE=-0.523E-02 dE for cont linesearch -0.566E-04
 ZBRENT: increasing intervall
 opt :   1.8006  next Energy=  -708.780006 (dE=-0.395E-02)
 bond charge predicted
       N       E                     dE             d eps       ncg     rms          rms(c)
DAV:   1    -0.708777932754E+03    0.20182E-02   -0.50672E-01 11248   0.104E+00    0.112E-01
RMM:   2    -0.708779573337E+03   -0.16406E-02   -0.17261E-02 13195   0.277E-01    0.371E-02
RMM:   3    -0.708779972565E+03   -0.39923E-03   -0.42010E-03 15153   0.109E-01    0.357E-02
RMM:   4    -0.708779994931E+03   -0.22366E-04   -0.48067E-04 14713   0.373E-02    0.198E-02
RMM:   5    -0.708779992822E+03    0.21085E-05   -0.10787E-04 11551   0.175E-02    0.743E-03
RMM:   6    -0.708779994311E+03   -0.14893E-05   -0.23709E-05  7597   0.859E-03
  26 F= -.70877999E+03 E0= -.70877097E+03  d E =-.394005E-02
 curvature:  -1.62 expect dE=-0.103E-01 dE for cont linesearch -0.908E-04
 ZBRENT: bracketing found
 ZBRENT: interpolating
 opt :   1.5409  next Energy=  -708.780016 (dE=-0.396E-02)
 bond charge predicted
       N       E                     dE             d eps       ncg     rms          rms(c)
DAV:   1    -0.708779417644E+03    0.57518E-03   -0.15836E-01 11168   0.584E-01    0.633E-02
RMM:   2    -0.708779923827E+03   -0.50618E-03   -0.53392E-03 13197   0.154E-01    0.209E-02
RMM:   3    -0.708780043032E+03   -0.11921E-03   -0.12670E-03 15019   0.604E-02    0.195E-02
RMM:   4    -0.708780049758E+03   -0.67252E-05   -0.14869E-04 12653   0.213E-02    0.106E-02
RMM:   5    -0.708780048742E+03    0.10157E-05   -0.33893E-05  8833   0.115E-02
  27 F= -.70878005E+03 E0= -.70877103E+03  d E =-.399448E-02
 curvature:  -1.18 expect dE=-0.533E-02 dE for cont linesearch -0.746E-05
 trial: gam= 1.23546 g(F)=  0.453E-02 g(S)=  0.000E+00 ort = 0.280E-03 (trialstep = 0.612E+00)
 search vector abs. value=  0.241E-01
 bond charge predicted
       N       E                     dE             d eps       ncg     rms          rms(c)
DAV:   1    -0.708775381807E+03    0.46680E-02   -0.17199E+00 11120   0.193E+00    0.195E-01
RMM:   2    -0.708780824906E+03   -0.54431E-02   -0.56740E-02 13185   0.512E-01    0.653E-02
RMM:   3    -0.708782285042E+03   -0.14601E-02   -0.14944E-02 15169   0.204E-01    0.634E-02
RMM:   4    -0.708782387393E+03   -0.10235E-03   -0.16457E-03 15231   0.678E-02    0.405E-02
RMM:   5    -0.708782376347E+03    0.11046E-04   -0.33729E-04 13513   0.298E-02    0.141E-02
RMM:   6    -0.708782381465E+03   -0.51179E-05   -0.70199E-05 10262   0.138E-02
  28 F= -.70878238E+03 E0= -.70877334E+03  d E =-.233272E-02
 trial-energy change:   -0.002333  1 .order   -0.002211   -0.002988   -0.001434
 step:   0.9404(harm=  1.1774)  dis= 0.01164  next Energy=  -708.782784 (dE=-0.274E-02)
 bond charge predicted
       N       E                     dE             d eps       ncg     rms          rms(c)
DAV:   1    -0.708781104786E+03    0.12716E-02   -0.49717E-01 11440   0.104E+00    0.104E-01
RMM:   2    -0.708782697725E+03   -0.15929E-02   -0.16593E-02 13198   0.277E-01    0.346E-02
RMM:   3    -0.708783120720E+03   -0.42300E-03   -0.43319E-03 15119   0.110E-01    0.349E-02
RMM:   4    -0.708783151181E+03   -0.30461E-04   -0.49393E-04 14669   0.374E-02    0.230E-02
RMM:   5    -0.708783147829E+03    0.33516E-05   -0.11008E-04 11554   0.175E-02    0.815E-03
RMM:   6    -0.708783149445E+03   -0.16157E-05   -0.23853E-05  7385   0.859E-03
  29 F= -.70878315E+03 E0= -.70877410E+03  d E =-.310070E-02
 curvature:  -2.40 expect dE=-0.547E-02 dE for cont linesearch -0.215E-03
 ZBRENT: increasing intervall
 opt :   1.5966  next Energy=  -708.783545 (dE=-0.350E-02)
 bond charge predicted
       N       E                     dE             d eps       ncg     rms          rms(c)
DAV:   1    -0.708775543574E+03    0.76043E-02   -0.19803E+00 11192   0.207E+00    0.209E-01
RMM:   2    -0.708781841995E+03   -0.62984E-02   -0.65639E-02 13188   0.551E-01    0.697E-02
RMM:   3    -0.708783554774E+03   -0.17128E-02   -0.17528E-02 15175   0.220E-01    0.684E-02
RMM:   4    -0.708783677904E+03   -0.12313E-03   -0.19401E-03 15287   0.731E-02    0.448E-02
RMM:   5    -0.708783663507E+03    0.14397E-04   -0.39657E-04 13677   0.319E-02    0.151E-02
RMM:   6    -0.708783670088E+03   -0.65814E-05   -0.85895E-05 10753   0.151E-02
  30 F= -.70878367E+03 E0= -.70877460E+03  d E =-.362135E-02
 curvature:  -4.40 expect dE=-0.207E-01 dE for cont linesearch -0.169E-03
 ZBRENT: bracketing found
 ZBRENT: interpolating
 opt :   1.3372  next Energy=  -708.783795 (dE=-0.375E-02)
 bond charge predicted
       N       E                     dE             d eps       ncg     rms          rms(c)
DAV:   1    -0.708782421382E+03    0.12421E-02   -0.30642E-01 11136   0.814E-01    0.839E-02
RMM:   2    -0.708783366774E+03   -0.94539E-03   -0.98763E-03 13130   0.213E-01    0.279E-02
RMM:   3    -0.708783619543E+03   -0.25277E-03   -0.25942E-03 15032   0.849E-02    0.255E-02
RMM:   4    -0.708783637436E+03   -0.17893E-04   -0.28605E-04 13700   0.287E-02    0.162E-02
RMM:   5    -0.708783635995E+03    0.14405E-05   -0.62346E-05 10378   0.143E-02
  31 F= -.70878364E+03 E0= -.70877457E+03  d E =-.358725E-02
 curvature:  -3.25 expect dE=-0.112E-01 dE for cont linesearch -0.131E-03
 ZBRENT: interpolating
 opt :   1.4686  next Energy=  -708.783732 (dE=-0.368E-02)
 bond charge predicted
       N       E                     dE             d eps       ncg     rms          rms(c)
DAV:   1    -0.708783374413E+03    0.26302E-03   -0.78751E-02 11350   0.413E-01    0.393E-02
RMM:   2    -0.708783621229E+03   -0.24682E-03   -0.25659E-03 13211   0.107E-01    0.139E-02
RMM:   3    -0.708783683065E+03   -0.61836E-04   -0.64397E-04 14630   0.421E-02    0.141E-02
RMM:   4    -0.708783686604E+03   -0.35392E-05   -0.71441E-05 10441   0.152E-02
  32 F= -.70878369E+03 E0= -.70877462E+03  d E =-.363786E-02
 curvature:  -1.52 expect dE=-0.604E-02 dE for cont linesearch -0.979E-05
 trial: gam= 0.86046 g(F)=  0.397E-02 g(S)=  0.000E+00 ort =-0.394E-03 (trialstep = 0.784E+00)
 search vector abs. value=  0.211E-01
 bond charge predicted
       N       E                     dE             d eps       ncg     rms          rms(c)
DAV:   1    -0.708776622488E+03    0.70606E-02   -0.22002E+00 11039   0.217E+00    0.234E-01
RMM:   2    -0.708783835741E+03   -0.72133E-02   -0.75572E-02 13259   0.579E-01    0.780E-02
RMM:   3    -0.708785637195E+03   -0.18015E-02   -0.18708E-02 15213   0.226E-01    0.761E-02
RMM:   4    -0.708785746113E+03   -0.10892E-03   -0.20937E-03 15265   0.765E-02    0.447E-02
RMM:   5    -0.708785739350E+03    0.67633E-05   -0.45175E-04 14126   0.337E-02    0.149E-02
RMM:   6    -0.708785746895E+03   -0.75451E-05   -0.96698E-05 10892   0.155E-02
  33 F= -.70878575E+03 E0= -.70877664E+03  d E =-.206029E-02
 trial-energy change:   -0.002060  1 .order   -0.001705   -0.002843   -0.000567
 step:   0.8787(harm=  0.9786)  dis= 0.01302  next Energy=  -708.785782 (dE=-0.210E-02)
 bond charge predicted
       N       E                     dE             d eps       ncg     rms          rms(c)
DAV:   1    -0.708785705016E+03    0.34334E-04   -0.33268E-02 11814   0.267E-01    0.266E-02
RMM:   2    -0.708785823473E+03   -0.11846E-03   -0.12351E-03 13287   0.733E-02    0.969E-03
RMM:   3    -0.708785851845E+03   -0.28372E-04   -0.30665E-04 13735   0.292E-02    0.108E-02
RMM:   4    -0.708785853645E+03   -0.17996E-05   -0.39828E-05  8177   0.127E-02
  34 F= -.70878585E+03 E0= -.70877674E+03  d E =-.216704E-02
 curvature:  -2.10 expect dE=-0.420E-02 dE for cont linesearch -0.385E-04
 ZBRENT: increasing intervall
 opt :   1.0690  next Energy=  -708.785953 (dE=-0.227E-02)
 bond charge predicted
       N       E                     dE             d eps       ncg     rms          rms(c)
DAV:   1    -0.708785443726E+03    0.40812E-03   -0.12960E-01 11212   0.527E-01    0.575E-02
RMM:   2    -0.708785860106E+03   -0.41638E-03   -0.43687E-03 13144   0.140E-01    0.190E-02
RMM:   3    -0.708785971380E+03   -0.11127E-03   -0.11527E-03 14966   0.560E-02    0.176E-02
RMM:   4    -0.708785979055E+03   -0.76750E-05   -0.13336E-04 12421   0.200E-02    0.110E-02
RMM:   5    -0.708785978668E+03    0.38796E-06   -0.33051E-05  8633   0.112E-02
  35 F= -.70878598E+03 E0= -.70877685E+03  d E =-.229206E-02
 curvature:  -5.41 expect dE=-0.130E-01 dE for cont linesearch -0.287E-05
 trial: gam= 0.37269 g(F)=  0.239E-02 g(S)=  0.000E+00 ort = 0.106E-03 (trialstep = 0.841E+00)
 search vector abs. value=  0.541E-02
 bond charge predicted
       N       E                     dE             d eps       ncg     rms          rms(c)
DAV:   1    -0.708784461068E+03    0.15180E-02   -0.63357E-01 11112   0.119E+00    0.122E-01
RMM:   2    -0.708786752233E+03   -0.22912E-02   -0.24014E-02 13576   0.336E-01    0.419E-02
RMM:   3    -0.708787302255E+03   -0.55002E-03   -0.58392E-03 15091   0.127E-01    0.429E-02
RMM:   4    -0.708787336299E+03   -0.34044E-04   -0.68262E-04 14996   0.445E-02    0.278E-02
RMM:   5    -0.708787324180E+03    0.12119E-04   -0.15929E-04 12478   0.211E-02    0.837E-03
RMM:   6    -0.708787326476E+03   -0.22961E-05   -0.35947E-05  8642   0.101E-02
  36 F= -.70878733E+03 E0= -.70877819E+03  d E =-.134781E-02
 trial-energy change:   -0.001348  1 .order   -0.001219   -0.002044   -0.000394
 step:   0.9712(harm=  1.0416)  dis= 0.00760  next Energy=  -708.787358 (dE=-0.138E-02)
 bond charge predicted
       N       E                     dE             d eps       ncg     rms          rms(c)
DAV:   1    -0.708787315072E+03    0.91073E-05   -0.15665E-02 11670   0.188E-01    0.185E-02
RMM:   2    -0.708787377318E+03   -0.62246E-04   -0.65193E-04 13517   0.563E-02    0.666E-03
RMM:   3    -0.708787392686E+03   -0.15368E-04   -0.16829E-04 12809   0.220E-02    0.754E-03
RMM:   4    -0.708787393864E+03   -0.11782E-05   -0.24519E-05  6437   0.108E-02
  37 F= -.70878739E+03 E0= -.70877825E+03  d E =-.141520E-02
 curvature:  -1.02 expect dE=-0.118E-02 dE for cont linesearch -0.746E-05
 trial: gam= 0.41164 g(F)=  0.116E-02 g(S)=  0.000E+00 ort = 0.199E-03 (trialstep = 0.867E+00)
 search vector abs. value=  0.224E-02
 bond charge predicted
       N       E                     dE             d eps       ncg     rms          rms(c)
DAV:   1    -0.708786834044E+03    0.55864E-03   -0.32861E-01 10912   0.847E-01    0.921E-02
RMM:   2    -0.708787934109E+03   -0.11001E-02   -0.11715E-02 13311   0.229E-01    0.298E-02
RMM:   3    -0.708788182864E+03   -0.24875E-03   -0.27350E-03 15213   0.885E-02    0.317E-02
RMM:   4    -0.708788193120E+03   -0.10255E-04   -0.30335E-04 14226   0.302E-02    0.189E-02
RMM:   5    -0.708788187516E+03    0.56040E-05   -0.81145E-05 10949   0.155E-02
  38 F= -.70878819E+03 E0= -.70877904E+03  d E =-.793652E-03
 trial-energy change:   -0.000794  1 .order   -0.000714   -0.001077   -0.000351
 step:   1.0960(harm=  1.2864)  dis= 0.00458  next Energy=  -708.788235 (dE=-0.842E-03)
 bond charge predicted
       N       E                     dE             d eps       ncg     rms          rms(c)
DAV:   1    -0.708788166128E+03    0.26992E-04   -0.23111E-02 11678   0.226E-01    0.278E-02
RMM:   2    -0.708788248109E+03   -0.81981E-04   -0.88144E-04 13243   0.637E-02    0.818E-03
RMM:   3    -0.708788267942E+03   -0.19833E-04   -0.21787E-04 13619   0.255E-02    0.786E-03
RMM:   4    -0.708788269272E+03   -0.13302E-05   -0.28878E-05  6845   0.112E-02
  39 F= -.70878827E+03 E0= -.70877911E+03  d E =-.875408E-03
 curvature:  -0.92 expect dE=-0.433E-03 dE for cont linesearch -0.793E-05
 ZBRENT: increasing intervall
 opt :   1.5544  next Energy=  -708.788211 (dE=-0.817E-03)
 bond charge predicted
       N       E                     dE             d eps       ncg     rms          rms(c)
DAV:   1    -0.708787904043E+03    0.36390E-03   -0.91944E-02 10948   0.448E-01    0.488E-02
RMM:   2    -0.708788212308E+03   -0.30827E-03   -0.32819E-03 13296   0.122E-01    0.159E-02
RMM:   3    -0.708788283725E+03   -0.71417E-04   -0.78774E-04 14986   0.473E-02    0.166E-02
RMM:   4    -0.708788286919E+03   -0.31935E-05   -0.89894E-05 11666   0.167E-02
  40 F= -.70878829E+03 E0= -.70877912E+03  d E =-.893055E-03
 curvature:   6.79 expect dE= 0.770E-02 dE for cont linesearch  0.292E-03
 ZBRENT: bracketing found
 ZBRENT: interpolating
 opt :   1.2377  next Energy=  -708.788279 (dE=-0.885E-03)
 bond charge predicted
       N       E                     dE             d eps       ncg     rms          rms(c)
DAV:   1    -0.708788095019E+03    0.18871E-03   -0.44022E-02 11088   0.314E-01    0.317E-02
RMM:   2    -0.708788258909E+03   -0.16389E-03   -0.17609E-03 13201   0.937E-02    0.114E-02
RMM:   3    -0.708788297808E+03   -0.38899E-04   -0.42864E-04 14608   0.366E-02    0.137E-02
RMM:   4    -0.708788299266E+03   -0.14577E-05   -0.54546E-05  9185   0.144E-02
  41 F= -.70878830E+03 E0= -.70877914E+03  d E =-.905402E-03
 curvature:  -0.23 expect dE=-0.159E-03 dE for cont linesearch -0.661E-05
 ZBRENT: bisectioning
 opt :   1.3961  next Energy=  -708.788350 (dE=-0.956E-03)
 bond charge predicted
       N       E                     dE             d eps       ncg     rms          rms(c)
DAV:   1    -0.708788249884E+03    0.47924E-04   -0.10988E-02 11008   0.156E-01    0.162E-02
RMM:   2    -0.708788292320E+03   -0.42436E-04   -0.44368E-04 13279   0.444E-02    0.507E-03
RMM:   3    -0.708788300578E+03   -0.82578E-05   -0.97421E-05 11652   0.174E-02
  42 F= -.70878830E+03 E0= -.70877914E+03  d E =-.906714E-03
 curvature:  -1.75 expect dE=-0.157E-02 dE for cont linesearch -0.395E-04
 ZBRENT: interpolating
 opt :   1.3218  next Energy=  -708.788309 (dE=-0.915E-03)
 bond charge predicted
       N       E                     dE             d eps       ncg     rms          rms(c)
DAV:   1    -0.708788292948E+03   -0.62853E-06   -0.23345E-03 11160   0.717E-02    0.105E-02
RMM:   2    -0.708788302279E+03   -0.93304E-05   -0.10012E-04 11158   0.195E-02    0.295E-03
RMM:   3    -0.708788303091E+03   -0.81222E-06   -0.19623E-05  6224   0.910E-03
  43 F= -.70878830E+03 E0= -.70877914E+03  d E =-.909227E-03
 curvature:  -0.37 expect dE=-0.282E-03 dE for cont linesearch -0.493E-05
 ZBRENT: interpolating
 opt :   1.3541  next Energy=  -708.788306 (dE=-0.912E-03)
 bond charge predicted
       N       E                     dE             d eps       ncg     rms          rms(c)
DAV:   1    -0.708788300180E+03    0.20989E-05   -0.42468E-04 10782   0.306E-02    0.423E-03
RMM:   2    -0.708788301891E+03   -0.17109E-05   -0.17990E-05  6015   0.841E-03
  44 F= -.70878830E+03 E0= -.70877914E+03  d E =-.908027E-03
 curvature:  -0.21 expect dE=-0.171E-03 dE for cont linesearch -0.142E-05
 trial: gam= 0.97652 g(F)=  0.818E-03 g(S)=  0.000E+00 ort =-0.123E-03 (trialstep = 0.796E+00)
 search vector abs. value=  0.271E-02
 bond charge predicted
       N       E                     dE             d eps       ncg     rms          rms(c)
DAV:   1    -0.708787399059E+03    0.90112E-03   -0.32763E-01 10991   0.843E-01    0.923E-02
RMM:   2    -0.708788442882E+03   -0.10438E-02   -0.11000E-02 13048   0.222E-01    0.299E-02
RMM:   3    -0.708788711957E+03   -0.26907E-03   -0.28184E-03 15167   0.892E-02    0.303E-02
RMM:   4    -0.708788730212E+03   -0.18255E-04   -0.30905E-04 14033   0.301E-02    0.217E-02
RMM:   5    -0.708788724004E+03    0.62079E-05   -0.79704E-05 10732   0.157E-02
  45 F= -.70878872E+03 E0= -.70877955E+03  d E =-.422114E-03
 trial-energy change:   -0.000422  1 .order   -0.000354   -0.000555   -0.000152
 step:   0.9334(harm=  1.0973)  dis= 0.00445  next Energy=  -708.788737 (dE=-0.436E-03)
 bond charge predicted
       N       E                     dE             d eps       ncg     rms          rms(c)
DAV:   1    -0.708788713126E+03    0.17086E-04   -0.97693E-03 11918   0.148E-01    0.209E-02
RMM:   2    -0.708788748319E+03   -0.35193E-04   -0.38312E-04 12862   0.436E-02    0.664E-03
RMM:   3    -0.708788757841E+03   -0.95218E-05   -0.10761E-04 11970   0.182E-02    0.452E-03
RMM:   4    -0.708788758597E+03   -0.75586E-06   -0.15392E-05  6238   0.882E-03
  46 F= -.70878876E+03 E0= -.70877958E+03  d E =-.456706E-03
 curvature:  -1.50 expect dE=-0.466E-03 dE for cont linesearch -0.261E-05
 ZBRENT: increasing intervall
 opt :   1.2081  next Energy=  -708.788744 (dE=-0.442E-03)
 bond charge predicted
       N       E                     dE             d eps       ncg     rms          rms(c)
DAV:   1    -0.708788623070E+03    0.13477E-03   -0.38976E-02 11144   0.291E-01    0.320E-02
RMM:   2    -0.708788748646E+03   -0.12558E-03   -0.13277E-03 13062   0.786E-02    0.104E-02
RMM:   3    -0.708788780963E+03   -0.32317E-04   -0.34263E-04 13966   0.315E-02    0.102E-02
RMM:   4    -0.708788783129E+03   -0.21655E-05   -0.41732E-05  8223   0.129E-02
  47 F= -.70878878E+03 E0= -.70877960E+03  d E =-.481238E-03
 curvature:   8.59 expect dE= 0.334E-02 dE for cont linesearch  0.505E-04
 ZBRENT: bracketing found
 ZBRENT: interpolating
 opt :   1.0301  next Energy=  -708.788762 (dE=-0.460E-03)
 bond charge predicted
       N       E                     dE             d eps       ncg     rms          rms(c)
DAV:   1    -0.708788705270E+03    0.75693E-04   -0.16368E-02 11024   0.190E-01    0.197E-02
RMM:   2    -0.708788762029E+03   -0.56759E-04   -0.59602E-04 13152   0.505E-02    0.632E-03
RMM:   3    -0.708788772905E+03   -0.10876E-04   -0.12515E-04 12159   0.196E-02    0.713E-03
RMM:   4    -0.708788773566E+03   -0.66059E-06   -0.18147E-05  6266   0.951E-03
  48 F= -.70878877E+03 E0= -.70877959E+03  d E =-.471675E-03
 curvature:  -0.56 expect dE=-0.200E-03 dE for cont linesearch -0.975E-05
 ZBRENT: interpolating
 opt :   1.1425  next Energy=  -708.788787 (dE=-0.485E-03)
 bond charge predicted
       N       E                     dE             d eps       ncg     rms          rms(c)
DAV:   1    -0.708788751696E+03    0.21210E-04   -0.65453E-03 10960   0.119E-01    0.123E-02
RMM:   2    -0.708788775319E+03   -0.23623E-04   -0.24677E-04 12834   0.324E-02    0.421E-03
RMM:   3    -0.708788779623E+03   -0.43040E-05   -0.55733E-05  8715   0.132E-02
  49 F= -.70878878E+03 E0= -.70877960E+03  d E =-.477732E-03
 curvature:  -0.24 expect dE=-0.879E-04 dE for cont linesearch -0.869E-06
 ZBRENT: bisectioning
 opt :   1.0863  next Energy=  -708.788785 (dE=-0.483E-03)
 bond charge predicted
       N       E                     dE             d eps       ncg     rms          rms(c)
DAV:   1    -0.708788769578E+03    0.57407E-05   -0.15814E-03 10926   0.587E-02    0.846E-03
RMM:   2    -0.708788775721E+03   -0.61432E-05   -0.65626E-05  8956   0.155E-02
  50 F= -.70878878E+03 E0= -.70877960E+03  d E =-.473831E-03
 curvature:  -1.36 expect dE=-0.521E-03 dE for cont linesearch -0.515E-04
 ZBRENT: interpolating
 opt :   1.1293  next Energy=  -708.788780 (dE=-0.478E-03)
 bond charge predicted
       N       E                     dE             d eps       ncg     rms          rms(c)
DAV:   1    -0.708788775413E+03   -0.58345E-05   -0.86901E-04 10576   0.435E-02    0.554E-03
RMM:   2    -0.708788778200E+03   -0.27877E-05   -0.31699E-05  6390   0.136E-02
  51 F= -.70878878E+03 E0= -.70877960E+03  d E =-.476310E-03
 curvature:  -0.02 expect dE=-0.644E-05 dE for cont linesearch -0.109E-06
 ZBRENT: bisectioning
 opt :   1.1078  next Energy=  -708.788782 (dE=-0.480E-03)
 bond charge predicted
       N       E                     dE             d eps       ncg     rms          rms(c)
DAV:   1    -0.708788775953E+03   -0.53992E-06   -0.20309E-04 10845   0.237E-02    0.290E-03
RMM:   2    -0.708788777641E+03   -0.16885E-05   -0.19126E-05  5972   0.101E-02
  52 F= -.70878878E+03 E0= -.70877960E+03  d E =-.475750E-03
 curvature:  -0.53 expect dE=-0.198E-03 dE for cont linesearch -0.892E-05
 ZBRENT: interpolating
 opt :   1.1211  next Energy=  -708.788779 (dE=-0.477E-03)
 bond charge predicted
       N       E                     dE             d eps       ncg     rms          rms(c)
DAV:   1    -0.708788777345E+03   -0.13921E-05   -0.71025E-05  9584   0.178E-02    0.162E-03
RMM:   2    -0.708788778523E+03   -0.11780E-05   -0.12289E-05  5331   0.736E-03
  53 F= -.70878878E+03 E0= -.70877960E+03  d E =-.476632E-03
 curvature:  -0.03 expect dE=-0.117E-04 dE for cont linesearch -0.544E-07
 trial: gam= 0.27276 g(F)=  0.369E-03 g(S)=  0.000E+00 ort =-0.681E-04 (trialstep = 0.861E+00)
 search vector abs. value=  0.534E-03
 bond charge predicted
       N       E                     dE             d eps       ncg     rms          rms(c)
DAV:   1    -0.708788626197E+03    0.15115E-03   -0.84756E-02 10520   0.421E-01    0.474E-02
RMM:   2    -0.708788919486E+03   -0.29329E-03   -0.31157E-03 13194   0.114E-01    0.150E-02
RMM:   3    -0.708788979765E+03   -0.60279E-04   -0.67753E-04 15185   0.437E-02    0.167E-02
RMM:   4    -0.708788981893E+03   -0.21285E-05   -0.76995E-05 11253   0.152E-02
  54 F= -.70878898E+03 E0= -.70877980E+03  d E =-.203371E-03
 trial-energy change:   -0.000203  1 .order   -0.000166   -0.000302   -0.000029
 step:   0.9539(harm=  0.9539)  dis= 0.00170  next Energy=  -708.788946 (dE=-0.167E-03)
 bond charge predicted
       N       E                     dE             d eps       ncg     rms          rms(c)
DAV:   1    -0.708788984043E+03   -0.42777E-05   -0.92000E-04 15272   0.525E-02    0.810E-03
RMM:   2    -0.708788988390E+03   -0.43472E-05   -0.49549E-05  9220   0.136E-02
  55 F= -.70878899E+03 E0= -.70877981E+03  d E =-.209867E-03
 curvature:  -0.73 expect dE=-0.121E-03 dE for cont linesearch -0.548E-07
 trial: gam= 0.44638 g(F)=  0.166E-03 g(S)=  0.000E+00 ort = 0.634E-05 (trialstep = 0.880E+00)
 search vector abs. value=  0.278E-03
 bond charge predicted
       N       E                     dE             d eps       ncg     rms          rms(c)
DAV:   1    -0.708788921739E+03    0.62303E-04   -0.46799E-02 11036   0.324E-01    0.338E-02
RMM:   2    -0.708789081979E+03   -0.16024E-03   -0.16792E-03 13362   0.869E-02    0.110E-02
RMM:   3    -0.708789116719E+03   -0.34739E-04   -0.37582E-04 14427   0.334E-02    0.107E-02
RMM:   4    -0.708789118895E+03   -0.21766E-05   -0.45408E-05  8979   0.131E-02
  56 F= -.70878912E+03 E0= -.70877993E+03  d E =-.130505E-03
 trial-energy change:   -0.000131  1 .order   -0.000094   -0.000149   -0.000038
 step:   1.1851(harm=  1.1851)  dis= 0.00102  next Energy=  -708.789089 (dE=-0.100E-03)
 bond charge predicted
       N       E                     dE             d eps       ncg     rms          rms(c)
DAV:   1    -0.708789112974E+03    0.37448E-05   -0.55702E-03 11576   0.113E-01    0.132E-02
RMM:   2    -0.708789134878E+03   -0.21905E-04   -0.23388E-04 13165   0.355E-02    0.438E-03
RMM:   3    -0.708789140123E+03   -0.52444E-05   -0.61317E-05  9911   0.142E-02
  57 F= -.70878914E+03 E0= -.70877995E+03  d E =-.151733E-03
 curvature:  -0.97 expect dE=-0.959E-04 dE for cont linesearch -0.147E-08
 trial: gam= 0.75180 g(F)=  0.983E-04 g(S)=  0.000E+00 ort = 0.649E-06 (trialstep = 0.941E+00)
 search vector abs. value=  0.257E-03
 bond charge predicted
       N       E                     dE             d eps       ncg     rms          rms(c)
DAV:   1    -0.708789037042E+03    0.97836E-04   -0.50998E-02 10766   0.324E-01    0.374E-02
RMM:   2    -0.708789197216E+03   -0.16017E-03   -0.17044E-03 12772   0.860E-02    0.118E-02
RMM:   3    -0.708789236349E+03   -0.39132E-04   -0.42205E-04 13955   0.348E-02    0.120E-02
RMM:   4    -0.708789238812E+03   -0.24636E-05   -0.51599E-05  9095   0.140E-02
  58 F= -.70878924E+03 E0= -.70878005E+03  d E =-.986894E-04
 trial-energy change:   -0.000099  1 .order   -0.000057   -0.000093   -0.000021
 step:   1.0008(harm=  1.2231)  dis= 0.00102  next Energy=  -708.789240 (dE=-0.994E-04)
 bond charge predicted
       N       E                     dE             d eps       ncg     rms          rms(c)
DAV:   1    -0.708789241790E+03   -0.54415E-05   -0.19997E-04 12944   0.243E-02    0.495E-03
RMM:   2    -0.708789242751E+03   -0.96062E-06   -0.12007E-05  5979   0.812E-03
  59 F= -.70878924E+03 E0= -.70878006E+03  d E =-.102628E-03
 curvature:  -0.60 expect dE=-0.280E-04 dE for cont linesearch -0.315E-05
 ZBRENT: increasing intervall
 opt :   1.1208  next Energy=  -708.789249 (dE=-0.109E-03)
 bond charge predicted
       N       E                     dE             d eps       ncg     rms          rms(c)
DAV:   1    -0.708789244271E+03   -0.24805E-05   -0.85489E-04 10822   0.437E-02    0.538E-03
RMM:   2    -0.708789248023E+03   -0.37522E-05   -0.39822E-05  7478   0.139E-02
  60 F= -.70878925E+03 E0= -.70878006E+03  d E =-.107900E-03
 curvature:  -1.16 expect dE=-0.589E-04 dE for cont linesearch -0.120E-06
 trial: gam= 0.63817 g(F)=  0.508E-04 g(S)=  0.000E+00 ort = 0.516E-05 (trialstep = 0.977E+00)
 search vector abs. value=  0.162E-03
 bond charge predicted
       N       E                     dE             d eps       ncg     rms          rms(c)
DAV:   1    -0.708789181227E+03    0.63043E-04   -0.33616E-02 10944   0.268E-01    0.294E-02
RMM:   2    -0.708789287158E+03   -0.10593E-03   -0.11160E-03 12816   0.703E-02    0.942E-03
RMM:   3    -0.708789315025E+03   -0.27866E-04   -0.29754E-04 13383   0.290E-02    0.939E-03
RMM:   4    -0.708789317360E+03   -0.23346E-05   -0.37318E-05  7791   0.125E-02
  61 F= -.70878932E+03 E0= -.70878013E+03  d E =-.693368E-04
 trial-energy change:   -0.000069  1 .order   -0.000032   -0.000053   -0.000011
 step:   1.2401(harm=  1.2401)  dis= 0.00107  next Energy=  -708.789282 (dE=-0.336E-04)
 reached required accuracy - stopping structural energy minimisation
Warning: ieee_invalid is signaling
Warning: ieee_divide_by_zero is signaling
Warning: ieee_underflow is signaling
Warning: ieee_inexact is signaling
FORTRAN STOP
Warning: ieee_invalid is signaling
Warning: ieee_divide_by_zero is signaling
Warning: ieee_underflow is signaling
Warning: ieee_inexact is signaling
FORTRAN STOP
Warning: ieee_invalid is signaling
Warning: ieee_divide_by_zero is signaling
Warning: ieee_underflow is signaling
Warning: ieee_inexact is signaling
FORTRAN STOP
Warning: ieee_invalid is signaling
Warning: ieee_divide_by_zero is signaling
Warning: ieee_underflow is signaling
Warning: ieee_inexact is signaling
FORTRAN STOP
