<?xml version="1.0" encoding="ISO-8859-1"?>
<modeling>
 <generator>
  <i name="program" type="string">vasp </i>
  <i name="version" type="string">6.4.2  </i>
  <i name="subversion" type="string">20Jul23 (build Nov 12 2023 22:16:35) complex                          parallel </i>
  <i name="platform" type="string">LinuxNV </i>
  <i name="date" type="string">2025 03 11 </i>
  <i name="time" type="string">10:50:55 </i>
 </generator>
 <incar>
  <i type="int" name="ISTART">     0</i>
  <i type="string" name="PREC">Normal</i>
  <i type="string" name="ALGO">Fast</i>
  <i type="int" name="ISPIN">     1</i>
  <i type="int" name="ICHARG">     2</i>
  <i type="int" name="IBRION">     2</i>
  <i name="EDIFF">      0.00001000</i>
  <i name="EDIFFG">     -0.00500000</i>
  <i type="int" name="NSW">   300</i>
  <i type="int" name="ISIF">     2</i>
  <i name="ENCUT">    450.00000000</i>
  <i type="string" name="LREAL">Auto</i>
  <i type="logical" name="LPLANE"> T  </i>
  <i type="int" name="ISMEAR">     0</i>
  <i name="SIGMA">      0.05000000</i>
  <i type="logical" name="LWAVE"> F  </i>
  <i type="logical" name="LCHARG"> F  </i>
 </incar>
 <primitive_cell>
  <structure name="primitive_cell" >
   <crystal>
    <varray name="basis" >
     <v>       0.00000000      12.28047342       0.00000000 </v>
     <v>       9.14270205       0.00000000       0.00000000 </v>
     <v>       0.00000000      -2.76826177     -11.30069772 </v>
    </varray>
    <i name="volume">   1268.80515525 </i>
    <varray name="rec_basis" >
     <v>       0.00000000       0.08143009      -0.01994742 </v>
     <v>       0.10937686      -0.00000000       0.00000000 </v>
     <v>       0.00000000       0.00000000      -0.08849011 </v>
    </varray>
   </crystal>
   <varray name="positions" >
    <v>       0.65883830       0.00000000       0.15736517 </v>
    <v>       0.65883830       0.00000000       0.65736517 </v>
    <v>       0.65883830       0.33333333       0.15736517 </v>
    <v>       0.65883830       0.33333333       0.65736517 </v>
    <v>       0.65883830       0.66666667       0.15736517 </v>
    <v>       0.65883830       0.66666667       0.65736517 </v>
    <v>       0.84116170       0.16666667       0.34263483 </v>
    <v>       0.84116170       0.16666667       0.84263483 </v>
    <v>       0.84116170       0.50000000       0.34263483 </v>
    <v>       0.84116170       0.50000000       0.84263483 </v>
    <v>       0.84116170       0.83333333       0.34263483 </v>
    <v>       0.84116170       0.83333333       0.84263483 </v>
    <v>       0.59047440       0.16666667       0.39739300 </v>
    <v>       0.59047440       0.16666667       0.89739300 </v>
    <v>       0.59047440       0.50000000       0.39739300 </v>
    <v>       0.59047440       0.50000000       0.89739300 </v>
    <v>       0.59047440       0.83333333       0.39739300 </v>
    <v>       0.59047440       0.83333333       0.89739300 </v>
    <v>       0.90952560       0.00000000       0.10260700 </v>
    <v>       0.90952560       0.00000000       0.60260700 </v>
    <v>       0.90952560       0.33333333       0.10260700 </v>
    <v>       0.90952560       0.33333333       0.60260700 </v>
    <v>       0.90952560       0.66666667       0.10260700 </v>
    <v>       0.90952560       0.66666667       0.60260700 </v>
    <v>       0.15883830       0.16666667       0.15736517 </v>
    <v>       0.15883830       0.16666667       0.65736517 </v>
    <v>       0.15883830       0.50000000       0.15736517 </v>
    <v>       0.15883830       0.50000000       0.65736517 </v>
    <v>       0.15883830       0.83333333       0.15736517 </v>
    <v>       0.15883830       0.83333333       0.65736517 </v>
    <v>       0.34116170       0.00000000       0.34263483 </v>
    <v>       0.34116170       0.00000000       0.84263483 </v>
    <v>       0.34116170       0.33333333       0.34263483 </v>
    <v>       0.34116170       0.33333333       0.84263483 </v>
    <v>       0.34116170       0.66666667       0.34263483 </v>
    <v>       0.34116170       0.66666667       0.84263483 </v>
    <v>       0.09047440       0.00000000       0.39739300 </v>
    <v>       0.09047440       0.00000000       0.89739300 </v>
    <v>       0.09047440       0.33333333       0.39739300 </v>
    <v>       0.09047440       0.33333333       0.89739300 </v>
    <v>       0.09047440       0.66666667       0.39739300 </v>
    <v>       0.09047440       0.66666667       0.89739300 </v>
    <v>       0.40952560       0.16666667       0.10260700 </v>
    <v>       0.40952560       0.16666667       0.60260700 </v>
    <v>       0.40952560       0.50000000       0.10260700 </v>
    <v>       0.40952560       0.50000000       0.60260700 </v>
    <v>       0.40952560       0.83333333       0.10260700 </v>
    <v>       0.40952560       0.83333333       0.60260700 </v>
    <v>       0.99646913       0.16666667       0.12833205 </v>
    <v>       0.99646913       0.16666667       0.62833205 </v>
    <v>       0.99646913       0.50000000       0.12833205 </v>
    <v>       0.99646913       0.50000000       0.62833205 </v>
    <v>       0.99646913       0.83333333       0.12833205 </v>
    <v>       0.99646913       0.83333333       0.62833205 </v>
    <v>       0.50353087       0.00000000       0.37166795 </v>
    <v>       0.50353087       0.00000000       0.87166795 </v>
    <v>       0.50353087       0.33333333       0.37166795 </v>
    <v>       0.50353087       0.33333333       0.87166795 </v>
    <v>       0.50353087       0.66666667       0.37166795 </v>
    <v>       0.50353087       0.66666667       0.87166795 </v>
    <v>       0.67337106       0.16666667       0.28161508 </v>
    <v>       0.67337106       0.16666667       0.78161508 </v>
    <v>       0.67337106       0.50000000       0.28161508 </v>
    <v>       0.67337106       0.50000000       0.78161508 </v>
    <v>       0.67337106       0.83333333       0.28161508 </v>
    <v>       0.67337106       0.83333333       0.78161508 </v>
    <v>       0.82662894       0.00000000       0.21838492 </v>
    <v>       0.82662894       0.00000000       0.71838492 </v>
    <v>       0.82662894       0.33333333       0.21838492 </v>
    <v>       0.82662894       0.33333333       0.71838492 </v>
    <v>       0.82662894       0.66666667       0.21838492 </v>
    <v>       0.82662894       0.66666667       0.71838492 </v>
    <v>       0.83549502       0.00000000       0.44542296 </v>
    <v>       0.83549502       0.00000000       0.94542296 </v>
    <v>       0.83549502       0.33333333       0.44542296 </v>
    <v>       0.83549502       0.33333333       0.94542296 </v>
    <v>       0.83549502       0.66666667       0.44542296 </v>
    <v>       0.83549502       0.66666667       0.94542296 </v>
    <v>       0.66450498       0.16666667       0.05457704 </v>
    <v>       0.66450498       0.16666667       0.55457704 </v>
    <v>       0.66450498       0.50000000       0.05457704 </v>
    <v>       0.66450498       0.50000000       0.55457704 </v>
    <v>       0.66450498       0.83333333       0.05457704 </v>
    <v>       0.66450498       0.83333333       0.55457704 </v>
    <v>       0.49646913       0.00000000       0.12833205 </v>
    <v>       0.49646913       0.00000000       0.62833205 </v>
    <v>       0.49646913       0.33333333       0.12833205 </v>
    <v>       0.49646913       0.33333333       0.62833205 </v>
    <v>       0.49646913       0.66666667       0.12833205 </v>
    <v>       0.49646913       0.66666667       0.62833205 </v>
    <v>       0.00353087       0.16666667       0.87166795 </v>
    <v>       0.00353087       0.50000000       0.37166795 </v>
    <v>       0.00353087       0.50000000       0.87166795 </v>
    <v>       0.00353087       0.83333333       0.37166795 </v>
    <v>       0.00353087       0.83333333       0.87166795 </v>
    <v>       0.17337106       0.00000000       0.28161508 </v>
    <v>       0.17337106       0.00000000       0.78161508 </v>
    <v>       0.17337106       0.33333333       0.28161508 </v>
    <v>       0.17337106       0.33333333       0.78161508 </v>
    <v>       0.17337106       0.66666667       0.28161508 </v>
    <v>       0.17337106       0.66666667       0.78161508 </v>
    <v>       0.32662894       0.16666667       0.21838492 </v>
    <v>       0.32662894       0.16666667       0.71838492 </v>
    <v>       0.32662894       0.50000000       0.21838492 </v>
    <v>       0.32662894       0.50000000       0.71838492 </v>
    <v>       0.32662894       0.83333333       0.21838492 </v>
    <v>       0.32662894       0.83333333       0.71838492 </v>
    <v>       0.33549502       0.16666667       0.44542296 </v>
    <v>       0.33549502       0.16666667       0.94542296 </v>
    <v>       0.33549502       0.50000000       0.44542296 </v>
    <v>       0.33549502       0.50000000       0.94542296 </v>
    <v>       0.33549502       0.83333333       0.44542296 </v>
    <v>       0.33549502       0.83333333       0.94542296 </v>
    <v>       0.16450498       0.00000000       0.05457704 </v>
    <v>       0.16450498       0.00000000       0.55457704 </v>
    <v>       0.16450498       0.33333333       0.05457704 </v>
    <v>       0.16450498       0.33333333       0.55457704 </v>
    <v>       0.16450498       0.66666667       0.05457704 </v>
    <v>       0.16450498       0.66666667       0.55457704 </v>
    <v>       0.00353087       0.16666667       0.37166795 </v>
   </varray>
  </structure>
  <varray name="primitive_index" >
   <v type="int" >        1 </v>
   <v type="int" >        2 </v>
   <v type="int" >        3 </v>
   <v type="int" >        4 </v>
   <v type="int" >        5 </v>
   <v type="int" >        6 </v>
   <v type="int" >        7 </v>
   <v type="int" >        8 </v>
   <v type="int" >        9 </v>
   <v type="int" >       10 </v>
   <v type="int" >       11 </v>
   <v type="int" >       12 </v>
   <v type="int" >       13 </v>
   <v type="int" >       14 </v>
   <v type="int" >       15 </v>
   <v type="int" >       16 </v>
   <v type="int" >       17 </v>
   <v type="int" >       18 </v>
   <v type="int" >       19 </v>
   <v type="int" >       20 </v>
   <v type="int" >       21 </v>
   <v type="int" >       22 </v>
   <v type="int" >       23 </v>
   <v type="int" >       24 </v>
   <v type="int" >       25 </v>
   <v type="int" >       26 </v>
   <v type="int" >       27 </v>
   <v type="int" >       28 </v>
   <v type="int" >       29 </v>
   <v type="int" >       30 </v>
   <v type="int" >       31 </v>
   <v type="int" >       32 </v>
   <v type="int" >       33 </v>
   <v type="int" >       34 </v>
   <v type="int" >       35 </v>
   <v type="int" >       36 </v>
   <v type="int" >       37 </v>
   <v type="int" >       38 </v>
   <v type="int" >       39 </v>
   <v type="int" >       40 </v>
   <v type="int" >       41 </v>
   <v type="int" >       42 </v>
   <v type="int" >       43 </v>
   <v type="int" >       44 </v>
   <v type="int" >       45 </v>
   <v type="int" >       46 </v>
   <v type="int" >       47 </v>
   <v type="int" >       48 </v>
   <v type="int" >       49 </v>
   <v type="int" >       50 </v>
   <v type="int" >       51 </v>
   <v type="int" >       52 </v>
   <v type="int" >       53 </v>
   <v type="int" >       54 </v>
   <v type="int" >       55 </v>
   <v type="int" >       56 </v>
   <v type="int" >       57 </v>
   <v type="int" >       58 </v>
   <v type="int" >       59 </v>
   <v type="int" >       60 </v>
   <v type="int" >       61 </v>
   <v type="int" >       62 </v>
   <v type="int" >       63 </v>
   <v type="int" >       64 </v>
   <v type="int" >       65 </v>
   <v type="int" >       66 </v>
   <v type="int" >       67 </v>
   <v type="int" >       68 </v>
   <v type="int" >       69 </v>
   <v type="int" >       70 </v>
   <v type="int" >       71 </v>
   <v type="int" >       72 </v>
   <v type="int" >       73 </v>
   <v type="int" >       74 </v>
   <v type="int" >       75 </v>
   <v type="int" >       76 </v>
   <v type="int" >       77 </v>
   <v type="int" >       78 </v>
   <v type="int" >       79 </v>
   <v type="int" >       80 </v>
   <v type="int" >       81 </v>
   <v type="int" >       82 </v>
   <v type="int" >       83 </v>
   <v type="int" >       84 </v>
   <v type="int" >       85 </v>
   <v type="int" >       86 </v>
   <v type="int" >       87 </v>
   <v type="int" >       88 </v>
   <v type="int" >       89 </v>
   <v type="int" >       90 </v>
   <v type="int" >       91 </v>
   <v type="int" >       92 </v>
   <v type="int" >       93 </v>
   <v type="int" >       94 </v>
   <v type="int" >       95 </v>
   <v type="int" >       96 </v>
   <v type="int" >       97 </v>
   <v type="int" >       98 </v>
   <v type="int" >       99 </v>
   <v type="int" >      100 </v>
   <v type="int" >      101 </v>
   <v type="int" >      102 </v>
   <v type="int" >      103 </v>
   <v type="int" >      104 </v>
   <v type="int" >      105 </v>
   <v type="int" >      106 </v>
   <v type="int" >      107 </v>
   <v type="int" >      108 </v>
   <v type="int" >      109 </v>
   <v type="int" >      110 </v>
   <v type="int" >      111 </v>
   <v type="int" >      112 </v>
   <v type="int" >      113 </v>
   <v type="int" >      114 </v>
   <v type="int" >      115 </v>
   <v type="int" >      116 </v>
   <v type="int" >      117 </v>
   <v type="int" >      118 </v>
   <v type="int" >      119 </v>
   <v type="int" >      120 </v>
  </varray>
 </primitive_cell>
 <kpoints>
  <generation param="Gamma">
   <v type="int" name="divisions">       2        2        2 </v>
   <v name="usershift">      0.00000000       0.00000000       0.00000000 </v>
   <v name="genvec1">      0.50000000       0.00000000       0.00000000 </v>
   <v name="genvec2">      0.00000000       0.50000000       0.00000000 </v>
   <v name="genvec3">      0.00000000       0.00000000       0.50000000 </v>
   <v name="shift">      0.00000000       0.00000000       0.00000000 </v>
  </generation>
  <varray name="kpointlist" >
   <v>       0.00000000       0.00000000       0.00000000 </v>
   <v>       0.50000000       0.00000000       0.00000000 </v>
   <v>       0.00000000       0.50000000       0.00000000 </v>
   <v>       0.50000000       0.50000000       0.00000000 </v>
   <v>       0.00000000       0.00000000       0.50000000 </v>
   <v>       0.50000000       0.00000000       0.50000000 </v>
   <v>       0.00000000       0.50000000       0.50000000 </v>
   <v>       0.50000000       0.50000000       0.50000000 </v>
  </varray>
  <varray name="weights" >
   <v>       0.12500000 </v>
   <v>       0.12500000 </v>
   <v>       0.12500000 </v>
   <v>       0.12500000 </v>
   <v>       0.12500000 </v>
   <v>       0.12500000 </v>
   <v>       0.12500000 </v>
   <v>       0.12500000 </v>
  </varray>
 </kpoints>
 <parameters>
  <separator name="general" >
   <i type="string" name="SYSTEM">unknown system</i>
   <i type="logical" name="LCOMPAT"> F  </i>
  </separator>
  <separator name="electronic" >
   <i type="string" name="PREC">normal</i>
   <i name="ENMAX">    450.00000000</i>
   <i name="ENAUG">    605.39200000</i>
   <i name="EDIFF">      0.00001000</i>
   <i type="int" name="IALGO">    68</i>
   <i type="int" name="IWAVPR">    11</i>
   <i type="int" name="NBANDS">   633</i>
   <i type="int" name="NBANDSLOW">    -1</i>
   <i type="int" name="NBANDSHIGH">    -1</i>
   <i name="NELECT">   1055.00000000</i>
   <i type="int" name="TURBO">     0</i>
   <i type="int" name="IRESTART">     0</i>
   <i type="int" name="NREBOOT">     0</i>
   <i type="int" name="NMIN">     0</i>
   <i name="EREF">      0.00000000</i>
   <separator name="electronic smearing" >
    <i type="int" name="ISMEAR">     0</i>
    <i name="SIGMA">      0.05000000</i>
    <i name="KSPACING">      0.50000000</i>
    <i type="logical" name="KGAMMA"> T  </i>
    <i type="logical" name="KBLOWUP"> T  </i>
   </separator>
   <separator name="electronic projectors" >
    <i type="logical" name="LREAL"> T  </i>
    <v name="ROPT">     -0.00050000     -0.00050000     -0.00050000</v>
    <i type="int" name="LMAXPAW">  -100</i>
    <i type="int" name="LMAXMIX">     2</i>
    <i type="logical" name="NLSPLINE"> F  </i>
   </separator>
   <separator name="electronic startup" >
    <i type="int" name="ISTART">     0</i>
    <i type="int" name="ICHARG">     2</i>
    <i type="int" name="INIWAV">     1</i>
   </separator>
   <separator name="electronic spin" >
    <i type="int" name="ISPIN">     1</i>
    <i type="logical" name="LNONCOLLINEAR"> F  </i>
    <v name="MAGMOM">      1.00000000      1.00000000      1.00000000      1.00000000      1.00000000      1.00000000      1.00000000      1.00000000      1.00000000      1.00000000      1.00000000      1.00000000      1.00000000      1.00000000      1.00000000      1.00000000      1.00000000      1.00000000      1.00000000      1.00000000
      1.00000000      1.00000000      1.00000000      1.00000000      1.00000000      1.00000000      1.00000000      1.00000000      1.00000000      1.00000000      1.00000000      1.00000000      1.00000000      1.00000000      1.00000000      1.00000000      1.00000000      1.00000000      1.00000000      1.00000000
      1.00000000      1.00000000      1.00000000      1.00000000      1.00000000      1.00000000      1.00000000      1.00000000      1.00000000      1.00000000      1.00000000      1.00000000      1.00000000      1.00000000      1.00000000      1.00000000      1.00000000      1.00000000      1.00000000      1.00000000
      1.00000000      1.00000000      1.00000000      1.00000000      1.00000000      1.00000000      1.00000000      1.00000000      1.00000000      1.00000000      1.00000000      1.00000000      1.00000000      1.00000000      1.00000000      1.00000000      1.00000000      1.00000000      1.00000000      1.00000000
      1.00000000      1.00000000      1.00000000      1.00000000      1.00000000      1.00000000      1.00000000      1.00000000      1.00000000      1.00000000      1.00000000      1.00000000      1.00000000      1.00000000      1.00000000      1.00000000      1.00000000      1.00000000      1.00000000      1.00000000
      1.00000000      1.00000000      1.00000000      1.00000000      1.00000000      1.00000000      1.00000000      1.00000000      1.00000000      1.00000000      1.00000000      1.00000000      1.00000000      1.00000000      1.00000000      1.00000000      1.00000000      1.00000000      1.00000000      1.00000000
</v>
    <i name="NUPDOWN">     -1.00000000</i>
    <i type="logical" name="LSORBIT"> F  </i>
    <v name="SAXIS">      0.00000000      0.00000000      1.00000000</v>
    <i type="logical" name="LSPIRAL"> F  </i>
    <v name="QSPIRAL">      0.00000000      0.00000000      0.00000000</v>
    <i type="logical" name="LZEROZ"> F  </i>
   </separator>
   <separator name="electronic exchange-correlation" >
    <i type="logical" name="LASPH"> F  </i>
    <i type="logical" name="LMETAGGA"> F  </i>
   </separator>
   <separator name="electronic convergence" >
    <i type="int" name="NELM">    60</i>
    <i type="int" name="NELMDL">    -5</i>
    <i type="int" name="NELMIN">     2</i>
    <i name="ENINI">    450.00000000</i>
    <separator name="electronic convergence detail" >
     <i type="logical" name="LDIAG"> T  </i>
     <i type="logical" name="LSUBROT"> F  </i>
     <i name="WEIMIN">      0.00100000</i>
     <i name="EBREAK">      0.00000000</i>
     <i name="DEPER">      0.30000000</i>
     <i type="int" name="NRMM">     4</i>
     <i name="TIME">      0.40000000</i>
    </separator>
   </separator>
   <separator name="electronic mixer" >
    <i name="AMIX">      0.40000000</i>
    <i name="BMIX">      1.00000000</i>
    <i name="AMIN">      0.10000000</i>
    <i name="AMIX_MAG">      1.60000000</i>
    <i name="BMIX_MAG">      1.00000000</i>
    <separator name="electronic mixer details" >
     <i type="int" name="IMIX">     4</i>
     <i type="logical" name="MIXFIRST"> F  </i>
     <i type="int" name="MAXMIX">   -45</i>
     <i name="WC">    100.00000000</i>
     <i type="int" name="INIMIX">     1</i>
     <i type="int" name="MIXPRE">     1</i>
     <i type="int" name="MREMOVE">     5</i>
    </separator>
   </separator>
   <separator name="electronic dipolcorrection" >
    <i type="logical" name="LDIPOL"> F  </i>
    <i type="logical" name="LMONO"> F  </i>
    <i type="int" name="IDIPOL">     0</i>
    <i name="EPSILON">      1.00000000</i>
    <v name="DIPOL">   -100.00000000   -100.00000000   -100.00000000</v>
    <i name="EFIELD">      0.00000000</i>
   </separator>
  </separator>
  <separator name="grids" >
   <i type="int" name="NGX">    64</i>
   <i type="int" name="NGY">    48</i>
   <i type="int" name="NGZ">    60</i>
   <i type="int" name="NGXF">   128</i>
   <i type="int" name="NGYF">    96</i>
   <i type="int" name="NGZF">   120</i>
   <i type="logical" name="ADDGRID"> F  </i>
  </separator>
  <separator name="ionic" >
   <i type="int" name="NSW">   300</i>
   <i type="int" name="IBRION">     2</i>
   <i type="int" name="MDALGO">     0</i>
   <i type="int" name="ISIF">     2</i>
   <i name="PSTRESS">      0.00000000</i>
   <i name="EDIFFG">     -0.00500000</i>
   <i type="int" name="NFREE">     1</i>
   <i name="POTIM">      0.50000000</i>
   <i name="SMASS">     -3.00000000</i>
   <i name="SCALEE">      1.00000000</i>
  </separator>
  <separator name="ionic md" >
   <i name="TEBEG">      0.00010000</i>
   <i name="TEEND">      0.00010000</i>
   <i type="int" name="NBLOCK">     1</i>
   <i type="int" name="KBLOCK">   300</i>
   <i type="int" name="NPACO">   256</i>
   <i name="APACO">     10.00000000</i>
  </separator>
  <separator name="symmetry" >
   <i type="int" name="ISYM">     2</i>
   <i name="SYMPREC">      0.00001000</i>
  </separator>
  <separator name="dos" >
   <i type="int" name="LORBIT">     0</i>
   <v name="RWIGS">     -1.00000000     -1.00000000     -1.00000000</v>
   <i type="int" name="NEDOS">   301</i>
   <i name="EMIN">     10.00000000</i>
   <i name="EMAX">    -10.00000000</i>
   <i name="EFERMI">      0.00000000</i>
  </separator>
  <separator name="writing" >
   <i type="int" name="NWRITE">     2</i>
   <i type="logical" name="LWAVE"> F  </i>
   <i type="logical" name="LDOWNSAMPLE"> F  </i>
   <i type="logical" name="LCHARG"> F  </i>
   <i type="logical" name="LPARD"> F  </i>
   <i type="logical" name="LVTOT"> F  </i>
   <i type="logical" name="LVHAR"> F  </i>
   <i type="logical" name="LELF"> F  </i>
   <i type="logical" name="LOPTICS"> F  </i>
   <v name="STM">      0.00000000      0.00000000      0.00000000      0.00000000      0.00000000      0.00000000      0.00000000</v>
  </separator>
  <separator name="performance" >
   <i type="int" name="NPAR">     1</i>
   <i type="int" name="NSIM">     4</i>
   <i type="int" name="NBLK">    -1</i>
   <i type="logical" name="LPLANE"> T  </i>
   <i type="logical" name="LSCALAPACK"> T  </i>
   <i type="logical" name="LSCAAWARE"> F  </i>
   <i type="logical" name="LSCALU"> F  </i>
   <i type="logical" name="LASYNC"> F  </i>
   <i type="logical" name="LORBITALREAL"> F  </i>
  </separator>
  <separator name="miscellaneous" >
   <i type="int" name="IDIOT">     3</i>
   <i type="int" name="PHON_NSTRUCT">    -1</i>
   <i type="logical" name="LMUSIC"> F  </i>
   <v name="POMASS">     69.72300000     16.00000000     30.97400000</v>
   <v name="DARWINR">      0.00000000      0.00000000      0.00000000</v>
   <v name="DARWINV">      1.00000000      1.00000000      1.00000000</v>
   <i type="logical" name="LCORR"> T  </i>
  </separator>
  <i type="logical" name="GGA_COMPAT"> T  </i>
  <i type="logical" name="LBERRY"> F  </i>
  <i type="int" name="ICORELEVEL">     0</i>
  <i type="logical" name="LDAU"> F  </i>
  <i type="int" name="I_CONSTRAINED_M">     0</i>
  <separator name="electronic exchange-correlation" >
   <i type="string" name="GGA">--</i>
   <i type="int" name="VOSKOWN">     0</i>
   <i type="logical" name="LHFCALC"> F  </i>
   <i type="string" name="PRECFOCK"></i>
   <i type="logical" name="LSYMGRAD"> F  </i>
   <i type="logical" name="LHFONE"> F  </i>
   <i type="logical" name="LRHFCALC"> F  </i>
   <i type="logical" name="LTHOMAS"> F  </i>
   <i type="logical" name="LMODELHF"> F  </i>
   <i type="logical" name="LFOCKACE"> F  </i>
   <i name="ENCUT4O">     -1.00000000</i>
   <i type="int" name="EXXOEP">     0</i>
   <i type="int" name="FOURORBIT">     0</i>
   <i name="AEXX">      0.00000000</i>
   <i name="HFALPHA">      0.00000000</i>
   <i name="MCALPHA">      0.00000000</i>
   <i name="ALDAX">      1.00000000</i>
   <i name="AGGAX">      1.00000000</i>
   <i name="ALDAC">      1.00000000</i>
   <i name="AGGAC">      1.00000000</i>
   <i type="int" name="NKREDX">     1</i>
   <i type="int" name="NKREDY">     1</i>
   <i type="int" name="NKREDZ">     1</i>
   <i type="logical" name="SHIFTRED"> F  </i>
   <i type="logical" name="ODDONLY"> F  </i>
   <i type="logical" name="EVENONLY"> F  </i>
   <i type="int" name="LMAXFOCK">     0</i>
   <i type="int" name="NMAXFOCKAE">     0</i>
   <i type="logical" name="LFOCKAEDFT"> F  </i>
   <i name="HFSCREEN">      0.00000000</i>
   <i name="HFSCREENC">      0.00000000</i>
   <i type="int" name="NBANDSGWLOW">     0</i>
  </separator>
  <separator name="vdW DFT" >
   <i type="logical" name="LUSE_VDW"> F  </i>
   <i type="int" name="IVDW_NL">     1</i>
   <i type="logical" name="LSPIN_VDW"> F  </i>
   <i name="Zab_VDW">     -0.84910000</i>
   <i name="PARAM1">      0.12340000</i>
   <i name="PARAM2">      1.00000000</i>
   <i name="PARAM3">      0.00000000</i>
  </separator>
  <separator name="model GW" >
   <i type="int" name="MODEL_GW">     0</i>
   <i name="MODEL_EPS0">      6.34402578</i>
   <i name="MODEL_ALPHA">      1.00000000</i>
  </separator>
  <separator name="linear response parameters" >
   <i type="logical" name="LEPSILON"> F  </i>
   <i type="logical" name="LRPA"> F  </i>
   <i type="logical" name="LNABLA"> F  </i>
   <i type="logical" name="LVEL"> F  </i>
   <i name="CSHIFT">      0.10000000</i>
   <i name="OMEGAMAX">     -1.00000000</i>
   <i name="DEG_THRESHOLD">      0.00200000</i>
   <i name="RTIME">     -0.10000000</i>
   <i name="WPLASMAI">      0.00000000</i>
   <v name="DFIELD">      0.00000000      0.00000000      0.00000000</v>
   <v name="WPLASMA">      0.00000000      0.00000000      0.00000000      0.00000000      0.00000000      0.00000000      0.00000000      0.00000000      0.00000000</v>
  </separator>
  <separator name="orbital magnetization" >
   <i type="logical" name="NUCIND"> F  </i>
   <v name="MAGPOS">      0.00000000      0.00000000      0.00000000</v>
   <i type="logical" name="LNICSALL"> T  </i>
   <i type="logical" name="ORBITALMAG"> F  </i>
   <i type="logical" name="LMAGBLOCH"> F  </i>
   <i type="logical" name="LCHIMAG"> F  </i>
   <i type="logical" name="LGAUGE"> T  </i>
   <i type="int" name="MAGATOM">     0</i>
   <v name="MAGDIPOL">      0.00000000      0.00000000      0.00000000</v>
   <v name="AVECCONST">      0.00000000      0.00000000      0.00000000</v>
  </separator>
  <separator name="response functions" >
   <i type="logical" name="LALL_IN_ONE"> F  </i>
   <i type="int" name="IALL_IN_ONE">    -1</i>
   <i type="int" name="NBANDS_WAVE">    -1</i>
   <i type="logical" name="LFINITE_TEMPERATURE"> F  </i>
   <i type="logical" name="LADDER"> F  </i>
   <i type="logical" name="LRPAFORCE"> F  </i>
   <i type="logical" name="LFXC"> F  </i>
   <i type="logical" name="LHARTREE"> T  </i>
   <i type="int" name="IBSE">     0</i>
   <v type="int" name="KPOINT">    -1     0     0     0</v>
   <i type="logical" name="LTCTC"> F  </i>
   <i type="logical" name="LTCTE"> F  </i>
   <i type="logical" name="LTETE"> F  </i>
   <i type="logical" name="LTRIPLET"> F  </i>
   <i type="logical" name="LFXCEPS"> F  </i>
   <i type="logical" name="LFXHEG"> F  </i>
   <i type="int" name="NATURALO">     2</i>
   <i type="logical" name="LHOLEGF"> F  </i>
   <i type="logical" name="L2ORDER"> F  </i>
   <i type="logical" name="LDMP1"> F  </i>
   <i type="logical" name="LMP2LT"> F  </i>
   <i type="logical" name="LSMP2LT"> F  </i>
   <i type="logical" name="LGWLF"> F  </i>
   <i name="ENCUTGW">     -1.60000002</i>
   <i name="ENCUTGWSOFT">     -1.60000002</i>
   <i name="ENCUTLF">     -1.00000000</i>
   <i type="logical" name="LESF_SPLINES"> F  </i>
   <i type="int" name="LMAXMP2">    -1</i>
   <i name="SCISSOR">      0.00000000</i>
   <i type="int" name="NOMEGA">     0</i>
   <i type="int" name="NOMEGAR">     0</i>
   <i type="int" name="NBANDSGW">    -1</i>
   <i type="int" name="NBANDSO">    -1</i>
   <i type="int" name="NBANDSV">    -1</i>
   <i type="int" name="NELMGW">     1</i>
   <i type="int" name="NELMHF">     1</i>
   <i type="int" name="DIM">     3</i>
   <i type="int" name="IESPILON">     4</i>
   <i type="int" name="ANTIRES">     0</i>
   <i name="OMEGAMAX">    -30.00000000</i>
   <i name="OMEGAMIN">    -30.00000000</i>
   <i name="OMEGATL">   -200.00000000</i>
   <i type="int" name="OMEGAGRID">     0</i>
   <i name="CSHIFT">     -0.10000000</i>
   <i type="logical" name="LSELFENERGY"> F  </i>
   <i type="logical" name="LSPECTRAL"> F  </i>
   <i type="logical" name="LSPECTRALGW"> F  </i>
   <i type="logical" name="LSINGLES"> F  </i>
   <i type="logical" name="LFERMIGW"> F  </i>
   <i type="logical" name="ODDONLYGW"> F  </i>
   <i type="logical" name="EVENONLYGW"> F  </i>
   <i type="int" name="NKREDLFX">     1</i>
   <i type="int" name="NKREDLFY">     1</i>
   <i type="int" name="NKREDLFZ">     1</i>
   <i type="int" name="MAXMEM">  2800</i>
   <i type="int" name="TELESCOPE">     0</i>
   <i type="int" name="NTAUPAR">    -1</i>
   <i type="int" name="NOMEGAPAR">    -1</i>
   <i name="DAMP_NEWTON">      0.80000001</i>
   <i name="LAMBDA">      1.00000000</i>
  </separator>
  <separator name="External order field" >
   <i name="OFIELD_KAPPA">      0.00000000</i>
   <v name="OFIELD_K">      0.00000000      0.00000000      0.00000000</v>
   <i name="OFIELD_Q6_NEAR">      0.00000000</i>
   <i name="OFIELD_Q6_FAR">      0.00000000</i>
   <i name="OFIELD_A">      0.00000000</i>
  </separator>
  <separator name="optional k-points parameters" >
   <i type="int" name="KPOINTS_OPT_MODE">     1</i>
   <i type="logical" name="LKPOINTS_OPT"> F  </i>
  </separator>
 </parameters>
 <atominfo>
  <atoms>     120 </atoms>
  <types>       3 </types>
  <array name="atoms" >
   <dimension dim="1">ion</dimension>
   <field type="string">element</field>
   <field type="int">atomtype</field>
   <set>
    <rc><c>Ga</c><c>   1</c></rc>
    <rc><c>Ga</c><c>   1</c></rc>
    <rc><c>Ga</c><c>   1</c></rc>
    <rc><c>Ga</c><c>   1</c></rc>
    <rc><c>Ga</c><c>   1</c></rc>
    <rc><c>Ga</c><c>   1</c></rc>
    <rc><c>Ga</c><c>   1</c></rc>
    <rc><c>Ga</c><c>   1</c></rc>
    <rc><c>Ga</c><c>   1</c></rc>
    <rc><c>Ga</c><c>   1</c></rc>
    <rc><c>Ga</c><c>   1</c></rc>
    <rc><c>Ga</c><c>   1</c></rc>
    <rc><c>Ga</c><c>   1</c></rc>
    <rc><c>Ga</c><c>   1</c></rc>
    <rc><c>Ga</c><c>   1</c></rc>
    <rc><c>Ga</c><c>   1</c></rc>
    <rc><c>Ga</c><c>   1</c></rc>
    <rc><c>Ga</c><c>   1</c></rc>
    <rc><c>Ga</c><c>   1</c></rc>
    <rc><c>Ga</c><c>   1</c></rc>
    <rc><c>Ga</c><c>   1</c></rc>
    <rc><c>Ga</c><c>   1</c></rc>
    <rc><c>Ga</c><c>   1</c></rc>
    <rc><c>Ga</c><c>   1</c></rc>
    <rc><c>Ga</c><c>   1</c></rc>
    <rc><c>Ga</c><c>   1</c></rc>
    <rc><c>Ga</c><c>   1</c></rc>
    <rc><c>Ga</c><c>   1</c></rc>
    <rc><c>Ga</c><c>   1</c></rc>
    <rc><c>Ga</c><c>   1</c></rc>
    <rc><c>Ga</c><c>   1</c></rc>
    <rc><c>Ga</c><c>   1</c></rc>
    <rc><c>Ga</c><c>   1</c></rc>
    <rc><c>Ga</c><c>   1</c></rc>
    <rc><c>Ga</c><c>   1</c></rc>
    <rc><c>Ga</c><c>   1</c></rc>
    <rc><c>Ga</c><c>   1</c></rc>
    <rc><c>Ga</c><c>   1</c></rc>
    <rc><c>Ga</c><c>   1</c></rc>
    <rc><c>Ga</c><c>   1</c></rc>
    <rc><c>Ga</c><c>   1</c></rc>
    <rc><c>Ga</c><c>   1</c></rc>
    <rc><c>Ga</c><c>   1</c></rc>
    <rc><c>Ga</c><c>   1</c></rc>
    <rc><c>Ga</c><c>   1</c></rc>
    <rc><c>Ga</c><c>   1</c></rc>
    <rc><c>Ga</c><c>   1</c></rc>
    <rc><c>Ga</c><c>   1</c></rc>
    <rc><c>O </c><c>   2</c></rc>
    <rc><c>O </c><c>   2</c></rc>
    <rc><c>O </c><c>   2</c></rc>
    <rc><c>O </c><c>   2</c></rc>
    <rc><c>O </c><c>   2</c></rc>
    <rc><c>O </c><c>   2</c></rc>
    <rc><c>O </c><c>   2</c></rc>
    <rc><c>O </c><c>   2</c></rc>
    <rc><c>O </c><c>   2</c></rc>
    <rc><c>O </c><c>   2</c></rc>
    <rc><c>O </c><c>   2</c></rc>
    <rc><c>O </c><c>   2</c></rc>
    <rc><c>O </c><c>   2</c></rc>
    <rc><c>O </c><c>   2</c></rc>
    <rc><c>O </c><c>   2</c></rc>
    <rc><c>O </c><c>   2</c></rc>
    <rc><c>O </c><c>   2</c></rc>
    <rc><c>O </c><c>   2</c></rc>
    <rc><c>O </c><c>   2</c></rc>
    <rc><c>O </c><c>   2</c></rc>
    <rc><c>O </c><c>   2</c></rc>
    <rc><c>O </c><c>   2</c></rc>
    <rc><c>O </c><c>   2</c></rc>
    <rc><c>O </c><c>   2</c></rc>
    <rc><c>O </c><c>   2</c></rc>
    <rc><c>O </c><c>   2</c></rc>
    <rc><c>O </c><c>   2</c></rc>
    <rc><c>O </c><c>   2</c></rc>
    <rc><c>O </c><c>   2</c></rc>
    <rc><c>O </c><c>   2</c></rc>
    <rc><c>O </c><c>   2</c></rc>
    <rc><c>O </c><c>   2</c></rc>
    <rc><c>O </c><c>   2</c></rc>
    <rc><c>O </c><c>   2</c></rc>
    <rc><c>O </c><c>   2</c></rc>
    <rc><c>O </c><c>   2</c></rc>
    <rc><c>O </c><c>   2</c></rc>
    <rc><c>O </c><c>   2</c></rc>
    <rc><c>O </c><c>   2</c></rc>
    <rc><c>O </c><c>   2</c></rc>
    <rc><c>O </c><c>   2</c></rc>
    <rc><c>O </c><c>   2</c></rc>
    <rc><c>O </c><c>   2</c></rc>
    <rc><c>O </c><c>   2</c></rc>
    <rc><c>O </c><c>   2</c></rc>
    <rc><c>O </c><c>   2</c></rc>
    <rc><c>O </c><c>   2</c></rc>
    <rc><c>O </c><c>   2</c></rc>
    <rc><c>O </c><c>   2</c></rc>
    <rc><c>O </c><c>   2</c></rc>
    <rc><c>O </c><c>   2</c></rc>
    <rc><c>O </c><c>   2</c></rc>
    <rc><c>O </c><c>   2</c></rc>
    <rc><c>O </c><c>   2</c></rc>
    <rc><c>O </c><c>   2</c></rc>
    <rc><c>O </c><c>   2</c></rc>
    <rc><c>O </c><c>   2</c></rc>
    <rc><c>O </c><c>   2</c></rc>
    <rc><c>O </c><c>   2</c></rc>
    <rc><c>O </c><c>   2</c></rc>
    <rc><c>O </c><c>   2</c></rc>
    <rc><c>O </c><c>   2</c></rc>
    <rc><c>O </c><c>   2</c></rc>
    <rc><c>O </c><c>   2</c></rc>
    <rc><c>O </c><c>   2</c></rc>
    <rc><c>O </c><c>   2</c></rc>
    <rc><c>O </c><c>   2</c></rc>
    <rc><c>O </c><c>   2</c></rc>
    <rc><c>O </c><c>   2</c></rc>
    <rc><c>O </c><c>   2</c></rc>
    <rc><c>O </c><c>   2</c></rc>
    <rc><c>P </c><c>   3</c></rc>
   </set>
  </array>
  <array name="atomtypes" >
   <dimension dim="1">type</dimension>
   <field type="int">atomspertype</field>
   <field type="string">element</field>
   <field>mass</field>
   <field>valence</field>
   <field type="string">pseudopotential</field>
   <set>
    <rc><c>  48</c><c>Ga</c><c>     69.72300000</c><c>     13.00000000</c><c>  PAW_PBE Ga_d 06Jul2010                </c></rc>
    <rc><c>  71</c><c>O </c><c>     16.00000000</c><c>      6.00000000</c><c>   PAW_PBE O 08Apr2002                  </c></rc>
    <rc><c>   1</c><c>P </c><c>     30.97400000</c><c>      5.00000000</c><c>  PAW_PBE P 06Sep2000                   </c></rc>
   </set>
  </array>
 </atominfo>
 <structure name="initialpos" >
  <crystal>
   <varray name="basis" >
    <v>       0.00000000      12.28047342       0.00000000 </v>
    <v>       9.14270205       0.00000000       0.00000000 </v>
    <v>       0.00000000      -2.76826177     -11.30069772 </v>
   </varray>
   <i name="volume">   1268.80515525 </i>
   <varray name="rec_basis" >
    <v>       0.00000000       0.08143009      -0.01994742 </v>
    <v>       0.10937686      -0.00000000       0.00000000 </v>
    <v>       0.00000000       0.00000000      -0.08849011 </v>
   </varray>
  </crystal>
  <varray name="positions" >
   <v>       0.65883830       0.00000000       0.15736517 </v>
   <v>       0.65883830       0.00000000       0.65736517 </v>
   <v>       0.65883830       0.33333333       0.15736517 </v>
   <v>       0.65883830       0.33333333       0.65736517 </v>
   <v>       0.65883830       0.66666667       0.15736517 </v>
   <v>       0.65883830       0.66666667       0.65736517 </v>
   <v>       0.84116170       0.16666667       0.34263483 </v>
   <v>       0.84116170       0.16666667       0.84263483 </v>
   <v>       0.84116170       0.50000000       0.34263483 </v>
   <v>       0.84116170       0.50000000       0.84263483 </v>
   <v>       0.84116170       0.83333333       0.34263483 </v>
   <v>       0.84116170       0.83333333       0.84263483 </v>
   <v>       0.59047440       0.16666667       0.39739300 </v>
   <v>       0.59047440       0.16666667       0.89739300 </v>
   <v>       0.59047440       0.50000000       0.39739300 </v>
   <v>       0.59047440       0.50000000       0.89739300 </v>
   <v>       0.59047440       0.83333333       0.39739300 </v>
   <v>       0.59047440       0.83333333       0.89739300 </v>
   <v>       0.90952560       0.00000000       0.10260700 </v>
   <v>       0.90952560       0.00000000       0.60260700 </v>
   <v>       0.90952560       0.33333333       0.10260700 </v>
   <v>       0.90952560       0.33333333       0.60260700 </v>
   <v>       0.90952560       0.66666667       0.10260700 </v>
   <v>       0.90952560       0.66666667       0.60260700 </v>
   <v>       0.15883830       0.16666667       0.15736517 </v>
   <v>       0.15883830       0.16666667       0.65736517 </v>
   <v>       0.15883830       0.50000000       0.15736517 </v>
   <v>       0.15883830       0.50000000       0.65736517 </v>
   <v>       0.15883830       0.83333333       0.15736517 </v>
   <v>       0.15883830       0.83333333       0.65736517 </v>
   <v>       0.34116170       0.00000000       0.34263483 </v>
   <v>       0.34116170       0.00000000       0.84263483 </v>
   <v>       0.34116170       0.33333333       0.34263483 </v>
   <v>       0.34116170       0.33333333       0.84263483 </v>
   <v>       0.34116170       0.66666667       0.34263483 </v>
   <v>       0.34116170       0.66666667       0.84263483 </v>
   <v>       0.09047440       0.00000000       0.39739300 </v>
   <v>       0.09047440       0.00000000       0.89739300 </v>
   <v>       0.09047440       0.33333333       0.39739300 </v>
   <v>       0.09047440       0.33333333       0.89739300 </v>
   <v>       0.09047440       0.66666667       0.39739300 </v>
   <v>       0.09047440       0.66666667       0.89739300 </v>
   <v>       0.40952560       0.16666667       0.10260700 </v>
   <v>       0.40952560       0.16666667       0.60260700 </v>
   <v>       0.40952560       0.50000000       0.10260700 </v>
   <v>       0.40952560       0.50000000       0.60260700 </v>
   <v>       0.40952560       0.83333333       0.10260700 </v>
   <v>       0.40952560       0.83333333       0.60260700 </v>
   <v>       0.99646913       0.16666667       0.12833205 </v>
   <v>       0.99646913       0.16666667       0.62833205 </v>
   <v>       0.99646913       0.50000000       0.12833205 </v>
   <v>       0.99646913       0.50000000       0.62833205 </v>
   <v>       0.99646913       0.83333333       0.12833205 </v>
   <v>       0.99646913       0.83333333       0.62833205 </v>
   <v>       0.50353087       0.00000000       0.37166795 </v>
   <v>       0.50353087       0.00000000       0.87166795 </v>
   <v>       0.50353087       0.33333333       0.37166795 </v>
   <v>       0.50353087       0.33333333       0.87166795 </v>
   <v>       0.50353087       0.66666667       0.37166795 </v>
   <v>       0.50353087       0.66666667       0.87166795 </v>
   <v>       0.67337106       0.16666667       0.28161508 </v>
   <v>       0.67337106       0.16666667       0.78161508 </v>
   <v>       0.67337106       0.50000000       0.28161508 </v>
   <v>       0.67337106       0.50000000       0.78161508 </v>
   <v>       0.67337106       0.83333333       0.28161508 </v>
   <v>       0.67337106       0.83333333       0.78161508 </v>
   <v>       0.82662894       0.00000000       0.21838492 </v>
   <v>       0.82662894       0.00000000       0.71838492 </v>
   <v>       0.82662894       0.33333333       0.21838492 </v>
   <v>       0.82662894       0.33333333       0.71838492 </v>
   <v>       0.82662894       0.66666667       0.21838492 </v>
   <v>       0.82662894       0.66666667       0.71838492 </v>
   <v>       0.83549502       0.00000000       0.44542296 </v>
   <v>       0.83549502       0.00000000       0.94542296 </v>
   <v>       0.83549502       0.33333333       0.44542296 </v>
   <v>       0.83549502       0.33333333       0.94542296 </v>
   <v>       0.83549502       0.66666667       0.44542296 </v>
   <v>       0.83549502       0.66666667       0.94542296 </v>
   <v>       0.66450498       0.16666667       0.05457704 </v>
   <v>       0.66450498       0.16666667       0.55457704 </v>
   <v>       0.66450498       0.50000000       0.05457704 </v>
   <v>       0.66450498       0.50000000       0.55457704 </v>
   <v>       0.66450498       0.83333333       0.05457704 </v>
   <v>       0.66450498       0.83333333       0.55457704 </v>
   <v>       0.49646913       0.00000000       0.12833205 </v>
   <v>       0.49646913       0.00000000       0.62833205 </v>
   <v>       0.49646913       0.33333333       0.12833205 </v>
   <v>       0.49646913       0.33333333       0.62833205 </v>
   <v>       0.49646913       0.66666667       0.12833205 </v>
   <v>       0.49646913       0.66666667       0.62833205 </v>
   <v>       0.00353087       0.16666667       0.87166795 </v>
   <v>       0.00353087       0.50000000       0.37166795 </v>
   <v>       0.00353087       0.50000000       0.87166795 </v>
   <v>       0.00353087       0.83333333       0.37166795 </v>
   <v>       0.00353087       0.83333333       0.87166795 </v>
   <v>       0.17337106       0.00000000       0.28161508 </v>
   <v>       0.17337106       0.00000000       0.78161508 </v>
   <v>       0.17337106       0.33333333       0.28161508 </v>
   <v>       0.17337106       0.33333333       0.78161508 </v>
   <v>       0.17337106       0.66666667       0.28161508 </v>
   <v>       0.17337106       0.66666667       0.78161508 </v>
   <v>       0.32662894       0.16666667       0.21838492 </v>
   <v>       0.32662894       0.16666667       0.71838492 </v>
   <v>       0.32662894       0.50000000       0.21838492 </v>
   <v>       0.32662894       0.50000000       0.71838492 </v>
   <v>       0.32662894       0.83333333       0.21838492 </v>
   <v>       0.32662894       0.83333333       0.71838492 </v>
   <v>       0.33549502       0.16666667       0.44542296 </v>
   <v>       0.33549502       0.16666667       0.94542296 </v>
   <v>       0.33549502       0.50000000       0.44542296 </v>
   <v>       0.33549502       0.50000000       0.94542296 </v>
   <v>       0.33549502       0.83333333       0.44542296 </v>
   <v>       0.33549502       0.83333333       0.94542296 </v>
   <v>       0.16450498       0.00000000       0.05457704 </v>
   <v>       0.16450498       0.00000000       0.55457704 </v>
   <v>       0.16450498       0.33333333       0.05457704 </v>
   <v>       0.16450498       0.33333333       0.55457704 </v>
   <v>       0.16450498       0.66666667       0.05457704 </v>
   <v>       0.16450498       0.66666667       0.55457704 </v>
   <v>       0.00353087       0.16666667       0.37166795 </v>
  </varray>
 </structure>
 <calculation>
  <scstep>
   <time name="dav">    1.78    1.78</time>
   <time name="total">    1.91    1.91</time>
   <energy>
    <i name="alphaZ">   5529.70323211 </i>
    <i name="ewald"> -88605.56783106 </i>
    <i name="hartreedc"> -33365.00139990 </i>
    <i name="XCdc">   4126.49585862 </i>
    <i name="pawpsdc"> 101696.24768859 </i>
    <i name="pawaedc">-117826.33756962 </i>
    <i name="eentropy">     -0.00998565 </i>
    <i name="bandstr">  16359.42728436 </i>
    <i name="atom"> 134015.81877255 </i>
    <i name="e_fr_energy">  21930.77604999 </i>
    <i name="e_wo_entrp">  21930.78603564 </i>
    <i name="e_0_energy">  21930.78104282 </i>
   </energy>
  </scstep>
  <scstep>
   <time name="dav">    1.70    1.70</time>
   <time name="total">    1.70    1.71</time>
   <energy>
    <i name="e_fr_energy">   4855.52484109 </i>
    <i name="e_wo_entrp">   4855.54397084 </i>
    <i name="e_0_energy">   4855.53440596 </i>
   </energy>
  </scstep>
  <scstep>
   <time name="dav">    2.08    2.08</time>
   <time name="total">    2.08    2.08</time>
   <energy>
    <i name="e_fr_energy">   -144.20239929 </i>
    <i name="e_wo_entrp">   -144.19585733 </i>
    <i name="e_0_energy">   -144.19912831 </i>
   </energy>
  </scstep>
  <scstep>
   <time name="dav">    2.03    2.03</time>
   <time name="total">    2.04    2.04</time>
   <energy>
    <i name="e_fr_energy">   -769.09623407 </i>
    <i name="e_wo_entrp">   -769.07032377 </i>
    <i name="e_0_energy">   -769.08327892 </i>
   </energy>
  </scstep>
  <scstep>
   <time name="dav">    2.34    2.34</time>
   <time name="total">    2.62    2.62</time>
   <energy>
    <i name="e_fr_energy">   -813.34244196 </i>
    <i name="e_wo_entrp">   -813.31655490 </i>
    <i name="e_0_energy">   -813.32949843 </i>
   </energy>
  </scstep>
  <scstep>
   <time name="diag">    0.24    0.24</time>
   <time name="diis">    2.45    2.45</time>
   <time name="orth">    0.03    0.03</time>
   <time name="total">    3.11    3.11</time>
   <energy>
    <i name="e_fr_energy">   -701.70839349 </i>
    <i name="e_wo_entrp">   -701.69184684 </i>
    <i name="e_0_energy">   -701.70012016 </i>
   </energy>
  </scstep>
  <scstep>
   <time name="diag">    0.24    0.24</time>
   <time name="diis">    2.66    2.66</time>
   <time name="orth">    0.03    0.03</time>
   <time name="total">    3.32    3.32</time>
   <energy>
    <i name="e_fr_energy">   -705.23617219 </i>
    <i name="e_wo_entrp">   -705.21840156 </i>
    <i name="e_0_energy">   -705.22728688 </i>
   </energy>
  </scstep>
  <scstep>
   <time name="diag">    0.24    0.24</time>
   <time name="diis">    2.37    2.37</time>
   <time name="orth">    0.03    0.03</time>
   <time name="total">    3.03    3.03</time>
   <energy>
    <i name="e_fr_energy">   -705.05773441 </i>
    <i name="e_wo_entrp">   -705.03809437 </i>
    <i name="e_0_energy">   -705.04791439 </i>
   </energy>
  </scstep>
  <scstep>
   <time name="diag">    0.24    0.24</time>
   <time name="diis">    2.87    2.87</time>
   <time name="orth">    0.03    0.03</time>
   <time name="total">    3.54    3.54</time>
   <energy>
    <i name="e_fr_energy">   -704.65599440 </i>
    <i name="e_wo_entrp">   -704.63661812 </i>
    <i name="e_0_energy">   -704.64630626 </i>
   </energy>
  </scstep>
  <scstep>
   <time name="diag">    0.24    0.24</time>
   <time name="diis">    2.48    2.48</time>
   <time name="orth">    0.03    0.03</time>
   <time name="total">    3.15    3.15</time>
   <energy>
    <i name="e_fr_energy">   -704.71354832 </i>
    <i name="e_wo_entrp">   -704.69442160 </i>
    <i name="e_0_energy">   -704.70398496 </i>
   </energy>
  </scstep>
  <scstep>
   <time name="diag">    0.24    0.24</time>
   <time name="diis">    2.56    2.56</time>
   <time name="orth">    0.03    0.03</time>
   <time name="total">    3.23    3.23</time>
   <energy>
    <i name="e_fr_energy">   -704.70905046 </i>
    <i name="e_wo_entrp">   -704.68970201 </i>
    <i name="e_0_energy">   -704.69937623 </i>
   </energy>
  </scstep>
  <scstep>
   <time name="diag">    0.24    0.24</time>
   <time name="diis">    2.93    2.93</time>
   <time name="orth">    0.03    0.03</time>
   <time name="total">    3.60    3.60</time>
   <energy>
    <i name="e_fr_energy">   -704.70995796 </i>
    <i name="e_wo_entrp">   -704.69063423 </i>
    <i name="e_0_energy">   -704.70029609 </i>
   </energy>
  </scstep>
  <scstep>
   <time name="diag">    0.24    0.24</time>
   <time name="diis">    2.85    2.84</time>
   <time name="orth">    0.03    0.03</time>
   <time name="total">    3.52    3.52</time>
   <energy>
    <i name="e_fr_energy">   -704.71116185 </i>
    <i name="e_wo_entrp">   -704.69186174 </i>
    <i name="e_0_energy">   -704.70151180 </i>
   </energy>
  </scstep>
  <scstep>
   <time name="diag">    0.24    0.24</time>
   <time name="diis">    2.60    2.60</time>
   <time name="orth">    0.03    0.03</time>
   <time name="total">    3.27    3.27</time>
   <energy>
    <i name="e_fr_energy">   -704.71147372 </i>
    <i name="e_wo_entrp">   -704.69215862 </i>
    <i name="e_0_energy">   -704.70181617 </i>
   </energy>
  </scstep>
  <scstep>
   <time name="diag">    0.24    0.24</time>
   <time name="diis">    2.41    2.41</time>
   <time name="orth">    0.03    0.03</time>
   <time name="total">    3.08    3.08</time>
   <energy>
    <i name="e_fr_energy">   -704.71160298 </i>
    <i name="e_wo_entrp">   -704.69228889 </i>
    <i name="e_0_energy">   -704.70194594 </i>
   </energy>
  </scstep>
  <scstep>
   <time name="diag">    0.24    0.24</time>
   <time name="diis">    2.03    2.03</time>
   <time name="orth">    0.03    0.03</time>
   <time name="total">    2.71    2.71</time>
   <energy>
    <i name="e_fr_energy">   -704.71164181 </i>
    <i name="e_wo_entrp">   -704.69232959 </i>
    <i name="e_0_energy">   -704.70198570 </i>
   </energy>
  </scstep>
  <scstep>
   <time name="diag">    0.24    0.24</time>
   <time name="diis">    1.84    1.84</time>
   <time name="orth">    0.03    0.03</time>
   <time name="total">    2.52    2.52</time>
   <energy>
    <i name="e_fr_energy">   -704.71166002 </i>
    <i name="e_wo_entrp">   -704.69234752 </i>
    <i name="e_0_energy">   -704.70200377 </i>
   </energy>
  </scstep>
  <scstep>
   <time name="diag">    0.24    0.24</time>
   <time name="diis">    1.66    1.66</time>
   <time name="orth">    0.03    0.03</time>
   <time name="total">    2.05    2.05</time>
   <energy>
    <i name="alphaZ">   5529.70323211 </i>
    <i name="ewald"> -88605.56783106 </i>
    <i name="hartreedc"> -33825.58962225 </i>
    <i name="XCdc">   4186.13350533 </i>
    <i name="pawpsdc"> 121011.01584855 </i>
    <i name="pawaedc">-137400.73005438 </i>
    <i name="eentropy">     -0.01931280 </i>
    <i name="bandstr">  -5615.47620272 </i>
    <i name="atom"> 134015.81877255 </i>
    <i name="e_fr_energy">   -704.71166466 </i>
    <i name="e_wo_entrp">   -704.69235186 </i>
    <i name="e_0_energy">   -704.70200826 </i>
   </energy>
  </scstep>
  <structure>
   <crystal>
    <varray name="basis" >
     <v>       0.00000000      12.28047342       0.00000000 </v>
     <v>       9.14270205       0.00000000       0.00000000 </v>
     <v>       0.00000000      -2.76826177     -11.30069772 </v>
    </varray>
    <i name="volume">   1268.80515525 </i>
    <varray name="rec_basis" >
     <v>       0.00000000       0.08143009      -0.01994742 </v>
     <v>       0.10937686      -0.00000000       0.00000000 </v>
     <v>       0.00000000       0.00000000      -0.08849011 </v>
    </varray>
   </crystal>
   <varray name="positions" >
    <v>       0.65883830       0.00000000       0.15736517 </v>
    <v>       0.65883830       0.00000000       0.65736517 </v>
    <v>       0.65883830       0.33333333       0.15736517 </v>
    <v>       0.65883830       0.33333333       0.65736517 </v>
    <v>       0.65883830       0.66666667       0.15736517 </v>
    <v>       0.65883830       0.66666667       0.65736517 </v>
    <v>       0.84116170       0.16666667       0.34263483 </v>
    <v>       0.84116170       0.16666667       0.84263483 </v>
    <v>       0.84116170       0.50000000       0.34263483 </v>
    <v>       0.84116170       0.50000000       0.84263483 </v>
    <v>       0.84116170       0.83333333       0.34263483 </v>
    <v>       0.84116170       0.83333333       0.84263483 </v>
    <v>       0.59047440       0.16666667       0.39739300 </v>
    <v>       0.59047440       0.16666667       0.89739300 </v>
    <v>       0.59047440       0.50000000       0.39739300 </v>
    <v>       0.59047440       0.50000000       0.89739300 </v>
    <v>       0.59047440       0.83333333       0.39739300 </v>
    <v>       0.59047440       0.83333333       0.89739300 </v>
    <v>       0.90952560       0.00000000       0.10260700 </v>
    <v>       0.90952560       0.00000000       0.60260700 </v>
    <v>       0.90952560       0.33333333       0.10260700 </v>
    <v>       0.90952560       0.33333333       0.60260700 </v>
    <v>       0.90952560       0.66666667       0.10260700 </v>
    <v>       0.90952560       0.66666667       0.60260700 </v>
    <v>       0.15883830       0.16666667       0.15736517 </v>
    <v>       0.15883830       0.16666667       0.65736517 </v>
    <v>       0.15883830       0.50000000       0.15736517 </v>
    <v>       0.15883830       0.50000000       0.65736517 </v>
    <v>       0.15883830       0.83333333       0.15736517 </v>
    <v>       0.15883830       0.83333333       0.65736517 </v>
    <v>       0.34116170       0.00000000       0.34263483 </v>
    <v>       0.34116170       0.00000000       0.84263483 </v>
    <v>       0.34116170       0.33333333       0.34263483 </v>
    <v>       0.34116170       0.33333333       0.84263483 </v>
    <v>       0.34116170       0.66666667       0.34263483 </v>
    <v>       0.34116170       0.66666667       0.84263483 </v>
    <v>       0.09047440       0.00000000       0.39739300 </v>
    <v>       0.09047440       0.00000000       0.89739300 </v>
    <v>       0.09047440       0.33333333       0.39739300 </v>
    <v>       0.09047440       0.33333333       0.89739300 </v>
    <v>       0.09047440       0.66666667       0.39739300 </v>
    <v>       0.09047440       0.66666667       0.89739300 </v>
    <v>       0.40952560       0.16666667       0.10260700 </v>
    <v>       0.40952560       0.16666667       0.60260700 </v>
    <v>       0.40952560       0.50000000       0.10260700 </v>
    <v>       0.40952560       0.50000000       0.60260700 </v>
    <v>       0.40952560       0.83333333       0.10260700 </v>
    <v>       0.40952560       0.83333333       0.60260700 </v>
    <v>       0.99646913       0.16666667       0.12833205 </v>
    <v>       0.99646913       0.16666667       0.62833205 </v>
    <v>       0.99646913       0.50000000       0.12833205 </v>
    <v>       0.99646913       0.50000000       0.62833205 </v>
    <v>       0.99646913       0.83333333       0.12833205 </v>
    <v>       0.99646913       0.83333333       0.62833205 </v>
    <v>       0.50353087       0.00000000       0.37166795 </v>
    <v>       0.50353087       0.00000000       0.87166795 </v>
    <v>       0.50353087       0.33333333       0.37166795 </v>
    <v>       0.50353087       0.33333333       0.87166795 </v>
    <v>       0.50353087       0.66666667       0.37166795 </v>
    <v>       0.50353087       0.66666667       0.87166795 </v>
    <v>       0.67337106       0.16666667       0.28161508 </v>
    <v>       0.67337106       0.16666667       0.78161508 </v>
    <v>       0.67337106       0.50000000       0.28161508 </v>
    <v>       0.67337106       0.50000000       0.78161508 </v>
    <v>       0.67337106       0.83333333       0.28161508 </v>
    <v>       0.67337106       0.83333333       0.78161508 </v>
    <v>       0.82662894       0.00000000       0.21838492 </v>
    <v>       0.82662894       0.00000000       0.71838492 </v>
    <v>       0.82662894       0.33333333       0.21838492 </v>
    <v>       0.82662894       0.33333333       0.71838492 </v>
    <v>       0.82662894       0.66666667       0.21838492 </v>
    <v>       0.82662894       0.66666667       0.71838492 </v>
    <v>       0.83549502       0.00000000       0.44542296 </v>
    <v>       0.83549502       0.00000000       0.94542296 </v>
    <v>       0.83549502       0.33333333       0.44542296 </v>
    <v>       0.83549502       0.33333333       0.94542296 </v>
    <v>       0.83549502       0.66666667       0.44542296 </v>
    <v>       0.83549502       0.66666667       0.94542296 </v>
    <v>       0.66450498       0.16666667       0.05457704 </v>
    <v>       0.66450498       0.16666667       0.55457704 </v>
    <v>       0.66450498       0.50000000       0.05457704 </v>
    <v>       0.66450498       0.50000000       0.55457704 </v>
    <v>       0.66450498       0.83333333       0.05457704 </v>
    <v>       0.66450498       0.83333333       0.55457704 </v>
    <v>       0.49646913       0.00000000       0.12833205 </v>
    <v>       0.49646913       0.00000000       0.62833205 </v>
    <v>       0.49646913       0.33333333       0.12833205 </v>
    <v>       0.49646913       0.33333333       0.62833205 </v>
    <v>       0.49646913       0.66666667       0.12833205 </v>
    <v>       0.49646913       0.66666667       0.62833205 </v>
    <v>       0.00353087       0.16666667       0.87166795 </v>
    <v>       0.00353087       0.50000000       0.37166795 </v>
    <v>       0.00353087       0.50000000       0.87166795 </v>
    <v>       0.00353087       0.83333333       0.37166795 </v>
    <v>       0.00353087       0.83333333       0.87166795 </v>
    <v>       0.17337106       0.00000000       0.28161508 </v>
    <v>       0.17337106       0.00000000       0.78161508 </v>
    <v>       0.17337106       0.33333333       0.28161508 </v>
    <v>       0.17337106       0.33333333       0.78161508 </v>
    <v>       0.17337106       0.66666667       0.28161508 </v>
    <v>       0.17337106       0.66666667       0.78161508 </v>
    <v>       0.32662894       0.16666667       0.21838492 </v>
    <v>       0.32662894       0.16666667       0.71838492 </v>
    <v>       0.32662894       0.50000000       0.21838492 </v>
    <v>       0.32662894       0.50000000       0.71838492 </v>
    <v>       0.32662894       0.83333333       0.21838492 </v>
    <v>       0.32662894       0.83333333       0.71838492 </v>
    <v>       0.33549502       0.16666667       0.44542296 </v>
    <v>       0.33549502       0.16666667       0.94542296 </v>
    <v>       0.33549502       0.50000000       0.44542296 </v>
    <v>       0.33549502       0.50000000       0.94542296 </v>
    <v>       0.33549502       0.83333333       0.44542296 </v>
    <v>       0.33549502       0.83333333       0.94542296 </v>
    <v>       0.16450498       0.00000000       0.05457704 </v>
    <v>       0.16450498       0.00000000       0.55457704 </v>
    <v>       0.16450498       0.33333333       0.05457704 </v>
    <v>       0.16450498       0.33333333       0.55457704 </v>
    <v>       0.16450498       0.66666667       0.05457704 </v>
    <v>       0.16450498       0.66666667       0.55457704 </v>
    <v>       0.00353087       0.16666667       0.37166795 </v>
   </varray>
  </structure>
  <varray name="forces" >
   <v>      -0.04300970      -0.03521591       0.06166155 </v>
   <v>      -0.01395965      -0.08997089       0.07677954 </v>
   <v>       0.04300970      -0.03521591       0.06166155 </v>
   <v>       0.01395965      -0.08997089       0.07677954 </v>
   <v>       0.00000000      -0.03541418       0.04031243 </v>
   <v>       0.00000000      -0.06235998       0.06995708 </v>
   <v>       0.00000000      -7.08770169       1.27401401 </v>
   <v>       0.00000000      -0.04244647       0.00780555 </v>
   <v>       0.07106573       0.14577214      -0.05101493 </v>
   <v>       0.05573457       0.04035230      -0.02926959 </v>
   <v>      -0.07106573       0.14577214      -0.05101493 </v>
   <v>      -0.05573457       0.04035230      -0.02926959 </v>
   <v>       0.00000000      -0.06407563      -0.03452333 </v>
   <v>       0.00000000      -0.05097341      -0.02892977 </v>
   <v>       0.00581566      -0.02441969      -0.02010891 </v>
   <v>       0.00901757      -0.04025421      -0.03848700 </v>
   <v>      -0.00581566      -0.02441969      -0.02010891 </v>
   <v>      -0.00901757      -0.04025421      -0.03848700 </v>
   <v>      -0.41078458      -0.24638308       0.06859723 </v>
   <v>      -0.27363919      -0.14523708       0.05985535 </v>
   <v>       0.41078458      -0.24638308       0.06859723 </v>
   <v>       0.27363919      -0.14523708       0.05985535 </v>
   <v>       0.00000000      -0.01330154      -0.02501707 </v>
   <v>       0.00000000       0.01918695       0.08563430 </v>
   <v>       0.00000000       0.38513693      -0.10444374 </v>
   <v>       0.00000000       0.25776040       0.01507703 </v>
   <v>       0.00469843      -0.01802288      -0.07068684 </v>
   <v>       0.00666994       0.00968886       0.11481197 </v>
   <v>      -0.00469843      -0.01802288      -0.07068684 </v>
   <v>      -0.00666994       0.00968886       0.11481197 </v>
   <v>       0.00411731      -0.00875842      -0.03211517 </v>
   <v>      -0.00830616       0.07043764      -0.03451689 </v>
   <v>      -0.00411731      -0.00875842      -0.03211517 </v>
   <v>       0.00830616       0.07043764      -0.03451689 </v>
   <v>       0.00000000       0.02010604      -0.04176404 </v>
   <v>       0.00000000       0.05776292      -0.03090695 </v>
   <v>      -8.40724068       5.37929055      -1.57602117 </v>
   <v>      -0.08093633       0.05179606      -0.02326606 </v>
   <v>       8.40724068       5.37929055      -1.57602117 </v>
   <v>       0.08093633       0.05179606      -0.02326606 </v>
   <v>       0.00000000      -0.19016302       0.01914100 </v>
   <v>       0.00000000       0.01017473      -0.03090263 </v>
   <v>       0.00000000       0.01483462       0.00508220 </v>
   <v>       0.00000000       0.00550650       0.06712162 </v>
   <v>       0.01051952       0.01681214       0.00369799 </v>
   <v>      -0.00043807       0.00211941       0.04147998 </v>
   <v>      -0.01051952       0.01681214       0.00369799 </v>
   <v>       0.00043807       0.00211941       0.04147998 </v>
   <v>       0.00000000      -0.02121093      -0.32369039 </v>
   <v>       0.00000000       0.03887221       0.09379787 </v>
   <v>      -0.05926884      -0.01321318       0.00774267 </v>
   <v>      -0.04746151      -0.03086401      -0.05476265 </v>
   <v>       0.05926884      -0.01321318       0.00774267 </v>
   <v>       0.04746151      -0.03086401      -0.05476265 </v>
   <v>       0.00715932       0.02882221       0.02969621 </v>
   <v>       0.00640452       0.01629287       0.02990165 </v>
   <v>      -0.00715932       0.02882221       0.02969621 </v>
   <v>      -0.00640452       0.01629287       0.02990165 </v>
   <v>       0.00000000       0.01861773       0.02620612 </v>
   <v>       0.00000000       0.01418120       0.03230256 </v>
   <v>       0.00000000       0.13362345      -0.04402063 </v>
   <v>       0.00000000       0.01430997       0.00825162 </v>
   <v>      -0.01544522      -0.01384566       0.01334803 </v>
   <v>      -0.01428792       0.01077957       0.00940490 </v>
   <v>       0.01544522      -0.01384566       0.01334803 </v>
   <v>       0.01428792       0.01077957       0.00940490 </v>
   <v>      -0.43511944      -0.23387490       0.50565565 </v>
   <v>       0.03637945       0.06226235      -0.03159447 </v>
   <v>       0.43511944      -0.23387490       0.50565565 </v>
   <v>      -0.03637945       0.06226235      -0.03159447 </v>
   <v>       0.00000000       0.00044139       0.01142563 </v>
   <v>       0.00000000       0.01756060      -0.03621207 </v>
   <v>      -0.46411506      -0.64104661      -0.42995756 </v>
   <v>       0.06532471      -0.12600594      -0.07137862 </v>
   <v>       0.46411506      -0.64104661      -0.42995756 </v>
   <v>      -0.06532471      -0.12600594      -0.07137862 </v>
   <v>       0.00000000      -0.20228327      -0.04784194 </v>
   <v>       0.00000000      -0.16465588      -0.01231386 </v>
   <v>       0.00000000       0.18641464       0.02560189 </v>
   <v>       0.00000000       0.19175710       0.00813085 </v>
   <v>       0.00522196       0.16879916       0.05110662 </v>
   <v>      -0.00536181       0.17254414      -0.00059112 </v>
   <v>      -0.00522196       0.16879916       0.05110662 </v>
   <v>       0.00536181       0.17254414      -0.00059112 </v>
   <v>       0.00946247       0.00715785      -0.03068045 </v>
   <v>       0.00104014       0.01080395      -0.04383540 </v>
   <v>      -0.00946247       0.00715785      -0.03068045 </v>
   <v>      -0.00104014       0.01080395      -0.04383540 </v>
   <v>       0.00000000       0.00161717      -0.02599194 </v>
   <v>       0.00000000       0.00658492      -0.04037622 </v>
   <v>       0.00000000      -0.02555645       0.03240525 </v>
   <v>       0.62487025       0.08891967      -0.01772256 </v>
   <v>      -0.02640531      -0.00655414       0.03113988 </v>
   <v>      -0.62487025       0.08891967      -0.01772256 </v>
   <v>       0.02640531      -0.00655414       0.03113988 </v>
   <v>      -0.36831230       0.62242627       0.39225948 </v>
   <v>       0.04019812      -0.07762277      -0.00370087 </v>
   <v>       0.36831230       0.62242627       0.39225948 </v>
   <v>      -0.04019812      -0.07762277      -0.00370087 </v>
   <v>       0.00000000       0.02514365       0.05592346 </v>
   <v>       0.00000000      -0.03794461       0.00094633 </v>
   <v>       0.00000000       0.03607036       0.02306985 </v>
   <v>       0.00000000       0.00622865      -0.04262762 </v>
   <v>       0.02124426       0.05871132       0.01493079 </v>
   <v>       0.00442879       0.03279111      -0.05809078 </v>
   <v>      -0.02124426       0.05871132       0.01493079 </v>
   <v>      -0.00442879       0.03279111      -0.05809078 </v>
   <v>       0.00000000      -0.12539076      -0.04246321 </v>
   <v>       0.00000000      -0.18201635      -0.01764630 </v>
   <v>       0.00260168      -0.16373027      -0.03430067 </v>
   <v>      -0.00876565      -0.18117613      -0.01937090 </v>
   <v>      -0.00260168      -0.16373027      -0.03430067 </v>
   <v>       0.00876565      -0.18117613      -0.01937090 </v>
   <v>       0.06632321       0.11226699       0.06097420 </v>
   <v>      -0.40303136       0.48110435      -0.59994427 </v>
   <v>      -0.06632321       0.11226699       0.06097420 </v>
   <v>       0.40303136       0.48110435      -0.59994427 </v>
   <v>       0.00000000       0.16065496       0.04831058 </v>
   <v>       0.00000000       0.18202054      -0.04006946 </v>
   <v>       0.00000000      -4.48658372       2.41597033 </v>
  </varray>
  <varray name="stress" >
   <v>     111.03855873       0.00000000       0.00000000 </v>
   <v>       0.00000000     100.20320641      -9.18805061 </v>
   <v>       0.00000000      -9.18805026      65.46582297 </v>
  </varray>
  <energy>
   <i name="e_fr_energy">   -704.71166466 </i>
   <i name="e_wo_entrp">   -704.69235186 </i>
   <i name="e_0_energy">   -704.70200826 </i>
  </energy>
  <time name="totalsc">   60.23   60.24</time>
 </calculation>
 <calculation>
  <scstep>
   <time name="dav">    1.93    1.93</time>
   <time name="total">    2.31    2.31</time>
   <energy>
    <i name="alphaZ">   5529.70323211 </i>
    <i name="ewald"> -88348.65813815 </i>
    <i name="hartreedc"> -34076.22792801 </i>
    <i name="XCdc">   4185.62825076 </i>
    <i name="pawpsdc"> 121011.15917480 </i>
    <i name="pawaedc">-137400.87779558 </i>
    <i name="eentropy">     -0.00708544 </i>
    <i name="bandstr">  -5554.03824405 </i>
    <i name="atom"> 134015.81877255 </i>
    <i name="e_fr_energy">   -637.49976101 </i>
    <i name="e_wo_entrp">   -637.49267557 </i>
    <i name="e_0_energy">   -637.49621829 </i>
   </energy>
  </scstep>
  <scstep>
   <time name="diag">    0.24    0.24</time>
   <time name="diis">    2.65    2.65</time>
   <time name="orth">    0.03    0.03</time>
   <time name="total">    3.31    3.31</time>
   <energy>
    <i name="e_fr_energy">   -691.14857468 </i>
    <i name="e_wo_entrp">   -691.13953727 </i>
    <i name="e_0_energy">   -691.14405597 </i>
   </energy>
  </scstep>
  <scstep>
   <time name="diag">    0.24    0.24</time>
   <time name="diis">    2.83    2.83</time>
   <time name="orth">    0.03    0.03</time>
   <time name="total">    3.49    3.49</time>
   <energy>
    <i name="e_fr_energy">   -704.93238967 </i>
    <i name="e_wo_entrp">   -704.91897144 </i>
    <i name="e_0_energy">   -704.92568055 </i>
   </energy>
  </scstep>
  <scstep>
   <time name="diag">    0.24    0.24</time>
   <time name="diis">    2.95    2.95</time>
   <time name="orth">    0.03    0.03</time>
   <time name="total">    3.62    3.62</time>
   <energy>
    <i name="e_fr_energy">   -705.82520262 </i>
    <i name="e_wo_entrp">   -705.80997457 </i>
    <i name="e_0_energy">   -705.81758859 </i>
   </energy>
  </scstep>
  <scstep>
   <time name="diag">    0.24    0.24</time>
   <time name="diis">    3.02    3.02</time>
   <time name="orth">    0.03    0.03</time>
   <time name="total">    3.68    3.68</time>
   <energy>
    <i name="e_fr_energy">   -705.97589739 </i>
    <i name="e_wo_entrp">   -705.95926806 </i>
    <i name="e_0_energy">   -705.96758272 </i>
   </energy>
  </scstep>
  <scstep>
   <time name="diag">    0.24    0.24</time>
   <time name="diis">    2.76    2.76</time>
   <time name="orth">    0.03    0.03</time>
   <time name="total">    3.43    3.43</time>
   <energy>
    <i name="e_fr_energy">   -705.85554095 </i>
    <i name="e_wo_entrp">   -705.83953625 </i>
    <i name="e_0_energy">   -705.84753860 </i>
   </energy>
  </scstep>
  <scstep>
   <time name="diag">    0.24    0.24</time>
   <time name="diis">    2.59    2.59</time>
   <time name="orth">    0.03    0.03</time>
   <time name="total">    3.26    3.26</time>
   <energy>
    <i name="e_fr_energy">   -705.76341505 </i>
    <i name="e_wo_entrp">   -705.75115419 </i>
    <i name="e_0_energy">   -705.75728462 </i>
   </energy>
  </scstep>
  <scstep>
   <time name="diag">    0.24    0.24</time>
   <time name="diis">    2.64    2.64</time>
   <time name="orth">    0.03    0.03</time>
   <time name="total">    3.31    3.31</time>
   <energy>
    <i name="e_fr_energy">   -705.65251141 </i>
    <i name="e_wo_entrp">   -705.64002800 </i>
    <i name="e_0_energy">   -705.64626971 </i>
   </energy>
  </scstep>
  <scstep>
   <time name="diag">    0.24    0.24</time>
   <time name="diis">    2.47    2.47</time>
   <time name="orth">    0.03    0.03</time>
   <time name="total">    3.14    3.14</time>
   <energy>
    <i name="e_fr_energy">   -705.55338925 </i>
    <i name="e_wo_entrp">   -705.53980984 </i>
    <i name="e_0_energy">   -705.54659954 </i>
   </energy>
  </scstep>
  <scstep>
   <time name="diag">    0.24    0.24</time>
   <time name="diis">    2.84    2.84</time>
   <time name="orth">    0.03    0.03</time>
   <time name="total">    3.51    3.51</time>
   <energy>
    <i name="e_fr_energy">   -705.55505591 </i>
    <i name="e_wo_entrp">   -705.54169949 </i>
    <i name="e_0_energy">   -705.54837770 </i>
   </energy>
  </scstep>
  <scstep>
   <time name="diag">    0.24    0.24</time>
   <time name="diis">    2.47    2.47</time>
   <time name="orth">    0.03    0.03</time>
   <time name="total">    3.15    3.15</time>
   <energy>
    <i name="e_fr_energy">   -705.55510235 </i>
    <i name="e_wo_entrp">   -705.54187602 </i>
    <i name="e_0_energy">   -705.54848919 </i>
   </energy>
  </scstep>
  <scstep>
   <time name="diag">    0.24    0.24</time>
   <time name="diis">    2.79    2.79</time>
   <time name="orth">    0.03    0.03</time>
   <time name="total">    3.46    3.46</time>
   <energy>
    <i name="e_fr_energy">   -705.55490796 </i>
    <i name="e_wo_entrp">   -705.54167326 </i>
    <i name="e_0_energy">   -705.54829061 </i>
   </energy>
  </scstep>
  <scstep>
   <time name="diag">    0.24    0.24</time>
   <time name="diis">    2.41    2.41</time>
   <time name="orth">    0.03    0.03</time>
   <time name="total">    3.09    3.09</time>
   <energy>
    <i name="e_fr_energy">   -705.55483724 </i>
    <i name="e_wo_entrp">   -705.54158249 </i>
    <i name="e_0_energy">   -705.54820986 </i>
   </energy>
  </scstep>
  <scstep>
   <time name="diag">    0.24    0.24</time>
   <time name="diis">    2.42    2.42</time>
   <time name="orth">    0.03    0.03</time>
   <time name="total">    3.11    3.11</time>
   <energy>
    <i name="e_fr_energy">   -705.55486250 </i>
    <i name="e_wo_entrp">   -705.54160365 </i>
    <i name="e_0_energy">   -705.54823308 </i>
   </energy>
  </scstep>
  <scstep>
   <time name="diag">    0.24    0.24</time>
   <time name="diis">    1.40    1.40</time>
   <time name="orth">    0.03    0.03</time>
   <time name="total">    1.79    1.79</time>
   <energy>
    <i name="alphaZ">   5529.70323211 </i>
    <i name="ewald"> -88348.65813815 </i>
    <i name="hartreedc"> -34084.24619093 </i>
    <i name="XCdc">   4185.99280000 </i>
    <i name="pawpsdc"> 120204.69403710 </i>
    <i name="pawaedc">-136595.12591801 </i>
    <i name="eentropy">     -0.01325972 </i>
    <i name="bandstr">  -5613.72019961 </i>
    <i name="atom"> 134015.81877255 </i>
    <i name="e_fr_energy">   -705.55486465 </i>
    <i name="e_wo_entrp">   -705.54160493 </i>
    <i name="e_0_energy">   -705.54823479 </i>
   </energy>
  </scstep>
  <structure>
   <crystal>
    <varray name="basis" >
     <v>       0.00000000      12.28047342       0.00000000 </v>
     <v>       9.14270205       0.00000000       0.00000000 </v>
     <v>       0.00000000      -2.76826177     -11.30069772 </v>
    </varray>
    <i name="volume">   1268.80515525 </i>
    <varray name="rec_basis" >
     <v>       0.00000000       0.08143009      -0.01994742 </v>
     <v>       0.10937686      -0.00000000       0.00000000 </v>
     <v>       0.00000000       0.00000000      -0.08849011 </v>
    </varray>
   </crystal>
   <varray name="positions" >
    <v>       0.65864062      -0.00022695       0.15710194 </v>
    <v>       0.65841097      -0.00007366       0.65703740 </v>
    <v>       0.65864062       0.33356028       0.15710194 </v>
    <v>       0.65841097       0.33340699       0.65703740 </v>
    <v>       0.65866039       0.66666667       0.15719308 </v>
    <v>       0.65852600       0.66666667       0.65706652 </v>
    <v>       0.81209234       0.16666667       0.33719607 </v>
    <v>       0.84098744       0.16666667       0.84260151 </v>
    <v>       0.84178344       0.50037499       0.34285261 </v>
    <v>       0.84134839       0.50029409       0.84275978 </v>
    <v>       0.84178344       0.83295835       0.34285261 </v>
    <v>       0.84134839       0.83303924       0.84275978 </v>
    <v>       0.59025591       0.16666667       0.39754038 </v>
    <v>       0.59030200       0.16666667       0.89751650 </v>
    <v>       0.59039782       0.50003069       0.39747884 </v>
    <v>       0.59035330       0.50004758       0.89755730 </v>
    <v>       0.59039782       0.83330265       0.39747884 </v>
    <v>       0.59035330       0.83328575       0.89755730 </v>
    <v>       0.90849170      -0.00216756       0.10231416 </v>
    <v>       0.90889745      -0.00144389       0.60235148 </v>
    <v>       0.90849170       0.33550089       0.10231416 </v>
    <v>       0.90889745       0.33477723       0.60235148 </v>
    <v>       0.90949742       0.66666667       0.10271380 </v>
    <v>       0.90951857       0.66666667       0.60224143 </v>
    <v>       0.16045178       0.16666667       0.15781104 </v>
    <v>       0.15983638       0.16666667       0.65730081 </v>
    <v>       0.15883552       0.50002479       0.15766693 </v>
    <v>       0.15876588       0.50003519       0.65687504 </v>
    <v>       0.15883552       0.83330854       0.15766693 </v>
    <v>       0.15876588       0.83329814       0.65687504 </v>
    <v>       0.34115820       0.00002173       0.34277193 </v>
    <v>       0.34147162      -0.00004383       0.84278218 </v>
    <v>       0.34115820       0.33331161       0.34277193 </v>
    <v>       0.34147162       0.33337716       0.84278218 </v>
    <v>       0.34128087       0.66666667       0.34281312 </v>
    <v>       0.34141836       0.66666667       0.84276677 </v>
    <v>       0.11312305      -0.04436190       0.40412103 </v>
    <v>       0.09070027      -0.00042707       0.89749232 </v>
    <v>       0.11312305       0.37769523       0.40412103 </v>
    <v>       0.09070027       0.33376040       0.89749232 </v>
    <v>       0.08970894       0.66666667       0.39731129 </v>
    <v>       0.09054411       0.66666667       0.89752492 </v>
    <v>       0.40957899       0.16666667       0.10258530 </v>
    <v>       0.40948264       0.16666667       0.60232046 </v>
    <v>       0.40958809       0.50005551       0.10259121 </v>
    <v>       0.40949401       0.49999769       0.60242992 </v>
    <v>       0.40958809       0.83327783       0.10259121 </v>
    <v>       0.40949401       0.83333564       0.60242992 </v>
    <v>       0.99669730       0.16666667       0.12971388 </v>
    <v>       0.99653157       0.16666667       0.62793162 </v>
    <v>       0.99640977       0.49968726       0.12829899 </v>
    <v>       0.99640058       0.49974956       0.62856583 </v>
    <v>       0.99640977       0.83364607       0.12829899 </v>
    <v>       0.99640058       0.83358377       0.62856583 </v>
    <v>       0.50361552       0.00003778       0.37154118 </v>
    <v>       0.50356610       0.00003379       0.87154030 </v>
    <v>       0.50361552       0.33329556       0.37154118 </v>
    <v>       0.50356610       0.33329954       0.87154030 </v>
    <v>       0.50357879       0.66666667       0.37155608 </v>
    <v>       0.50355549       0.66666667       0.87153006 </v>
    <v>       0.67393835       0.16666667       0.28180300 </v>
    <v>       0.67341934       0.16666667       0.78157985 </v>
    <v>       0.67330383       0.49991850       0.28155810 </v>
    <v>       0.67340436       0.49992461       0.78157493 </v>
    <v>       0.67330383       0.83341483       0.28155810 </v>
    <v>       0.67340436       0.83340873       0.78157493 </v>
    <v>       0.82522358      -0.00229596       0.21622628 </v>
    <v>       0.82690393       0.00019196       0.71851980 </v>
    <v>       0.82522358       0.33562930       0.21622628 </v>
    <v>       0.82690393       0.33314137       0.71851980 </v>
    <v>       0.82661967       0.66666667       0.21833614 </v>
    <v>       0.82673277       0.66666667       0.71853951 </v>
    <v>       0.83339049      -0.00244896       0.44725845 </v>
    <v>       0.83506871       0.00034469       0.94572768 </v>
    <v>       0.83339049       0.33578230       0.44725845 </v>
    <v>       0.83506871       0.33298864       0.94572768 </v>
    <v>       0.83474641       0.66666667       0.44562720 </v>
    <v>       0.83486004       0.66666667       0.94547553 </v>
    <v>       0.66521265       0.16666667       0.05446775 </v>
    <v>       0.66525045       0.16666667       0.55454233 </v>
    <v>       0.66511891       0.50002755       0.05435887 </v>
    <v>       0.66518337       0.49997171       0.55457956 </v>
    <v>       0.66511891       0.83330578       0.05435887 </v>
    <v>       0.66518337       0.83336163       0.55457956 </v>
    <v>       0.49652677       0.00004993       0.12846302 </v>
    <v>       0.49655376       0.00000549       0.62851918 </v>
    <v>       0.49652677       0.33328340       0.12846302 </v>
    <v>       0.49655376       0.33332784       0.62851918 </v>
    <v>       0.49650050       0.66666667       0.12844300 </v>
    <v>       0.49653385       0.66666667       0.62850441 </v>
    <v>       0.00339929       0.16666667       0.87152962 </v>
    <v>       0.00389724       0.50329721       0.37174361 </v>
    <v>       0.00347516       0.49986067       0.87153502 </v>
    <v>       0.00389724       0.83003612       0.37174361 </v>
    <v>       0.00347516       0.83347266       0.87153502 </v>
    <v>       0.17543873      -0.00194345       0.27994053 </v>
    <v>       0.17306969       0.00021211       0.78163088 </v>
[...]
       <r>    -9.6978     0.0000   142.0000 </r>
       <r>    -9.5882     0.0000   142.0000 </r>
       <r>    -9.4787     0.0000   142.0000 </r>
       <r>    -9.3691     0.0000   142.0000 </r>
       <r>    -9.2596     0.0000   142.0000 </r>
       <r>    -9.1500     0.0342   142.0037 </r>
       <r>    -9.0404    32.2364   145.5355 </r>
       <r>    -8.9309   265.3763   174.6097 </r>
       <r>    -8.8213   581.8466   238.3559 </r>
       <r>    -8.7118   784.7695   324.3341 </r>
       <r>    -8.6022   703.3520   401.3922 </r>
       <r>    -8.4926   610.8029   468.3108 </r>
       <r>    -8.3831   557.2423   529.3614 </r>
       <r>    -8.2735   205.9382   551.9237 </r>
       <r>    -8.1640   135.5340   566.7726 </r>
       <r>    -8.0544   108.0578   578.6112 </r>
       <r>    -7.9449    97.4666   589.2895 </r>
       <r>    -7.8353   114.3294   601.8153 </r>
       <r>    -7.7257   124.2208   615.4247 </r>
       <r>    -7.6162    53.5871   621.2956 </r>
       <r>    -7.5066     6.3973   621.9965 </r>
       <r>    -7.3971     0.0320   622.0000 </r>
       <r>    -7.2875     0.0000   622.0000 </r>
       <r>    -7.1779     0.0000   622.0000 </r>
       <r>    -7.0684     0.0000   622.0000 </r>
       <r>    -6.9588     0.0000   622.0000 </r>
       <r>    -6.8493     0.0000   622.0000 </r>
       <r>    -6.7397     0.0000   622.0000 </r>
       <r>    -6.6302     0.0000   622.0000 </r>
       <r>    -6.5206     0.0000   622.0000 </r>
       <r>    -6.4110     0.0000   622.0000 </r>
       <r>    -6.3015     0.0000   622.0000 </r>
       <r>    -6.1919     0.0000   622.0000 </r>
       <r>    -6.0824     0.0000   622.0000 </r>
       <r>    -5.9728     0.0000   622.0000 </r>
       <r>    -5.8632     0.0000   622.0000 </r>
       <r>    -5.7537     0.0000   622.0000 </r>
       <r>    -5.6441     0.0000   622.0000 </r>
       <r>    -5.5346     0.0000   622.0000 </r>
       <r>    -5.4250     0.0000   622.0000 </r>
       <r>    -5.3155     0.0000   622.0000 </r>
       <r>    -5.2059     0.0000   622.0000 </r>
       <r>    -5.0963     0.0151   622.0017 </r>
       <r>    -4.9868     7.3521   622.8071 </r>
       <r>    -4.8772    10.8131   623.9918 </r>
       <r>    -4.7677     0.0747   624.0000 </r>
       <r>    -4.6581     0.0000   624.0000 </r>
       <r>    -4.5485     0.0000   624.0000 </r>
       <r>    -4.4390     0.0000   624.0000 </r>
       <r>    -4.3294     0.0000   624.0000 </r>
       <r>    -4.2199     0.0000   624.0000 </r>
       <r>    -4.1103     0.0000   624.0000 </r>
       <r>    -4.0008     0.0000   624.0000 </r>
       <r>    -3.8912     0.0000   624.0000 </r>
       <r>    -3.7816     0.0000   624.0000 </r>
       <r>    -3.6721     0.0000   624.0000 </r>
       <r>    -3.5625     0.0000   624.0000 </r>
       <r>    -3.4530     0.0000   624.0000 </r>
       <r>    -3.3434     0.0000   624.0000 </r>
       <r>    -3.2338     0.0005   624.0001 </r>
       <r>    -3.1243     1.9125   624.2096 </r>
       <r>    -3.0147     8.0133   625.0875 </r>
       <r>    -2.9052    19.6324   627.2384 </r>
       <r>    -2.7956    20.0918   629.4396 </r>
       <r>    -2.6860    35.0569   633.2804 </r>
       <r>    -2.5765    31.3518   636.7153 </r>
       <r>    -2.4669    41.7666   641.2912 </r>
       <r>    -2.3574    47.6729   646.5141 </r>
       <r>    -2.2478    42.7288   651.1954 </r>
       <r>    -2.1383    64.9636   658.3127 </r>
       <r>    -2.0287    55.3893   664.3811 </r>
       <r>    -1.9191    44.8456   669.2943 </r>
       <r>    -1.8096    41.6206   673.8542 </r>
       <r>    -1.7000    69.9337   681.5160 </r>
       <r>    -1.5905    35.0472   685.3558 </r>
       <r>    -1.4809    29.7684   688.6171 </r>
       <r>    -1.3713    30.0711   691.9117 </r>
       <r>    -1.2618    30.0062   695.1991 </r>
       <r>    -1.1522    34.4389   698.9722 </r>
       <r>    -1.0427    27.9146   702.0305 </r>
       <r>    -0.9331    46.6463   707.1410 </r>
       <r>    -0.8236    37.5768   711.2578 </r>
       <r>    -0.7140    39.1434   715.5463 </r>
       <r>    -0.6044    32.3143   719.0866 </r>
       <r>    -0.4949    38.4446   723.2985 </r>
       <r>    -0.3853    32.7160   726.8829 </r>
       <r>    -0.2758    48.5318   732.1999 </r>
       <r>    -0.1662    47.8281   737.4399 </r>
       <r>    -0.0566    34.1058   741.1765 </r>
       <r>     0.0529    46.8425   746.3085 </r>
       <r>     0.1625    71.0714   754.0949 </r>
       <r>     0.2720    73.1627   762.1105 </r>
       <r>     0.3816    66.0447   769.3463 </r>
       <r>     0.4911    71.4035   777.1691 </r>
       <r>     0.6007    68.9644   784.7248 </r>
       <r>     0.7103    57.3722   791.0104 </r>
       <r>     0.8198    60.9381   797.6867 </r>
       <r>     0.9294    62.9092   804.5789 </r>
       <r>     1.0389    80.4344   813.3912 </r>
       <r>     1.1485    70.9514   821.1645 </r>
       <r>     1.2581    82.8338   830.2396 </r>
       <r>     1.3676    79.2351   838.9205 </r>
       <r>     1.4772    63.9736   845.9293 </r>
       <r>     1.5867    69.3434   853.5265 </r>
       <r>     1.6963    69.6743   861.1599 </r>
       <r>     1.8058    79.1804   869.8348 </r>
       <r>     1.9154    97.0248   880.4647 </r>
       <r>     2.0250    76.5701   888.8536 </r>
       <r>     2.1345    67.1094   896.2060 </r>
       <r>     2.2441    48.0494   901.4702 </r>
       <r>     2.3536    73.2770   909.4983 </r>
       <r>     2.4632   101.1011   920.5748 </r>
       <r>     2.5728    90.2714   930.4648 </r>
       <r>     2.6823    95.8027   940.9608 </r>
       <r>     2.7919    95.6062   951.4352 </r>
       <r>     2.9014    95.5466   961.9032 </r>
       <r>     3.0110   115.3961   974.5458 </r>
       <r>     3.1205   119.4202   987.6293 </r>
       <r>     3.2301   129.4391  1001.8104 </r>
       <r>     3.3397   118.9897  1014.8467 </r>
       <r>     3.4492    98.6003  1025.6492 </r>
       <r>     3.5588    68.7218  1033.1783 </r>
       <r>     3.6683    45.9579  1038.2134 </r>
       <r>     3.7779    48.3903  1043.5149 </r>
       <r>     3.8875    53.0096  1049.3226 </r>
       <r>     3.9970     6.1755  1049.9992 </r>
       <r>     4.1066     0.0087  1050.0001 </r>
       <r>     4.2161     1.8132  1050.1988 </r>
       <r>     4.3257    10.8755  1051.3903 </r>
       <r>     4.4352    13.2318  1052.8399 </r>
       <r>     4.5448     9.9424  1053.9292 </r>
       <r>     4.6544     0.6461  1054.0000 </r>
       <r>     4.7639     0.0000  1054.0000 </r>
       <r>     4.8735     0.0000  1054.0000 </r>
       <r>     4.9830     0.0000  1054.0000 </r>
       <r>     5.0926     0.0000  1054.0000 </r>
       <r>     5.2022     0.0000  1054.0000 </r>
       <r>     5.3117     0.0000  1054.0000 </r>
       <r>     5.4213     0.0000  1054.0000 </r>
       <r>     5.5308     0.0000  1054.0000 </r>
       <r>     5.6404     0.0000  1054.0000 </r>
       <r>     5.7500     0.0000  1054.0000 </r>
       <r>     5.8595     0.0427  1054.0047 </r>
       <r>     5.9691     4.4046  1054.4872 </r>
       <r>     6.0786    12.4607  1055.8524 </r>
       <r>     6.1882     1.6884  1056.0374 </r>
       <r>     6.2977     1.8957  1056.2451 </r>
       <r>     6.4073     0.0448  1056.2500 </r>
       <r>     6.5169     0.0000  1056.2500 </r>
       <r>     6.6264     0.0000  1056.2500 </r>
       <r>     6.7360     0.0000  1056.2500 </r>
       <r>     6.8455     0.0000  1056.2500 </r>
       <r>     6.9551     0.0007  1056.2501 </r>
       <r>     7.0647     1.0355  1056.3635 </r>
       <r>     7.1742     5.0145  1056.9129 </r>
       <r>     7.2838     2.9883  1057.2403 </r>
       <r>     7.3933     0.2305  1057.2656 </r>
       <r>     7.5029     6.3277  1057.9588 </r>
       <r>     7.6124     2.6512  1058.2493 </r>
       <r>     7.7220     0.0066  1058.2500 </r>
       <r>     7.8316     0.1573  1058.2672 </r>
       <r>     7.9411     7.6868  1059.1094 </r>
       <r>     8.0507     6.3058  1059.8002 </r>
       <r>     8.1602     6.5976  1060.5231 </r>
       <r>     8.2698     4.1680  1060.9797 </r>
       <r>     8.3794     7.4834  1061.7996 </r>
       <r>     8.4889     2.7508  1062.1009 </r>
       <r>     8.5985     6.5796  1062.8218 </r>
       <r>     8.7080    15.5508  1064.5255 </r>
       <r>     8.8176     4.4704  1065.0153 </r>
       <r>     8.9271     2.7883  1065.3208 </r>
       <r>     9.0367    10.1881  1066.4370 </r>
       <r>     9.1463    17.2014  1068.3215 </r>
       <r>     9.2558    14.9953  1069.9644 </r>
       <r>     9.3654    13.5532  1071.4493 </r>
       <r>     9.4749    19.8319  1073.6220 </r>
       <r>     9.5845    27.6033  1076.6462 </r>
       <r>     9.6941    30.8544  1080.0265 </r>
       <r>     9.8036    35.0830  1083.8702 </r>
       <r>     9.9132    38.5791  1088.0968 </r>
       <r>    10.0227    48.8123  1093.4446 </r>
       <r>    10.1323    40.9186  1097.9276 </r>
       <r>    10.2418    26.3617  1100.8158 </r>
       <r>    10.3514    37.4801  1104.9220 </r>
       <r>    10.4610    29.9696  1108.2055 </r>
       <r>    10.5705    36.7639  1112.2333 </r>
       <r>    10.6801    30.6764  1115.5941 </r>
       <r>    10.7896    44.0171  1120.4166 </r>
       <r>    10.8992    32.1443  1123.9382 </r>
       <r>    11.0088    33.6695  1127.6270 </r>
       <r>    11.1183    37.4169  1131.7264 </r>
       <r>    11.2279    30.0089  1135.0141 </r>
       <r>    11.3374    37.1399  1139.0831 </r>
       <r>    11.4470    43.4595  1143.8444 </r>
       <r>    11.5565    41.5942  1148.4014 </r>
       <r>    11.6661    41.6437  1152.9638 </r>
       <r>    11.7757    32.8728  1156.5653 </r>
       <r>    11.8852    31.7704  1160.0461 </r>
       <r>    11.9948    24.3338  1162.7120 </r>
       <r>    12.1043    19.9612  1164.8990 </r>
       <r>    12.2139    29.3251  1168.1118 </r>
       <r>    12.3235    33.2450  1171.7540 </r>
       <r>    12.4330    31.2693  1175.1798 </r>
       <r>    12.5426    34.9005  1179.0035 </r>
       <r>    12.6521    36.5246  1183.0051 </r>
       <r>    12.7617    41.1227  1187.5104 </r>
       <r>    12.8712    41.2265  1192.0271 </r>
       <r>    12.9808    40.3724  1196.4503 </r>
       <r>    13.0904    33.5706  1200.1282 </r>
       <r>    13.1999    36.3271  1204.1081 </r>
       <r>    13.3095    41.7035  1208.6771 </r>
       <r>    13.4190    36.8301  1212.7122 </r>
       <r>    13.5286    45.6963  1217.7186 </r>
       <r>    13.6382    48.5108  1223.0333 </r>
       <r>    13.7477    42.6598  1227.7071 </r>
       <r>    13.8573    34.8665  1231.5270 </r>
       <r>    13.9668    41.5272  1236.0767 </r>
       <r>    14.0764    34.8992  1239.9002 </r>
       <r>    14.1860    33.7603  1243.5989 </r>
       <r>    14.2955    28.6327  1246.7359 </r>
       <r>    14.4051    32.5329  1250.3001 </r>
       <r>    14.5146    25.2580  1253.0673 </r>
       <r>    14.6242    40.7226  1257.5288 </r>
       <r>    14.7337    37.8356  1261.6740 </r>
       <r>    14.8433    32.6219  1265.2480 </r>
       <r>    14.9529     6.8018  1265.9932 </r>
       <r>    15.0624     0.0617  1266.0000 </r>
       <r>    15.1720     0.0000  1266.0000 </r>
       <r>    15.2815     0.0000  1266.0000 </r>
       <r>    15.3911     0.0000  1266.0000 </r>
       <r>    15.5007     0.0000  1266.0000 </r>
       <r>    15.6102     0.0000  1266.0000 </r>
       <r>    15.7198     0.0000  1266.0000 </r>
       <r>    15.8293     0.0000  1266.0000 </r>
       <r>    15.9389     0.0000  1266.0000 </r>
       <r>    16.0484     0.0000  1266.0000 </r>
       <r>    16.1580     0.0000  1266.0000 </r>
       <r>    16.2676     0.0000  1266.0000 </r>
       <r>    16.3771     0.0000  1266.0000 </r>
      </set>
     </set>
    </array>
   </total>
  </dos>
 </calculation>
 <structure name="finalpos" >
  <crystal>
   <varray name="basis" >
    <v>       0.00000000      12.28047342       0.00000000 </v>
    <v>       9.14270205       0.00000000       0.00000000 </v>
    <v>       0.00000000      -2.76826177     -11.30069772 </v>
   </varray>
   <i name="volume">   1268.80515525 </i>
   <varray name="rec_basis" >
    <v>       0.00000000       0.08143009      -0.01994742 </v>
    <v>       0.10937686      -0.00000000       0.00000000 </v>
    <v>       0.00000000       0.00000000      -0.08849011 </v>
   </varray>
  </crystal>
  <varray name="positions" >
   <v>       0.65780646      -0.00345772       0.15346391 </v>
   <v>       0.65864618      -0.00041014       0.65704571 </v>
   <v>       0.65780646       0.33679106       0.15346391 </v>
   <v>       0.65864618       0.33374347       0.65704571 </v>
   <v>       0.65892656       0.66666667       0.15560438 </v>
   <v>       0.65835640       0.66666667       0.65735927 </v>
   <v>       0.81701740       0.16666667       0.36128987 </v>
   <v>       0.84094386       0.16666667       0.84379936 </v>
   <v>       0.84119762       0.50119237       0.34104058 </v>
   <v>       0.84130993       0.50030512       0.84374081 </v>
   <v>       0.84119762       0.83214096       0.34104058 </v>
   <v>       0.84130993       0.83302821       0.84374081 </v>
   <v>       0.58366510       0.16666667       0.39957654 </v>
   <v>       0.59133529       0.16666667       0.89792622 </v>
   <v>       0.59368183       0.50161742       0.39832667 </v>
   <v>       0.58956149       0.50045648       0.89574874 </v>
   <v>       0.59368183       0.83171591       0.39832667 </v>
   <v>       0.58956149       0.83287685       0.89574874 </v>
   <v>       0.90665825      -0.00331106       0.10379688 </v>
   <v>       0.90885467      -0.00228756       0.60311919 </v>
   <v>       0.90665825       0.33664439       0.10379688 </v>
   <v>       0.90885467       0.33562089       0.60311919 </v>
   <v>       0.91117982       0.66666667       0.10358728 </v>
   <v>       0.90827646       0.66666667       0.60057648 </v>
   <v>       0.16311024       0.16666667       0.15720174 </v>
   <v>       0.16073989       0.16666667       0.65589088 </v>
   <v>       0.16119380       0.50054641       0.15635205 </v>
   <v>       0.16054521       0.50129492       0.65976285 </v>
   <v>       0.16119380       0.83278692       0.15635205 </v>
   <v>       0.16054521       0.83203842       0.65976285 </v>
   <v>       0.34332937      -0.00176688       0.34252791 </v>
   <v>       0.34115055       0.00002935       0.84333019 </v>
   <v>       0.34332937       0.33510021       0.34252791 </v>
   <v>       0.34115055       0.33330398       0.84333019 </v>
   <v>       0.34266645       0.66666667       0.34303399 </v>
   <v>       0.34133115       0.66666667       0.84458967 </v>
   <v>       0.10330920      -0.01493137       0.40205921 </v>
   <v>       0.09110760       0.00023728       0.89762644 </v>
   <v>       0.10330920       0.34826470       0.40205921 </v>
   <v>       0.09110760       0.33309606       0.89762644 </v>
   <v>       0.09492625       0.66666667       0.40011869 </v>
   <v>       0.09019358       0.66666667       0.89799719 </v>
   <v>       0.40993775       0.16666667       0.10081447 </v>
   <v>       0.40852816       0.16666667       0.60236263 </v>
   <v>       0.40990114       0.50057030       0.10163938 </v>
   <v>       0.40803242       0.50017581       0.60261597 </v>
   <v>       0.40990114       0.83276304       0.10163938 </v>
   <v>       0.40803242       0.83315753       0.60261597 </v>
   <v>       0.99599637       0.16666667       0.13108926 </v>
   <v>       0.99553729       0.16666667       0.61517415 </v>
   <v>       0.99832432       0.49962843       0.12843201 </v>
   <v>       0.99738348       0.50055832       0.62702013 </v>
   <v>       0.99832432       0.83370490       0.12843201 </v>
   <v>       0.99738348       0.83277501       0.62702013 </v>
   <v>       0.50364409      -0.00345562       0.37283025 </v>
   <v>       0.50356654       0.00054600       0.87281385 </v>
   <v>       0.50364409       0.33678895       0.37283025 </v>
   <v>       0.50356654       0.33278733       0.87281385 </v>
   <v>       0.50447074       0.66666667       0.37433990 </v>
   <v>       0.50250109       0.66666667       0.87098761 </v>
   <v>       0.66518874       0.16666667       0.28053128 </v>
   <v>       0.67274032       0.16666667       0.78073871 </v>
   <v>       0.67042295       0.50248504       0.27865252 </v>
   <v>       0.67324392       0.49996650       0.78098848 </v>
   <v>       0.67042295       0.83084830       0.27865252 </v>
   <v>       0.67324392       0.83336684       0.78098848 </v>
   <v>       0.82069054      -0.01301702       0.21477394 </v>
   <v>       0.82787578       0.00079627       0.72017185 </v>
   <v>       0.82069054       0.34635036       0.21477394 </v>
   <v>       0.82787578       0.33253707       0.72017185 </v>
   <v>       0.82774176       0.66666667       0.21862744 </v>
   <v>       0.82801690       0.66666667       0.71936636 </v>
   <v>       0.81943570      -0.01068993       0.45080854 </v>
   <v>       0.83372477       0.00030546       0.94625392 </v>
   <v>       0.81943570       0.34402326       0.45080854 </v>
   <v>       0.83372477       0.33302788       0.94625392 </v>
   <v>       0.82983692       0.66666667       0.44471720 </v>
   <v>       0.83451628       0.66666667       0.94658095 </v>
   <v>       0.66791551       0.16666667       0.05472037 </v>
   <v>       0.66614489       0.16666667       0.55405567 </v>
   <v>       0.66595148       0.50229955       0.05121293 </v>
   <v>       0.66633574       0.50071276       0.55583721 </v>
   <v>       0.66595148       0.83103378       0.05121293 </v>
   <v>       0.66633574       0.83262058       0.55583721 </v>
   <v>       0.49652927      -0.00014599       0.12605922 </v>
   <v>       0.49592415      -0.00019195       0.62763394 </v>
   <v>       0.49652927       0.33347932       0.12605922 </v>
   <v>       0.49592415       0.33352528       0.62763394 </v>
   <v>       0.49663284       0.66666667       0.12507975 </v>
   <v>       0.49561597       0.66666667       0.62800556 </v>
   <v>       0.00347870       0.16666667       0.87038646 </v>
   <v>       0.00498447       0.50574969       0.37713269 </v>
   <v>       0.00382536       0.49958358       0.87244949 </v>
   <v>       0.00498447       0.82758364       0.37713269 </v>
   <v>       0.00382536       0.83374975       0.87244949 </v>
   <v>       0.17932849      -0.00525870       0.27887582 </v>
   <v>       0.17173988       0.00108260       0.78002123 </v>
   <v>       0.17932849       0.33859204       0.27887582 </v>
   <v>       0.17173988       0.33225073       0.78002123 </v>
   <v>       0.17425890       0.66666667       0.28085112 </v>
   <v>       0.17261514       0.66666667       0.78185565 </v>
   <v>       0.33028457       0.16666667       0.21895280 </v>
   <v>       0.32831287       0.16666667       0.72051040 </v>
   <v>       0.32989413       0.50240150       0.21884902 </v>
   <v>       0.32886482       0.50053032       0.72196137 </v>
   <v>       0.32989413       0.83093184       0.21884902 </v>
   <v>       0.32886482       0.83280301       0.72196137 </v>
   <v>       0.33500756       0.16666667       0.44462196 </v>
   <v>       0.33137760       0.16666667       0.94526937 </v>
   <v>       0.33134572       0.50049392       0.44586749 </v>
   <v>       0.33112075       0.49934736       0.94589580 </v>
   <v>       0.33134572       0.83283941       0.44586749 </v>
   <v>       0.33112075       0.83398598       0.94589580 </v>
   <v>       0.16772804       0.00094750       0.05380413 </v>
   <v>       0.17687405      -0.00384213       0.55884211 </v>
   <v>       0.16772804       0.33238583       0.05380413 </v>
   <v>       0.17687405       0.33717546       0.55884211 </v>
   <v>       0.16822495       0.66666667       0.05382128 </v>
   <v>       0.17207681       0.66666667       0.55698859 </v>
   <v>      -0.00971537       0.16666667       0.34223069 </v>
  </varray>
 </structure>
</modeling>
