       N       E                     dE             d eps       ncg     rms          ort
DAV:   1    -0.182623491192E+05   -0.18262E+05   -0.54229E+05  5064   0.746E+03
DAV:   2    -0.623557468494E+05   -0.44093E+05   -0.42807E+05  5064   0.118E+03
DAV:   3    -0.668085938810E+05   -0.44528E+04   -0.39586E+04  5064   0.343E+02
DAV:   4    -0.673018629678E+05   -0.49327E+03   -0.42609E+03  5064   0.101E+02
DAV:   5    -0.371530279977E+05    0.30149E+05   -0.70403E+02  5064   0.511E+01
SDA:   6     0.140878066444E+05    0.51241E+05   -0.70403E+02  5064   0.906E+05 0.000E+00
CGA:   7     0.313239856330E+04   -0.10955E+05   -0.12465E+05  5064   0.151E+05 0.467E+04
CGA:   8     0.145789346693E+04   -0.16745E+04   -0.16860E+04  5064   0.870E+04-0.166E+04
CGA:   9     0.268405703397E+03   -0.11895E+04   -0.87044E+03  5064   0.492E+04-0.189E+04
CGA:  10    -0.161423710680E+03   -0.42983E+03   -0.45639E+03  5064   0.324E+04-0.217E+03
CGA:  11    -0.592777872850E+03   -0.43135E+03   -0.45204E+03  5064   0.111E+04 0.159E+03
CGA:  12    -0.795297757553E+03   -0.20252E+03   -0.20324E+03  5064   0.365E+03 0.422E+02
CGA:  13    -0.883635887336E+03   -0.88338E+02   -0.86735E+02  5064   0.177E+03 0.159E+02
CGA:  14    -0.928346697030E+03   -0.44711E+02   -0.45650E+02  5064   0.852E+02-0.828E+01
CGA:  15    -0.945450618145E+03   -0.17104E+02   -0.17113E+02  5064   0.358E+02-0.256E+00
CGA:  16    -0.953191630738E+03   -0.77410E+01   -0.77436E+01  5064   0.134E+02-0.436E-01
CGA:  17    -0.956200368111E+03   -0.30087E+01   -0.30075E+01  5064   0.503E+01 0.194E-01
CGA:  18    -0.957470131370E+03   -0.12698E+01   -0.12692E+01  5064   0.199E+01 0.365E-02
CGA:  19    -0.957976342796E+03   -0.50621E+00   -0.50646E+00  5064   0.821E+00-0.362E-02
CGA:  20    -0.958185080856E+03   -0.20874E+00   -0.20883E+00  5064   0.352E+00-0.127E-02
CGA:  21    -0.958267603559E+03   -0.82523E-01   -0.82547E-01  5064   0.118E+00-0.557E-03
CGA:  22    -0.958298319584E+03   -0.30716E-01   -0.30728E-01  5064   0.462E-01-0.182E-03
CGA:  23    -0.958311174822E+03   -0.12855E-01   -0.12856E-01  5064   0.190E-01 0.144E-05
CGA:  24    -0.958316253698E+03   -0.50789E-02   -0.50774E-02  5064   0.893E-02 0.274E-04
CGA:  25    -0.958318514808E+03   -0.22611E-02   -0.22613E-02  5064   0.381E-02-0.668E-05
CGA:  26    -0.958319394726E+03   -0.87992E-03   -0.88024E-03  5064   0.145E-02-0.186E-04
CGA:  27    -0.958319772245E+03   -0.37752E-03   -0.37821E-03  5064   0.572E-03-0.143E-04
CGA:  28    -0.958319928910E+03   -0.15666E-03   -0.15714E-03  5064   0.237E-03-0.791E-05
CGA:  29    -0.958319993591E+03   -0.64681E-04   -0.64962E-04  5064   0.105E-03-0.488E-05
CGA:  30    -0.958320019855E+03   -0.26264E-04   -0.26348E-04  5064   0.461E-04-0.247E-05
CGA:  31    -0.958320030885E+03   -0.11031E-04   -0.11027E-04  5064   0.181E-04 0.178E-06
CGA:  32    -0.958320035273E+03   -0.43872E-05   -0.43682E-05  5064   0.693E-05 0.135E-05
   1 F= -.95832004E+03 E0= -.95832004E+03  d E =-.163038E-11
