 vasp.6.4.2 20Jul23 (build Nov 12 2023 22:16:35) complex                         
 executed on              LinuxNV date 2025.03.14  17:47:31
 running    4 mpi-ranks, on    1 nodes
 distrk:  each k-point on    1 cores,    4 groups
 distr:  one band on NCORE=   1 cores,    1 groups
 OpenACC runtime initialized ...    4 GPUs detected


--------------------------------------------------------------------------------------------------------


 INCAR:
   PREC = Normal
   ENCUT = 450
   NELM = 500
   IBRION = -1
   ISPIN = 1
   NSW = 0
   ISIF = 2
   EDIFF = 1E-5
   EDIFFG = -5E-3
   ISTART = 0
   ICHARG = 0
   ISMEAR = 0
   SIGMA = 0.05
   LWAVE = .T.
   LCHARG = .T.
   LREAL = Auto
   LPLANE = .TRUE.
   NPAR = 1
   KPAR = 4
   NCORE = 1
   ALGO = All
   LHFCALC = .TRUE.
   HSE06 = .TRUE.
   HFSCREEN = 0.2
   TIME = 0.4
   AEXX = 0.32
   LMAXFOCK = 4
   PRECFOCK = Fast

 POTCAR:    PAW_PBE Ga_d 06Jul2010                
 POTCAR:    PAW_PBE O 08Apr2002                   
 POTCAR:    PAW_PBE Ga_d 06Jul2010                
   SHA256 =  a60ddf36e14f00ea098d9e3914b3745f1b7105e68786148f49ae384e44b4226c Ga_d/POTCAR           
   COPYR  = (c) Copyright 06Jul2010 Georg Kresse                                                    
   COPYR  = This file is part of the software VASP. Any use, copying, and all other rights are regul
   COPYR  = If you do not have a valid VASP license, you may not use, copy or distribute this file. 
   VRHFIN =Ga: s2p1                                                                                 
   LEXCH  = PE                                                                                      
   EATOM  =  2148.8298 eV,  157.9345 Ry                                                             
                                                                                                    
   TITEL  = PAW_PBE Ga_d 06Jul2010                                                                  
   LULTRA =        F    use ultrasoft PP ?                                                          
   IUNSCR =        1    unscreen: 0-lin 1-nonlin 2-no                                               
   RPACOR =    1.700    partial core radius                                                         
   POMASS =   69.723; ZVAL   =   13.000    mass and valenz                                          
   RCORE  =    2.300    outmost cutoff radius                                                       
   RWIGS  =    2.300; RWIGS  =    1.217    wigner-seitz radius (au A)                               
   ENMAX  =  282.691; ENMIN  =  212.018 eV                                                          
   ICORE  =        3    local potential                                                             
   LCOR   =        T    correct aug charges                                                         
   LPAW   =        T    paw PP                                                                      
   EAUG   =  490.690                                                                                
   DEXC   =    0.000                                                                                
   RMAX   =    2.341    core radius for proj-oper                                                   
   RAUG   =    1.300    factor for augmentation sphere                                              
   RDEP   =    2.413    radius for radial grids                                                     
   RDEPT  =    1.856    core radius for aug-charge                                                  
                                                                                                    
   Atomic configuration                                                                             
    9 entries                                                                                       
     n  l   j            E        occ.                                                              
     1  0  0.50    -10228.7831   2.0000                                                             
     2  0  0.50     -1262.1604   2.0000                                                             
     2  1  1.50     -1098.6333   6.0000                                                             
     3  0  0.50      -148.1110   2.0000                                                             
     3  1  1.50       -98.8436   6.0000                                                             
     3  2  2.50       -19.1549  10.0000                                                             
     4  0  0.50        -8.9483   2.0000                                                             
     4  1  0.50        -2.5791   1.0000                                                             
     4  3  2.50        -2.7416   0.0000                                                             
   Description                                                                                      
     l       E           TYP  RCUT    TYP  RCUT                                                     
     2    -19.1549037     23  2.300                                                                 
     2     -5.4423304     23  2.300                                                                 
     0     -8.9483111     23  2.300                                                                 
     0     68.0291300     23  2.300                                                                 
     1     -2.5790802     23  2.100                                                                 
     1     81.6349560     23  2.300                                                                 
     3      6.8029130     23  2.300                                                                 
  local pseudopotential read in
  partial core-charges read in
  partial kinetic energy density read in
  atomic valenz-charges read in
  non local Contribution for L=            2  read in
    real space projection operators read in
  non local Contribution for L=            2  read in
    real space projection operators read in
  non local Contribution for L=            0  read in
    real space projection operators read in
  non local Contribution for L=            0  read in
    real space projection operators read in
  non local Contribution for L=            1  read in
    real space projection operators read in
  non local Contribution for L=            1  read in
    real space projection operators read in
    PAW grid and wavefunctions read in
 
   number of l-projection  operators is LMAX  =            6
   number of lm-projection operators is LMMAX =           18
 
 POTCAR:    PAW_PBE O 08Apr2002                   
   SHA256 =  818f92134a0a090dccd8ba1447fa70422a3b330e708bb4f08108d8ae51209ddf O/POTCAR              
   COPYR  = (c) Copyright 08Apr2002 Georg Kresse                                                    
   COPYR  = This file is part of the software VASP. Any use, copying, and all other rights are regul
   COPYR  = If you do not have a valid VASP license, you may not use, copy or distribute this file. 
   VRHFIN =O: s2p4                                                                                  
   LEXCH  = PE                                                                                      
   EATOM  =   432.3788 eV,   31.7789 Ry                                                             
                                                                                                    
   TITEL  = PAW_PBE O 08Apr2002                                                                     
   LULTRA =        F    use ultrasoft PP ?                                                          
   IUNSCR =        1    unscreen: 0-lin 1-nonlin 2-no                                               
   RPACOR =    1.200    partial core radius                                                         
   POMASS =   16.000; ZVAL   =    6.000    mass and valenz                                          
   RCORE  =    1.520    outmost cutoff radius                                                       
   RWIGS  =    1.550; RWIGS  =    0.820    wigner-seitz radius (au A)                               
   ENMAX  =  400.000; ENMIN  =  300.000 eV                                                          
   ICORE  =        2    local potential                                                             
   LCOR   =        T    correct aug charges                                                         
   LPAW   =        T    paw PP                                                                      
   EAUG   =  605.392                                                                                
   DEXC   =    0.000                                                                                
   RMAX   =    1.553    core radius for proj-oper                                                   
   RAUG   =    1.300    factor for augmentation sphere                                              
   RDEP   =    1.550    radius for radial grids                                                     
   RDEPT  =    1.329    core radius for aug-charge                                                  
                                                                                                    
   Atomic configuration                                                                             
    4 entries                                                                                       
     n  l   j            E        occ.                                                              
     1  0  0.50      -514.6923   2.0000                                                             
     2  0  0.50       -23.9615   2.0000                                                             
     2  1  0.50        -9.0305   4.0000                                                             
     3  2  1.50        -9.5241   0.0000                                                             
   Description                                                                                      
     l       E           TYP  RCUT    TYP  RCUT                                                     
     0    -23.9615318     23  1.200                                                                 
     0     -9.5240782     23  1.200                                                                 
     1     -9.0304911     23  1.520                                                                 
     1      8.1634956     23  1.520                                                                 
     2     -9.5240782      7  1.500                                                                 
  local pseudopotential read in
  partial core-charges read in
  partial kinetic energy density read in
  kinetic energy density of atom read in
  atomic valenz-charges read in
  non local Contribution for L=            0  read in
    real space projection operators read in
  non local Contribution for L=            0  read in
    real space projection operators read in
  non local Contribution for L=            1  read in
    real space projection operators read in
  non local Contribution for L=            1  read in
    real space projection operators read in
    PAW grid and wavefunctions read in
 
   number of l-projection  operators is LMAX  =            4
   number of lm-projection operators is LMMAX =            8
 
 Optimization of the real space projectors (new method)

 maximal supplied QI-value         = 16.25
 optimisation between [QCUT,QGAM] = [ 10.73, 21.61] = [ 32.22,130.83] Ry 
 Optimized for a Real-space Cutoff    1.42 Angstroem

   l    n(q)    QCUT    max X(q) W(low)/X(q) W(high)/X(q)  e(spline) 
   2      8    10.726     7.143    0.22E-03    0.16E-03    0.73E-07
   2      8    10.726     5.586    0.40E-03    0.26E-03    0.10E-06
   0      9    10.726    12.382    0.25E-04    0.21E-05    0.37E-07
   0      9    10.726     6.622    0.42E-04    0.48E-05    0.77E-07
   1      9    10.726     7.935    0.27E-03    0.13E-04    0.16E-06
   1      9    10.726     2.425    0.23E-03    0.15E-04    0.14E-06
 Optimization of the real space projectors (new method)

 maximal supplied QI-value         = 24.76
 optimisation between [QCUT,QGAM] = [ 10.64, 21.54] = [ 31.73,129.89] Ry 
 Optimized for a Real-space Cutoff    1.23 Angstroem

   l    n(q)    QCUT    max X(q) W(low)/X(q) W(high)/X(q)  e(spline) 
   0      8    10.645    20.381    0.38E-03    0.60E-03    0.15E-06
   0      8    10.645    15.268    0.40E-03    0.65E-03    0.17E-06
   1      7    10.645     5.964    0.30E-03    0.63E-03    0.18E-06
   1      7    10.645     5.382    0.24E-03    0.53E-03    0.16E-06
  PAW_PBE Ga_d 06Jul2010                :
 energy of atom  1       EATOM=-2148.8298
 kinetic energy error for atom=    0.0038 (will be added to EATOM!!)
  PAW_PBE O 08Apr2002                   :
 energy of atom  2       EATOM= -432.3788
 kinetic energy error for atom=    0.0389 (will be added to EATOM!!)
 
 
 POSCAR: Ga48 O72
  positions in direct lattice
  velocities in cartesian coordinates
 exchange correlation table for  LEXCH =        8
   RHO(1)=    0.500       N(1)  =     2000
   RHO(2)=  100.500       N(2)  =     4000
 


--------------------------------------------------------------------------------------------------------


 ion  position               nearest neighbor table
   1  0.659  0.000  0.157-  85 1.94  83 1.95  79 1.95  67 2.02  61 2.08  65 2.08
   2  0.659  0.000  0.657-  86 1.94  84 1.95  80 1.95  68 2.02  62 2.08  66 2.08
   3  0.659  0.333  0.157-  87 1.94  81 1.95  79 1.95  69 2.02  63 2.08  61 2.08
   4  0.659  0.333  0.657-  88 1.94  82 1.95  80 1.95  70 2.02  64 2.08  62 2.08
   5  0.659  0.667  0.157-  89 1.94  81 1.95  83 1.95  71 2.02  63 2.08  65 2.08
   6  0.659  0.667  0.657-  90 1.94  82 1.95  84 1.95  72 2.02  64 2.08  66 2.08
   7  0.841  0.167  0.343-  91 1.94  73 1.95  75 1.95  61 2.02  67 2.08  69 2.08
   8  0.841  0.167  0.843-  92 1.94  74 1.95  76 1.95  62 2.02  68 2.08  70 2.08
   9  0.841  0.500  0.343-  93 1.94  77 1.95  75 1.95  63 2.02  71 2.08  69 2.08
  10  0.841  0.500  0.843-  94 1.94  78 1.95  76 1.95  64 2.02  72 2.08  70 2.08
  11  0.841  0.833  0.343-  95 1.94  73 1.95  77 1.95  65 2.02  67 2.08  71 2.08
  12  0.841  0.833  0.843-  96 1.94  74 1.95  78 1.95  66 2.02  68 2.08  72 2.08
  13  0.591  0.167  0.398-  80 1.84  55 1.85  57 1.85  61 1.87
  14  0.591  0.167  0.898-  79 1.84  56 1.85  58 1.85  62 1.87
  15  0.591  0.500  0.398-  82 1.84  59 1.85  57 1.85  63 1.87
  16  0.591  0.500  0.898-  81 1.84  60 1.85  58 1.85  64 1.87
  17  0.591  0.833  0.398-  84 1.84  55 1.85  59 1.85  65 1.87
  18  0.591  0.833  0.898-  83 1.84  56 1.85  60 1.85  66 1.87
  19  0.909  0.000  0.102-  74 1.84  53 1.85  49 1.85  67 1.87
  20  0.909  0.000  0.602-  73 1.84  54 1.85  50 1.85  68 1.87
  21  0.909  0.333  0.102-  76 1.84  51 1.85  49 1.85  69 1.87
  22  0.909  0.333  0.602-  75 1.84  52 1.85  50 1.85  70 1.87
  23  0.909  0.667  0.102-  78 1.84  51 1.85  53 1.85  71 1.87
  24  0.909  0.667  0.602-  77 1.84  52 1.85  54 1.85  72 1.87
  25  0.159  0.167  0.157-  49 1.94 115 1.95 117 1.95 103 2.02  97 2.08  99 2.08
  26  0.159  0.167  0.657-  50 1.94 116 1.95 118 1.95 104 2.02  98 2.08 100 2.08
  27  0.159  0.500  0.157-  51 1.94 117 1.95 119 1.95 105 2.02 101 2.08  99 2.08
  28  0.159  0.500  0.657-  52 1.94 118 1.95 120 1.95 106 2.02 102 2.08 100 2.08
  29  0.159  0.833  0.157-  53 1.94 115 1.95 119 1.95 107 2.02  97 2.08 101 2.08
  30  0.159  0.833  0.657-  54 1.94 116 1.95 120 1.95 108 2.02  98 2.08 102 2.08
  31  0.341  0.000  0.343-  55 1.94 109 1.95 113 1.95  97 2.02 103 2.08 107 2.08
  32  0.341  0.000  0.843-  56 1.94 110 1.95 114 1.95  98 2.02 104 2.08 108 2.08
  33  0.341  0.333  0.343-  57 1.94 111 1.95 109 1.95  99 2.02 105 2.08 103 2.08
  34  0.341  0.333  0.843-  58 1.94 112 1.95 110 1.95 100 2.02 106 2.08 104 2.08
  35  0.341  0.667  0.343-  59 1.94 111 1.95 113 1.95 101 2.02 105 2.08 107 2.08
  36  0.341  0.667  0.843-  60 1.94 112 1.95 114 1.95 102 2.02 106 2.08 108 2.08
  37  0.091  0.000  0.398- 116 1.84  95 1.85  91 1.85  97 1.87
  38  0.091  0.000  0.898- 115 1.84  96 1.85  92 1.85  98 1.87
  39  0.091  0.333  0.398- 118 1.84  93 1.85  91 1.85  99 1.87
  40  0.091  0.333  0.898- 117 1.84  94 1.85  92 1.85 100 1.87
  41  0.091  0.667  0.398- 120 1.84  93 1.85  95 1.85 101 1.87
  42  0.091  0.667  0.898- 119 1.84  94 1.85  96 1.85 102 1.87
  43  0.409  0.167  0.102- 110 1.84  85 1.85  87 1.85 103 1.87
  44  0.409  0.167  0.602- 109 1.84  86 1.85  88 1.85 104 1.87
  45  0.409  0.500  0.102- 112 1.84  89 1.85  87 1.85 105 1.87
  46  0.409  0.500  0.602- 111 1.84  90 1.85  88 1.85 106 1.87
  47  0.409  0.833  0.102- 114 1.84  85 1.85  89 1.85 107 1.87
  48  0.409  0.833  0.602- 113 1.84  86 1.85  90 1.85 108 1.87
  49  0.996  0.167  0.127-  19 1.85  21 1.85  25 1.94
  50  0.996  0.167  0.627-  20 1.85  22 1.85  26 1.94
  51  0.996  0.500  0.127-  21 1.85  23 1.85  27 1.94
  52  0.996  0.500  0.627-  22 1.85  24 1.85  28 1.94
  53  0.996  0.833  0.127-  19 1.85  23 1.85  29 1.94
  54  0.996  0.833  0.627-  20 1.85  24 1.85  30 1.94
  55  0.504  0.000  0.373-  13 1.85  17 1.85  31 1.94
  56  0.504  0.000  0.873-  14 1.85  18 1.85  32 1.94
  57  0.504  0.333  0.373-  15 1.85  13 1.85  33 1.94
  58  0.504  0.333  0.873-  16 1.85  14 1.85  34 1.94
  59  0.504  0.667  0.373-  15 1.85  17 1.85  35 1.94
  60  0.504  0.667  0.873-  16 1.85  18 1.85  36 1.94
  61  0.673  0.167  0.280-  13 1.87   7 2.02   1 2.08   3 2.08
  62  0.673  0.167  0.780-  14 1.87   8 2.02   2 2.08   4 2.08
  63  0.673  0.500  0.280-  15 1.87   9 2.02   3 2.08   5 2.08
  64  0.673  0.500  0.780-  16 1.87  10 2.02   4 2.08   6 2.08
  65  0.673  0.833  0.280-  17 1.87  11 2.02   1 2.08   5 2.08
  66  0.673  0.833  0.780-  18 1.87  12 2.02   2 2.08   6 2.08
  67  0.827  0.000  0.220-  19 1.87   1 2.02  11 2.08   7 2.08
  68  0.827  0.000  0.720-  20 1.87   2 2.02  12 2.08   8 2.08
  69  0.827  0.333  0.220-  21 1.87   3 2.02   9 2.08   7 2.08
  70  0.827  0.333  0.720-  22 1.87   4 2.02  10 2.08   8 2.08
  71  0.827  0.667  0.220-  23 1.87   5 2.02   9 2.08  11 2.08
  72  0.827  0.667  0.720-  24 1.87   6 2.02  10 2.08  12 2.08
  73  0.832  0.000  0.446-  20 1.84  11 1.95   7 1.95
  74  0.832  0.000  0.946-  19 1.84  12 1.95   8 1.95
  75  0.832  0.333  0.446-  22 1.84   9 1.95   7 1.95
  76  0.832  0.333  0.946-  21 1.84  10 1.95   8 1.95
  77  0.832  0.667  0.446-  24 1.84   9 1.95  11 1.95
  78  0.832  0.667  0.946-  23 1.84  10 1.95  12 1.95
  79  0.668  0.167  0.054-  14 1.84   1 1.95   3 1.95
  80  0.668  0.167  0.554-  13 1.84   2 1.95   4 1.95
  81  0.668  0.500  0.054-  16 1.84   5 1.95   3 1.95
  82  0.668  0.500  0.554-  15 1.84   6 1.95   4 1.95
  83  0.668  0.833  0.054-  18 1.84   1 1.95   5 1.95
  84  0.668  0.833  0.554-  17 1.84   2 1.95   6 1.95
  85  0.496  0.000  0.127-  43 1.85  47 1.85   1 1.94
  86  0.496  0.000  0.627-  44 1.85  48 1.85   2 1.94
  87  0.496  0.333  0.127-  45 1.85  43 1.85   3 1.94
  88  0.496  0.333  0.627-  46 1.85  44 1.85   4 1.94
  89  0.496  0.667  0.127-  45 1.85  47 1.85   5 1.94
  90  0.496  0.667  0.627-  46 1.85  48 1.85   6 1.94
  91  0.004  0.167  0.373-  37 1.85  39 1.85   7 1.94
  92  0.004  0.167  0.873-  38 1.85  40 1.85   8 1.94
  93  0.004  0.500  0.373-  39 1.85  41 1.85   9 1.94
  94  0.004  0.500  0.873-  40 1.85  42 1.85  10 1.94
  95  0.004  0.833  0.373-  37 1.85  41 1.85  11 1.94
  96  0.004  0.833  0.873-  38 1.85  42 1.85  12 1.94
  97  0.173  0.000  0.280-  37 1.87  31 2.02  25 2.08  29 2.08
  98  0.173  0.000  0.780-  38 1.87  32 2.02  26 2.08  30 2.08
  99  0.173  0.333  0.280-  39 1.87  33 2.02  27 2.08  25 2.08
 100  0.173  0.333  0.780-  40 1.87  34 2.02  28 2.08  26 2.08
 101  0.173  0.667  0.280-  41 1.87  35 2.02  27 2.08  29 2.08
 102  0.173  0.667  0.780-  42 1.87  36 2.02  28 2.08  30 2.08
 103  0.327  0.167  0.220-  43 1.87  25 2.02  31 2.08  33 2.08
 104  0.327  0.167  0.720-  44 1.87  26 2.02  32 2.08  34 2.08
 105  0.327  0.500  0.220-  45 1.87  27 2.02  35 2.08  33 2.08
 106  0.327  0.500  0.720-  46 1.87  28 2.02  36 2.08  34 2.08
 107  0.327  0.833  0.220-  47 1.87  29 2.02  31 2.08  35 2.08
 108  0.327  0.833  0.720-  48 1.87  30 2.02  32 2.08  36 2.08
 109  0.332  0.167  0.446-  44 1.84  31 1.95  33 1.95
 110  0.332  0.167  0.946-  43 1.84  32 1.95  34 1.95
 111  0.332  0.500  0.446-  46 1.84  35 1.95  33 1.95
 112  0.332  0.500  0.946-  45 1.84  36 1.95  34 1.95
 113  0.332  0.833  0.446-  48 1.84  31 1.95  35 1.95
 114  0.332  0.833  0.946-  47 1.84  32 1.95  36 1.95
 115  0.168  0.000  0.054-  38 1.84  29 1.95  25 1.95
 116  0.168  0.000  0.554-  37 1.84  30 1.95  26 1.95
 117  0.168  0.333  0.054-  40 1.84  27 1.95  25 1.95
 118  0.168  0.333  0.554-  39 1.84  28 1.95  26 1.95
 119  0.168  0.667  0.054-  42 1.84  27 1.95  29 1.95
 120  0.168  0.667  0.554-  41 1.84  28 1.95  30 1.95
 
  LATTYP: Found a simple monoclinic cell.
 ALAT       =    11.6348202465
 B/A-ratio  =     0.7858051831
 C/A-ratio  =     1.0554931797
 COS(beta)  =    -0.2379290539
  
  Lattice vectors:
  
 A1 = (   0.0000000000,  -2.7682617730, -11.3006977184)
 A2 = (  -9.1427020537,   0.0000000000,   0.0000000000)
 A3 = (   0.0000000000,  12.2804734172,   0.0000000000)


Analysis of symmetry for initial positions (statically):
=====================================================================
 Subroutine PRICEL returns following result:
 
  LATTYP: Found a base centered monoclinic cell.
 ALAT       =    12.2804734172
 B/A-ratio  =     0.2481636699
 C/A-ratio  =     0.4737122036
 COS(beta)  =    -0.2379290539
  
  Lattice vectors:
  
 A1 = (  -1.5237836756,   6.1402367086,   0.0000000000)
 A2 = (   1.5237836756,   6.1402367086,   0.0000000000)
 A3 = (   0.0000000000,  -1.3841308865,  -5.6503488592)
 
  12 primitive cells build up your supercell.
 

 Routine SETGRP: Setting up the symmetry group for a 
 simple monoclinic supercell.


 Subroutine GETGRP returns: Found  4 space group operations
 (whereof  4 operations were pure point group operations)
 out of a pool of  4 trial point group operations.


The static configuration has the point symmetry C_2h.


Analysis of symmetry for dynamics (positions and initial velocities):
=====================================================================
 Subroutine PRICEL returns following result:
 
  LATTYP: Found a base centered monoclinic cell.
 ALAT       =    12.2804734172
 B/A-ratio  =     0.2481636699
 C/A-ratio  =     0.4737122036
 COS(beta)  =    -0.2379290539
  
  Lattice vectors:
  
 A1 = (  -1.5237836756,   6.1402367086,   0.0000000000)
 A2 = (   1.5237836756,   6.1402367086,   0.0000000000)
 A3 = (   0.0000000000,  -1.3841308865,  -5.6503488592)
 
  12 primitive cells build up your supercell.
 

 Routine SETGRP: Setting up the symmetry group for a 
 simple monoclinic supercell.


 Subroutine GETGRP returns: Found  4 space group operations
 (whereof  4 operations were pure point group operations)
 out of a pool of  4 trial point group operations.


The dynamic configuration has the point symmetry C_2h.


 Subroutine INISYM returns: Found  4 space group operations
 (whereof  4 operations are pure point group operations),
 and found    12 'primitive' translations


----------------------------------------------------------------------------------------

                                     Primitive cell                                     

  volume of cell :     105.7338

  direct lattice vectors                    reciprocal lattice vectors
    -1.523783676  6.140236709  0.000000000    -0.328130566  0.081430085 -0.019947423
     1.523783676  6.140236709  0.000000000     0.328130566  0.081430085 -0.019947423
     0.000000000 -1.384130887 -5.650348859     0.000000000  0.000000000 -0.176980223

  length of vectors
     6.326485875  6.326485875  5.817410123     0.338671562  0.338671562  0.176980223

  position of ions in fractional coordinates (direct lattice)
     0.659013702  0.659013702  0.313188755
     0.340986298  0.340986298  0.686811245
     0.091088513  0.091088513  0.795156053
     0.908911487  0.908911487  0.204843947
     0.496365390  0.496365390  0.254455414
     0.503634610  0.503634610  0.745544586
     0.172537050  0.172537050  0.560792266
     0.827462950  0.827462950  0.439207734
     0.832086263  0.832086263  0.891616462
     0.167913737  0.167913737  0.108383538

  ion indices of the primitive-cell ions
   primitive index   ion index
                 1           1
                 2           7
                 3          13
                 4          19
                 5          85
                 6          55
                 7          61
                 8          67
                 9          74
                10          79

----------------------------------------------------------------------------------------

 
 
 KPOINTS: Automatic mesh                          

Automatic generation of k-mesh.
 Grid dimensions read from file:
 generate k-points for:    2    2    2

 Generating k-lattice:

  Cartesian coordinates                     Fractional coordinates (reciprocal lattice)
     0.000000000  0.040715043 -0.009973711     0.500000000  0.000000000  0.000000000
     0.054688428 -0.000000000  0.000000000     0.000000000  0.500000000  0.000000000
     0.000000000  0.000000000 -0.044245056     0.000000000  0.000000000  0.500000000

  Length of vectors
     0.041918846  0.054688428  0.044245056

  Shift w.r.t. Gamma in fractional coordinates (k-lattice)
     0.000000000  0.000000000  0.000000000

 
 Subroutine IBZKPT returns following result:
 ===========================================
 
 Found      8 irreducible k-points:
 
 Following reciprocal coordinates:
            Coordinates               Weight
  0.000000  0.000000  0.000000      1.000000
  0.500000  0.000000  0.000000      1.000000
  0.000000  0.500000  0.000000      1.000000
  0.500000  0.500000  0.000000      1.000000
  0.000000  0.000000  0.500000      1.000000
  0.500000  0.000000  0.500000      1.000000
  0.000000  0.500000  0.500000      1.000000
  0.500000  0.500000  0.500000      1.000000
 
 Following cartesian coordinates:
            Coordinates               Weight
  0.000000  0.000000 -0.000000      1.000000
  0.000000  0.040715 -0.009974      1.000000
  0.054688  0.000000 -0.000000      1.000000
  0.054688  0.040715 -0.009974      1.000000
  0.000000  0.000000 -0.044245      1.000000
  0.000000  0.040715 -0.054219      1.000000
  0.054688  0.000000 -0.044245      1.000000
  0.054688  0.040715 -0.054219      1.000000
 
 
 Subroutine IBZKPT_HF returns following result:
 ==============================================
 
 Found      8 k-points in 1st BZ
 the following      8 k-points will be used (e.g. in the exchange kernel)
 Following reciprocal coordinates:   # in IRBZ
  0.000000  0.000000  0.000000    0.12500000   1 t-inv F
  0.500000  0.000000  0.000000    0.12500000   2 t-inv F
  0.000000  0.500000  0.000000    0.12500000   3 t-inv F
  0.500000  0.500000  0.000000    0.12500000   4 t-inv F
  0.000000  0.000000  0.500000    0.12500000   5 t-inv F
  0.500000  0.000000  0.500000    0.12500000   6 t-inv F
  0.000000  0.500000  0.500000    0.12500000   7 t-inv F
  0.500000  0.500000  0.500000    0.12500000   8 t-inv F


--------------------------------------------------------------------------------------------------------




 Dimension of arrays:
   k-points           NKPTS =      8   k-points in BZ     NKDIM =      8   number of bands    NBANDS=    633
   number of dos      NEDOS =    301   number of ions     NIONS =    120
   non local maximal  LDIM  =      6   non local SUM 2l+1 LMDIM =     18
   total plane-waves  NPLWV = 184320
   max r-space proj   IRMAX =   1800   max aug-charges    IRDMAX=   5704
   dimension x,y,z NGX =    64 NGY =   48 NGZ =   60
   dimension x,y,z NGXF=   128 NGYF=   96 NGZF=  120
   support grid    NGXF=   128 NGYF=   96 NGZF=  120
   ions per type =              48  72
   NGX,Y,Z   is equivalent  to a cutoff of   8.66,  8.73,  8.57 a.u.
   NGXF,Y,Z  is equivalent  to a cutoff of  17.33, 17.46, 17.15 a.u.

 SYSTEM =  unknown system                          
 POSCAR =  Ga48 O72                                

 Startparameter for this run:
   NWRITE =      2    write-flag & timer
   PREC   = normal    normal or accurate (medium, high low for compatibility)
   ISTART =      0    job   : 0-new  1-cont  2-samecut
   ICHARG =      0    charge: 1-file 2-atom 10-const
   ISPIN  =      1    spin polarized calculation?
   LNONCOLLINEAR =      F non collinear calculations
   LSORBIT =      F    spin-orbit coupling
   INIWAV =      1    electr: 0-lowe 1-rand  2-diag
   LASPH  =      F    aspherical Exc in radial PAW
 Electronic Relaxation 1
   ENCUT  =  450.0 eV  33.07 Ry    5.75 a.u.  21.24 15.81 20.12*2*pi/ulx,y,z
   ENINI  =  450.0     initial cutoff
   ENAUG  =  605.4 eV  augmentation charge cutoff
   NELM   =    500;   NELMIN=  2; NELMDL= -5     # of ELM steps 
   EDIFF  = 0.1E-04   stopping-criterion for ELM
   LREAL  =      T    real-space projection
   NLSPLINE    = F    spline interpolate recip. space projectors
   LCOMPAT=      F    compatible to vasp.4.4
   GGA_COMPAT  = T    GGA compatible to vasp.4.4-vasp.4.6
   LMAXPAW     = -100 max onsite density
   LMAXMIX     =    2 max onsite mixed and CHGCAR
   VOSKOWN=      0    Vosko Wilk Nusair interpolation
   ROPT   =   -0.00050  -0.00050
 Ionic relaxation
   EDIFFG = -.5E-02   stopping-criterion for IOM
   NSW    =      0    number of steps for IOM
   NBLOCK =      1;   KBLOCK =      1    inner block; outer block 
   IBRION =     -1    ionic relax: 0-MD 1-quasi-New 2-CG
   NFREE  =      0    steps in history (QN), initial steepest desc. (CG)
   ISIF   =      2    stress and relaxation
   IWAVPR =     10    prediction:  0-non 1-charg 2-wave 3-comb
   ISYM   =      3    0-nonsym 1-usesym 2-fastsym
   LCORR  =      T    Harris-Foulkes like correction to forces

   POTIM  = 0.5000    time-step for ionic-motion
   TEIN   =    0.0    initial temperature
   TEBEG  =    0.0;   TEEND  =   0.0 temperature during run
   SMASS  =  -3.00    Nose mass-parameter (am)
   estimated Nose-frequenzy (Omega)   =  0.10E-29 period in steps = 0.13E+47 mass=  -0.345E-26a.u.
   SCALEE = 1.0000    scale energy and forces
   NPACO  =    256;   APACO  = 10.0  distance and # of slots for P.C.
   PSTRESS=    0.0 pullay stress

  Mass of Ions in am
   POMASS =  69.72 16.00
  Ionic Valenz
   ZVAL   =  13.00  6.00
  Atomic Wigner-Seitz radii
   RWIGS  =  -1.00 -1.00
  virtual crystal weights 
   VCA    =   1.00  1.00
   NELECT =    1056.0000    total number of electrons
   NUPDOWN=      -1.0000    fix difference up-down

 DOS related values:
   EMIN   =  10.00;   EMAX   =-10.00  energy-range for DOS
   EFERMI =   0.00;   METHOD = LEGACY      
   ISMEAR =     0;   SIGMA  =   0.05  broadening in eV -4-tet -1-fermi 0-gaus

 Electronic relaxation 2 (details)
   IALGO  =     58    algorithm
   LDIAG  =      T    sub-space diagonalisation (order eigenvalues)
   LSUBROT=      F    optimize rotation matrix (better conditioning)
   TURBO    =      0    0=normal 1=particle mesh
   IRESTART =      0    0=no restart 2=restart with 2 vectors
   NREBOOT  =      0    no. of reboots
   NMIN     =      0    reboot dimension
   EREF     =   0.00    reference energy to select bands
   IMIX   =      4    mixing-type and parameters
     AMIX     =   0.40;   BMIX     =  1.00
     AMIX_MAG =   1.60;   BMIX_MAG =  1.00
     AMIN     =   0.10
     WC   =   100.;   INIMIX=   1;  MIXPRE=   1;  MAXMIX= -45

 Intra band minimization:
   WEIMIN = 0.0000     energy-eigenvalue tresh-hold
   EBREAK =  0.39E-08  absolut break condition
   DEPER  =   0.30     relativ break condition  

   TIME   =   0.40     timestep for ELM

  volume/ion in A,a.u.               =      10.57        71.35
  Fermi-wavevector in a.u.,A,eV,Ry     =   1.539919  2.910025 32.264175  2.371350
  Thomas-Fermi vector in A             =   2.646079
 
 Write flags
   LWAVE        =      T    write WAVECAR
   LDOWNSAMPLE  =      F    k-point downsampling of WAVECAR
   LCHARG       =      T    write CHGCAR
   LVTOT        =      F    write LOCPOT, total local potential
   LVHAR        =      F    write LOCPOT, Hartree potential only
   LELF         =      F    write electronic localiz. function (ELF)
   LORBIT       =      0    0 simple, 1 ext, 2 COOP (PROOUT), +10 PAW based schemes


 Dipole corrections
   LMONO  =      F    monopole corrections only (constant potential shift)
   LDIPOL =      F    correct potential (dipole corrections)
   IDIPOL =      0    1-x, 2-y, 3-z, 4-all directions 
   EPSILON=  1.0000000 bulk dielectric constant

 Exchange correlation treatment:
   GGA     =    --    GGA type
   LEXCH   =     8    internal setting for exchange type
   LIBXC   =     F    Libxc                    
   VOSKOWN =     0    Vosko Wilk Nusair interpolation
   EXXOEP  =     0    0=HF, 1=EXX-LHF (local Hartree Fock) 2=EXX OEP
   LHFCALC =     T    Hartree Fock is set to
   LSYMGRAD=     F    symmetrize gradient (conserves proper symmetry)
   PRECFOCK=fast      Normal, Fast or Accurate (Low or Medium for compatibility)
   LRHFCALC=     F    long range Hartree Fock
   LRSCOR  =     F    long range correlation only (use DFT for short range part)
   LTHOMAS =     F    Thomas Fermi screening in HF
   LMODELHF=     F    short range full HF, long range fraction AEXX
   FOCKCORR=     1    mode to apply convergence corrections
   LFOCKACE=     T    use Adeptively-Compressed-Exchange operator
   ENCUT4O =  -1.0   cutoff for four orbital integrals eV
   LMAXFOCK=     4    L truncation for augmentation on plane wave grid
   LMAXFOCKAE=  -1    L truncation for all-electron charge restoration on plane wave grid
   NMAXFOCKAE=   1    number of basis functions for all-electron charge restoration
   LFOCKAEDFT=     F  apply the AE augmentation even for DFT
   NKREDX  =     1    reduce k-point grid by
   NKREDY  =     1    reduce k-point grid by
   NKREDZ  =     1    reduce k-point grid by
   SHIFTRED=     F    shift reduced grid of Gamma
   HFKIDENT=     F    idential grid for each k-point
   ODDONLY =     F    use only odd q-grid points
   EVENONLY=     F    use only even q-grid points
   HFALPHA =   -1.0000 decay constant for conv. correction
   MCALPHA =    0.0000 extent of test-charge in conv. correction in multipole expansion
   AEXX    =    0.3200 exact exchange contribution
   HFSCREEN=    0.2000 screening length (either q_TF or 0.3 A-1)
   HFSCREENC=   0.2000 screening length for correlation (either q_TF or 0.3 A-1)
   HFRCUT  =    0.0000 spherical cutoff for potential kernel
   ALDAX   =    0.6800 LDA exchange part
   AGGAX   =    0.6800 GGA exchange part
   ALDAC   =    1.0000 LDA correlation
   AGGAC   =    1.0000 GGA correlation
   ENCUTFOCK=  -1.0 apply spherical cutoff to Coloumb kernel
   NBANDSGWLOW=     1    first orbital included in HF term
   NBLOCK_FOCK=    64    blocking factor in FOCK_ACC

 Linear response parameters
   LEPSILON=     F    determine dielectric tensor
   LRPA    =     F    only Hartree local field effects (RPA)
   LNABLA  =     F    use nabla operator in PAW spheres
   LVEL    =     F    velocity operator in full k-point grid
   CSHIFT  =0.1000    complex shift for real part using Kramers Kronig
   OMEGAMAX=  -1.0    maximum frequency
   DEG_THRESHOLD= 0.2000000E-02 threshold for treating states as degnerate
   RTIME   =   -0.100 relaxation time in fs
  (WPLASMAI=    0.000 imaginary part of plasma frequency in eV, 0.658/RTIME)
   DFIELD  = 0.0000000 0.0000000 0.0000000 field for delta impulse in time
 
  Optional k-point grid parameters
   LKPOINTS_OPT  =     F    use optional k-point grid
   KPOINTS_OPT_MODE=     1    mode for optional k-point grid
 
 Orbital magnetization related:
   ORBITALMAG=     F  switch on orbital magnetization
   LCHIMAG   =     F  perturbation theory with respect to B field
   DQ        =  0.001000  dq finite difference perturbation B field
   LLRAUG    =     F  two centre corrections for induced B field
   LBONE     =     F  B-component reconstruction in AE one-centre
   LVGVCALC  =     T  calculate vGv susceptibility
   LVGVAPPL  =     F  apply vGv susceptibility instead of pGv for G=0

 Random number generation:
   RANDOM_GENERATOR = DEFAULT
   PCG_SEED         = not used


--------------------------------------------------------------------------------------------------------


 Static calculation
 charge density and potential will be updated during run
 non-spin polarized calculation
 Conjugate gradient for all bands (Freysoldt, et al. PRB 79, 241103 (2009))
 preconditioned conjugated gradient                                        
 perform sub-space diagonalisation
    before iterative eigenvector-optimisation
 modified Broyden-mixing scheme, WC =      100.0
 initial mixing is a Kerker type mixing with AMIX =  0.4000 and BMIX =      1.0000
 Hartree-type preconditioning will be used
 using additional bands           105
 real space projection scheme for non local part
 use partial core corrections
 no Harris-corrections to forces 
 use gradient corrections 
 use of overlap-Matrix (Vanderbilt PP)
 Gauss-broadening in eV      SIGMA  =   0.05


--------------------------------------------------------------------------------------------------------


  energy-cutoff  :      450.00
  volume of cell :     1268.81
      direct lattice vectors                 reciprocal lattice vectors
     0.000000000 12.280473417  0.000000000     0.000000000  0.081430085 -0.019947423
     9.142702054  0.000000000  0.000000000     0.109376855 -0.000000000  0.000000000
     0.000000000 -2.768261773-11.300697718     0.000000000  0.000000000 -0.088490111

  length of vectors
    12.280473417  9.142702054 11.634820246     0.083837691  0.109376855  0.088490111


 
 k-points in units of 2pi/SCALE and weight: Automatic mesh                          
   0.00000000  0.00000000 -0.00000000       0.125
   0.00000000  0.04071504 -0.00997371       0.125
   0.05468843  0.00000000 -0.00000000       0.125
   0.05468843  0.04071504 -0.00997371       0.125
   0.00000000  0.00000000 -0.04424506       0.125
   0.00000000  0.04071504 -0.05421877       0.125
   0.05468843  0.00000000 -0.04424506       0.125
   0.05468843  0.04071504 -0.05421877       0.125
 
 k-points in reciprocal lattice and weights: Automatic mesh                          
   0.00000000  0.00000000  0.00000000       0.125
   0.50000000  0.00000000  0.00000000       0.125
   0.00000000  0.50000000  0.00000000       0.125
   0.50000000  0.50000000  0.00000000       0.125
   0.00000000  0.00000000  0.50000000       0.125
   0.50000000  0.00000000  0.50000000       0.125
   0.00000000  0.50000000  0.50000000       0.125
   0.50000000  0.50000000  0.50000000       0.125
 
 position of ions in fractional coordinates (direct lattice) 
   0.65901370  0.00000000  0.15659438
   0.65901370  0.00000000  0.65659438
   0.65901370  0.33333333  0.15659438
   0.65901370  0.33333333  0.65659438
   0.65901370  0.66666667  0.15659438
   0.65901370  0.66666667  0.65659438
   0.84098630  0.16666667  0.34340562
   0.84098630  0.16666667  0.84340562
   0.84098630  0.50000000  0.34340562
   0.84098630  0.50000000  0.84340562
   0.84098630  0.83333333  0.34340562
   0.84098630  0.83333333  0.84340562
   0.59108851  0.16666667  0.39757803
   0.59108851  0.16666667  0.89757803
   0.59108851  0.50000000  0.39757803
   0.59108851  0.50000000  0.89757803
   0.59108851  0.83333333  0.39757803
   0.59108851  0.83333333  0.89757803
   0.90891149  0.00000000  0.10242197
   0.90891149  0.00000000  0.60242197
   0.90891149  0.33333333  0.10242197
   0.90891149  0.33333333  0.60242197
   0.90891149  0.66666667  0.10242197
   0.90891149  0.66666667  0.60242197
   0.15901370  0.16666667  0.15659438
   0.15901370  0.16666667  0.65659438
   0.15901370  0.50000000  0.15659438
   0.15901370  0.50000000  0.65659438
   0.15901370  0.83333333  0.15659438
   0.15901370  0.83333333  0.65659438
   0.34098630  0.00000000  0.34340562
   0.34098630  0.00000000  0.84340562
   0.34098630  0.33333333  0.34340562
   0.34098630  0.33333333  0.84340562
   0.34098630  0.66666667  0.34340562
   0.34098630  0.66666667  0.84340562
   0.09108851  0.00000000  0.39757803
   0.09108851  0.00000000  0.89757803
   0.09108851  0.33333333  0.39757803
   0.09108851  0.33333333  0.89757803
   0.09108851  0.66666667  0.39757803
   0.09108851  0.66666667  0.89757803
   0.40891149  0.16666667  0.10242197
   0.40891149  0.16666667  0.60242197
   0.40891149  0.50000000  0.10242197
   0.40891149  0.50000000  0.60242197
   0.40891149  0.83333333  0.10242197
   0.40891149  0.83333333  0.60242197
   0.99636539  0.16666667  0.12722771
   0.99636539  0.16666667  0.62722771
   0.99636539  0.50000000  0.12722771
   0.99636539  0.50000000  0.62722771
   0.99636539  0.83333333  0.12722771
   0.99636539  0.83333333  0.62722771
   0.50363461  0.00000000  0.37277229
   0.50363461  0.00000000  0.87277229
   0.50363461  0.33333333  0.37277229
   0.50363461  0.33333333  0.87277229
   0.50363461  0.66666667  0.37277229
   0.50363461  0.66666667  0.87277229
   0.67253705  0.16666667  0.28039613
   0.67253705  0.16666667  0.78039613
   0.67253705  0.50000000  0.28039613
   0.67253705  0.50000000  0.78039613
   0.67253705  0.83333333  0.28039613
   0.67253705  0.83333333  0.78039613
   0.82746295  0.00000000  0.21960387
   0.82746295  0.00000000  0.71960387
   0.82746295  0.33333333  0.21960387
   0.82746295  0.33333333  0.71960387
   0.82746295  0.66666667  0.21960387
   0.82746295  0.66666667  0.71960387
   0.83208626  0.00000000  0.44580823
   0.83208626  0.00000000  0.94580823
   0.83208626  0.33333333  0.44580823
   0.83208626  0.33333333  0.94580823
   0.83208626  0.66666667  0.44580823
   0.83208626  0.66666667  0.94580823
   0.66791374  0.16666667  0.05419177
   0.66791374  0.16666667  0.55419177
   0.66791374  0.50000000  0.05419177
   0.66791374  0.50000000  0.55419177
   0.66791374  0.83333333  0.05419177
   0.66791374  0.83333333  0.55419177
   0.49636539  0.00000000  0.12722771
   0.49636539  0.00000000  0.62722771
   0.49636539  0.33333333  0.12722771
   0.49636539  0.33333333  0.62722771
   0.49636539  0.66666667  0.12722771
   0.49636539  0.66666667  0.62722771
   0.00363461  0.16666667  0.37277229
   0.00363461  0.16666667  0.87277229
   0.00363461  0.50000000  0.37277229
   0.00363461  0.50000000  0.87277229
   0.00363461  0.83333333  0.37277229
   0.00363461  0.83333333  0.87277229
   0.17253705  0.00000000  0.28039613
   0.17253705  0.00000000  0.78039613
   0.17253705  0.33333333  0.28039613
   0.17253705  0.33333333  0.78039613
   0.17253705  0.66666667  0.28039613
   0.17253705  0.66666667  0.78039613
   0.32746295  0.16666667  0.21960387
   0.32746295  0.16666667  0.71960387
   0.32746295  0.50000000  0.21960387
   0.32746295  0.50000000  0.71960387
   0.32746295  0.83333333  0.21960387
   0.32746295  0.83333333  0.71960387
   0.33208626  0.16666667  0.44580823
   0.33208626  0.16666667  0.94580823
   0.33208626  0.50000000  0.44580823
   0.33208626  0.50000000  0.94580823
   0.33208626  0.83333333  0.44580823
   0.33208626  0.83333333  0.94580823
   0.16791374  0.00000000  0.05419177
   0.16791374  0.00000000  0.55419177
   0.16791374  0.33333333  0.05419177
   0.16791374  0.33333333  0.55419177
   0.16791374  0.66666667  0.05419177
   0.16791374  0.66666667  0.55419177
 
 position of ions in cartesian coordinates  (Angst):
   0.00000000  7.65950603 -1.76962572
   0.00000000  6.27537514 -7.41997458
   3.04756735  7.65950603 -1.76962572
   3.04756735  6.27537514 -7.41997458
   6.09513470  7.65950603 -1.76962572
   6.09513470  6.27537514 -7.41997458
   1.52378368  9.37707321 -3.88072314
   1.52378368  7.99294233 -9.53107200
   4.57135103  9.37707321 -3.88072314
   4.57135103  7.99294233 -9.53107200
   7.61891838  9.37707321 -3.88072314
   7.61891838  7.99294233 -9.53107200
   1.52378368  6.15824672 -4.49290910
   1.52378368  4.77411583-10.14325795
   4.57135103  6.15824672 -4.49290910
   4.57135103  4.77411583-10.14325795
   7.61891838  6.15824672 -4.49290910
   7.61891838  4.77411583-10.14325795
   0.00000000 10.87833252 -1.15743976
   0.00000000  9.49420163 -6.80778862
   3.04756735 10.87833252 -1.15743976
   3.04756735  9.49420163 -6.80778862
   6.09513470 10.87833252 -1.15743976
   6.09513470  9.49420163 -6.80778862
   1.52378368  1.51926932 -1.76962572
   1.52378368  0.13513843 -7.41997458
   4.57135103  1.51926932 -1.76962572
   4.57135103  0.13513843 -7.41997458
   7.61891838  1.51926932 -1.76962572
   7.61891838  0.13513843 -7.41997458
   0.00000000  3.23683650 -3.88072314
   0.00000000  1.85270562 -9.53107200
   3.04756735  3.23683650 -3.88072314
   3.04756735  1.85270562 -9.53107200
   6.09513470  3.23683650 -3.88072314
   6.09513470  1.85270562 -9.53107200
   0.00000000  0.01801001 -4.49290910
   0.00000000 -1.36612088-10.14325795
   3.04756735  0.01801001 -4.49290910
   3.04756735 -1.36612088-10.14325795
   6.09513470  0.01801001 -4.49290910
   6.09513470 -1.36612088-10.14325795
   1.52378368  4.73809581 -1.15743976
   1.52378368  3.35396493 -6.80778862
   4.57135103  4.73809581 -1.15743976
   4.57135103  3.35396493 -6.80778862
   7.61891838  4.73809581 -1.15743976
   7.61891838  3.35396493 -6.80778862
   1.52378368 11.88363909 -1.43776186
   1.52378368 10.49950820 -7.08811072
   4.57135103 11.88363909 -1.43776186
   4.57135103 10.49950820 -7.08811072
   7.61891838 11.88363909 -1.43776186
   7.61891838 10.49950820 -7.08811072
   0.00000000  5.15294015 -4.21258700
   0.00000000  3.76880926 -9.86293586
   3.04756735  5.15294015 -4.21258700
   3.04756735  3.76880926 -9.86293586
   6.09513470  5.15294015 -4.21258700
   6.09513470  3.76880926 -9.86293586
   1.52378368  7.48286347 -3.16867194
   1.52378368  6.09873258 -8.81902080
   4.57135103  7.48286347 -3.16867194
   4.57135103  6.09873258 -8.81902080
   7.61891838  7.48286347 -3.16867194
   7.61891838  6.09873258 -8.81902080
   0.00000000  9.55371577 -2.48167692
   0.00000000  8.16958488 -8.13202578
   3.04756735  9.55371577 -2.48167692
   3.04756735  8.16958488 -8.13202578
   6.09513470  9.55371577 -2.48167692
   6.09513470  8.16958488 -8.13202578
   0.00000000  8.98429935 -5.03794406
   0.00000000  7.60016846-10.68829292
   3.04756735  8.98429935 -5.03794406
   3.04756735  7.60016846-10.68829292
   6.09513470  8.98429935 -5.03794406
   6.09513470  7.60016846-10.68829292
   1.52378368  8.05227989 -0.61240480
   1.52378368  6.66814900 -6.26275366
   4.57135103  8.05227989 -0.61240480
   4.57135103  6.66814900 -6.26275366
   7.61891838  8.05227989 -0.61240480
   7.61891838  6.66814900 -6.26275366
   0.00000000  5.74340238 -1.43776186
   0.00000000  4.35927150 -7.08811072
   3.04756735  5.74340238 -1.43776186
   3.04756735  4.35927150 -7.08811072
   6.09513470  5.74340238 -1.43776186
   6.09513470  4.35927150 -7.08811072
   1.52378368 -0.98729656 -4.21258700
   1.52378368 -2.37142745 -9.86293586
   4.57135103 -0.98729656 -4.21258700
   4.57135103 -2.37142745 -9.86293586
   7.61891838 -0.98729656 -4.21258700
   7.61891838 -2.37142745 -9.86293586
   0.00000000  1.34262676 -3.16867194
   0.00000000 -0.04150413 -8.81902080
   3.04756735  1.34262676 -3.16867194
   3.04756735 -0.04150413 -8.81902080
   6.09513470  1.34262676 -3.16867194
   6.09513470 -0.04150413 -8.81902080
   1.52378368  3.41347906 -2.48167692
   1.52378368  2.02934818 -8.13202578
   4.57135103  3.41347906 -2.48167692
   4.57135103  2.02934818 -8.13202578
   7.61891838  3.41347906 -2.48167692
   7.61891838  2.02934818 -8.13202578
   1.52378368  2.84406264 -5.03794406
   1.52378368  1.45993175-10.68829292
   4.57135103  2.84406264 -5.03794406
   4.57135103  1.45993175-10.68829292
   7.61891838  2.84406264 -5.03794406
   7.61891838  1.45993175-10.68829292
   0.00000000  1.91204318 -0.61240480
   0.00000000  0.52791230 -6.26275366
   3.04756735  1.91204318 -0.61240480
   3.04756735  0.52791230 -6.26275366
   6.09513470  1.91204318 -0.61240480
   6.09513470  0.52791230 -6.26275366
 


--------------------------------------------------------------------------------------------------------


 k-point   1 :   0.0000 0.0000 0.0000  plane waves:   27533
 k-point   2 :   0.5000 0.0000 0.0000  plane waves:   27522
 k-point   3 :   0.0000 0.5000 0.0000  plane waves:   27488
 k-point   4 :   0.5000 0.5000 0.0000  plane waves:   27488
 k-point   5 :   0.0000 0.0000 0.5000  plane waves:   27482
 k-point   6 :   0.5000 0.0000 0.5000  plane waves:   27476
 k-point   7 :   0.0000 0.5000 0.5000  plane waves:   27468
 k-point   8 :   0.5000 0.5000 0.5000  plane waves:   27564

 maximum and minimum number of plane-waves per node :     27564    27468

 maximum number of plane-waves:     27564
 maximum index in each direction: 
   IXMAX=   21   IYMAX=   15   IZMAX=   20
   IXMIN=  -21   IYMIN=  -16   IZMIN=  -20


 serial   3D FFT for wavefunctions
 parallel 3D FFT for charge:
    minimum data exchange during FFTs selected (reduces bandwidth)


 FFT grid for exact exchange (Hartree Fock) 
  NGX = 48; NGY = 36; NGZ = 48

 
 Radii for the augmentation spheres in the non-local exchange
 for species   1 augmentation radius   1.392 (default was   1.031)
       energy cutoff for augmentation   1800.0
 for species   2 augmentation radius   0.974 (default was   0.722)
       energy cutoff for augmentation   1800.0
 Maximum index for augmentation-charges in exchange           742
  SETUP_FOCK is finished

 total amount of memory used by VASP MPI-rank0  7256996. kBytes
=======================================================================

   base      :      30000. kBytes
   nonlr-proj:      32949. kBytes
   fftplans  :      51012. kBytes
   grid      :      90980. kBytes
   one-center:       1866. kBytes
   HF        :        129. kBytes
   wavefun   :    7050060. kBytes
 
     INWAV:  cpu time      0.0001: real time      0.0001
 Broyden mixing: mesh for mixing (old mesh)
   NGX = 43   NGY = 31   NGZ = 41
  (NGX  =128   NGY  = 96   NGZ  =120)
  gives a total of  54653 points

 charge density for first step will be calculated from the start-wavefunctions


--------------------------------------------------------------------------------------------------------


 Maximum index for non-local projection operator          1707
 Maximum index for augmentation-charges          5340 (set IRDMAX)


--------------------------------------------------------------------------------------------------------


 initial charge from wavefunction
 First call to EWALD:  gamma=   0.164
 Maximum number of real-space cells 3x 3x 3
 Maximum number of reciprocal cells 3x 2x 3

    FEWALD:  cpu time      0.0726: real time      0.0726


--------------------------------------- Ionic step        1  -------------------------------------------




--------------------------------------- Iteration      1(   1)  ---------------------------------------


    POTLOK:  cpu time      0.0333: real time      0.0333
    SETDIJ:  cpu time      0.1355: real time      0.1355
    TRIAL :  cpu time      2.9377: real time      2.9437
    CORREC:  cpu time      0.0015: real time      0.0015
    --------------------------------------------
      LOOP:  cpu time      4.0326: real time      4.0383

 eigenvalue-minimisations  : 10616
 total energy-change (2. order) :-0.1826235E+05  (-0.5422878E+05)
 number of electron    1055.9999365 magnetization 
 augmentation part      122.2681495 magnetization 

 Free energy of the ion-electron system (eV)
  ---------------------------------------------------
  alpha Z        PSCENC =      5537.53060054
  Ewald energy   TEWEN  =    -88891.37402132
  -Hartree energ DENC   =     -2114.62038653
  -exchange      EXHF   =         0.00000000
  -V(xc)+E(xc)   XCENC  =      2806.72067320
  PAW double counting   =     56157.47241140   -85370.38820063
  entropy T*S    EENTRO =        -0.00744551
  eigenvalues    EBANDS =    -40289.05390053
  atomic energy  EATOM  =    133901.37115015
  ---------------------------------------------------
  free energy    TOTEN  =    -18262.34911924 eV

  energy without entropy =   -18262.34167373  energy(sigma->0) =   -18262.34539648
  exchange ACFDT corr.  =         0.00000000  see jH, gK, PRB 81, 115126


--------------------------------------------------------------------------------------------------------




--------------------------------------- Iteration      1(   2)  ---------------------------------------


    TRIAL :  cpu time      3.2139: real time      3.2134
    CORREC:  cpu time      0.0015: real time      0.0015
    --------------------------------------------
      LOOP:  cpu time      3.2155: real time      3.2156

 eigenvalue-minimisations  : 13600
 total energy-change (2. order) :-0.4409340E+05  (-0.4280659E+05)
 number of electron    1055.9999365 magnetization 
 augmentation part      122.2681495 magnetization 

 Free energy of the ion-electron system (eV)
  ---------------------------------------------------
  alpha Z        PSCENC =      5537.53060054
  Ewald energy   TEWEN  =    -88891.37402132
  -Hartree energ DENC   =     -2114.62038653
  -exchange      EXHF   =         0.00000000
  -V(xc)+E(xc)   XCENC  =      2806.72067320
  PAW double counting   =     56157.47241140   -85370.38820063
  entropy T*S    EENTRO =        -0.02318710
  eigenvalues    EBANDS =    -84382.43588906
  atomic energy  EATOM  =    133901.37115015
  ---------------------------------------------------
  free energy    TOTEN  =    -62355.74684936 eV

  energy without entropy =   -62355.72366226  energy(sigma->0) =   -62355.73525581
  exchange ACFDT corr.  =         0.00000000  see jH, gK, PRB 81, 115126


--------------------------------------------------------------------------------------------------------




--------------------------------------- Iteration      1(   3)  ---------------------------------------


    TRIAL :  cpu time      3.3649: real time      3.3644
    CORREC:  cpu time      0.0017: real time      0.0017
    --------------------------------------------
      LOOP:  cpu time      3.3669: real time      3.3668

 eigenvalue-minimisations  : 14456
 total energy-change (2. order) :-0.4452847E+04  (-0.3958602E+04)
 number of electron    1055.9999365 magnetization 
 augmentation part      122.2681495 magnetization 

 Free energy of the ion-electron system (eV)
  ---------------------------------------------------
  alpha Z        PSCENC =      5537.53060054
  Ewald energy   TEWEN  =    -88891.37402132
  -Hartree energ DENC   =     -2114.62038653
  -exchange      EXHF   =         0.00000000
  -V(xc)+E(xc)   XCENC  =      2806.72067320
  PAW double counting   =     56157.47241140   -85370.38820063
  entropy T*S    EENTRO =        -0.03609007
  eigenvalues    EBANDS =    -88835.27001777
  atomic energy  EATOM  =    133901.37115015
  ---------------------------------------------------
  free energy    TOTEN  =    -66808.59388104 eV

  energy without entropy =   -66808.55779096  energy(sigma->0) =   -66808.57583600
  exchange ACFDT corr.  =         0.00000000  see jH, gK, PRB 81, 115126


--------------------------------------------------------------------------------------------------------




--------------------------------------- Iteration      1(   4)  ---------------------------------------


    TRIAL :  cpu time      3.7076: real time      3.7070
    CORREC:  cpu time      0.0017: real time      0.0017
    --------------------------------------------
      LOOP:  cpu time      3.7095: real time      3.7093

 eigenvalue-minimisations  : 16824
 total energy-change (2. order) :-0.4932691E+03  (-0.4260941E+03)
 number of electron    1055.9999365 magnetization 
 augmentation part      122.2681495 magnetization 

 Free energy of the ion-electron system (eV)
  ---------------------------------------------------
  alpha Z        PSCENC =      5537.53060054
  Ewald energy   TEWEN  =    -88891.37402132
  -Hartree energ DENC   =     -2114.62038653
  -exchange      EXHF   =         0.00000000
  -V(xc)+E(xc)   XCENC  =      2806.72067320
  PAW double counting   =     56157.47241140   -85370.38820063
  entropy T*S    EENTRO =        -0.08310756
  eigenvalues    EBANDS =    -89328.49208705
  atomic energy  EATOM  =    133901.37115015
  ---------------------------------------------------
  free energy    TOTEN  =    -67301.86296780 eV

  energy without entropy =   -67301.77986025  energy(sigma->0) =   -67301.82141403
  exchange ACFDT corr.  =         0.00000000  see jH, gK, PRB 81, 115126


--------------------------------------------------------------------------------------------------------




--------------------------------------- Iteration      1(   5)  ---------------------------------------


    POTLOK:  cpu time      1.3634: real time      1.3632
    SETDIJ:  cpu time      0.4289: real time      0.4288
    TRIAL :  cpu time    235.9678: real time    235.9308
    CORREC:  cpu time      0.0015: real time      0.0015
    CHARGE:  cpu time      0.2071: real time      0.2070
    --------------------------------------------
      LOOP:  cpu time    237.9688: real time    237.9318

 eigenvalue-minimisations  : 18856
 total energy-change (2. order) : 0.3014883E+05  (-0.7040273E+02)
 number of electron    1055.9998217 magnetization 
 augmentation part      501.9528250 magnetization 

 Free energy of the ion-electron system (eV)
  ---------------------------------------------------
  alpha Z        PSCENC =      5537.53060054
  Ewald energy   TEWEN  =    -88891.37402132
  -Hartree energ DENC   =     -2114.62038653
  -exchange      EXHF   =      4608.54917671
  -V(xc)+E(xc)   XCENC  =      1940.24906712
  PAW double counting   =     56765.45123664   -58845.76225620
  entropy T*S    EENTRO =        -0.03184299
  eigenvalues    EBANDS =    -90054.39072178
  atomic energy  EATOM  =    133901.37115015
  ---------------------------------------------------
  free energy    TOTEN  =    -37153.02799766 eV

  energy without entropy =   -37152.99615466  energy(sigma->0) =   -37153.01207616
  exchange ACFDT corr.  =        -0.65658591  see jH, gK, PRB 81, 115126


--------------------------------------------------------------------------------------------------------




--------------------------------------- Iteration      1(   6)  ---------------------------------------


    POTLOK:  cpu time      1.4295: real time      1.4293
    SETDIJ:  cpu time      0.4218: real time      0.4217
    TRIAL :  cpu time    233.7707: real time    233.7308
    CORREC:  cpu time    235.6419: real time    235.6031
    CHARGE:  cpu time      0.2257: real time      0.2256
    --------------------------------------------
      LOOP:  cpu time    471.4900: real time    471.4132

 eigenvalue-minimisations  :     0
 total energy-change (2. order) : 0.5124083E+05  (-0.1246490E+05)
 number of electron    1055.9998308 magnetization 
 augmentation part      486.7437618 magnetization 

 Free energy of the ion-electron system (eV)
  ---------------------------------------------------
  alpha Z        PSCENC =      5537.53060054
  Ewald energy   TEWEN  =    -88891.37402132
  -Hartree energ DENC   =    -60459.69079495
  -exchange      EXHF   =      4732.61417164
  -V(xc)+E(xc)   XCENC  =      3712.63927968
  PAW double counting   =    140636.12262300  -164706.07508916
  entropy T*S    EENTRO =        -0.02641575
  eigenvalues    EBANDS =     39624.70056779
  atomic energy  EATOM  =    133901.37115015
  ---------------------------------------------------
  free energy    TOTEN  =     14087.80664439 eV

  energy without entropy =    14087.83306013  energy(sigma->0) =    14087.81985226
  exchange ACFDT corr.  =        -0.10833409  see jH, gK, PRB 81, 115126


--------------------------------------------------------------------------------------------------------




--------------------------------------- Iteration      1(   7)  ---------------------------------------


    POTLOK:  cpu time      1.4657: real time      1.4655
    SETDIJ:  cpu time      0.4641: real time      0.4640
    TRIAL :  cpu time    232.8179: real time    232.7783
    CORREC:  cpu time    235.4719: real time    235.4319
    CHARGE:  cpu time      0.2281: real time      0.2280
    --------------------------------------------
      LOOP:  cpu time    470.4479: real time    470.3682

 eigenvalue-minimisations  :     0
 total energy-change (2. order) :-0.1095541E+05  (-0.1685951E+04)
 number of electron    1055.9998333 magnetization 
 augmentation part      460.8960756 magnetization 

 Free energy of the ion-electron system (eV)
  ---------------------------------------------------
  alpha Z        PSCENC =      5537.53060054
  Ewald energy   TEWEN  =    -88891.37402132
  -Hartree energ DENC   =    -42719.69923500
  -exchange      EXHF   =      4140.25863090
  -V(xc)+E(xc)   XCENC  =      3158.49812601
  PAW double counting   =    127755.57112315  -147633.69758033
  entropy T*S    EENTRO =        -0.05774686
  eigenvalues    EBANDS =      7883.96618493
  atomic energy  EATOM  =    133901.37115015
  ---------------------------------------------------
  free energy    TOTEN  =      3132.39856330 eV

  energy without entropy =     3132.45631016  energy(sigma->0) =     3132.42743673
  exchange ACFDT corr.  =      -138.63948471  see jH, gK, PRB 81, 115126


--------------------------------------------------------------------------------------------------------




--------------------------------------- Iteration      1(   8)  ---------------------------------------


    POTLOK:  cpu time      1.5006: real time      1.5004
    SETDIJ:  cpu time      0.4533: real time      0.4533
    TRIAL :  cpu time    232.8336: real time    232.7955
    CORREC:  cpu time    235.9869: real time    235.9475
    CHARGE:  cpu time      0.2244: real time      0.2244
    --------------------------------------------
      LOOP:  cpu time    470.9995: real time    470.9219

 eigenvalue-minimisations  :     0
 total energy-change (2. order) :-0.1674505E+04  (-0.8704443E+03)
 number of electron    1055.9998516 magnetization 
 augmentation part      439.6547049 magnetization 

 Free energy of the ion-electron system (eV)
  ---------------------------------------------------
  alpha Z        PSCENC =      5537.53060054
  Ewald energy   TEWEN  =    -88891.37402132
  -Hartree energ DENC   =    -37175.01726911
  -exchange      EXHF   =      3929.75793971
  -V(xc)+E(xc)   XCENC  =      2977.83420385
  PAW double counting   =    125304.96125723  -142807.23086297
  entropy T*S    EENTRO =        -0.07574668
  eigenvalues    EBANDS =     -1319.88178429
  atomic energy  EATOM  =    133901.37115015
  ---------------------------------------------------
  free energy    TOTEN  =      1457.89346693 eV

  energy without entropy =     1457.96921361  energy(sigma->0) =     1457.93134027
  exchange ACFDT corr.  =      -115.27929503  see jH, gK, PRB 81, 115126


--------------------------------------------------------------------------------------------------------




--------------------------------------- Iteration      1(   9)  ---------------------------------------


    POTLOK:  cpu time      1.4575: real time      1.4574
    SETDIJ:  cpu time      0.5009: real time      0.5008
    TRIAL :  cpu time    234.6396: real time    234.6048
    CORREC:  cpu time    234.5505: real time    234.5161
    CHARGE:  cpu time      0.2235: real time      0.2235
    --------------------------------------------
      LOOP:  cpu time    471.3731: real time    471.3040

 eigenvalue-minimisations  :     0
 total energy-change (2. order) :-0.1189488E+04  (-0.4563938E+03)
 number of electron    1055.9998746 magnetization 
 augmentation part      437.5820994 magnetization 

 Free energy of the ion-electron system (eV)
  ---------------------------------------------------
  alpha Z        PSCENC =      5537.53060054
  Ewald energy   TEWEN  =    -88891.37402132
  -Hartree energ DENC   =    -32333.99552145
  -exchange      EXHF   =      3736.77635453
  -V(xc)+E(xc)   XCENC  =      2844.42194220
  PAW double counting   =    119180.93670798  -134102.81504344
  entropy T*S    EENTRO =        -0.03116624
  eigenvalues    EBANDS =     -9604.37071912
  atomic energy  EATOM  =    133901.37115015
  ---------------------------------------------------
  free energy    TOTEN  =       268.40570340 eV

  energy without entropy =      268.43686964  energy(sigma->0) =      268.42128652
  exchange ACFDT corr.  =       -80.20279358  see jH, gK, PRB 81, 115126


--------------------------------------------------------------------------------------------------------




--------------------------------------- Iteration      1(  10)  ---------------------------------------


    POTLOK:  cpu time      1.4768: real time      1.4766
    SETDIJ:  cpu time      0.4657: real time      0.4657
    TRIAL :  cpu time    233.4820: real time    233.4502
    CORREC:  cpu time    234.5441: real time    234.5103
    CHARGE:  cpu time      0.2245: real time      0.2244
    --------------------------------------------
      LOOP:  cpu time    470.1953: real time    470.1296

 eigenvalue-minimisations  :     0
 total energy-change (2. order) :-0.4298294E+03  (-0.4520351E+03)
 number of electron    1055.9998442 magnetization 
 augmentation part      450.9791860 magnetization 

 Free energy of the ion-electron system (eV)
  ---------------------------------------------------
  alpha Z        PSCENC =      5537.53060054
  Ewald energy   TEWEN  =    -88891.37402132
  -Hartree energ DENC   =    -31319.61906881
  -exchange      EXHF   =      3696.95413923
  -V(xc)+E(xc)   XCENC  =      2816.18037520
  PAW double counting   =    118011.68189993  -132454.48998199
  entropy T*S    EENTRO =        -0.00602896
  eigenvalues    EBANDS =    -11459.62763738
  atomic energy  EATOM  =    133901.37115015
  ---------------------------------------------------
  free energy    TOTEN  =      -161.42371068 eV

  energy without entropy =     -161.41768172  energy(sigma->0) =     -161.42069620
  exchange ACFDT corr.  =        -2.98935327  see jH, gK, PRB 81, 115126


--------------------------------------------------------------------------------------------------------




--------------------------------------- Iteration      1(  11)  ---------------------------------------


    POTLOK:  cpu time      1.4925: real time      1.4923
    SETDIJ:  cpu time      0.4487: real time      0.4486
    TRIAL :  cpu time    232.5364: real time    232.5009
    CORREC:  cpu time    234.2715: real time    234.2363
    CHARGE:  cpu time      0.2276: real time      0.2275
    --------------------------------------------
      LOOP:  cpu time    468.9770: real time    468.9110

 eigenvalue-minimisations  :     0
 total energy-change (2. order) :-0.4313542E+03  (-0.2032407E+03)
 number of electron    1055.9998335 magnetization 
 augmentation part      459.5122068 magnetization 

 Free energy of the ion-electron system (eV)
  ---------------------------------------------------
  alpha Z        PSCENC =      5537.53060054
  Ewald energy   TEWEN  =    -88891.37402132
  -Hartree energ DENC   =    -32684.87921894
  -exchange      EXHF   =      3783.21811949
  -V(xc)+E(xc)   XCENC  =      2861.21172802
  PAW double counting   =    121824.98398041  -137174.60023050
  entropy T*S    EENTRO =        -0.00533870
  eigenvalues    EBANDS =     -9750.23395176
  atomic energy  EATOM  =    133901.37115015
  ---------------------------------------------------
  free energy    TOTEN  =      -592.77787285 eV

  energy without entropy =     -592.77253415  energy(sigma->0) =     -592.77520350
  exchange ACFDT corr.  =        -0.19693268  see jH, gK, PRB 81, 115126


--------------------------------------------------------------------------------------------------------




--------------------------------------- Iteration      1(  12)  ---------------------------------------


    POTLOK:  cpu time      1.5014: real time      1.5012
    SETDIJ:  cpu time      0.4449: real time      0.4448
    TRIAL :  cpu time    232.4880: real time    232.4539
    CORREC:  cpu time    234.2839: real time    234.2510
    CHARGE:  cpu time      0.2284: real time      0.2284
    --------------------------------------------
      LOOP:  cpu time    468.9484: real time    468.8814

 eigenvalue-minimisations  :     0
 total energy-change (2. order) :-0.2025199E+03  (-0.8673471E+02)
 number of electron    1055.9998427 magnetization 
 augmentation part      461.6981416 magnetization 

 Free energy of the ion-electron system (eV)
  ---------------------------------------------------
  alpha Z        PSCENC =      5537.53060054
  Ewald energy   TEWEN  =    -88891.37402132
  -Hartree energ DENC   =    -33596.85935026
  -exchange      EXHF   =      3871.58389364
  -V(xc)+E(xc)   XCENC  =      2902.95447041
  PAW double counting   =    124277.67139493  -140032.00528903
  entropy T*S    EENTRO =        -0.00310278
  eigenvalues    EBANDS =     -8766.16526793
  atomic energy  EATOM  =    133901.37115015
  ---------------------------------------------------
  free energy    TOTEN  =      -795.29775755 eV

  energy without entropy =     -795.29465478  energy(sigma->0) =     -795.29620616
  exchange ACFDT corr.  =        -0.04945161  see jH, gK, PRB 81, 115126


--------------------------------------------------------------------------------------------------------




--------------------------------------- Iteration      1(  13)  ---------------------------------------


    POTLOK:  cpu time      1.4840: real time      1.4838
    SETDIJ:  cpu time      0.4668: real time      0.4667
    TRIAL :  cpu time    232.4725: real time    232.4387
    CORREC:  cpu time    234.2091: real time    234.1747
    CHARGE:  cpu time      0.2247: real time      0.2247
    --------------------------------------------
      LOOP:  cpu time    468.8584: real time    468.7903

 eigenvalue-minimisations  :     0
 total energy-change (2. order) :-0.8833813E+02  (-0.4565007E+02)
 number of electron    1055.9998548 magnetization 
 augmentation part      461.4022875 magnetization 

 Free energy of the ion-electron system (eV)
  ---------------------------------------------------
  alpha Z        PSCENC =      5537.53060054
  Ewald energy   TEWEN  =    -88891.37402132
  -Hartree energ DENC   =    -33960.23878991
  -exchange      EXHF   =      3918.12237080
  -V(xc)+E(xc)   XCENC  =      2925.08597918
  PAW double counting   =    124187.52993245  -139775.46372390
  entropy T*S    EENTRO =        -0.00000000
  eigenvalues    EBANDS =     -8726.19628254
  atomic energy  EATOM  =    133901.37115015
  ---------------------------------------------------
  free energy    TOTEN  =      -883.63588734 eV

  energy without entropy =     -883.63588734  energy(sigma->0) =     -883.63588734
  exchange ACFDT corr.  =        -0.10841083  see jH, gK, PRB 81, 115126


--------------------------------------------------------------------------------------------------------




--------------------------------------- Iteration      1(  14)  ---------------------------------------


    POTLOK:  cpu time      1.5090: real time      1.5088
    SETDIJ:  cpu time      0.4229: real time      0.4229
    TRIAL :  cpu time    232.3126: real time    232.2726
    CORREC:  cpu time    234.0648: real time    234.0284
    CHARGE:  cpu time      0.2248: real time      0.2248
    --------------------------------------------
      LOOP:  cpu time    468.5344: real time    468.4580

 eigenvalue-minimisations  :     0
 total energy-change (2. order) :-0.4471081E+02  (-0.1711323E+02)
 number of electron    1055.9998562 magnetization 
 augmentation part      461.5691341 magnetization 

 Free energy of the ion-electron system (eV)
  ---------------------------------------------------
  alpha Z        PSCENC =      5537.53060054
  Ewald energy   TEWEN  =    -88891.37402132
  -Hartree energ DENC   =    -34000.11193924
  -exchange      EXHF   =      3918.40726426
  -V(xc)+E(xc)   XCENC  =      2928.37686870
  PAW double counting   =    122673.06356415  -138118.97295300
  entropy T*S    EENTRO =        -0.00000000
  eigenvalues    EBANDS =     -8876.63723129
  atomic energy  EATOM  =    133901.37115015
  ---------------------------------------------------
  free energy    TOTEN  =      -928.34669703 eV

  energy without entropy =     -928.34669703  energy(sigma->0) =     -928.34669703
  exchange ACFDT corr.  =         0.00000000  see jH, gK, PRB 81, 115126


--------------------------------------------------------------------------------------------------------




--------------------------------------- Iteration      1(  15)  ---------------------------------------


    POTLOK:  cpu time      1.5011: real time      1.5009
    SETDIJ:  cpu time      0.4275: real time      0.4274
    TRIAL :  cpu time    232.4748: real time    232.4433
    CORREC:  cpu time    234.0354: real time    234.0035
    CHARGE:  cpu time      0.2201: real time      0.2200
    --------------------------------------------
      LOOP:  cpu time    468.6616: real time    468.5983

 eigenvalue-minimisations  :     0
 total energy-change (2. order) :-0.1710392E+02  (-0.7743567E+01)
 number of electron    1055.9998541 magnetization 
 augmentation part      461.2917247 magnetization 

 Free energy of the ion-electron system (eV)
  ---------------------------------------------------
  alpha Z        PSCENC =      5537.53060054
  Ewald energy   TEWEN  =    -88891.37402132
  -Hartree energ DENC   =    -33957.62588603
  -exchange      EXHF   =      3901.14311201
  -V(xc)+E(xc)   XCENC  =      2922.73946474
  PAW double counting   =    121922.88633617  -137488.71839148
  entropy T*S    EENTRO =        -0.00000000
  eigenvalues    EBANDS =     -8793.40298293
  atomic energy  EATOM  =    133901.37115015
  ---------------------------------------------------
  free energy    TOTEN  =      -945.45061814 eV

  energy without entropy =     -945.45061814  energy(sigma->0) =     -945.45061814
  exchange ACFDT corr.  =         0.00000000  see jH, gK, PRB 81, 115126


--------------------------------------------------------------------------------------------------------




--------------------------------------- Iteration      1(  16)  ---------------------------------------


    POTLOK:  cpu time      1.5063: real time      1.5061
    SETDIJ:  cpu time      0.4223: real time      0.4223
    TRIAL :  cpu time    232.3712: real time    232.3316
    CORREC:  cpu time    234.1370: real time    234.0985
    CHARGE:  cpu time      0.2268: real time      0.2268
    --------------------------------------------
      LOOP:  cpu time    468.6639: real time    468.5904

 eigenvalue-minimisations  :     0
 total energy-change (2. order) :-0.7741013E+01  (-0.3007484E+01)
 number of electron    1055.9998540 magnetization 
 augmentation part      460.8161776 magnetization 

 Free energy of the ion-electron system (eV)
  ---------------------------------------------------
  alpha Z        PSCENC =      5537.53060054
  Ewald energy   TEWEN  =    -88891.37402132
  -Hartree energ DENC   =    -33855.45773828
  -exchange      EXHF   =      3890.77649521
  -V(xc)+E(xc)   XCENC  =      2916.92385856
  PAW double counting   =    121650.44486150  -137275.71233654
  entropy T*S    EENTRO =        -0.00000000
  eigenvalues    EBANDS =     -8827.69450057
  atomic energy  EATOM  =    133901.37115015
  ---------------------------------------------------
  free energy    TOTEN  =      -953.19163074 eV

  energy without entropy =     -953.19163074  energy(sigma->0) =     -953.19163074
  exchange ACFDT corr.  =        -0.00000000  see jH, gK, PRB 81, 115126


--------------------------------------------------------------------------------------------------------




--------------------------------------- Iteration      1(  17)  ---------------------------------------


    POTLOK:  cpu time      1.4911: real time      1.4909
    SETDIJ:  cpu time      0.4705: real time      0.4704
    TRIAL :  cpu time    232.3712: real time    232.3354
    CORREC:  cpu time    234.1109: real time    234.0785
    CHARGE:  cpu time      0.2286: real time      0.2286
    --------------------------------------------
      LOOP:  cpu time    468.6726: real time    468.6043

 eigenvalue-minimisations  :     0
 total energy-change (2. order) :-0.3008737E+01  (-0.1269249E+01)
 number of electron    1055.9998552 magnetization 
 augmentation part      460.7106302 magnetization 

 Free energy of the ion-electron system (eV)
  ---------------------------------------------------
  alpha Z        PSCENC =      5537.53060054
  Ewald energy   TEWEN  =    -88891.37402132
  -Hartree energ DENC   =    -33822.51288057
  -exchange      EXHF   =      3891.21367924
  -V(xc)+E(xc)   XCENC  =      2916.25099281
  PAW double counting   =    121459.98149163  -137042.91085406
  entropy T*S    EENTRO =        -0.00000000
  eigenvalues    EBANDS =     -8905.75052654
  atomic energy  EATOM  =    133901.37115015
  ---------------------------------------------------
  free energy    TOTEN  =      -956.20036811 eV

  energy without entropy =     -956.20036811  energy(sigma->0) =     -956.20036811
  exchange ACFDT corr.  =         0.00000000  see jH, gK, PRB 81, 115126


--------------------------------------------------------------------------------------------------------




--------------------------------------- Iteration      1(  18)  ---------------------------------------


    POTLOK:  cpu time      1.4932: real time      1.4930
    SETDIJ:  cpu time      0.4369: real time      0.4368
    TRIAL :  cpu time    232.4574: real time    232.4170
    CORREC:  cpu time    233.9562: real time    233.9195
    CHARGE:  cpu time      0.2270: real time      0.2270
    --------------------------------------------
      LOOP:  cpu time    468.5720: real time    468.4950

 eigenvalue-minimisations  :     0
 total energy-change (2. order) :-0.1269763E+01  (-0.5064623E+00)
 number of electron    1055.9998559 magnetization 
 augmentation part      460.8380573 magnetization 

 Free energy of the ion-electron system (eV)
  ---------------------------------------------------
  alpha Z        PSCENC =      5537.53060054
  Ewald energy   TEWEN  =    -88891.37402132
  -Hartree energ DENC   =    -33862.12735739
  -exchange      EXHF   =      3894.50379924
  -V(xc)+E(xc)   XCENC  =      2918.23622650
  PAW double counting   =    121298.73083725  -136853.27426456
  entropy T*S    EENTRO =        -0.00000000
  eigenvalues    EBANDS =     -8901.06710179
  atomic energy  EATOM  =    133901.37115015
  ---------------------------------------------------
  free energy    TOTEN  =      -957.47013137 eV

  energy without entropy =     -957.47013137  energy(sigma->0) =     -957.47013137
  exchange ACFDT corr.  =        -0.00000000  see jH, gK, PRB 81, 115126


--------------------------------------------------------------------------------------------------------




--------------------------------------- Iteration      1(  19)  ---------------------------------------


    POTLOK:  cpu time      1.5036: real time      1.5034
    SETDIJ:  cpu time      0.4650: real time      0.4649
    TRIAL :  cpu time    232.3914: real time    232.3516
    CORREC:  cpu time    234.1768: real time    234.1350
    CHARGE:  cpu time      0.2271: real time      0.2271
    --------------------------------------------
      LOOP:  cpu time    468.7648: real time    468.6832

 eigenvalue-minimisations  :     0
 total energy-change (2. order) :-0.5062114E+00  (-0.2088304E+00)
 number of electron    1055.9998558 magnetization 
 augmentation part      460.8247228 magnetization 

 Free energy of the ion-electron system (eV)
  ---------------------------------------------------
  alpha Z        PSCENC =      5537.53060054
  Ewald energy   TEWEN  =    -88891.37402132
  -Hartree energ DENC   =    -33891.76805546
[...]
   -.949E-04 0.464E+02 -.295E+02   -.103E-12 -.442E+02 0.312E+02   0.148E-20 -.189E+01 -.160E+01
   0.397E-03 0.464E+02 -.295E+02   -.213E-13 -.442E+02 0.312E+02   -.212E-21 -.189E+01 -.160E+01
   -.169E-04 0.464E+02 -.295E+02   -.657E-10 -.442E+02 0.312E+02   0.000E+00 -.189E+01 -.160E+01
   -.455E-03 0.464E+02 -.295E+02   -.657E-10 -.442E+02 0.312E+02   -.318E-21 -.189E+01 -.160E+01
   0.502E-04 -.177E+02 0.146E+02   0.388E-10 0.250E+02 -.183E+02   -.265E-22 -.631E+01 0.324E+01
   0.201E-04 -.177E+02 0.146E+02   0.388E-10 0.250E+02 -.183E+02   -.212E-21 -.631E+01 0.324E+01
   0.323E-04 -.177E+02 0.146E+02   -.480E-13 0.250E+02 -.183E+02   -.109E-21 -.631E+01 0.324E+01
   0.233E-04 -.177E+02 0.146E+02   0.320E-13 0.250E+02 -.183E+02   0.159E-21 -.631E+01 0.324E+01
   -.895E-04 -.177E+02 0.146E+02   -.388E-10 0.250E+02 -.183E+02   0.106E-21 -.631E+01 0.324E+01
   -.503E-04 -.177E+02 0.146E+02   -.388E-10 0.250E+02 -.183E+02   0.695E-22 -.631E+01 0.324E+01
   0.137E-04 0.177E+02 -.146E+02   -.697E-13 -.250E+02 0.183E+02   0.000E+00 0.631E+01 -.324E+01
   0.163E-04 0.177E+02 -.146E+02   -.857E-13 -.250E+02 0.183E+02   -.529E-22 0.631E+01 -.324E+01
   0.127E-04 0.177E+02 -.146E+02   -.388E-10 -.250E+02 0.183E+02   0.000E+00 0.631E+01 -.324E+01
   -.550E-04 0.177E+02 -.146E+02   -.389E-10 -.250E+02 0.183E+02   -.397E-22 0.631E+01 -.324E+01
   -.162E-04 0.177E+02 -.146E+02   0.387E-10 -.250E+02 0.183E+02   -.106E-21 0.631E+01 -.324E+01
   0.328E-04 0.177E+02 -.146E+02   0.387E-10 -.250E+02 0.183E+02   0.165E-22 0.631E+01 -.324E+01
   0.764E-04 0.660E+02 0.376E+02   0.293E-10 -.640E+02 -.329E+02   -.529E-22 -.173E+01 -.403E+01
   -.848E-04 0.660E+02 0.376E+02   0.293E-10 -.640E+02 -.329E+02   -.142E-21 -.173E+01 -.403E+01
   -.566E-04 0.660E+02 0.376E+02   0.295E-13 -.640E+02 -.329E+02   0.529E-22 -.173E+01 -.403E+01
   0.315E-04 0.660E+02 0.376E+02   0.295E-13 -.640E+02 -.329E+02   0.106E-21 -.173E+01 -.403E+01
   -.273E-04 0.660E+02 0.376E+02   -.292E-10 -.640E+02 -.329E+02   -.106E-21 -.173E+01 -.403E+01
   0.358E-04 0.660E+02 0.376E+02   -.292E-10 -.640E+02 -.329E+02   -.910E-23 -.173E+01 -.403E+01
   0.509E-04 -.660E+02 -.376E+02   -.577E-14 0.640E+02 0.329E+02   -.529E-22 0.173E+01 0.403E+01
   0.785E-04 -.660E+02 -.376E+02   0.666E-14 0.640E+02 0.329E+02   0.397E-22 0.173E+01 0.403E+01
   0.419E-04 -.660E+02 -.376E+02   -.292E-10 0.640E+02 0.329E+02   0.106E-21 0.173E+01 0.403E+01
   -.702E-04 -.660E+02 -.376E+02   -.292E-10 0.640E+02 0.329E+02   0.212E-21 0.173E+01 0.403E+01
   -.103E-03 -.660E+02 -.376E+02   0.293E-10 0.640E+02 0.329E+02   -.106E-21 0.173E+01 0.403E+01
   -.265E-05 -.660E+02 -.376E+02   0.293E-10 0.640E+02 0.329E+02   -.265E-21 0.173E+01 0.403E+01
   0.476E-04 0.121E+03 0.632E+02   0.320E-13 -.134E+03 -.597E+02   0.424E-21 0.109E+02 -.300E+01
   0.760E-05 0.121E+03 0.632E+02   -.444E-14 -.134E+03 -.597E+02   -.318E-21 0.109E+02 -.300E+01
   -.602E-04 0.121E+03 0.632E+02   -.330E-10 -.134E+03 -.597E+02   -.185E-21 0.109E+02 -.300E+01
   0.263E-04 0.121E+03 0.632E+02   -.330E-10 -.134E+03 -.597E+02   -.371E-21 0.109E+02 -.300E+01
   0.864E-05 0.121E+03 0.632E+02   0.330E-10 -.134E+03 -.597E+02   -.397E-21 0.109E+02 -.300E+01
   0.226E-05 0.121E+03 0.632E+02   0.330E-10 -.134E+03 -.597E+02   -.794E-22 0.109E+02 -.300E+01
   0.294E-04 -.121E+03 -.632E+02   0.328E-10 0.134E+03 0.597E+02   0.794E-22 -.109E+02 0.300E+01
   0.406E-04 -.121E+03 -.632E+02   0.328E-10 0.134E+03 0.597E+02   0.212E-21 -.109E+02 0.300E+01
   0.189E-04 -.121E+03 -.632E+02   0.606E-13 0.134E+03 0.597E+02   -.344E-21 -.109E+02 0.300E+01
   -.158E-04 -.121E+03 -.632E+02   0.608E-13 0.134E+03 0.597E+02   0.000E+00 -.109E+02 0.300E+01
   -.277E-04 -.121E+03 -.632E+02   -.327E-10 0.134E+03 0.597E+02   -.116E-21 -.109E+02 0.300E+01
   -.191E-04 -.121E+03 -.632E+02   -.327E-10 0.134E+03 0.597E+02   0.106E-21 -.109E+02 0.300E+01
   0.564E-04 -.177E+02 0.146E+02   -.295E-13 0.250E+02 -.183E+02   0.794E-22 -.631E+01 0.324E+01
   -.345E-04 -.177E+02 0.146E+02   -.666E-13 0.250E+02 -.183E+02   -.212E-21 -.631E+01 0.324E+01
   -.252E-05 -.177E+02 0.146E+02   -.388E-10 0.250E+02 -.183E+02   -.250E-21 -.631E+01 0.324E+01
   -.791E-05 -.177E+02 0.146E+02   -.389E-10 0.250E+02 -.183E+02   0.132E-21 -.631E+01 0.324E+01
   -.618E-04 -.177E+02 0.146E+02   0.388E-10 0.250E+02 -.183E+02   0.132E-22 -.631E+01 0.324E+01
   0.449E-04 -.177E+02 0.146E+02   0.388E-10 0.250E+02 -.183E+02   0.000E+00 -.631E+01 0.324E+01
   0.181E-04 0.177E+02 -.146E+02   0.388E-10 -.250E+02 0.183E+02   -.265E-22 0.631E+01 -.324E+01
   0.609E-04 0.177E+02 -.146E+02   0.387E-10 -.250E+02 0.183E+02   -.707E-22 0.631E+01 -.324E+01
   0.280E-04 0.177E+02 -.146E+02   -.746E-13 -.250E+02 0.183E+02   0.106E-21 0.631E+01 -.324E+01
   0.885E-05 0.177E+02 -.146E+02   -.462E-13 -.250E+02 0.183E+02   -.529E-22 0.631E+01 -.324E+01
   -.443E-04 0.177E+02 -.146E+02   -.389E-10 -.250E+02 0.183E+02   -.794E-22 0.631E+01 -.324E+01
   -.711E-04 0.177E+02 -.146E+02   -.388E-10 -.250E+02 0.183E+02   -.159E-21 0.631E+01 -.324E+01
   0.151E-04 0.660E+02 0.376E+02   0.373E-13 -.640E+02 -.329E+02   0.000E+00 -.173E+01 -.403E+01
   0.691E-04 0.660E+02 0.376E+02   0.515E-13 -.640E+02 -.329E+02   0.529E-22 -.173E+01 -.403E+01
   -.499E-04 0.660E+02 0.376E+02   -.291E-10 -.640E+02 -.329E+02   0.000E+00 -.173E+01 -.403E+01
   0.419E-04 0.660E+02 0.376E+02   -.292E-10 -.640E+02 -.329E+02   0.529E-22 -.173E+01 -.403E+01
   0.238E-04 0.660E+02 0.376E+02   0.293E-10 -.640E+02 -.329E+02   -.106E-21 -.173E+01 -.403E+01
   -.973E-04 0.660E+02 0.376E+02   0.293E-10 -.640E+02 -.329E+02   -.662E-22 -.173E+01 -.403E+01
   -.225E-04 -.660E+02 -.376E+02   0.293E-10 0.640E+02 0.329E+02   0.212E-21 0.173E+01 0.403E+01
   -.251E-04 -.660E+02 -.376E+02   0.293E-10 0.640E+02 0.329E+02   -.159E-21 0.173E+01 0.403E+01
   -.160E-04 -.660E+02 -.376E+02   0.391E-13 0.640E+02 0.329E+02   0.000E+00 0.173E+01 0.403E+01
   0.668E-04 -.660E+02 -.376E+02   0.391E-13 0.640E+02 0.329E+02   0.106E-21 0.173E+01 0.403E+01
   0.399E-04 -.660E+02 -.376E+02   -.292E-10 0.640E+02 0.329E+02   -.397E-22 0.173E+01 0.403E+01
   -.403E-04 -.660E+02 -.376E+02   -.292E-10 0.640E+02 0.329E+02   -.185E-21 0.173E+01 0.403E+01
   -.558E-05 0.121E+03 0.632E+02   0.330E-10 -.134E+03 -.597E+02   -.212E-21 0.109E+02 -.300E+01
   0.378E-04 0.121E+03 0.632E+02   0.330E-10 -.134E+03 -.597E+02   -.529E-22 0.109E+02 -.300E+01
   0.373E-04 0.121E+03 0.632E+02   -.142E-13 -.134E+03 -.597E+02   -.582E-21 0.109E+02 -.300E+01
   -.442E-04 0.121E+03 0.632E+02   0.142E-13 -.134E+03 -.597E+02   -.794E-22 0.109E+02 -.300E+01
   -.385E-04 0.121E+03 0.632E+02   -.330E-10 -.134E+03 -.597E+02   0.291E-21 0.109E+02 -.300E+01
   0.326E-04 0.121E+03 0.632E+02   -.330E-10 -.134E+03 -.597E+02   0.794E-22 0.109E+02 -.300E+01
   0.256E-04 -.121E+03 -.632E+02   0.488E-13 0.134E+03 0.597E+02   0.159E-21 -.109E+02 0.300E+01
   0.210E-04 -.121E+03 -.632E+02   0.639E-13 0.134E+03 0.597E+02   -.132E-21 -.109E+02 0.300E+01
   -.237E-04 -.121E+03 -.632E+02   -.327E-10 0.134E+03 0.597E+02   0.000E+00 -.109E+02 0.300E+01
   -.180E-04 -.121E+03 -.632E+02   -.327E-10 0.134E+03 0.597E+02   0.212E-21 -.109E+02 0.300E+01
   -.287E-04 -.121E+03 -.632E+02   0.328E-10 0.134E+03 0.597E+02   -.291E-21 -.109E+02 0.300E+01
   -.104E-04 -.121E+03 -.632E+02   0.328E-10 0.134E+03 0.597E+02   0.106E-21 -.109E+02 0.300E+01
 -----------------------------------------------------------------------------------------------
   0.417E-04 0.227E-03 -.803E-04   -.438E-13 -.568E-13 -.279E-11   -.101E-19 -.355E-14 0.666E-14
 
 
 POSITION                                       TOTAL-FORCE (eV/Angst)
 -----------------------------------------------------------------------------------
      0.00000      7.65951     -1.76963         0.000000      0.072165      0.004761
      0.00000      6.27538     -7.41997        -0.000000      0.072165      0.004761
      3.04757      7.65951     -1.76963        -0.000000      0.072165      0.004761
      3.04757      6.27538     -7.41997        -0.000000      0.072165      0.004761
      6.09513      7.65951     -1.76963         0.000000      0.072165      0.004761
      6.09513      6.27538     -7.41997        -0.000000      0.072165      0.004761
      1.52378      9.37707     -3.88072        -0.000000     -0.072165     -0.004761
      1.52378      7.99294     -9.53107        -0.000000     -0.072165     -0.004761
      4.57135      9.37707     -3.88072         0.000000     -0.072165     -0.004761
      4.57135      7.99294     -9.53107        -0.000000     -0.072165     -0.004761
      7.61892      9.37707     -3.88072        -0.000000     -0.072165     -0.004761
      7.61892      7.99294     -9.53107         0.000000     -0.072165     -0.004761
      1.52378      6.15825     -4.49291        -0.000000     -0.022727      0.009592
      1.52378      4.77412    -10.14326         0.000000     -0.022727      0.009592
      4.57135      6.15825     -4.49291        -0.000000     -0.022727      0.009592
      4.57135      4.77412    -10.14326         0.000000     -0.022727      0.009592
      7.61892      6.15825     -4.49291         0.000000     -0.022727      0.009592
      7.61892      4.77412    -10.14326         0.000000     -0.022727      0.009592
      0.00000     10.87833     -1.15744        -0.000000      0.022727     -0.009592
      0.00000      9.49420     -6.80779         0.000000      0.022727     -0.009592
      3.04757     10.87833     -1.15744        -0.000000      0.022727     -0.009592
      3.04757      9.49420     -6.80779        -0.000000      0.022727     -0.009592
      6.09513     10.87833     -1.15744         0.000000      0.022727     -0.009592
      6.09513      9.49420     -6.80779         0.000000      0.022727     -0.009592
      1.52378      1.51927     -1.76963         0.000000      0.072165      0.004761
      1.52378      0.13514     -7.41997         0.000000      0.072165      0.004761
      4.57135      1.51927     -1.76963        -0.000000      0.072165      0.004761
      4.57135      0.13514     -7.41997         0.000000      0.072165      0.004761
      7.61892      1.51927     -1.76963         0.000000      0.072165      0.004761
      7.61892      0.13514     -7.41997         0.000000      0.072165      0.004761
      0.00000      3.23684     -3.88072        -0.000000     -0.072165     -0.004761
      0.00000      1.85271     -9.53107         0.000000     -0.072165     -0.004761
      3.04757      3.23684     -3.88072        -0.000000     -0.072165     -0.004761
      3.04757      1.85271     -9.53107        -0.000000     -0.072165     -0.004761
      6.09513      3.23684     -3.88072         0.000000     -0.072165     -0.004761
      6.09513      1.85271     -9.53107         0.000000     -0.072165     -0.004761
      0.00000      0.01801     -4.49291        -0.000000     -0.022727      0.009592
      0.00000     -1.36612    -10.14326         0.000000     -0.022727      0.009592
      3.04757      0.01801     -4.49291         0.000000     -0.022727      0.009592
      3.04757     -1.36612    -10.14326        -0.000000     -0.022727      0.009592
      6.09513      0.01801     -4.49291         0.000000     -0.022727      0.009592
      6.09513     -1.36612    -10.14326        -0.000000     -0.022727      0.009592
      1.52378      4.73810     -1.15744         0.000000      0.022727     -0.009592
      1.52378      3.35396     -6.80779         0.000000      0.022727     -0.009592
      4.57135      4.73810     -1.15744         0.000000      0.022727     -0.009592
      4.57135      3.35396     -6.80779        -0.000000      0.022727     -0.009592
      7.61892      4.73810     -1.15744         0.000000      0.022727     -0.009592
      7.61892      3.35396     -6.80779        -0.000000      0.022727     -0.009592
      1.52378     11.88364     -1.43776         0.000000     -0.170354      0.114007
      1.52378     10.49951     -7.08811         0.000000     -0.170354      0.114007
      4.57135     11.88364     -1.43776         0.000000     -0.170354      0.114007
      4.57135     10.49951     -7.08811         0.000000     -0.170354      0.114007
      7.61892     11.88364     -1.43776        -0.000000     -0.170354      0.114007
      7.61892     10.49951     -7.08811         0.000000     -0.170354      0.114007
      0.00000      5.15294     -4.21259        -0.000000      0.170354     -0.114007
      0.00000      3.76881     -9.86294        -0.000000      0.170354     -0.114007
      3.04757      5.15294     -4.21259        -0.000000      0.170354     -0.114007
      3.04757      3.76881     -9.86294         0.000000      0.170354     -0.114007
      6.09513      5.15294     -4.21259        -0.000000      0.170354     -0.114007
      6.09513      3.76881     -9.86294        -0.000000      0.170354     -0.114007
      1.52378      7.48286     -3.16867         0.000000     -0.038178     -0.112575
      1.52378      6.09873     -8.81902         0.000000     -0.038178     -0.112575
      4.57135      7.48286     -3.16867        -0.000000     -0.038178     -0.112575
      4.57135      6.09873     -8.81902        -0.000000     -0.038178     -0.112575
      7.61892      7.48286     -3.16867        -0.000000     -0.038178     -0.112575
      7.61892      6.09873     -8.81902        -0.000000     -0.038178     -0.112575
      0.00000      9.55372     -2.48168         0.000000      0.038178      0.112575
      0.00000      8.16958     -8.13203         0.000000      0.038178      0.112575
      3.04757      9.55372     -2.48168         0.000000      0.038178      0.112575
      3.04757      8.16958     -8.13203        -0.000000      0.038178      0.112575
      6.09513      9.55372     -2.48168        -0.000000      0.038178      0.112575
      6.09513      8.16958     -8.13203         0.000000      0.038178      0.112575
      0.00000      8.98430     -5.03794        -0.000000      0.399402     -0.073629
      0.00000      7.60017    -10.68829        -0.000000      0.399402     -0.073629
      3.04757      8.98430     -5.03794         0.000000      0.399402     -0.073629
      3.04757      7.60017    -10.68829         0.000000      0.399402     -0.073629
      6.09513      8.98430     -5.03794        -0.000000      0.399402     -0.073629
      6.09513      7.60017    -10.68829        -0.000000      0.399402     -0.073629
      1.52378      8.05228     -0.61240         0.000000     -0.399402      0.073629
      1.52378      6.66815     -6.26275         0.000000     -0.399402      0.073629
      4.57135      8.05228     -0.61240        -0.000000     -0.399402      0.073629
      4.57135      6.66815     -6.26275         0.000000     -0.399402      0.073629
      7.61892      8.05228     -0.61240         0.000000     -0.399402      0.073629
      7.61892      6.66815     -6.26275         0.000000     -0.399402      0.073629
      0.00000      5.74340     -1.43776        -0.000000     -0.170354      0.114007
      0.00000      4.35927     -7.08811         0.000000     -0.170354      0.114007
      3.04757      5.74340     -1.43776        -0.000000     -0.170354      0.114007
      3.04757      4.35927     -7.08811         0.000000     -0.170354      0.114007
      6.09513      5.74340     -1.43776        -0.000000     -0.170354      0.114007
      6.09513      4.35927     -7.08811         0.000000     -0.170354      0.114007
      1.52378     -0.98730     -4.21259        -0.000000      0.170354     -0.114007
      1.52378     -2.37143     -9.86294        -0.000000      0.170354     -0.114007
      4.57135     -0.98730     -4.21259        -0.000000      0.170354     -0.114007
      4.57135     -2.37143     -9.86294        -0.000000      0.170354     -0.114007
      7.61892     -0.98730     -4.21259         0.000000      0.170354     -0.114007
      7.61892     -2.37143     -9.86294         0.000000      0.170354     -0.114007
      0.00000      1.34263     -3.16867         0.000000     -0.038178     -0.112575
      0.00000     -0.04150     -8.81902         0.000000     -0.038178     -0.112575
      3.04757      1.34263     -3.16867        -0.000000     -0.038178     -0.112575
      3.04757     -0.04150     -8.81902         0.000000     -0.038178     -0.112575
      6.09513      1.34263     -3.16867         0.000000     -0.038178     -0.112575
      6.09513     -0.04150     -8.81902         0.000000     -0.038178     -0.112575
      1.52378      3.41348     -2.48168         0.000000      0.038178      0.112575
      1.52378      2.02935     -8.13203         0.000000      0.038178      0.112575
      4.57135      3.41348     -2.48168         0.000000      0.038178      0.112575
      4.57135      2.02935     -8.13203        -0.000000      0.038178      0.112575
      7.61892      3.41348     -2.48168         0.000000      0.038178      0.112575
      7.61892      2.02935     -8.13203        -0.000000      0.038178      0.112575
      1.52378      2.84406     -5.03794         0.000000      0.399402     -0.073629
      1.52378      1.45993    -10.68829        -0.000000      0.399402     -0.073629
      4.57135      2.84406     -5.03794         0.000000      0.399402     -0.073629
      4.57135      1.45993    -10.68829         0.000000      0.399402     -0.073629
      7.61892      2.84406     -5.03794         0.000000      0.399402     -0.073629
      7.61892      1.45993    -10.68829         0.000000      0.399402     -0.073629
      0.00000      1.91204     -0.61240        -0.000000     -0.399402      0.073629
      0.00000      0.52791     -6.26275         0.000000     -0.399402      0.073629
      3.04757      1.91204     -0.61240        -0.000000     -0.399402      0.073629
      3.04757      0.52791     -6.26275         0.000000     -0.399402      0.073629
      6.09513      1.91204     -0.61240         0.000000     -0.399402      0.073629
      6.09513      0.52791     -6.26275         0.000000     -0.399402      0.073629
 -----------------------------------------------------------------------------------
    total drift:                                0.000042      0.000227     -0.000080


--------------------------------------------------------------------------------------------------------



  FREE ENERGIE OF THE ION-ELECTRON SYSTEM (eV)
  ---------------------------------------------------
  free  energy   TOTEN  =      -958.32003527 eV

  energy  without entropy=     -958.32003527  energy(sigma->0) =     -958.32003527
 


--------------------------------------------------------------------------------------------------------


    POTLOK:  cpu time      1.9164: real time      1.9208


--------------------------------------------------------------------------------------------------------


 writing wavefunctions
     LOOP+:  cpu time  13731.9253: real time  13729.8238
    4ORBIT:  cpu time      0.0000: real time      0.0000

 total amount of memory used by VASP MPI-rank0  7500360. kBytes
=======================================================================

   base      :      30000. kBytes
   nonlr-proj:      47043. kBytes
   fftplans  :      51012. kBytes
   grid      :      90980. kBytes
   one-center:       1866. kBytes
   HF        :        129. kBytes
   wavefun   :    7050060. kBytes
   fock_wrk  :     229270. kBytes
 
  
  
 General timing and accounting informations for this job:
 ========================================================
  
                  Total CPU time used (sec):    13762.882
                            User time (sec):    13750.512
                          System time (sec):       12.370
                         Elapsed time (sec):    13762.440
  
                   Maximum memory used (kb):    13301056.
                   Average memory used (kb):          N/A
  
                          Minor page faults:      4941422
                          Major page faults:            2
                 Voluntary context switches:       252852
