<?xml version="1.0" encoding="ISO-8859-1"?>
<modeling>
 <generator>
  <i name="program" type="string">vasp </i>
  <i name="version" type="string">6.4.2  </i>
  <i name="subversion" type="string">20Jul23 (build Nov 12 2023 22:16:35) complex                          parallel </i>
  <i name="platform" type="string">LinuxNV </i>
  <i name="date" type="string">2025 03 14 </i>
  <i name="time" type="string">17:47:31 </i>
 </generator>
 <incar>
  <i type="int" name="ISTART">     0</i>
  <i type="string" name="PREC">Normal</i>
  <i type="string" name="ALGO">All</i>
  <i type="int" name="ISPIN">     1</i>
  <i type="int" name="ICHARG">     0</i>
  <i type="int" name="NELM">   500</i>
  <i type="int" name="IBRION">    -1</i>
  <i name="EDIFF">      0.00001000</i>
  <i name="EDIFFG">     -0.00500000</i>
  <i type="int" name="NSW">     0</i>
  <i type="int" name="ISIF">     2</i>
  <i name="ENCUT">    450.00000000</i>
  <i type="string" name="LREAL">Auto</i>
  <i type="logical" name="LPLANE"> T  </i>
  <i name="TIME">      0.40000000</i>
  <i type="int" name="ISMEAR">     0</i>
  <i name="SIGMA">      0.05000000</i>
  <i type="logical" name="LWAVE"> T  </i>
  <i type="logical" name="LCHARG"> T  </i>
  <i name="HFSCREEN">      0.20000000</i>
  <i type="logical" name="LHFCALC"> T  </i>
  <i type="int" name="LMAXFOCK">     4</i>
  <i name="AEXX">      0.32000000</i>
  <i type="string" name="PRECFOCK">Fast</i>
 </incar>
 <primitive_cell>
  <structure name="primitive_cell" >
   <crystal>
    <varray name="basis" >
     <v>      -1.52378368       6.14023671       0.00000000 </v>
     <v>       1.52378368       6.14023671       0.00000000 </v>
     <v>       0.00000000      -1.38413089      -5.65034886 </v>
    </varray>
    <i name="volume">    105.73376294 </i>
    <varray name="rec_basis" >
     <v>      -0.32813057       0.08143009      -0.01994742 </v>
     <v>       0.32813057       0.08143009      -0.01994742 </v>
     <v>       0.00000000       0.00000000      -0.17698022 </v>
    </varray>
   </crystal>
   <varray name="positions" >
    <v>       0.65901370       0.65901370       0.31318875 </v>
    <v>       0.34098630       0.34098630       0.68681125 </v>
    <v>       0.09108851       0.09108851       0.79515605 </v>
    <v>       0.90891149       0.90891149       0.20484395 </v>
    <v>       0.49636539       0.49636539       0.25445541 </v>
    <v>       0.50363461       0.50363461       0.74554459 </v>
    <v>       0.17253705       0.17253705       0.56079227 </v>
    <v>       0.82746295       0.82746295       0.43920773 </v>
    <v>       0.83208626       0.83208626       0.89161646 </v>
    <v>       0.16791374       0.16791374       0.10838354 </v>
   </varray>
  </structure>
  <varray name="primitive_index" >
   <v type="int" >        1 </v>
   <v type="int" >        7 </v>
   <v type="int" >       13 </v>
   <v type="int" >       19 </v>
   <v type="int" >       85 </v>
   <v type="int" >       55 </v>
   <v type="int" >       61 </v>
   <v type="int" >       67 </v>
   <v type="int" >       74 </v>
   <v type="int" >       79 </v>
  </varray>
 </primitive_cell>
 <kpoints>
  <generation param="Gamma">
   <v type="int" name="divisions">       2        2        2 </v>
   <v name="usershift">      0.00000000       0.00000000       0.00000000 </v>
   <v name="genvec1">      0.50000000       0.00000000       0.00000000 </v>
   <v name="genvec2">      0.00000000       0.50000000       0.00000000 </v>
   <v name="genvec3">      0.00000000       0.00000000       0.50000000 </v>
   <v name="shift">      0.00000000       0.00000000       0.00000000 </v>
  </generation>
  <varray name="kpointlist" >
   <v>       0.00000000       0.00000000       0.00000000 </v>
   <v>       0.50000000       0.00000000       0.00000000 </v>
   <v>       0.00000000       0.50000000       0.00000000 </v>
   <v>       0.50000000       0.50000000       0.00000000 </v>
   <v>       0.00000000       0.00000000       0.50000000 </v>
   <v>       0.50000000       0.00000000       0.50000000 </v>
   <v>       0.00000000       0.50000000       0.50000000 </v>
   <v>       0.50000000       0.50000000       0.50000000 </v>
  </varray>
  <varray name="weights" >
   <v>       0.12500000 </v>
   <v>       0.12500000 </v>
   <v>       0.12500000 </v>
   <v>       0.12500000 </v>
   <v>       0.12500000 </v>
   <v>       0.12500000 </v>
   <v>       0.12500000 </v>
   <v>       0.12500000 </v>
  </varray>
 </kpoints>
 <parameters>
  <separator name="general" >
   <i type="string" name="SYSTEM">unknown system</i>
   <i type="logical" name="LCOMPAT"> F  </i>
  </separator>
  <separator name="electronic" >
   <i type="string" name="PREC">normal</i>
   <i name="ENMAX">    450.00000000</i>
   <i name="ENAUG">    605.39200000</i>
   <i name="EDIFF">      0.00001000</i>
   <i type="int" name="IALGO">    58</i>
   <i type="int" name="IWAVPR">    10</i>
   <i type="int" name="NBANDS">   633</i>
   <i type="int" name="NBANDSLOW">    -1</i>
   <i type="int" name="NBANDSHIGH">    -1</i>
   <i name="NELECT">   1056.00000000</i>
   <i type="int" name="TURBO">     0</i>
   <i type="int" name="IRESTART">     0</i>
   <i type="int" name="NREBOOT">     0</i>
   <i type="int" name="NMIN">     0</i>
   <i name="EREF">      0.00000000</i>
   <separator name="electronic smearing" >
    <i type="int" name="ISMEAR">     0</i>
    <i name="SIGMA">      0.05000000</i>
    <i name="KSPACING">      0.50000000</i>
    <i type="logical" name="KGAMMA"> T  </i>
    <i type="logical" name="KBLOWUP"> T  </i>
   </separator>
   <separator name="electronic projectors" >
    <i type="logical" name="LREAL"> T  </i>
    <v name="ROPT">     -0.00050000     -0.00050000</v>
    <i type="int" name="LMAXPAW">  -100</i>
    <i type="int" name="LMAXMIX">     2</i>
    <i type="logical" name="NLSPLINE"> F  </i>
   </separator>
   <separator name="electronic startup" >
    <i type="int" name="ISTART">     0</i>
    <i type="int" name="ICHARG">     0</i>
    <i type="int" name="INIWAV">     1</i>
   </separator>
   <separator name="electronic spin" >
    <i type="int" name="ISPIN">     1</i>
    <i type="logical" name="LNONCOLLINEAR"> F  </i>
    <v name="MAGMOM">      1.00000000      1.00000000      1.00000000      1.00000000      1.00000000      1.00000000      1.00000000      1.00000000      1.00000000      1.00000000      1.00000000      1.00000000      1.00000000      1.00000000      1.00000000      1.00000000      1.00000000      1.00000000      1.00000000      1.00000000
      1.00000000      1.00000000      1.00000000      1.00000000      1.00000000      1.00000000      1.00000000      1.00000000      1.00000000      1.00000000      1.00000000      1.00000000      1.00000000      1.00000000      1.00000000      1.00000000      1.00000000      1.00000000      1.00000000      1.00000000
      1.00000000      1.00000000      1.00000000      1.00000000      1.00000000      1.00000000      1.00000000      1.00000000      1.00000000      1.00000000      1.00000000      1.00000000      1.00000000      1.00000000      1.00000000      1.00000000      1.00000000      1.00000000      1.00000000      1.00000000
      1.00000000      1.00000000      1.00000000      1.00000000      1.00000000      1.00000000      1.00000000      1.00000000      1.00000000      1.00000000      1.00000000      1.00000000      1.00000000      1.00000000      1.00000000      1.00000000      1.00000000      1.00000000      1.00000000      1.00000000
      1.00000000      1.00000000      1.00000000      1.00000000      1.00000000      1.00000000      1.00000000      1.00000000      1.00000000      1.00000000      1.00000000      1.00000000      1.00000000      1.00000000      1.00000000      1.00000000      1.00000000      1.00000000      1.00000000      1.00000000
      1.00000000      1.00000000      1.00000000      1.00000000      1.00000000      1.00000000      1.00000000      1.00000000      1.00000000      1.00000000      1.00000000      1.00000000      1.00000000      1.00000000      1.00000000      1.00000000      1.00000000      1.00000000      1.00000000      1.00000000
</v>
    <i name="NUPDOWN">     -1.00000000</i>
    <i type="logical" name="LSORBIT"> F  </i>
    <v name="SAXIS">      0.00000000      0.00000000      1.00000000</v>
    <i type="logical" name="LSPIRAL"> F  </i>
    <v name="QSPIRAL">      0.00000000      0.00000000      0.00000000</v>
    <i type="logical" name="LZEROZ"> F  </i>
   </separator>
   <separator name="electronic exchange-correlation" >
    <i type="logical" name="LASPH"> F  </i>
    <i type="logical" name="LMETAGGA"> F  </i>
   </separator>
   <separator name="electronic convergence" >
    <i type="int" name="NELM">   500</i>
    <i type="int" name="NELMDL">    -5</i>
    <i type="int" name="NELMIN">     2</i>
    <i name="ENINI">    450.00000000</i>
    <separator name="electronic convergence detail" >
     <i type="logical" name="LDIAG"> T  </i>
     <i type="logical" name="LSUBROT"> F  </i>
     <i name="WEIMIN">      0.00000000</i>
     <i name="EBREAK">      0.00000000</i>
     <i name="DEPER">      0.30000000</i>
     <i type="int" name="NRMM">     4</i>
     <i name="TIME">      0.40000000</i>
    </separator>
   </separator>
   <separator name="electronic mixer" >
    <i name="AMIX">      0.40000000</i>
    <i name="BMIX">      1.00000000</i>
    <i name="AMIN">      0.10000000</i>
    <i name="AMIX_MAG">      1.60000000</i>
    <i name="BMIX_MAG">      1.00000000</i>
    <separator name="electronic mixer details" >
     <i type="int" name="IMIX">     4</i>
     <i type="logical" name="MIXFIRST"> F  </i>
     <i type="int" name="MAXMIX">   -45</i>
     <i name="WC">    100.00000000</i>
     <i type="int" name="INIMIX">     1</i>
     <i type="int" name="MIXPRE">     1</i>
     <i type="int" name="MREMOVE">     5</i>
    </separator>
   </separator>
   <separator name="electronic dipolcorrection" >
    <i type="logical" name="LDIPOL"> F  </i>
    <i type="logical" name="LMONO"> F  </i>
    <i type="int" name="IDIPOL">     0</i>
    <i name="EPSILON">      1.00000000</i>
    <v name="DIPOL">   -100.00000000   -100.00000000   -100.00000000</v>
    <i name="EFIELD">      0.00000000</i>
   </separator>
  </separator>
  <separator name="grids" >
   <i type="int" name="NGX">    64</i>
   <i type="int" name="NGY">    48</i>
   <i type="int" name="NGZ">    60</i>
   <i type="int" name="NGXF">   128</i>
   <i type="int" name="NGYF">    96</i>
   <i type="int" name="NGZF">   120</i>
   <i type="logical" name="ADDGRID"> F  </i>
  </separator>
  <separator name="ionic" >
   <i type="int" name="NSW">     0</i>
   <i type="int" name="IBRION">    -1</i>
   <i type="int" name="MDALGO">     0</i>
   <i type="int" name="ISIF">     2</i>
   <i name="PSTRESS">      0.00000000</i>
   <i name="EDIFFG">     -0.00500000</i>
   <i type="int" name="NFREE">     0</i>
   <i name="POTIM">      0.50000000</i>
   <i name="SMASS">     -3.00000000</i>
   <i name="SCALEE">      1.00000000</i>
  </separator>
  <separator name="ionic md" >
   <i name="TEBEG">      0.00010000</i>
   <i name="TEEND">      0.00010000</i>
   <i type="int" name="NBLOCK">     1</i>
   <i type="int" name="KBLOCK">     1</i>
   <i type="int" name="NPACO">   256</i>
   <i name="APACO">     10.00000000</i>
  </separator>
  <separator name="symmetry" >
   <i type="int" name="ISYM">     3</i>
   <i name="SYMPREC">      0.00001000</i>
  </separator>
  <separator name="dos" >
   <i type="int" name="LORBIT">     0</i>
   <v name="RWIGS">     -1.00000000     -1.00000000</v>
   <i type="int" name="NEDOS">   301</i>
   <i name="EMIN">     10.00000000</i>
   <i name="EMAX">    -10.00000000</i>
   <i name="EFERMI">      0.00000000</i>
  </separator>
  <separator name="writing" >
   <i type="int" name="NWRITE">     2</i>
   <i type="logical" name="LWAVE"> T  </i>
   <i type="logical" name="LDOWNSAMPLE"> F  </i>
   <i type="logical" name="LCHARG"> T  </i>
   <i type="logical" name="LPARD"> F  </i>
   <i type="logical" name="LVTOT"> F  </i>
   <i type="logical" name="LVHAR"> F  </i>
   <i type="logical" name="LELF"> F  </i>
   <i type="logical" name="LOPTICS"> F  </i>
   <v name="STM">      0.00000000      0.00000000      0.00000000      0.00000000      0.00000000      0.00000000      0.00000000</v>
  </separator>
  <separator name="performance" >
   <i type="int" name="NPAR">     1</i>
   <i type="int" name="NSIM">     4</i>
   <i type="int" name="NBLK">    -1</i>
   <i type="logical" name="LPLANE"> T  </i>
   <i type="logical" name="LSCALAPACK"> T  </i>
   <i type="logical" name="LSCAAWARE"> F  </i>
   <i type="logical" name="LSCALU"> F  </i>
   <i type="logical" name="LASYNC"> F  </i>
   <i type="logical" name="LORBITALREAL"> F  </i>
  </separator>
  <separator name="miscellaneous" >
   <i type="int" name="IDIOT">     3</i>
   <i type="int" name="PHON_NSTRUCT">    -1</i>
   <i type="logical" name="LMUSIC"> F  </i>
   <v name="POMASS">     69.72300000     16.00000000</v>
   <v name="DARWINR">      0.00000000      0.00000000</v>
   <v name="DARWINV">      1.00000000      1.00000000</v>
   <i type="logical" name="LCORR"> T  </i>
  </separator>
  <i type="logical" name="GGA_COMPAT"> T  </i>
  <i type="logical" name="LBERRY"> F  </i>
  <i type="int" name="ICORELEVEL">     0</i>
  <i type="logical" name="LDAU"> F  </i>
  <i type="int" name="I_CONSTRAINED_M">     0</i>
  <separator name="electronic exchange-correlation" >
   <i type="string" name="GGA">--</i>
   <i type="int" name="VOSKOWN">     0</i>
   <i type="logical" name="LHFCALC"> T  </i>
   <i type="string" name="PRECFOCK">fast</i>
   <i type="logical" name="LSYMGRAD"> F  </i>
   <i type="logical" name="LHFONE"> F  </i>
   <i type="logical" name="LRHFCALC"> F  </i>
   <i type="logical" name="LTHOMAS"> F  </i>
   <i type="logical" name="LMODELHF"> F  </i>
   <i type="logical" name="LFOCKACE"> T  </i>
   <i name="ENCUT4O">     -1.00000000</i>
   <i type="int" name="EXXOEP">     0</i>
   <i type="int" name="FOURORBIT">     0</i>
   <i name="AEXX">      0.32000000</i>
   <i name="HFALPHA">     -1.00000000</i>
   <i name="MCALPHA">      0.00000000</i>
   <i name="ALDAX">      0.68000000</i>
   <i name="AGGAX">      0.68000000</i>
   <i name="ALDAC">      1.00000000</i>
   <i name="AGGAC">      1.00000000</i>
   <i type="int" name="NKREDX">     1</i>
   <i type="int" name="NKREDY">     1</i>
   <i type="int" name="NKREDZ">     1</i>
   <i type="logical" name="SHIFTRED"> F  </i>
   <i type="logical" name="ODDONLY"> F  </i>
   <i type="logical" name="EVENONLY"> F  </i>
   <i type="int" name="LMAXFOCK">     4</i>
   <i type="int" name="NMAXFOCKAE">     1</i>
   <i type="logical" name="LFOCKAEDFT"> F  </i>
   <i name="HFSCREEN">      0.20000000</i>
   <i name="HFSCREENC">      0.20000000</i>
   <i type="int" name="NBANDSGWLOW">     1</i>
  </separator>
  <separator name="vdW DFT" >
   <i type="logical" name="LUSE_VDW"> F  </i>
   <i type="int" name="IVDW_NL">     1</i>
   <i type="logical" name="LSPIN_VDW"> F  </i>
   <i name="Zab_VDW">     -0.84910000</i>
   <i name="PARAM1">      0.12340000</i>
   <i name="PARAM2">      1.00000000</i>
   <i name="PARAM3">      0.00000000</i>
  </separator>
  <separator name="model GW" >
   <i type="int" name="MODEL_GW">     0</i>
   <i name="MODEL_EPS0">      6.34402578</i>
   <i name="MODEL_ALPHA">      1.00000000</i>
  </separator>
  <separator name="linear response parameters" >
   <i type="logical" name="LEPSILON"> F  </i>
   <i type="logical" name="LRPA"> F  </i>
   <i type="logical" name="LNABLA"> F  </i>
   <i type="logical" name="LVEL"> F  </i>
   <i name="CSHIFT">      0.10000000</i>
   <i name="OMEGAMAX">     -1.00000000</i>
   <i name="DEG_THRESHOLD">      0.00200000</i>
   <i name="RTIME">     -0.10000000</i>
   <i name="WPLASMAI">      0.00000000</i>
   <v name="DFIELD">      0.00000000      0.00000000      0.00000000</v>
   <v name="WPLASMA">      0.00000000      0.00000000      0.00000000      0.00000000      0.00000000      0.00000000      0.00000000      0.00000000      0.00000000</v>
  </separator>
  <separator name="orbital magnetization" >
   <i type="logical" name="NUCIND"> F  </i>
   <v name="MAGPOS">      0.00000000      0.00000000      0.00000000</v>
   <i type="logical" name="LNICSALL"> T  </i>
   <i type="logical" name="ORBITALMAG"> F  </i>
   <i type="logical" name="LMAGBLOCH"> F  </i>
   <i type="logical" name="LCHIMAG"> F  </i>
   <i type="logical" name="LGAUGE"> T  </i>
   <i type="int" name="MAGATOM">     0</i>
   <v name="MAGDIPOL">      0.00000000      0.00000000      0.00000000</v>
   <v name="AVECCONST">      0.00000000      0.00000000      0.00000000</v>
  </separator>
  <separator name="response functions" >
   <i type="logical" name="LALL_IN_ONE"> F  </i>
   <i type="int" name="IALL_IN_ONE">    -1</i>
   <i type="int" name="NBANDS_WAVE">    -1</i>
   <i type="logical" name="LFINITE_TEMPERATURE"> F  </i>
   <i type="logical" name="LADDER"> F  </i>
   <i type="logical" name="LRPAFORCE"> F  </i>
   <i type="logical" name="LFXC"> F  </i>
   <i type="logical" name="LHARTREE"> T  </i>
   <i type="int" name="IBSE">     0</i>
   <v type="int" name="KPOINT">    -1     0     0     0</v>
   <i type="logical" name="LTCTC"> F  </i>
   <i type="logical" name="LTCTE"> F  </i>
   <i type="logical" name="LTETE"> F  </i>
   <i type="logical" name="LTRIPLET"> F  </i>
   <i type="logical" name="LFXCEPS"> F  </i>
   <i type="logical" name="LFXHEG"> F  </i>
   <i type="int" name="NATURALO">     2</i>
   <i type="logical" name="LHOLEGF"> F  </i>
   <i type="logical" name="L2ORDER"> F  </i>
   <i type="logical" name="LDMP1"> F  </i>
   <i type="logical" name="LMP2LT"> F  </i>
   <i type="logical" name="LSMP2LT"> F  </i>
   <i type="logical" name="LGWLF"> F  </i>
   <i name="ENCUTGW">     -1.60000002</i>
   <i name="ENCUTGWSOFT">     -1.60000002</i>
   <i name="ENCUTLF">     -1.00000000</i>
   <i type="logical" name="LESF_SPLINES"> F  </i>
   <i type="int" name="LMAXMP2">    -1</i>
   <i name="SCISSOR">      0.00000000</i>
   <i type="int" name="NOMEGA">     0</i>
   <i type="int" name="NOMEGAR">     0</i>
   <i type="int" name="NBANDSGW">    -1</i>
   <i type="int" name="NBANDSO">    -1</i>
   <i type="int" name="NBANDSV">    -1</i>
   <i type="int" name="NELMGW">     1</i>
   <i type="int" name="NELMHF">     1</i>
   <i type="int" name="DIM">     3</i>
   <i type="int" name="IESPILON">     4</i>
   <i type="int" name="ANTIRES">     0</i>
   <i name="OMEGAMAX">    -30.00000000</i>
   <i name="OMEGAMIN">    -30.00000000</i>
   <i name="OMEGATL">   -200.00000000</i>
   <i type="int" name="OMEGAGRID">     0</i>
   <i name="CSHIFT">     -0.10000000</i>
   <i type="logical" name="LSELFENERGY"> F  </i>
   <i type="logical" name="LSPECTRAL"> F  </i>
   <i type="logical" name="LSPECTRALGW"> F  </i>
   <i type="logical" name="LSINGLES"> F  </i>
   <i type="logical" name="LFERMIGW"> F  </i>
   <i type="logical" name="ODDONLYGW"> F  </i>
   <i type="logical" name="EVENONLYGW"> F  </i>
   <i type="int" name="NKREDLFX">     1</i>
   <i type="int" name="NKREDLFY">     1</i>
   <i type="int" name="NKREDLFZ">     1</i>
   <i type="int" name="MAXMEM">  2800</i>
   <i type="int" name="TELESCOPE">     0</i>
   <i type="int" name="NTAUPAR">    -1</i>
   <i type="int" name="NOMEGAPAR">    -1</i>
   <i name="DAMP_NEWTON">      0.80000001</i>
   <i name="LAMBDA">      1.00000000</i>
  </separator>
  <separator name="External order field" >
   <i name="OFIELD_KAPPA">      0.00000000</i>
   <v name="OFIELD_K">      0.00000000      0.00000000      0.00000000</v>
   <i name="OFIELD_Q6_NEAR">      0.00000000</i>
   <i name="OFIELD_Q6_FAR">      0.00000000</i>
   <i name="OFIELD_A">      0.00000000</i>
  </separator>
  <separator name="optional k-points parameters" >
   <i type="int" name="KPOINTS_OPT_MODE">     1</i>
   <i type="logical" name="LKPOINTS_OPT"> F  </i>
  </separator>
 </parameters>
 <atominfo>
  <atoms>     120 </atoms>
  <types>       2 </types>
  <array name="atoms" >
   <dimension dim="1">ion</dimension>
   <field type="string">element</field>
   <field type="int">atomtype</field>
   <set>
    <rc><c>Ga</c><c>   1</c></rc>
    <rc><c>Ga</c><c>   1</c></rc>
    <rc><c>Ga</c><c>   1</c></rc>
    <rc><c>Ga</c><c>   1</c></rc>
    <rc><c>Ga</c><c>   1</c></rc>
    <rc><c>Ga</c><c>   1</c></rc>
    <rc><c>Ga</c><c>   1</c></rc>
    <rc><c>Ga</c><c>   1</c></rc>
    <rc><c>Ga</c><c>   1</c></rc>
    <rc><c>Ga</c><c>   1</c></rc>
    <rc><c>Ga</c><c>   1</c></rc>
    <rc><c>Ga</c><c>   1</c></rc>
    <rc><c>Ga</c><c>   1</c></rc>
    <rc><c>Ga</c><c>   1</c></rc>
    <rc><c>Ga</c><c>   1</c></rc>
    <rc><c>Ga</c><c>   1</c></rc>
    <rc><c>Ga</c><c>   1</c></rc>
    <rc><c>Ga</c><c>   1</c></rc>
    <rc><c>Ga</c><c>   1</c></rc>
    <rc><c>Ga</c><c>   1</c></rc>
    <rc><c>Ga</c><c>   1</c></rc>
    <rc><c>Ga</c><c>   1</c></rc>
    <rc><c>Ga</c><c>   1</c></rc>
    <rc><c>Ga</c><c>   1</c></rc>
    <rc><c>Ga</c><c>   1</c></rc>
    <rc><c>Ga</c><c>   1</c></rc>
    <rc><c>Ga</c><c>   1</c></rc>
    <rc><c>Ga</c><c>   1</c></rc>
    <rc><c>Ga</c><c>   1</c></rc>
    <rc><c>Ga</c><c>   1</c></rc>
    <rc><c>Ga</c><c>   1</c></rc>
    <rc><c>Ga</c><c>   1</c></rc>
    <rc><c>Ga</c><c>   1</c></rc>
    <rc><c>Ga</c><c>   1</c></rc>
    <rc><c>Ga</c><c>   1</c></rc>
    <rc><c>Ga</c><c>   1</c></rc>
    <rc><c>Ga</c><c>   1</c></rc>
    <rc><c>Ga</c><c>   1</c></rc>
    <rc><c>Ga</c><c>   1</c></rc>
    <rc><c>Ga</c><c>   1</c></rc>
    <rc><c>Ga</c><c>   1</c></rc>
    <rc><c>Ga</c><c>   1</c></rc>
    <rc><c>Ga</c><c>   1</c></rc>
    <rc><c>Ga</c><c>   1</c></rc>
    <rc><c>Ga</c><c>   1</c></rc>
    <rc><c>Ga</c><c>   1</c></rc>
    <rc><c>Ga</c><c>   1</c></rc>
    <rc><c>Ga</c><c>   1</c></rc>
    <rc><c>O </c><c>   2</c></rc>
    <rc><c>O </c><c>   2</c></rc>
    <rc><c>O </c><c>   2</c></rc>
    <rc><c>O </c><c>   2</c></rc>
    <rc><c>O </c><c>   2</c></rc>
    <rc><c>O </c><c>   2</c></rc>
    <rc><c>O </c><c>   2</c></rc>
    <rc><c>O </c><c>   2</c></rc>
    <rc><c>O </c><c>   2</c></rc>
    <rc><c>O </c><c>   2</c></rc>
    <rc><c>O </c><c>   2</c></rc>
    <rc><c>O </c><c>   2</c></rc>
    <rc><c>O </c><c>   2</c></rc>
    <rc><c>O </c><c>   2</c></rc>
    <rc><c>O </c><c>   2</c></rc>
    <rc><c>O </c><c>   2</c></rc>
    <rc><c>O </c><c>   2</c></rc>
    <rc><c>O </c><c>   2</c></rc>
    <rc><c>O </c><c>   2</c></rc>
    <rc><c>O </c><c>   2</c></rc>
    <rc><c>O </c><c>   2</c></rc>
    <rc><c>O </c><c>   2</c></rc>
    <rc><c>O </c><c>   2</c></rc>
    <rc><c>O </c><c>   2</c></rc>
    <rc><c>O </c><c>   2</c></rc>
    <rc><c>O </c><c>   2</c></rc>
    <rc><c>O </c><c>   2</c></rc>
    <rc><c>O </c><c>   2</c></rc>
    <rc><c>O </c><c>   2</c></rc>
    <rc><c>O </c><c>   2</c></rc>
    <rc><c>O </c><c>   2</c></rc>
    <rc><c>O </c><c>   2</c></rc>
    <rc><c>O </c><c>   2</c></rc>
    <rc><c>O </c><c>   2</c></rc>
    <rc><c>O </c><c>   2</c></rc>
    <rc><c>O </c><c>   2</c></rc>
    <rc><c>O </c><c>   2</c></rc>
    <rc><c>O </c><c>   2</c></rc>
    <rc><c>O </c><c>   2</c></rc>
    <rc><c>O </c><c>   2</c></rc>
    <rc><c>O </c><c>   2</c></rc>
    <rc><c>O </c><c>   2</c></rc>
    <rc><c>O </c><c>   2</c></rc>
    <rc><c>O </c><c>   2</c></rc>
    <rc><c>O </c><c>   2</c></rc>
    <rc><c>O </c><c>   2</c></rc>
    <rc><c>O </c><c>   2</c></rc>
    <rc><c>O </c><c>   2</c></rc>
    <rc><c>O </c><c>   2</c></rc>
    <rc><c>O </c><c>   2</c></rc>
    <rc><c>O </c><c>   2</c></rc>
    <rc><c>O </c><c>   2</c></rc>
    <rc><c>O </c><c>   2</c></rc>
    <rc><c>O </c><c>   2</c></rc>
    <rc><c>O </c><c>   2</c></rc>
    <rc><c>O </c><c>   2</c></rc>
    <rc><c>O </c><c>   2</c></rc>
    <rc><c>O </c><c>   2</c></rc>
    <rc><c>O </c><c>   2</c></rc>
    <rc><c>O </c><c>   2</c></rc>
    <rc><c>O </c><c>   2</c></rc>
    <rc><c>O </c><c>   2</c></rc>
    <rc><c>O </c><c>   2</c></rc>
    <rc><c>O </c><c>   2</c></rc>
    <rc><c>O </c><c>   2</c></rc>
    <rc><c>O </c><c>   2</c></rc>
    <rc><c>O </c><c>   2</c></rc>
    <rc><c>O </c><c>   2</c></rc>
    <rc><c>O </c><c>   2</c></rc>
    <rc><c>O </c><c>   2</c></rc>
    <rc><c>O </c><c>   2</c></rc>
    <rc><c>O </c><c>   2</c></rc>
   </set>
  </array>
  <array name="atomtypes" >
   <dimension dim="1">type</dimension>
   <field type="int">atomspertype</field>
   <field type="string">element</field>
   <field>mass</field>
   <field>valence</field>
   <field type="string">pseudopotential</field>
   <set>
    <rc><c>  48</c><c>Ga</c><c>     69.72300000</c><c>     13.00000000</c><c>  PAW_PBE Ga_d 06Jul2010                </c></rc>
    <rc><c>  72</c><c>O </c><c>     16.00000000</c><c>      6.00000000</c><c>  PAW_PBE O 08Apr2002                   </c></rc>
   </set>
  </array>
 </atominfo>
 <structure name="initialpos" >
  <crystal>
   <varray name="basis" >
    <v>       0.00000000      12.28047342       0.00000000 </v>
    <v>       9.14270205       0.00000000       0.00000000 </v>
    <v>       0.00000000      -2.76826177     -11.30069772 </v>
   </varray>
   <i name="volume">   1268.80515525 </i>
   <varray name="rec_basis" >
    <v>       0.00000000       0.08143009      -0.01994742 </v>
    <v>       0.10937686      -0.00000000       0.00000000 </v>
    <v>       0.00000000       0.00000000      -0.08849011 </v>
   </varray>
  </crystal>
  <varray name="positions" >
   <v>       0.65901370       0.00000000       0.15659438 </v>
   <v>       0.65901370       0.00000000       0.65659438 </v>
   <v>       0.65901370       0.33333333       0.15659438 </v>
   <v>       0.65901370       0.33333333       0.65659438 </v>
   <v>       0.65901370       0.66666667       0.15659438 </v>
   <v>       0.65901370       0.66666667       0.65659438 </v>
   <v>       0.84098630       0.16666667       0.34340562 </v>
   <v>       0.84098630       0.16666667       0.84340562 </v>
   <v>       0.84098630       0.50000000       0.34340562 </v>
   <v>       0.84098630       0.50000000       0.84340562 </v>
   <v>       0.84098630       0.83333333       0.34340562 </v>
   <v>       0.84098630       0.83333333       0.84340562 </v>
   <v>       0.59108851       0.16666667       0.39757803 </v>
   <v>       0.59108851       0.16666667       0.89757803 </v>
   <v>       0.59108851       0.50000000       0.39757803 </v>
   <v>       0.59108851       0.50000000       0.89757803 </v>
   <v>       0.59108851       0.83333333       0.39757803 </v>
   <v>       0.59108851       0.83333333       0.89757803 </v>
   <v>       0.90891149       0.00000000       0.10242197 </v>
   <v>       0.90891149       0.00000000       0.60242197 </v>
   <v>       0.90891149       0.33333333       0.10242197 </v>
   <v>       0.90891149       0.33333333       0.60242197 </v>
   <v>       0.90891149       0.66666667       0.10242197 </v>
   <v>       0.90891149       0.66666667       0.60242197 </v>
   <v>       0.15901370       0.16666667       0.15659438 </v>
   <v>       0.15901370       0.16666667       0.65659438 </v>
   <v>       0.15901370       0.50000000       0.15659438 </v>
   <v>       0.15901370       0.50000000       0.65659438 </v>
   <v>       0.15901370       0.83333333       0.15659438 </v>
   <v>       0.15901370       0.83333333       0.65659438 </v>
   <v>       0.34098630       0.00000000       0.34340562 </v>
   <v>       0.34098630       0.00000000       0.84340562 </v>
   <v>       0.34098630       0.33333333       0.34340562 </v>
   <v>       0.34098630       0.33333333       0.84340562 </v>
   <v>       0.34098630       0.66666667       0.34340562 </v>
   <v>       0.34098630       0.66666667       0.84340562 </v>
   <v>       0.09108851       0.00000000       0.39757803 </v>
   <v>       0.09108851       0.00000000       0.89757803 </v>
   <v>       0.09108851       0.33333333       0.39757803 </v>
   <v>       0.09108851       0.33333333       0.89757803 </v>
   <v>       0.09108851       0.66666667       0.39757803 </v>
   <v>       0.09108851       0.66666667       0.89757803 </v>
   <v>       0.40891149       0.16666667       0.10242197 </v>
   <v>       0.40891149       0.16666667       0.60242197 </v>
   <v>       0.40891149       0.50000000       0.10242197 </v>
   <v>       0.40891149       0.50000000       0.60242197 </v>
   <v>       0.40891149       0.83333333       0.10242197 </v>
   <v>       0.40891149       0.83333333       0.60242197 </v>
   <v>       0.99636539       0.16666667       0.12722771 </v>
   <v>       0.99636539       0.16666667       0.62722771 </v>
   <v>       0.99636539       0.50000000       0.12722771 </v>
   <v>       0.99636539       0.50000000       0.62722771 </v>
   <v>       0.99636539       0.83333333       0.12722771 </v>
   <v>       0.99636539       0.83333333       0.62722771 </v>
   <v>       0.50363461       0.00000000       0.37277229 </v>
   <v>       0.50363461       0.00000000       0.87277229 </v>
   <v>       0.50363461       0.33333333       0.37277229 </v>
   <v>       0.50363461       0.33333333       0.87277229 </v>
   <v>       0.50363461       0.66666667       0.37277229 </v>
   <v>       0.50363461       0.66666667       0.87277229 </v>
   <v>       0.67253705       0.16666667       0.28039613 </v>
   <v>       0.67253705       0.16666667       0.78039613 </v>
   <v>       0.67253705       0.50000000       0.28039613 </v>
   <v>       0.67253705       0.50000000       0.78039613 </v>
   <v>       0.67253705       0.83333333       0.28039613 </v>
   <v>       0.67253705       0.83333333       0.78039613 </v>
   <v>       0.82746295       0.00000000       0.21960387 </v>
   <v>       0.82746295       0.00000000       0.71960387 </v>
   <v>       0.82746295       0.33333333       0.21960387 </v>
   <v>       0.82746295       0.33333333       0.71960387 </v>
   <v>       0.82746295       0.66666667       0.21960387 </v>
   <v>       0.82746295       0.66666667       0.71960387 </v>
   <v>       0.83208626       0.00000000       0.44580823 </v>
   <v>       0.83208626       0.00000000       0.94580823 </v>
   <v>       0.83208626       0.33333333       0.44580823 </v>
   <v>       0.83208626       0.33333333       0.94580823 </v>
   <v>       0.83208626       0.66666667       0.44580823 </v>
   <v>       0.83208626       0.66666667       0.94580823 </v>
   <v>       0.66791374       0.16666667       0.05419177 </v>
   <v>       0.66791374       0.16666667       0.55419177 </v>
   <v>       0.66791374       0.50000000       0.05419177 </v>
   <v>       0.66791374       0.50000000       0.55419177 </v>
   <v>       0.66791374       0.83333333       0.05419177 </v>
   <v>       0.66791374       0.83333333       0.55419177 </v>
   <v>       0.49636539       0.00000000       0.12722771 </v>
   <v>       0.49636539       0.00000000       0.62722771 </v>
   <v>       0.49636539       0.33333333       0.12722771 </v>
   <v>       0.49636539       0.33333333       0.62722771 </v>
   <v>       0.49636539       0.66666667       0.12722771 </v>
   <v>       0.49636539       0.66666667       0.62722771 </v>
   <v>       0.00363461       0.16666667       0.37277229 </v>
   <v>       0.00363461       0.16666667       0.87277229 </v>
   <v>       0.00363461       0.50000000       0.37277229 </v>
   <v>       0.00363461       0.50000000       0.87277229 </v>
   <v>       0.00363461       0.83333333       0.37277229 </v>
   <v>       0.00363461       0.83333333       0.87277229 </v>
   <v>       0.17253705       0.00000000       0.28039613 </v>
   <v>       0.17253705       0.00000000       0.78039613 </v>
   <v>       0.17253705       0.33333333       0.28039613 </v>
   <v>       0.17253705       0.33333333       0.78039613 </v>
   <v>       0.17253705       0.66666667       0.28039613 </v>
   <v>       0.17253705       0.66666667       0.78039613 </v>
   <v>       0.32746295       0.16666667       0.21960387 </v>
   <v>       0.32746295       0.16666667       0.71960387 </v>
   <v>       0.32746295       0.50000000       0.21960387 </v>
   <v>       0.32746295       0.50000000       0.71960387 </v>
   <v>       0.32746295       0.83333333       0.21960387 </v>
   <v>       0.32746295       0.83333333       0.71960387 </v>
   <v>       0.33208626       0.16666667       0.44580823 </v>
   <v>       0.33208626       0.16666667       0.94580823 </v>
   <v>       0.33208626       0.50000000       0.44580823 </v>
   <v>       0.33208626       0.50000000       0.94580823 </v>
   <v>       0.33208626       0.83333333       0.44580823 </v>
   <v>       0.33208626       0.83333333       0.94580823 </v>
   <v>       0.16791374       0.00000000       0.05419177 </v>
   <v>       0.16791374       0.00000000       0.55419177 </v>
   <v>       0.16791374       0.33333333       0.05419177 </v>
   <v>       0.16791374       0.33333333       0.55419177 </v>
   <v>       0.16791374       0.66666667       0.05419177 </v>
   <v>       0.16791374       0.66666667       0.55419177 </v>
  </varray>
 </structure>
 <calculation>
  <scstep>
   <time name="total">    4.03    4.04</time>
   <energy>
    <i name="alphaZ">   5537.53060054 </i>
    <i name="ewald"> -88891.37402132 </i>
    <i name="hartreedc">  -2114.62038653 </i>
    <i name="XCdc">   2806.72067320 </i>
    <i name="pawpsdc">  56157.47241140 </i>
    <i name="pawaedc"> -85370.38820063 </i>
    <i name="eentropy">     -0.00744551 </i>
    <i name="bandstr"> -40289.05390053 </i>
    <i name="atom"> 133901.37115015 </i>
    <i name="e_fr_energy"> -18262.34911924 </i>
    <i name="e_wo_entrp"> -18262.34167373 </i>
    <i name="e_0_energy"> -18262.34539648 </i>
   </energy>
  </scstep>
  <scstep>
   <time name="total">    3.22    3.22</time>
   <energy>
    <i name="e_fr_energy"> -62355.74684936 </i>
    <i name="e_wo_entrp"> -62355.72366226 </i>
    <i name="e_0_energy"> -62355.73525581 </i>
   </energy>
  </scstep>
  <scstep>
   <time name="total">    3.37    3.37</time>
   <energy>
    <i name="e_fr_energy"> -66808.59388104 </i>
    <i name="e_wo_entrp"> -66808.55779096 </i>
    <i name="e_0_energy"> -66808.57583600 </i>
   </energy>
  </scstep>
  <scstep>
   <time name="total">    3.71    3.71</time>
   <energy>
    <i name="e_fr_energy"> -67301.86296780 </i>
    <i name="e_wo_entrp"> -67301.77986025 </i>
    <i name="e_0_energy"> -67301.82141403 </i>
   </energy>
  </scstep>
  <scstep>
   <time name="total">  237.97  237.93</time>
   <energy>
    <i name="e_fr_energy"> -37153.02799766 </i>
    <i name="e_wo_entrp"> -37152.99615466 </i>
    <i name="e_0_energy"> -37153.01207616 </i>
   </energy>
  </scstep>
  <scstep>
   <time name="total">  471.49  471.41</time>
   <energy>
    <i name="e_fr_energy">  14087.80664439 </i>
    <i name="e_wo_entrp">  14087.83306013 </i>
    <i name="e_0_energy">  14087.81985226 </i>
   </energy>
  </scstep>
  <scstep>
   <time name="total">  470.45  470.37</time>
   <energy>
    <i name="e_fr_energy">   3132.39856330 </i>
    <i name="e_wo_entrp">   3132.45631016 </i>
    <i name="e_0_energy">   3132.42743673 </i>
   </energy>
  </scstep>
  <scstep>
   <time name="total">  471.00  470.92</time>
   <energy>
    <i name="e_fr_energy">   1457.89346693 </i>
    <i name="e_wo_entrp">   1457.96921361 </i>
    <i name="e_0_energy">   1457.93134027 </i>
   </energy>
  </scstep>
  <scstep>
   <time name="total">  471.37  471.30</time>
   <energy>
    <i name="e_fr_energy">    268.40570340 </i>
    <i name="e_wo_entrp">    268.43686964 </i>
    <i name="e_0_energy">    268.42128652 </i>
   </energy>
  </scstep>
  <scstep>
   <time name="total">  470.20  470.13</time>
   <energy>
    <i name="e_fr_energy">   -161.42371068 </i>
    <i name="e_wo_entrp">   -161.41768172 </i>
    <i name="e_0_energy">   -161.42069620 </i>
   </energy>
  </scstep>
  <scstep>
   <time name="total">  468.98  468.91</time>
   <energy>
    <i name="e_fr_energy">   -592.77787285 </i>
    <i name="e_wo_entrp">   -592.77253415 </i>
    <i name="e_0_energy">   -592.77520350 </i>
   </energy>
  </scstep>
  <scstep>
   <time name="total">  468.95  468.88</time>
   <energy>
    <i name="e_fr_energy">   -795.29775755 </i>
    <i name="e_wo_entrp">   -795.29465478 </i>
    <i name="e_0_energy">   -795.29620616 </i>
   </energy>
  </scstep>
  <scstep>
   <time name="total">  468.86  468.79</time>
   <energy>
    <i name="e_fr_energy">   -883.63588734 </i>
    <i name="e_wo_entrp">   -883.63588734 </i>
    <i name="e_0_energy">   -883.63588734 </i>
   </energy>
  </scstep>
  <scstep>
   <time name="total">  468.53  468.46</time>
   <energy>
    <i name="e_fr_energy">   -928.34669703 </i>
    <i name="e_wo_entrp">   -928.34669703 </i>
    <i name="e_0_energy">   -928.34669703 </i>
   </energy>
  </scstep>
  <scstep>
   <time name="total">  468.66  468.60</time>
   <energy>
    <i name="e_fr_energy">   -945.45061814 </i>
    <i name="e_wo_entrp">   -945.45061814 </i>
    <i name="e_0_energy">   -945.45061814 </i>
   </energy>
  </scstep>
  <scstep>
   <time name="total">  468.66  468.59</time>
   <energy>
    <i name="e_fr_energy">   -953.19163074 </i>
    <i name="e_wo_entrp">   -953.19163074 </i>
    <i name="e_0_energy">   -953.19163074 </i>
   </energy>
  </scstep>
  <scstep>
   <time name="total">  468.67  468.60</time>
   <energy>
    <i name="e_fr_energy">   -956.20036811 </i>
    <i name="e_wo_entrp">   -956.20036811 </i>
    <i name="e_0_energy">   -956.20036811 </i>
   </energy>
  </scstep>
  <scstep>
   <time name="total">  468.57  468.49</time>
   <energy>
    <i name="e_fr_energy">   -957.47013137 </i>
    <i name="e_wo_entrp">   -957.47013137 </i>
    <i name="e_0_energy">   -957.47013137 </i>
   </energy>
  </scstep>
  <scstep>
   <time name="total">  468.76  468.68</time>
   <energy>
    <i name="e_fr_energy">   -957.97634280 </i>
    <i name="e_wo_entrp">   -957.97634280 </i>
    <i name="e_0_energy">   -957.97634280 </i>
   </energy>
  </scstep>
  <scstep>
   <time name="total">  468.83  468.75</time>
   <energy>
    <i name="e_fr_energy">   -958.18508086 </i>
    <i name="e_wo_entrp">   -958.18508086 </i>
    <i name="e_0_energy">   -958.18508086 </i>
   </energy>
  </scstep>
  <scstep>
   <time name="total">  468.72  468.66</time>
   <energy>
    <i name="e_fr_energy">   -958.26760356 </i>
    <i name="e_wo_entrp">   -958.26760356 </i>
    <i name="e_0_energy">   -958.26760356 </i>
   </energy>
  </scstep>
  <scstep>
   <time name="total">  468.67  468.60</time>
   <energy>
    <i name="e_fr_energy">   -958.29831958 </i>
    <i name="e_wo_entrp">   -958.29831958 </i>
    <i name="e_0_energy">   -958.29831958 </i>
   </energy>
  </scstep>
  <scstep>
   <time name="total">  468.69  468.61</time>
   <energy>
    <i name="e_fr_energy">   -958.31117482 </i>
    <i name="e_wo_entrp">   -958.31117482 </i>
    <i name="e_0_energy">   -958.31117482 </i>
   </energy>
  </scstep>
  <scstep>
   <time name="total">  468.63  468.56</time>
   <energy>
    <i name="e_fr_energy">   -958.31625370 </i>
    <i name="e_wo_entrp">   -958.31625370 </i>
    <i name="e_0_energy">   -958.31625370 </i>
   </energy>
  </scstep>
  <scstep>
   <time name="total">  468.62  468.54</time>
   <energy>
    <i name="e_fr_energy">   -958.31851481 </i>
    <i name="e_wo_entrp">   -958.31851481 </i>
    <i name="e_0_energy">   -958.31851481 </i>
   </energy>
  </scstep>
  <scstep>
   <time name="total">  468.93  468.86</time>
   <energy>
    <i name="e_fr_energy">   -958.31939473 </i>
    <i name="e_wo_entrp">   -958.31939473 </i>
    <i name="e_0_energy">   -958.31939473 </i>
   </energy>
  </scstep>
  <scstep>
   <time name="total">  468.60  468.52</time>
   <energy>
    <i name="e_fr_energy">   -958.31977225 </i>
    <i name="e_wo_entrp">   -958.31977225 </i>
    <i name="e_0_energy">   -958.31977225 </i>
   </energy>
  </scstep>
  <scstep>
   <time name="total">  468.77  468.69</time>
   <energy>
    <i name="e_fr_energy">   -958.31992891 </i>
    <i name="e_wo_entrp">   -958.31992891 </i>
    <i name="e_0_energy">   -958.31992891 </i>
   </energy>
  </scstep>
  <scstep>
   <time name="total">  468.92  468.83</time>
   <energy>
    <i name="e_fr_energy">   -958.31999359 </i>
    <i name="e_wo_entrp">   -958.31999359 </i>
    <i name="e_0_energy">   -958.31999359 </i>
   </energy>
  </scstep>
  <scstep>
   <time name="total">  468.76  468.67</time>
   <energy>
    <i name="e_fr_energy">   -958.32001985 </i>
    <i name="e_wo_entrp">   -958.32001985 </i>
    <i name="e_0_energy">   -958.32001985 </i>
   </energy>
  </scstep>
  <scstep>
   <time name="total">  468.62  468.53</time>
   <energy>
    <i name="e_fr_energy">   -958.32003089 </i>
    <i name="e_wo_entrp">   -958.32003089 </i>
    <i name="e_0_energy">   -958.32003089 </i>
   </energy>
  </scstep>
  <scstep>
   <time name="total">  698.88  698.75</time>
   <energy>
    <i name="alphaZ">   5537.53060054 </i>
    <i name="ewald"> -88891.37402132 </i>
    <i name="hartreedc"> -33872.39655246 </i>
    <i name="XCdc">   2918.08353037 </i>
    <i name="pawpsdc"> 121362.41679938 </i>
    <i name="pawaedc">-136934.81134187 </i>
    <i name="eentropy">     -0.00000000 </i>
    <i name="bandstr">  -8873.22576916 </i>
    <i name="atom"> 133901.37115015 </i>
    <i name="e_fr_energy">   -958.32003527 </i>
    <i name="e_wo_entrp">   -958.32003527 </i>
    <i name="e_0_energy">   -958.32003527 </i>
   </energy>
  </scstep>
  <structure>
   <crystal>
    <varray name="basis" >
     <v>       0.00000000      12.28047342       0.00000000 </v>
     <v>       9.14270205       0.00000000       0.00000000 </v>
     <v>       0.00000000      -2.76826177     -11.30069772 </v>
    </varray>
    <i name="volume">   1268.80515525 </i>
    <varray name="rec_basis" >
     <v>       0.00000000       0.08143009      -0.01994742 </v>
     <v>       0.10937686      -0.00000000       0.00000000 </v>
     <v>       0.00000000       0.00000000      -0.08849011 </v>
    </varray>
   </crystal>
   <varray name="positions" >
    <v>       0.65901370       0.00000000       0.15659438 </v>
    <v>       0.65901370       0.00000000       0.65659438 </v>
    <v>       0.65901370       0.33333333       0.15659438 </v>
    <v>       0.65901370       0.33333333       0.65659438 </v>
    <v>       0.65901370       0.66666667       0.15659438 </v>
    <v>       0.65901370       0.66666667       0.65659438 </v>
    <v>       0.84098630       0.16666667       0.34340562 </v>
    <v>       0.84098630       0.16666667       0.84340562 </v>
    <v>       0.84098630       0.50000000       0.34340562 </v>
    <v>       0.84098630       0.50000000       0.84340562 </v>
    <v>       0.84098630       0.83333333       0.34340562 </v>
    <v>       0.84098630       0.83333333       0.84340562 </v>
    <v>       0.59108851       0.16666667       0.39757803 </v>
    <v>       0.59108851       0.16666667       0.89757803 </v>
    <v>       0.59108851       0.50000000       0.39757803 </v>
    <v>       0.59108851       0.50000000       0.89757803 </v>
    <v>       0.59108851       0.83333333       0.39757803 </v>
    <v>       0.59108851       0.83333333       0.89757803 </v>
    <v>       0.90891149       0.00000000       0.10242197 </v>
    <v>       0.90891149       0.00000000       0.60242197 </v>
    <v>       0.90891149       0.33333333       0.10242197 </v>
    <v>       0.90891149       0.33333333       0.60242197 </v>
    <v>       0.90891149       0.66666667       0.10242197 </v>
    <v>       0.90891149       0.66666667       0.60242197 </v>
    <v>       0.15901370       0.16666667       0.15659438 </v>
    <v>       0.15901370       0.16666667       0.65659438 </v>
    <v>       0.15901370       0.50000000       0.15659438 </v>
    <v>       0.15901370       0.50000000       0.65659438 </v>
    <v>       0.15901370       0.83333333       0.15659438 </v>
    <v>       0.15901370       0.83333333       0.65659438 </v>
    <v>       0.34098630       0.00000000       0.34340562 </v>
    <v>       0.34098630       0.00000000       0.84340562 </v>
    <v>       0.34098630       0.33333333       0.34340562 </v>
    <v>       0.34098630       0.33333333       0.84340562 </v>
    <v>       0.34098630       0.66666667       0.34340562 </v>
    <v>       0.34098630       0.66666667       0.84340562 </v>
    <v>       0.09108851       0.00000000       0.39757803 </v>
    <v>       0.09108851       0.00000000       0.89757803 </v>
    <v>       0.09108851       0.33333333       0.39757803 </v>
    <v>       0.09108851       0.33333333       0.89757803 </v>
    <v>       0.09108851       0.66666667       0.39757803 </v>
    <v>       0.09108851       0.66666667       0.89757803 </v>
    <v>       0.40891149       0.16666667       0.10242197 </v>
    <v>       0.40891149       0.16666667       0.60242197 </v>
    <v>       0.40891149       0.50000000       0.10242197 </v>
    <v>       0.40891149       0.50000000       0.60242197 </v>
    <v>       0.40891149       0.83333333       0.10242197 </v>
    <v>       0.40891149       0.83333333       0.60242197 </v>
    <v>       0.99636539       0.16666667       0.12722771 </v>
    <v>       0.99636539       0.16666667       0.62722771 </v>
    <v>       0.99636539       0.50000000       0.12722771 </v>
    <v>       0.99636539       0.50000000       0.62722771 </v>
    <v>       0.99636539       0.83333333       0.12722771 </v>
    <v>       0.99636539       0.83333333       0.62722771 </v>
    <v>       0.50363461       0.00000000       0.37277229 </v>
    <v>       0.50363461       0.00000000       0.87277229 </v>
    <v>       0.50363461       0.33333333       0.37277229 </v>
    <v>       0.50363461       0.33333333       0.87277229 </v>
    <v>       0.50363461       0.66666667       0.37277229 </v>
    <v>       0.50363461       0.66666667       0.87277229 </v>
    <v>       0.67253705       0.16666667       0.28039613 </v>
    <v>       0.67253705       0.16666667       0.78039613 </v>
    <v>       0.67253705       0.50000000       0.28039613 </v>
    <v>       0.67253705       0.50000000       0.78039613 </v>
    <v>       0.67253705       0.83333333       0.28039613 </v>
    <v>       0.67253705       0.83333333       0.78039613 </v>
    <v>       0.82746295       0.00000000       0.21960387 </v>
    <v>       0.82746295       0.00000000       0.71960387 </v>
    <v>       0.82746295       0.33333333       0.21960387 </v>
    <v>       0.82746295       0.33333333       0.71960387 </v>
    <v>       0.82746295       0.66666667       0.21960387 </v>
    <v>       0.82746295       0.66666667       0.71960387 </v>
    <v>       0.83208626       0.00000000       0.44580823 </v>
    <v>       0.83208626       0.00000000       0.94580823 </v>
    <v>       0.83208626       0.33333333       0.44580823 </v>
    <v>       0.83208626       0.33333333       0.94580823 </v>
    <v>       0.83208626       0.66666667       0.44580823 </v>
    <v>       0.83208626       0.66666667       0.94580823 </v>
    <v>       0.66791374       0.16666667       0.05419177 </v>
    <v>       0.66791374       0.16666667       0.55419177 </v>
    <v>       0.66791374       0.50000000       0.05419177 </v>
    <v>       0.66791374       0.50000000       0.55419177 </v>
    <v>       0.66791374       0.83333333       0.05419177 </v>
    <v>       0.66791374       0.83333333       0.55419177 </v>
    <v>       0.49636539       0.00000000       0.12722771 </v>
    <v>       0.49636539       0.00000000       0.62722771 </v>
    <v>       0.49636539       0.33333333       0.12722771 </v>
    <v>       0.49636539       0.33333333       0.62722771 </v>
    <v>       0.49636539       0.66666667       0.12722771 </v>
    <v>       0.49636539       0.66666667       0.62722771 </v>
    <v>       0.00363461       0.16666667       0.37277229 </v>
    <v>       0.00363461       0.16666667       0.87277229 </v>
    <v>       0.00363461       0.50000000       0.37277229 </v>
    <v>       0.00363461       0.50000000       0.87277229 </v>
    <v>       0.00363461       0.83333333       0.37277229 </v>
    <v>       0.00363461       0.83333333       0.87277229 </v>
    <v>       0.17253705       0.00000000       0.28039613 </v>
    <v>       0.17253705       0.00000000       0.78039613 </v>
    <v>       0.17253705       0.33333333       0.28039613 </v>
    <v>       0.17253705       0.33333333       0.78039613 </v>
    <v>       0.17253705       0.66666667       0.28039613 </v>
    <v>       0.17253705       0.66666667       0.78039613 </v>
    <v>       0.32746295       0.16666667       0.21960387 </v>
    <v>       0.32746295       0.16666667       0.71960387 </v>
    <v>       0.32746295       0.50000000       0.21960387 </v>
    <v>       0.32746295       0.50000000       0.71960387 </v>
    <v>       0.32746295       0.83333333       0.21960387 </v>
    <v>       0.32746295       0.83333333       0.71960387 </v>
    <v>       0.33208626       0.16666667       0.44580823 </v>
    <v>       0.33208626       0.16666667       0.94580823 </v>
    <v>       0.33208626       0.50000000       0.44580823 </v>
    <v>       0.33208626       0.50000000       0.94580823 </v>
    <v>       0.33208626       0.83333333       0.44580823 </v>
    <v>       0.33208626       0.83333333       0.94580823 </v>
    <v>       0.16791374       0.00000000       0.05419177 </v>
    <v>       0.16791374       0.00000000       0.55419177 </v>
    <v>       0.16791374       0.33333333       0.05419177 </v>
    <v>       0.16791374       0.33333333       0.55419177 </v>
    <v>       0.16791374       0.66666667       0.05419177 </v>
    <v>       0.16791374       0.66666667       0.55419177 </v>
   </varray>
  </structure>
  <varray name="forces" >
   <v>       0.00000000       0.07216457       0.00476081 </v>
   <v>      -0.00000000       0.07216457       0.00476081 </v>
   <v>      -0.00000000       0.07216457       0.00476081 </v>
   <v>      -0.00000000       0.07216457       0.00476081 </v>
   <v>       0.00000000       0.07216457       0.00476081 </v>
   <v>      -0.00000000       0.07216457       0.00476081 </v>
   <v>      -0.00000000      -0.07216457      -0.00476081 </v>
   <v>      -0.00000000      -0.07216457      -0.00476081 </v>
   <v>       0.00000000      -0.07216457      -0.00476081 </v>
   <v>      -0.00000000      -0.07216457      -0.00476081 </v>
   <v>      -0.00000000      -0.07216457      -0.00476081 </v>
   <v>       0.00000000      -0.07216457      -0.00476081 </v>
   <v>      -0.00000000      -0.02272658       0.00959197 </v>
   <v>       0.00000000      -0.02272658       0.00959197 </v>
   <v>      -0.00000000      -0.02272658       0.00959197 </v>
   <v>       0.00000000      -0.02272658       0.00959197 </v>
   <v>       0.00000000      -0.02272658       0.00959197 </v>
   <v>       0.00000000      -0.02272658       0.00959197 </v>
   <v>      -0.00000000       0.02272658      -0.00959197 </v>
   <v>       0.00000000       0.02272658      -0.00959197 </v>
   <v>      -0.00000000       0.02272658      -0.00959197 </v>
   <v>      -0.00000000       0.02272658      -0.00959197 </v>
   <v>       0.00000000       0.02272658      -0.00959197 </v>
   <v>       0.00000000       0.02272658      -0.00959197 </v>
   <v>       0.00000000       0.07216457       0.00476081 </v>
   <v>       0.00000000       0.07216457       0.00476081 </v>
   <v>      -0.00000000       0.07216457       0.00476081 </v>
   <v>       0.00000000       0.07216457       0.00476081 </v>
   <v>       0.00000000       0.07216457       0.00476081 </v>
   <v>       0.00000000       0.07216457       0.00476081 </v>
   <v>      -0.00000000      -0.07216457      -0.00476081 </v>
   <v>       0.00000000      -0.07216457      -0.00476081 </v>
   <v>      -0.00000000      -0.07216457      -0.00476081 </v>
   <v>      -0.00000000      -0.07216457      -0.00476081 </v>
   <v>       0.00000000      -0.07216457      -0.00476081 </v>
   <v>       0.00000000      -0.07216457      -0.00476081 </v>
   <v>      -0.00000000      -0.02272658       0.00959197 </v>
   <v>       0.00000000      -0.02272658       0.00959197 </v>
   <v>       0.00000000      -0.02272658       0.00959197 </v>
   <v>      -0.00000000      -0.02272658       0.00959197 </v>
   <v>       0.00000000      -0.02272658       0.00959197 </v>
   <v>      -0.00000000      -0.02272658       0.00959197 </v>
   <v>       0.00000000       0.02272658      -0.00959197 </v>
   <v>       0.00000000       0.02272658      -0.00959197 </v>
   <v>       0.00000000       0.02272658      -0.00959197 </v>
   <v>      -0.00000000       0.02272658      -0.00959197 </v>
   <v>       0.00000000       0.02272658      -0.00959197 </v>
   <v>      -0.00000000       0.02272658      -0.00959197 </v>
   <v>       0.00000000      -0.17035352       0.11400661 </v>
   <v>       0.00000000      -0.17035352       0.11400661 </v>
   <v>       0.00000000      -0.17035352       0.11400661 </v>
   <v>       0.00000000      -0.17035352       0.11400661 </v>
   <v>      -0.00000000      -0.17035352       0.11400661 </v>
   <v>       0.00000000      -0.17035352       0.11400661 </v>
   <v>      -0.00000000       0.17035352      -0.11400661 </v>
   <v>      -0.00000000       0.17035352      -0.11400661 </v>
   <v>      -0.00000000       0.17035352      -0.11400661 </v>
   <v>       0.00000000       0.17035352      -0.11400661 </v>
   <v>      -0.00000000       0.17035352      -0.11400661 </v>
   <v>      -0.00000000       0.17035352      -0.11400661 </v>
   <v>       0.00000000      -0.03817788      -0.11257461 </v>
   <v>       0.00000000      -0.03817788      -0.11257461 </v>
   <v>      -0.00000000      -0.03817788      -0.11257461 </v>
   <v>      -0.00000000      -0.03817788      -0.11257461 </v>
   <v>      -0.00000000      -0.03817788      -0.11257461 </v>
   <v>      -0.00000000      -0.03817788      -0.11257461 </v>
   <v>       0.00000000       0.03817788       0.11257461 </v>
   <v>       0.00000000       0.03817788       0.11257461 </v>
   <v>       0.00000000       0.03817788       0.11257461 </v>
   <v>      -0.00000000       0.03817788       0.11257461 </v>
   <v>      -0.00000000       0.03817788       0.11257461 </v>
   <v>       0.00000000       0.03817788       0.11257461 </v>
   <v>      -0.00000000       0.39940246      -0.07362902 </v>
   <v>      -0.00000000       0.39940246      -0.07362902 </v>
   <v>       0.00000000       0.39940246      -0.07362902 </v>
   <v>       0.00000000       0.39940246      -0.07362902 </v>
   <v>      -0.00000000       0.39940246      -0.07362902 </v>
   <v>      -0.00000000       0.39940246      -0.07362902 </v>
   <v>       0.00000000      -0.39940246       0.07362902 </v>
   <v>       0.00000000      -0.39940246       0.07362902 </v>
   <v>      -0.00000000      -0.39940246       0.07362902 </v>
   <v>       0.00000000      -0.39940246       0.07362902 </v>
   <v>       0.00000000      -0.39940246       0.07362902 </v>
   <v>       0.00000000      -0.39940246       0.07362902 </v>
   <v>      -0.00000000      -0.17035352       0.11400661 </v>
   <v>       0.00000000      -0.17035352       0.11400661 </v>
   <v>      -0.00000000      -0.17035352       0.11400661 </v>
   <v>       0.00000000      -0.17035352       0.11400661 </v>
   <v>      -0.00000000      -0.17035352       0.11400661 </v>
   <v>       0.00000000      -0.17035352       0.11400661 </v>
   <v>      -0.00000000       0.17035352      -0.11400661 </v>
   <v>      -0.00000000       0.17035352      -0.11400661 </v>
   <v>      -0.00000000       0.17035352      -0.11400661 </v>
   <v>      -0.00000000       0.17035352      -0.11400661 </v>
   <v>       0.00000000       0.17035352      -0.11400661 </v>
   <v>       0.00000000       0.17035352      -0.11400661 </v>
   <v>       0.00000000      -0.03817788      -0.11257461 </v>
   <v>       0.00000000      -0.03817788      -0.11257461 </v>
   <v>      -0.00000000      -0.03817788      -0.11257461 </v>
   <v>       0.00000000      -0.03817788      -0.11257461 </v>
   <v>       0.00000000      -0.03817788      -0.11257461 </v>
   <v>       0.00000000      -0.03817788      -0.11257461 </v>
   <v>       0.00000000       0.03817788       0.11257461 </v>
   <v>       0.00000000       0.03817788       0.11257461 </v>
   <v>       0.00000000       0.03817788       0.11257461 </v>
   <v>      -0.00000000       0.03817788       0.11257461 </v>
   <v>       0.00000000       0.03817788       0.11257461 </v>
   <v>      -0.00000000       0.03817788       0.11257461 </v>
   <v>       0.00000000       0.39940246      -0.07362902 </v>
   <v>      -0.00000000       0.39940246      -0.07362902 </v>
   <v>       0.00000000       0.39940246      -0.07362902 </v>
   <v>       0.00000000       0.39940246      -0.07362902 </v>
   <v>       0.00000000       0.39940246      -0.07362902 </v>
   <v>       0.00000000       0.39940246      -0.07362902 </v>
   <v>      -0.00000000      -0.39940246       0.07362902 </v>
   <v>       0.00000000      -0.39940246       0.07362902 </v>
   <v>      -0.00000000      -0.39940246       0.07362902 </v>
   <v>       0.00000000      -0.39940246       0.07362902 </v>
   <v>       0.00000000      -0.39940246       0.07362902 </v>
   <v>       0.00000000      -0.39940246       0.07362902 </v>
  </varray>
  <varray name="stress" >
   <v>     -51.32973660       0.00000000       0.00000000 </v>
   <v>       0.00000000     -48.06573146       1.78722249 </v>
   <v>       0.00000000       1.78722359     -45.14200286 </v>
  </varray>
  <energy>
   <i name="e_fr_energy">   -958.32003527 </i>
   <i name="e_wo_entrp">   -958.32003527 </i>
   <i name="e_0_energy">   -958.32003527 </i>
  </energy>
  <time name="totalsc">13731.9313729.82</time>
  <eigenvalues>
   <array>
    <dimension dim="1">band</dimension>
    <dimension dim="2">kpoint</dimension>
    <dimension dim="3">spin</dimension>
    <field>eigene</field>
    <field>occ</field>
    <set>
     <set comment="spin 1">
      <set comment="kpoint 1">
       <r>  -18.6579    1.0000 </r>
       <r>  -18.3794    1.0000 </r>
       <r>  -18.3126    1.0000 </r>
       <r>  -18.2495    1.0000 </r>
       <r>  -18.1196    1.0000 </r>
       <r>  -17.9634    1.0000 </r>
       <r>  -17.9634    1.0000 </r>
       <r>  -17.9002    1.0000 </r>
       <r>  -17.8205    1.0000 </r>
       <r>  -17.7861    1.0000 </r>
       <r>  -17.7861    1.0000 </r>
       <r>  -17.7006    1.0000 </r>
       <r>  -17.7006    1.0000 </r>
       <r>  -17.6757    1.0000 </r>
       <r>  -17.6757    1.0000 </r>
       <r>  -17.6739    1.0000 </r>
       <r>  -17.6738    1.0000 </r>
       <r>  -17.6417    1.0000 </r>
       <r>  -17.5139    1.0000 </r>
       <r>  -17.5139    1.0000 </r>
       <r>  -17.5025    1.0000 </r>
       <r>  -17.4952    1.0000 </r>
       <r>  -17.4944    1.0000 </r>
       <r>  -17.4898    1.0000 </r>
       <r>  -17.4897    1.0000 </r>
       <r>  -17.4804    1.0000 </r>
       <r>  -17.3643    1.0000 </r>
       <r>  -17.3642    1.0000 </r>
       <r>  -17.3542    1.0000 </r>
       <r>  -17.3345    1.0000 </r>
       <r>  -17.3344    1.0000 </r>
       <r>  -17.3195    1.0000 </r>
       <r>  -17.3058    1.0000 </r>
       <r>  -17.3058    1.0000 </r>
       <r>  -17.2699    1.0000 </r>
       <r>  -17.2698    1.0000 </r>
       <r>  -17.2524    1.0000 </r>
       <r>  -17.2524    1.0000 </r>
       <r>  -17.2373    1.0000 </r>
       <r>  -17.1538    1.0000 </r>
       <r>  -17.1538    1.0000 </r>
       <r>  -17.1518    1.0000 </r>
       <r>  -17.1518    1.0000 </r>
       <r>  -17.1448    1.0000 </r>
       <r>  -17.1406    1.0000 </r>
       <r>  -17.1406    1.0000 </r>
       <r>  -17.1194    1.0000 </r>
       <r>  -17.1193    1.0000 </r>
       <r>  -17.0516    1.0000 </r>
       <r>  -17.0109    1.0000 </r>
       <r>  -17.0109    1.0000 </r>
       <r>  -16.9959    1.0000 </r>
       <r>  -16.9785    1.0000 </r>
       <r>  -16.9784    1.0000 </r>
       <r>  -16.9015    1.0000 </r>
       <r>  -16.9014    1.0000 </r>
       <r>  -16.8966    1.0000 </r>
       <r>  -16.8966    1.0000 </r>
       <r>  -16.8846    1.0000 </r>
       <r>  -16.8846    1.0000 </r>
       <r>  -16.8775    1.0000 </r>
       <r>  -16.8775    1.0000 </r>
       <r>  -16.8711    1.0000 </r>
       <r>  -16.8711    1.0000 </r>
       <r>  -16.8642    1.0000 </r>
       <r>  -16.8639    1.0000 </r>
       <r>  -16.8639    1.0000 </r>
       <r>  -16.8615    1.0000 </r>
       <r>  -16.8472    1.0000 </r>
       <r>  -16.8466    1.0000 </r>
       <r>  -16.7842    1.0000 </r>
       <r>  -16.7532    1.0000 </r>
       <r>  -13.0304    1.0000 </r>
       <r>  -13.0286    1.0000 </r>
       <r>  -13.0213    1.0000 </r>
       <r>  -12.9913    1.0000 </r>
       <r>  -12.9875    1.0000 </r>
       <r>  -12.9868    1.0000 </r>
       <r>  -12.9844    1.0000 </r>
       <r>  -12.9814    1.0000 </r>
       <r>  -12.9799    1.0000 </r>
       <r>  -12.9794    1.0000 </r>
       <r>  -12.9760    1.0000 </r>
       <r>  -12.9757    1.0000 </r>
       <r>  -12.9705    1.0000 </r>
       <r>  -12.9601    1.0000 </r>
       <r>  -12.9347    1.0000 </r>
       <r>  -12.9347    1.0000 </r>
       <r>  -12.9325    1.0000 </r>
       <r>  -12.9209    1.0000 </r>
       <r>  -12.9209    1.0000 </r>
       <r>  -12.9158    1.0000 </r>
       <r>  -12.9158    1.0000 </r>
       <r>  -12.9143    1.0000 </r>
       <r>  -12.9143    1.0000 </r>
       <r>  -12.9119    1.0000 </r>
       <r>  -12.9118    1.0000 </r>
       <r>  -12.9083    1.0000 </r>
       <r>  -12.9083    1.0000 </r>
       <r>  -12.9066    1.0000 </r>
       <r>  -12.9066    1.0000 </r>
       <r>  -12.9050    1.0000 </r>
       <r>  -12.9050    1.0000 </r>
       <r>  -12.8940    1.0000 </r>
       <r>  -12.8940    1.0000 </r>
       <r>  -12.8916    1.0000 </r>
       <r>  -12.8896    1.0000 </r>
       <r>  -12.8869    1.0000 </r>
       <r>  -12.8869    1.0000 </r>
       <r>  -12.8867    1.0000 </r>
       <r>  -12.8867    1.0000 </r>
       <r>  -12.8811    1.0000 </r>
       <r>  -12.8811    1.0000 </r>
       <r>  -12.8779    1.0000 </r>
       <r>  -12.8772    1.0000 </r>
       <r>  -12.8772    1.0000 </r>
       <r>  -12.8766    1.0000 </r>
       <r>  -12.8743    1.0000 </r>
       <r>  -12.8743    1.0000 </r>
       <r>  -12.8715    1.0000 </r>
       <r>  -12.8679    1.0000 </r>
       <r>  -12.8662    1.0000 </r>
       <r>  -12.8662    1.0000 </r>
       <r>  -12.8661    1.0000 </r>
       <r>  -12.8661    1.0000 </r>
       <r>  -12.8647    1.0000 </r>
       <r>  -12.8647    1.0000 </r>
       <r>  -12.8590    1.0000 </r>
       <r>  -12.8502    1.0000 </r>
       <r>  -12.8469    1.0000 </r>
       <r>  -12.8461    1.0000 </r>
       <r>  -12.8416    1.0000 </r>
       <r>  -12.8246    1.0000 </r>
       <r>  -12.8246    1.0000 </r>
       <r>  -12.8173    1.0000 </r>
       <r>  -12.8122    1.0000 </r>
       <r>  -12.8010    1.0000 </r>
       <r>  -12.7980    1.0000 </r>
       <r>  -12.7898    1.0000 </r>
       <r>  -12.7865    1.0000 </r>
       <r>  -12.7827    1.0000 </r>
       <r>  -12.7698    1.0000 </r>
       <r>  -12.7698    1.0000 </r>
       <r>  -12.7676    1.0000 </r>
       <r>  -12.7676    1.0000 </r>
       <r>  -12.7656    1.0000 </r>
       <r>  -12.7656    1.0000 </r>
       <r>  -12.7641    1.0000 </r>
       <r>  -12.7641    1.0000 </r>
       <r>  -12.7602    1.0000 </r>
       <r>  -12.7602    1.0000 </r>
       <r>  -12.7570    1.0000 </r>
       <r>  -12.7570    1.0000 </r>
       <r>  -12.7472    1.0000 </r>
       <r>  -12.7472    1.0000 </r>
       <r>  -12.7447    1.0000 </r>
       <r>  -12.7446    1.0000 </r>
       <r>  -12.7420    1.0000 </r>
       <r>  -12.7413    1.0000 </r>
       <r>  -12.7413    1.0000 </r>
       <r>  -12.7413    1.0000 </r>
       <r>  -12.7413    1.0000 </r>
       <r>  -12.7406    1.0000 </r>
       <r>  -12.7406    1.0000 </r>
       <r>  -12.7375    1.0000 </r>
       <r>  -12.7336    1.0000 </r>
       <r>  -12.7312    1.0000 </r>
       <r>  -12.7310    1.0000 </r>
       <r>  -12.7310    1.0000 </r>
       <r>  -12.7296    1.0000 </r>
       <r>  -12.7296    1.0000 </r>
       <r>  -12.7274    1.0000 </r>
       <r>  -12.7274    1.0000 </r>
       <r>  -12.7256    1.0000 </r>
       <r>  -12.7256    1.0000 </r>
       <r>  -12.7229    1.0000 </r>
       <r>  -12.7229    1.0000 </r>
       <r>  -12.7126    1.0000 </r>
       <r>  -12.7112    1.0000 </r>
       <r>  -12.7112    1.0000 </r>
       <r>  -12.7102    1.0000 </r>
       <r>  -12.7102    1.0000 </r>
       <r>  -12.7090    1.0000 </r>
       <r>  -12.7090    1.0000 </r>
       <r>  -12.6990    1.0000 </r>
       <r>  -12.6990    1.0000 </r>
       <r>  -12.6836    1.0000 </r>
       <r>  -12.6836    1.0000 </r>
       <r>  -12.6814    1.0000 </r>
       <r>  -12.6814    1.0000 </r>
       <r>  -12.6762    1.0000 </r>
       <r>  -12.6762    1.0000 </r>
       <r>  -12.6684    1.0000 </r>
       <r>  -12.6618    1.0000 </r>
       <r>  -12.6618    1.0000 </r>
       <r>  -12.6492    1.0000 </r>
       <r>  -12.6488    1.0000 </r>
       <r>  -12.6479    1.0000 </r>
       <r>  -12.6478    1.0000 </r>
       <r>  -12.6323    1.0000 </r>
       <r>  -12.6258    1.0000 </r>
       <r>  -12.6258    1.0000 </r>
       <r>  -12.6244    1.0000 </r>
       <r>  -12.6234    1.0000 </r>
       <r>  -12.6234    1.0000 </r>
       <r>  -12.6233    1.0000 </r>
       <r>  -12.6227    1.0000 </r>
       <r>  -12.6202    1.0000 </r>
       <r>  -12.6197    1.0000 </r>
       <r>  -12.6171    1.0000 </r>
       <r>  -12.6122    1.0000 </r>
       <r>  -12.6118    1.0000 </r>
       <r>  -12.6113    1.0000 </r>
       <r>  -12.6113    1.0000 </r>
       <r>  -12.6091    1.0000 </r>
       <r>  -12.6091    1.0000 </r>
       <r>  -12.6074    1.0000 </r>
       <r>  -12.5981    1.0000 </r>
       <r>  -12.5981    1.0000 </r>
       <r>  -12.5889    1.0000 </r>
       <r>  -12.5889    1.0000 </r>
       <r>  -12.5886    1.0000 </r>
       <r>  -12.5868    1.0000 </r>
       <r>  -12.5772    1.0000 </r>
       <r>  -12.5771    1.0000 </r>
       <r>  -12.5766    1.0000 </r>
       <r>  -12.5766    1.0000 </r>
       <r>  -12.5765    1.0000 </r>
       <r>  -12.5765    1.0000 </r>
       <r>  -12.5737    1.0000 </r>
       <r>  -12.5737    1.0000 </r>
       <r>  -12.5644    1.0000 </r>
       <r>  -12.5644    1.0000 </r>
       <r>  -12.5638    1.0000 </r>
       <r>  -12.5638    1.0000 </r>
       <r>  -12.5621    1.0000 </r>
       <r>  -12.5621    1.0000 </r>
       <r>  -12.5601    1.0000 </r>
       <r>  -12.5595    1.0000 </r>
       <r>  -12.5595    1.0000 </r>
       <r>  -12.5574    1.0000 </r>
       <r>  -12.5550    1.0000 </r>
       <r>  -12.5540    1.0000 </r>
       <r>  -12.5540    1.0000 </r>
       <r>  -12.5532    1.0000 </r>
       <r>  -12.5433    1.0000 </r>
       <r>  -12.5403    1.0000 </r>
       <r>  -12.5403    1.0000 </r>
       <r>  -12.5270    1.0000 </r>
       <r>  -12.5251    1.0000 </r>
       <r>  -12.5251    1.0000 </r>
       <r>  -12.5131    1.0000 </r>
       <r>  -12.5131    1.0000 </r>
       <r>  -12.5097    1.0000 </r>
       <r>  -12.5077    1.0000 </r>
       <r>  -12.5074    1.0000 </r>
       <r>  -12.5063    1.0000 </r>
       <r>  -12.5052    1.0000 </r>
       <r>  -12.4987    1.0000 </r>
       <r>  -12.4987    1.0000 </r>
       <r>  -12.4986    1.0000 </r>
       <r>  -12.4986    1.0000 </r>
       <r>  -12.4982    1.0000 </r>
       <r>  -12.4798    1.0000 </r>
       <r>  -12.4798    1.0000 </r>
       <r>  -12.4466    1.0000 </r>
       <r>  -12.4266    1.0000 </r>
       <r>  -12.4190    1.0000 </r>
       <r>  -12.4190    1.0000 </r>
       <r>  -12.3846    1.0000 </r>
       <r>  -12.3802    1.0000 </r>
       <r>  -12.3582    1.0000 </r>
       <r>  -12.3582    1.0000 </r>
       <r>  -12.3508    1.0000 </r>
       <r>  -12.3138    1.0000 </r>
       <r>  -12.2722    1.0000 </r>
       <r>  -12.2465    1.0000 </r>
       <r>  -12.2465    1.0000 </r>
       <r>  -12.2155    1.0000 </r>
       <r>  -12.1953    1.0000 </r>
       <r>  -12.1953    1.0000 </r>
       <r>  -12.1805    1.0000 </r>
       <r>  -12.1805    1.0000 </r>
       <r>  -12.1714    1.0000 </r>
       <r>  -12.1714    1.0000 </r>
       <r>  -12.1425    1.0000 </r>
       <r>  -12.1172    1.0000 </r>
       <r>  -12.1172    1.0000 </r>
       <r>  -12.0814    1.0000 </r>
       <r>  -12.0813    1.0000 </r>
       <r>  -11.9256    1.0000 </r>
       <r>  -11.9256    1.0000 </r>
       <r>  -11.9215    1.0000 </r>
       <r>  -11.9215    1.0000 </r>
       <r>  -11.8837    1.0000 </r>
       <r>  -11.8768    1.0000 </r>
       <r>  -11.8768    1.0000 </r>
       <r>  -11.8651    1.0000 </r>
       <r>  -11.8651    1.0000 </r>
       <r>  -11.8615    1.0000 </r>
       <r>  -11.8615    1.0000 </r>
       <r>  -11.8520    1.0000 </r>
       <r>  -11.8017    1.0000 </r>
       <r>  -11.8017    1.0000 </r>
       <r>  -11.7838    1.0000 </r>
       <r>  -11.7838    1.0000 </r>
       <r>  -11.7691    1.0000 </r>
       <r>  -11.7691    1.0000 </r>
       <r>  -11.7012    1.0000 </r>
       <r>  -11.6886    1.0000 </r>
       <r>  -11.6886    1.0000 </r>
       <r>  -11.5515    1.0000 </r>
       <r>   -5.1360    1.0000 </r>
       <r>   -5.1250    1.0000 </r>
       <r>   -4.8282    1.0000 </r>
       <r>   -4.8282    1.0000 </r>
       <r>   -4.5009    1.0000 </r>
       <r>   -4.5009    1.0000 </r>
       <r>   -4.4177    1.0000 </r>
       <r>   -4.4177    1.0000 </r>
       <r>   -4.3753    1.0000 </r>
       <r>   -4.3753    1.0000 </r>
       <r>   -4.3144    1.0000 </r>
       <r>   -4.1978    1.0000 </r>
       <r>   -4.1978    1.0000 </r>
       <r>   -4.1940    1.0000 </r>
       <r>   -4.1940    1.0000 </r>
       <r>   -4.1902    1.0000 </r>
       <r>   -4.1902    1.0000 </r>
       <r>   -4.1584    1.0000 </r>
       <r>   -4.0271    1.0000 </r>
       <r>   -3.9785    1.0000 </r>
       <r>   -3.8500    1.0000 </r>
       <r>   -3.8500    1.0000 </r>
       <r>   -3.7238    1.0000 </r>
       <r>   -3.7146    1.0000 </r>
       <r>   -3.7146    1.0000 </r>
       <r>   -3.7093    1.0000 </r>
       <r>   -3.7093    1.0000 </r>
       <r>   -3.5619    1.0000 </r>
       <r>   -3.5619    1.0000 </r>
       <r>   -3.4960    1.0000 </r>
       <r>   -3.4911    1.0000 </r>
       <r>   -3.4911    1.0000 </r>
       <r>   -3.4621    1.0000 </r>
       <r>   -3.4621    1.0000 </r>
       <r>   -3.1936    1.0000 </r>
       <r>   -3.1745    1.0000 </r>
       <r>   -3.1745    1.0000 </r>
       <r>   -3.1387    1.0000 </r>
       <r>   -3.1318    1.0000 </r>
       <r>   -3.1318    1.0000 </r>
       <r>   -3.1311    1.0000 </r>
       <r>   -3.1311    1.0000 </r>
       <r>   -2.8389    1.0000 </r>
       <r>   -2.8192    1.0000 </r>
       <r>   -2.7133    1.0000 </r>
       <r>   -2.7133    1.0000 </r>
       <r>   -2.5891    1.0000 </r>
       <r>   -2.4650    1.0000 </r>
       <r>   -2.4649    1.0000 </r>
       <r>   -2.4583    1.0000 </r>
       <r>   -2.4583    1.0000 </r>
       <r>   -2.3474    1.0000 </r>
       <r>   -2.3474    1.0000 </r>
       <r>   -2.2879    1.0000 </r>
       <r>   -2.2879    1.0000 </r>
       <r>   -2.2697    1.0000 </r>
       <r>   -2.2602    1.0000 </r>
       <r>   -2.2253    1.0000 </r>
       <r>   -2.2253    1.0000 </r>
       <r>   -2.2016    1.0000 </r>
       <r>   -1.9648    1.0000 </r>
       <r>   -1.9648    1.0000 </r>
       <r>   -1.9504    1.0000 </r>
       <r>   -1.9504    1.0000 </r>
       <r>   -1.8384    1.0000 </r>
       <r>   -1.8384    1.0000 </r>
       <r>   -1.7441    1.0000 </r>
       <r>   -1.7441    1.0000 </r>
       <r>   -1.6539    1.0000 </r>
       <r>   -1.6538    1.0000 </r>
       <r>   -1.6412    1.0000 </r>
       <r>   -1.6180    1.0000 </r>
       <r>   -1.5761    1.0000 </r>
       <r>   -1.5761    1.0000 </r>
       <r>   -1.5760    1.0000 </r>
       <r>   -1.5760    1.0000 </r>
       <r>   -1.4605    1.0000 </r>
       <r>   -1.4605    1.0000 </r>
       <r>   -1.3384    1.0000 </r>
       <r>   -1.3383    1.0000 </r>
       <r>   -1.1954    1.0000 </r>
       <r>   -1.1953    1.0000 </r>
       <r>   -1.1665    1.0000 </r>
       <r>   -1.1105    1.0000 </r>
       <r>   -1.1105    1.0000 </r>
       <r>   -1.0672    1.0000 </r>
       <r>   -1.0495    1.0000 </r>
       <r>   -0.9676    1.0000 </r>
       <r>   -0.9676    1.0000 </r>
       <r>   -0.9332    1.0000 </r>
       <r>   -0.8704    1.0000 </r>
       <r>   -0.8704    1.0000 </r>
       <r>   -0.8578    1.0000 </r>
       <r>   -0.8578    1.0000 </r>
       <r>   -0.6843    1.0000 </r>
       <r>   -0.6019    1.0000 </r>
       <r>   -0.5972    1.0000 </r>
       <r>   -0.5971    1.0000 </r>
       <r>   -0.5935    1.0000 </r>
       <r>   -0.5705    1.0000 </r>
       <r>   -0.5705    1.0000 </r>
       <r>   -0.5257    1.0000 </r>
       <r>   -0.5108    1.0000 </r>
       <r>   -0.5108    1.0000 </r>
       <r>   -0.4758    1.0000 </r>
       <r>   -0.4232    1.0000 </r>
       <r>   -0.3801    1.0000 </r>
       <r>   -0.2671    1.0000 </r>
       <r>   -0.2594    1.0000 </r>
       <r>   -0.2594    1.0000 </r>
       <r>   -0.2541    1.0000 </r>
       <r>   -0.2535    1.0000 </r>
       <r>   -0.2535    1.0000 </r>
       <r>   -0.2231    1.0000 </r>
       <r>   -0.2231    1.0000 </r>
       <r>   -0.2133    1.0000 </r>
       <r>   -0.2133    1.0000 </r>
       <r>   -0.1629    1.0000 </r>
       <r>   -0.1628    1.0000 </r>
       <r>   -0.1174    1.0000 </r>
       <r>   -0.0836    1.0000 </r>
       <r>   -0.0785    1.0000 </r>
       <r>   -0.0575    1.0000 </r>
       <r>   -0.0575    1.0000 </r>
       <r>   -0.0040    1.0000 </r>
       <r>   -0.0040    1.0000 </r>
       <r>    0.0355    1.0000 </r>
       <r>    0.0658    1.0000 </r>
       <r>    0.0941    1.0000 </r>
       <r>    0.0941    1.0000 </r>
       <r>    0.1164    1.0000 </r>
       <r>    0.1311    1.0000 </r>
       <r>    0.1501    1.0000 </r>
       <r>    0.2389    1.0000 </r>
       <r>    0.2884    1.0000 </r>
       <r>    0.3699    1.0000 </r>
       <r>    0.4241    1.0000 </r>
       <r>    0.4241    1.0000 </r>
       <r>    0.4415    1.0000 </r>
       <r>    0.5555    1.0000 </r>
       <r>    0.5555    1.0000 </r>
       <r>    0.5805    1.0000 </r>
       <r>    0.6289    1.0000 </r>
       <r>    0.6289    1.0000 </r>
       <r>    0.6382    1.0000 </r>
       <r>    0.6752    1.0000 </r>
       <r>    0.6764    1.0000 </r>
       <r>    0.6823    1.0000 </r>
       <r>    0.7266    1.0000 </r>
       <r>    0.7278    1.0000 </r>
       <r>    0.7278    1.0000 </r>
       <r>    0.8174    1.0000 </r>
       <r>    0.8174    1.0000 </r>
       <r>    0.8220    1.0000 </r>
       <r>    0.8221    1.0000 </r>
       <r>    0.8869    1.0000 </r>
       <r>    0.8870    1.0000 </r>
       <r>    0.8923    1.0000 </r>
       <r>    0.8923    1.0000 </r>
       <r>    0.9319    1.0000 </r>
       <r>    0.9320    1.0000 </r>
       <r>    0.9456    1.0000 </r>
       <r>    0.9456    1.0000 </r>
       <r>    0.9521    1.0000 </r>
       <r>    0.9700    1.0000 </r>
       <r>    0.9725    1.0000 </r>
       <r>    0.9725    1.0000 </r>
       <r>    1.0080    1.0000 </r>
       <r>    1.1865    1.0000 </r>
       <r>    1.1865    1.0000 </r>
       <r>    1.2325    1.0000 </r>
       <r>    1.2325    1.0000 </r>
       <r>    1.2436    1.0000 </r>
       <r>    1.2436    1.0000 </r>
       <r>    1.2858    1.0000 </r>
       <r>    1.2858    1.0000 </r>
       <r>    1.3072    1.0000 </r>
       <r>    1.3109    1.0000 </r>
       <r>    1.3624    1.0000 </r>
       <r>    1.3670    1.0000 </r>
       <r>    1.3670    1.0000 </r>
       <r>    1.3766    1.0000 </r>
       <r>    1.3767    1.0000 </r>
       <r>    1.3783    1.0000 </r>
       <r>    1.3783    1.0000 </r>
       <r>    1.4674    1.0000 </r>
       <r>    1.4882    1.0000 </r>
       <r>    1.5079    1.0000 </r>
       <r>    1.5167    1.0000 </r>
       <r>    1.5207    1.0000 </r>
       <r>    1.5384    1.0000 </r>
       <r>    1.5587    1.0000 </r>
       <r>    1.5587    1.0000 </r>
       <r>    1.5590    1.0000 </r>
       <r>    1.5628    1.0000 </r>
       <r>    1.6005    1.0000 </r>
       <r>    1.6005    1.0000 </r>
       <r>    1.6059    1.0000 </r>
       <r>    1.6059    1.0000 </r>
       <r>    1.6195    1.0000 </r>
       <r>    1.6373    1.0000 </r>
       <r>    1.7087    1.0000 </r>
       <r>    1.7284    1.0000 </r>
       <r>    1.7285    1.0000 </r>
       <r>    1.7542    1.0000 </r>
       <r>    1.7542    1.0000 </r>
       <r>    1.7597    1.0000 </r>
       <r>    1.8011    1.0000 </r>
       <r>    1.8756    1.0000 </r>
       <r>    1.8790    1.0000 </r>
       <r>    1.9267    1.0000 </r>
       <r>    1.9267    1.0000 </r>
       <r>    1.9750    1.0000 </r>
       <r>    1.9751    1.0000 </r>
       <r>    2.0936    1.0000 </r>
       <r>    2.0937    1.0000 </r>
       <r>    6.7428    0.0000 </r>
       <r>    8.9992    0.0000 </r>
       <r>    9.2217    0.0000 </r>
       <r>    9.2499    0.0000 </r>
       <r>    9.3418    0.0000 </r>
       <r>    9.6895    0.0000 </r>
       <r>    9.8142    0.0000 </r>
       <r>   10.2699    0.0000 </r>
       <r>   10.2828    0.0000 </r>
       <r>   10.2832    0.0000 </r>
       <r>   10.2935    0.0000 </r>
       <r>   10.4195    0.0000 </r>
       <r>   10.4196    0.0000 </r>
       <r>   10.5827    0.0000 </r>
       <r>   10.5834    0.0000 </r>
       <r>   10.7921    0.0000 </r>
       <r>   10.7924    0.0000 </r>
       <r>   10.8594    0.0000 </r>
       <r>   10.8597    0.0000 </r>
       <r>   10.8755    0.0000 </r>
       <r>   10.8938    0.0000 </r>
       <r>   10.8940    0.0000 </r>
       <r>   10.9690    0.0000 </r>
       <r>   10.9694    0.0000 </r>
       <r>   11.1641    0.0000 </r>
       <r>   11.1965    0.0000 </r>
       <r>   11.2614    0.0000 </r>
       <r>   11.3627    0.0000 </r>
       <r>   11.3630    0.0000 </r>
       <r>   11.4371    0.0000 </r>
       <r>   11.4558    0.0000 </r>
       <r>   11.5300    0.0000 </r>
       <r>   11.5325    0.0000 </r>
       <r>   11.5593    0.0000 </r>
       <r>   11.7521    0.0000 </r>
       <r>   11.7521    0.0000 </r>
       <r>   11.9046    0.0000 </r>
       <r>   12.1141    0.0000 </r>
       <r>   12.1190    0.0000 </r>
       <r>   12.1868    0.0000 </r>
       <r>   12.1887    0.0000 </r>
       <r>   12.3513    0.0000 </r>
       <r>   12.3535    0.0000 </r>
       <r>   12.3864    0.0000 </r>
       <r>   12.4537    0.0000 </r>
       <r>   12.4559    0.0000 </r>
       <r>   12.5162    0.0000 </r>
       <r>   12.5876    0.0000 </r>
       <r>   12.8112    0.0000 </r>
       <r>   13.0327    0.0000 </r>
       <r>   13.1550    0.0000 </r>
       <r>   13.1574    0.0000 </r>
       <r>   13.1879    0.0000 </r>
       <r>   13.1909    0.0000 </r>
       <r>   13.2693    0.0000 </r>
       <r>   13.4668    0.0000 </r>
       <r>   13.8293    0.0000 </r>
       <r>   13.8802    0.0000 </r>
       <r>   13.9552    0.0000 </r>
       <r>   14.0067    0.0000 </r>
       <r>   14.0843    0.0000 </r>
       <r>   14.1441    0.0000 </r>
       <r>   14.1751    0.0000 </r>
       <r>   14.1937    0.0000 </r>
       <r>   14.2542    0.0000 </r>
       <r>   14.2788    0.0000 </r>
       <r>   14.4952    0.0000 </r>
       <r>   14.5742    0.0000 </r>
       <r>   14.6382    0.0000 </r>
       <r>   14.6973    0.0000 </r>
       <r>   15.0569    0.0000 </r>
       <r>   15.1492    0.0000 </r>
       <r>   15.1769    0.0000 </r>
       <r>   15.2086    0.0000 </r>
       <r>   15.2348    0.0000 </r>
       <r>   15.2883    0.0000 </r>
       <r>   15.3092    0.0000 </r>
       <r>   15.3872    0.0000 </r>
       <r>   15.5810    0.0000 </r>
       <r>   15.6689    0.0000 </r>
       <r>   16.0704    0.0000 </r>
       <r>   16.0793    0.0000 </r>
       <r>   16.1466    0.0000 </r>
       <r>   16.2212    0.0000 </r>
       <r>   16.2698    0.0000 </r>
       <r>   16.3162    0.0000 </r>
[...]
       <r>   -12.0167   100.8467   580.3047 </r>
       <r>   -11.8794   107.2835   595.0366 </r>
       <r>   -11.7421   129.0322   612.7550 </r>
       <r>   -11.6047    74.9830   623.0515 </r>
       <r>   -11.4674     6.8909   623.9978 </r>
       <r>   -11.3301     0.0162   624.0000 </r>
       <r>   -11.1928     0.0000   624.0000 </r>
       <r>   -11.0555     0.0000   624.0000 </r>
       <r>   -10.9182     0.0000   624.0000 </r>
       <r>   -10.7808     0.0000   624.0000 </r>
       <r>   -10.6435     0.0000   624.0000 </r>
       <r>   -10.5062     0.0000   624.0000 </r>
       <r>   -10.3689     0.0000   624.0000 </r>
       <r>   -10.2316     0.0000   624.0000 </r>
       <r>   -10.0943     0.0000   624.0000 </r>
       <r>    -9.9569     0.0000   624.0000 </r>
       <r>    -9.8196     0.0000   624.0000 </r>
       <r>    -9.6823     0.0000   624.0000 </r>
       <r>    -9.5450     0.0000   624.0000 </r>
       <r>    -9.4077     0.0000   624.0000 </r>
       <r>    -9.2703     0.0000   624.0000 </r>
       <r>    -9.1330     0.0000   624.0000 </r>
       <r>    -8.9957     0.0000   624.0000 </r>
       <r>    -8.8584     0.0000   624.0000 </r>
       <r>    -8.7211     0.0000   624.0000 </r>
       <r>    -8.5838     0.0000   624.0000 </r>
       <r>    -8.4464     0.0000   624.0000 </r>
       <r>    -8.3091     0.0000   624.0000 </r>
       <r>    -8.1718     0.0000   624.0000 </r>
       <r>    -8.0345     0.0000   624.0000 </r>
       <r>    -7.8972     0.0000   624.0000 </r>
       <r>    -7.7598     0.0000   624.0000 </r>
       <r>    -7.6225     0.0000   624.0000 </r>
       <r>    -7.4852     0.0000   624.0000 </r>
       <r>    -7.3479     0.0000   624.0000 </r>
       <r>    -7.2106     0.0000   624.0000 </r>
       <r>    -7.0733     0.0000   624.0000 </r>
       <r>    -6.9359     0.0000   624.0000 </r>
       <r>    -6.7986     0.0000   624.0000 </r>
       <r>    -6.6613     0.0000   624.0000 </r>
       <r>    -6.5240     0.0000   624.0000 </r>
       <r>    -6.3867     0.0000   624.0000 </r>
       <r>    -6.2494     0.0000   624.0000 </r>
       <r>    -6.1120     0.0000   624.0000 </r>
       <r>    -5.9747     0.0000   624.0000 </r>
       <r>    -5.8374     0.0000   624.0000 </r>
       <r>    -5.7001     0.0000   624.0000 </r>
       <r>    -5.5628     0.0000   624.0000 </r>
       <r>    -5.4254     0.0000   624.0000 </r>
       <r>    -5.2881     0.0000   624.0000 </r>
       <r>    -5.1508     1.7897   624.2458 </r>
       <r>    -5.0135     6.6789   625.1629 </r>
       <r>    -4.8762    20.8309   628.0233 </r>
       <r>    -4.7389    24.1180   631.3352 </r>
       <r>    -4.6015    35.1464   636.1614 </r>
       <r>    -4.4642    30.7260   640.3806 </r>
       <r>    -4.3269    50.4593   647.3096 </r>
       <r>    -4.1896    45.6520   653.5784 </r>
       <r>    -4.0523    63.2527   662.2641 </r>
       <r>    -3.9150    46.0428   668.5866 </r>
       <r>    -3.7776    32.7591   673.0850 </r>
       <r>    -3.6403    67.1801   682.3101 </r>
       <r>    -3.5030    27.7049   686.1144 </r>
       <r>    -3.3657    35.3721   690.9716 </r>
       <r>    -3.2284    20.0373   693.7231 </r>
       <r>    -3.0910    39.5560   699.1549 </r>
       <r>    -2.9537    36.2109   704.1273 </r>
       <r>    -2.8164    43.4229   710.0900 </r>
       <r>    -2.6791    27.1718   713.8212 </r>
       <r>    -2.5418    34.0352   718.4948 </r>
       <r>    -2.4045    41.9022   724.2487 </r>
       <r>    -2.2671    30.7211   728.4673 </r>
       <r>    -2.1298    59.5347   736.6424 </r>
       <r>    -1.9925    29.0584   740.6327 </r>
       <r>    -1.8552    39.1381   746.0070 </r>
       <r>    -1.7179    75.5356   756.3794 </r>
       <r>    -1.5805    74.4159   766.5980 </r>
       <r>    -1.4432    49.9684   773.4596 </r>
       <r>    -1.3059    67.7474   782.7625 </r>
       <r>    -1.1686    65.7281   791.7881 </r>
       <r>    -1.0313    41.3190   797.4620 </r>
       <r>    -0.8940    53.1987   804.7671 </r>
       <r>    -0.7566    83.8164   816.2766 </r>
       <r>    -0.6193    60.0783   824.5264 </r>
       <r>    -0.4820    88.7601   836.7148 </r>
       <r>    -0.3447    55.1118   844.2826 </r>
       <r>    -0.2074    63.1703   852.9570 </r>
       <r>    -0.0701    72.2009   862.8715 </r>
       <r>     0.0673    77.7840   873.5526 </r>
       <r>     0.2046    87.7731   885.6054 </r>
       <r>     0.3419    64.1081   894.4086 </r>
       <r>     0.4792    63.2770   903.0976 </r>
       <r>     0.6165    84.0954   914.6454 </r>
       <r>     0.7539    92.2667   927.3153 </r>
       <r>     0.8912    94.1554   940.2445 </r>
       <r>     1.0285    91.1242   952.7575 </r>
       <r>     1.1658    83.4775   964.2204 </r>
       <r>     1.3031   136.8888   983.0177 </r>
       <r>     1.4404   120.7594   999.6001 </r>
       <r>     1.5778   135.7592  1018.2422 </r>
       <r>     1.7151   113.6505  1033.8485 </r>
       <r>     1.8524    65.6697  1042.8661 </r>
       <r>     1.9897    50.7802  1049.8391 </r>
       <r>     2.1270    43.1118  1055.7591 </r>
       <r>     2.2643     1.7542  1056.0000 </r>
       <r>     2.4017     0.0000  1056.0000 </r>
       <r>     2.5390     0.0000  1056.0000 </r>
       <r>     2.6763     0.0000  1056.0000 </r>
       <r>     2.8136     0.0000  1056.0000 </r>
       <r>     2.9509     0.0000  1056.0000 </r>
       <r>     3.0883     0.0000  1056.0000 </r>
       <r>     3.2256     0.0000  1056.0000 </r>
       <r>     3.3629     0.0000  1056.0000 </r>
       <r>     3.5002     0.0000  1056.0000 </r>
       <r>     3.6375     0.0000  1056.0000 </r>
       <r>     3.7748     0.0000  1056.0000 </r>
       <r>     3.9122     0.0000  1056.0000 </r>
       <r>     4.0495     0.0000  1056.0000 </r>
       <r>     4.1868     0.0000  1056.0000 </r>
       <r>     4.3241     0.0000  1056.0000 </r>
       <r>     4.4614     0.0000  1056.0000 </r>
       <r>     4.5987     0.0000  1056.0000 </r>
       <r>     4.7361     0.0000  1056.0000 </r>
       <r>     4.8734     0.0000  1056.0000 </r>
       <r>     5.0107     0.0000  1056.0000 </r>
       <r>     5.1480     0.0000  1056.0000 </r>
       <r>     5.2853     0.0000  1056.0000 </r>
       <r>     5.4227     0.0000  1056.0000 </r>
       <r>     5.5600     0.0000  1056.0000 </r>
       <r>     5.6973     0.0000  1056.0000 </r>
       <r>     5.8346     0.0000  1056.0000 </r>
       <r>     5.9719     0.0000  1056.0000 </r>
       <r>     6.1092     0.0000  1056.0000 </r>
       <r>     6.2466     0.0000  1056.0000 </r>
       <r>     6.3839     0.0000  1056.0000 </r>
       <r>     6.5212     0.0000  1056.0000 </r>
       <r>     6.6585     0.0156  1056.0021 </r>
       <r>     6.7958     1.6835  1056.2333 </r>
       <r>     6.9332     0.1215  1056.2500 </r>
       <r>     7.0705     0.0000  1056.2500 </r>
       <r>     7.2078     0.0000  1056.2500 </r>
       <r>     7.3451     0.0000  1056.2500 </r>
       <r>     7.4824     0.0351  1056.2548 </r>
       <r>     7.6197     4.2049  1056.8322 </r>
       <r>     7.7571     3.0392  1057.2496 </r>
       <r>     7.8944     0.2587  1057.2851 </r>
       <r>     8.0317     5.1146  1057.9874 </r>
       <r>     8.1690     1.9120  1058.2500 </r>
       <r>     8.3063     0.0002  1058.2500 </r>
       <r>     8.4436     0.6217  1058.3354 </r>
       <r>     8.5810    10.1918  1059.7349 </r>
       <r>     8.7183     5.9497  1060.5519 </r>
       <r>     8.8556     2.4713  1060.8912 </r>
       <r>     8.9929     7.0178  1061.8549 </r>
       <r>     9.1302     2.6709  1062.2217 </r>
       <r>     9.2676     8.2026  1063.3480 </r>
       <r>     9.4049    10.1441  1064.7410 </r>
       <r>     9.5422     3.1022  1065.1670 </r>
       <r>     9.6795     2.2515  1065.4761 </r>
       <r>     9.8168    15.5481  1067.6112 </r>
       <r>     9.9541    13.8385  1069.5114 </r>
       <r>    10.0915     8.0063  1070.6109 </r>
       <r>    10.2288     5.7552  1071.4011 </r>
       <r>    10.3661    23.8476  1074.6758 </r>
       <r>    10.5034    29.8528  1078.7752 </r>
       <r>    10.6407    32.7996  1083.2791 </r>
       <r>    10.7780    43.3610  1089.2334 </r>
       <r>    10.9154    53.6481  1096.6002 </r>
       <r>    11.0527    18.4945  1099.1398 </r>
       <r>    11.1900    24.3540  1102.4841 </r>
       <r>    11.3273    33.1127  1107.0310 </r>
       <r>    11.4646    29.4394  1111.0736 </r>
       <r>    11.6020    29.6041  1115.1387 </r>
       <r>    11.7393    42.6423  1120.9943 </r>
       <r>    11.8766    33.9714  1125.6592 </r>
       <r>    12.0139    38.3944  1130.9314 </r>
       <r>    12.1512    15.9134  1133.1166 </r>
       <r>    12.2885    28.7313  1137.0619 </r>
       <r>    12.4259    39.1734  1142.4411 </r>
       <r>    12.5632    40.2273  1147.9650 </r>
       <r>    12.7005    50.2816  1154.8696 </r>
       <r>    12.8378    25.7644  1158.4075 </r>
       <r>    12.9751    19.5379  1161.0904 </r>
       <r>    13.1125     5.7743  1161.8833 </r>
       <r>    13.2498    18.3076  1164.3973 </r>
       <r>    13.3871    13.4655  1166.2463 </r>
       <r>    13.5244    15.5937  1168.3876 </r>
       <r>    13.6617    20.6337  1171.2210 </r>
       <r>    13.7990    21.0444  1174.1108 </r>
       <r>    13.9364    22.7723  1177.2378 </r>
       <r>    14.0737    28.9461  1181.2126 </r>
       <r>    14.2110    28.6584  1185.1479 </r>
       <r>    14.3483    33.9418  1189.8087 </r>
       <r>    14.4856    15.6106  1191.9524 </r>
       <r>    14.6229    11.0882  1193.4750 </r>
       <r>    14.7603    14.5649  1195.4750 </r>
       <r>    14.8976    10.7185  1196.9468 </r>
       <r>    15.0349    24.5382  1200.3163 </r>
       <r>    15.1722    24.6920  1203.7070 </r>
       <r>    15.3095    30.7458  1207.9289 </r>
       <r>    15.4469    20.2593  1210.7109 </r>
       <r>    15.5842    23.5751  1213.9482 </r>
       <r>    15.7215    34.3191  1218.6608 </r>
       <r>    15.8588    27.4905  1222.4357 </r>
       <r>    15.9961    20.5106  1225.2522 </r>
       <r>    16.1334    22.2852  1228.3124 </r>
       <r>    16.2708    23.1584  1231.4924 </r>
       <r>    16.4081    22.2273  1234.5446 </r>
       <r>    16.5454    25.2319  1238.0094 </r>
       <r>    16.6827    25.4144  1241.4992 </r>
       <r>    16.8200    21.8106  1244.4942 </r>
       <r>    16.9573    23.1009  1247.6664 </r>
       <r>    17.0947    17.9338  1250.1290 </r>
       <r>    17.2320    19.6311  1252.8247 </r>
       <r>    17.3693    13.2021  1254.6376 </r>
       <r>    17.5066    10.8483  1256.1273 </r>
       <r>    17.6439    14.0285  1258.0536 </r>
       <r>    17.7813    14.8433  1260.0919 </r>
       <r>    17.9186    10.2409  1261.4982 </r>
       <r>    18.0559     9.8971  1262.8572 </r>
       <r>    18.1932     3.0042  1263.2697 </r>
       <r>    18.3305     6.5027  1264.1627 </r>
       <r>    18.4678     3.8211  1264.6874 </r>
       <r>    18.6052     4.4830  1265.3030 </r>
       <r>    18.7425     3.3925  1265.7688 </r>
       <r>    18.8798     1.6713  1265.9983 </r>
       <r>    19.0171     0.0122  1266.0000 </r>
       <r>    19.1544     0.0000  1266.0000 </r>
       <r>    19.2917     0.0000  1266.0000 </r>
       <r>    19.4291     0.0000  1266.0000 </r>
       <r>    19.5664     0.0000  1266.0000 </r>
       <r>    19.7037     0.0000  1266.0000 </r>
       <r>    19.8410     0.0000  1266.0000 </r>
       <r>    19.9783     0.0000  1266.0000 </r>
       <r>    20.1157     0.0000  1266.0000 </r>
       <r>    20.2530     0.0000  1266.0000 </r>
       <r>    20.3903     0.0000  1266.0000 </r>
       <r>    20.5276     0.0000  1266.0000 </r>
       <r>    20.6649     0.0000  1266.0000 </r>
      </set>
     </set>
    </array>
   </total>
  </dos>
 </calculation>
 <structure name="finalpos" >
  <crystal>
   <varray name="basis" >
    <v>       0.00000000      12.28047342       0.00000000 </v>
    <v>       9.14270205       0.00000000       0.00000000 </v>
    <v>       0.00000000      -2.76826177     -11.30069772 </v>
   </varray>
   <i name="volume">   1268.80515525 </i>
   <varray name="rec_basis" >
    <v>       0.00000000       0.08143009      -0.01994742 </v>
    <v>       0.10937686      -0.00000000       0.00000000 </v>
    <v>       0.00000000       0.00000000      -0.08849011 </v>
   </varray>
  </crystal>
  <varray name="positions" >
   <v>       0.65901370       0.00000000       0.15659438 </v>
   <v>       0.65901370       0.00000000       0.65659438 </v>
   <v>       0.65901370       0.33333333       0.15659438 </v>
   <v>       0.65901370       0.33333333       0.65659438 </v>
   <v>       0.65901370       0.66666667       0.15659438 </v>
   <v>       0.65901370       0.66666667       0.65659438 </v>
   <v>       0.84098630       0.16666667       0.34340562 </v>
   <v>       0.84098630       0.16666667       0.84340562 </v>
   <v>       0.84098630       0.50000000       0.34340562 </v>
   <v>       0.84098630       0.50000000       0.84340562 </v>
   <v>       0.84098630       0.83333333       0.34340562 </v>
   <v>       0.84098630       0.83333333       0.84340562 </v>
   <v>       0.59108851       0.16666667       0.39757803 </v>
   <v>       0.59108851       0.16666667       0.89757803 </v>
   <v>       0.59108851       0.50000000       0.39757803 </v>
   <v>       0.59108851       0.50000000       0.89757803 </v>
   <v>       0.59108851       0.83333333       0.39757803 </v>
   <v>       0.59108851       0.83333333       0.89757803 </v>
   <v>       0.90891149       0.00000000       0.10242197 </v>
   <v>       0.90891149       0.00000000       0.60242197 </v>
   <v>       0.90891149       0.33333333       0.10242197 </v>
   <v>       0.90891149       0.33333333       0.60242197 </v>
   <v>       0.90891149       0.66666667       0.10242197 </v>
   <v>       0.90891149       0.66666667       0.60242197 </v>
   <v>       0.15901370       0.16666667       0.15659438 </v>
   <v>       0.15901370       0.16666667       0.65659438 </v>
   <v>       0.15901370       0.50000000       0.15659438 </v>
   <v>       0.15901370       0.50000000       0.65659438 </v>
   <v>       0.15901370       0.83333333       0.15659438 </v>
   <v>       0.15901370       0.83333333       0.65659438 </v>
   <v>       0.34098630       0.00000000       0.34340562 </v>
   <v>       0.34098630       0.00000000       0.84340562 </v>
   <v>       0.34098630       0.33333333       0.34340562 </v>
   <v>       0.34098630       0.33333333       0.84340562 </v>
   <v>       0.34098630       0.66666667       0.34340562 </v>
   <v>       0.34098630       0.66666667       0.84340562 </v>
   <v>       0.09108851       0.00000000       0.39757803 </v>
   <v>       0.09108851       0.00000000       0.89757803 </v>
   <v>       0.09108851       0.33333333       0.39757803 </v>
   <v>       0.09108851       0.33333333       0.89757803 </v>
   <v>       0.09108851       0.66666667       0.39757803 </v>
   <v>       0.09108851       0.66666667       0.89757803 </v>
   <v>       0.40891149       0.16666667       0.10242197 </v>
   <v>       0.40891149       0.16666667       0.60242197 </v>
   <v>       0.40891149       0.50000000       0.10242197 </v>
   <v>       0.40891149       0.50000000       0.60242197 </v>
   <v>       0.40891149       0.83333333       0.10242197 </v>
   <v>       0.40891149       0.83333333       0.60242197 </v>
   <v>       0.99636539       0.16666667       0.12722771 </v>
   <v>       0.99636539       0.16666667       0.62722771 </v>
   <v>       0.99636539       0.50000000       0.12722771 </v>
   <v>       0.99636539       0.50000000       0.62722771 </v>
   <v>       0.99636539       0.83333333       0.12722771 </v>
   <v>       0.99636539       0.83333333       0.62722771 </v>
   <v>       0.50363461       0.00000000       0.37277229 </v>
   <v>       0.50363461       0.00000000       0.87277229 </v>
   <v>       0.50363461       0.33333333       0.37277229 </v>
   <v>       0.50363461       0.33333333       0.87277229 </v>
   <v>       0.50363461       0.66666667       0.37277229 </v>
   <v>       0.50363461       0.66666667       0.87277229 </v>
   <v>       0.67253705       0.16666667       0.28039613 </v>
   <v>       0.67253705       0.16666667       0.78039613 </v>
   <v>       0.67253705       0.50000000       0.28039613 </v>
   <v>       0.67253705       0.50000000       0.78039613 </v>
   <v>       0.67253705       0.83333333       0.28039613 </v>
   <v>       0.67253705       0.83333333       0.78039613 </v>
   <v>       0.82746295       0.00000000       0.21960387 </v>
   <v>       0.82746295       0.00000000       0.71960387 </v>
   <v>       0.82746295       0.33333333       0.21960387 </v>
   <v>       0.82746295       0.33333333       0.71960387 </v>
   <v>       0.82746295       0.66666667       0.21960387 </v>
   <v>       0.82746295       0.66666667       0.71960387 </v>
   <v>       0.83208626       0.00000000       0.44580823 </v>
   <v>       0.83208626       0.00000000       0.94580823 </v>
   <v>       0.83208626       0.33333333       0.44580823 </v>
   <v>       0.83208626       0.33333333       0.94580823 </v>
   <v>       0.83208626       0.66666667       0.44580823 </v>
   <v>       0.83208626       0.66666667       0.94580823 </v>
   <v>       0.66791374       0.16666667       0.05419177 </v>
   <v>       0.66791374       0.16666667       0.55419177 </v>
   <v>       0.66791374       0.50000000       0.05419177 </v>
   <v>       0.66791374       0.50000000       0.55419177 </v>
   <v>       0.66791374       0.83333333       0.05419177 </v>
   <v>       0.66791374       0.83333333       0.55419177 </v>
   <v>       0.49636539       0.00000000       0.12722771 </v>
   <v>       0.49636539       0.00000000       0.62722771 </v>
   <v>       0.49636539       0.33333333       0.12722771 </v>
   <v>       0.49636539       0.33333333       0.62722771 </v>
   <v>       0.49636539       0.66666667       0.12722771 </v>
   <v>       0.49636539       0.66666667       0.62722771 </v>
   <v>       0.00363461       0.16666667       0.37277229 </v>
   <v>       0.00363461       0.16666667       0.87277229 </v>
   <v>       0.00363461       0.50000000       0.37277229 </v>
   <v>       0.00363461       0.50000000       0.87277229 </v>
   <v>       0.00363461       0.83333333       0.37277229 </v>
   <v>       0.00363461       0.83333333       0.87277229 </v>
   <v>       0.17253705       0.00000000       0.28039613 </v>
   <v>       0.17253705       0.00000000       0.78039613 </v>
   <v>       0.17253705       0.33333333       0.28039613 </v>
   <v>       0.17253705       0.33333333       0.78039613 </v>
   <v>       0.17253705       0.66666667       0.28039613 </v>
   <v>       0.17253705       0.66666667       0.78039613 </v>
   <v>       0.32746295       0.16666667       0.21960387 </v>
   <v>       0.32746295       0.16666667       0.71960387 </v>
   <v>       0.32746295       0.50000000       0.21960387 </v>
   <v>       0.32746295       0.50000000       0.71960387 </v>
   <v>       0.32746295       0.83333333       0.21960387 </v>
   <v>       0.32746295       0.83333333       0.71960387 </v>
   <v>       0.33208626       0.16666667       0.44580823 </v>
   <v>       0.33208626       0.16666667       0.94580823 </v>
   <v>       0.33208626       0.50000000       0.44580823 </v>
   <v>       0.33208626       0.50000000       0.94580823 </v>
   <v>       0.33208626       0.83333333       0.44580823 </v>
   <v>       0.33208626       0.83333333       0.94580823 </v>
   <v>       0.16791374       0.00000000       0.05419177 </v>
   <v>       0.16791374       0.00000000       0.55419177 </v>
   <v>       0.16791374       0.33333333       0.05419177 </v>
   <v>       0.16791374       0.33333333       0.55419177 </v>
   <v>       0.16791374       0.66666667       0.05419177 </v>
   <v>       0.16791374       0.66666667       0.55419177 </v>
  </varray>
 </structure>
</modeling>
