       N       E                     dE             d eps       ncg     rms          ort
DAV:   1    -0.183256593080E+05   -0.18326E+05   -0.54246E+05  5064   0.746E+03
DAV:   2    -0.623874915812E+05   -0.44062E+05   -0.42764E+05  5064   0.119E+03
DAV:   3    -0.669238991071E+05   -0.45364E+04   -0.40448E+04  5064   0.349E+02
DAV:   4    -0.674725511795E+05   -0.54865E+03   -0.46079E+03  5064   0.103E+02
DAV:   5    -0.373634072567E+05    0.30109E+05   -0.71676E+02  5064   0.534E+01
SDA:   6     0.192800433018E+05    0.56643E+05   -0.71676E+02  5064   0.935E+05 0.000E+00
CGA:   7     0.539519643907E+04   -0.13885E+05   -0.13045E+05  5064   0.238E+05 0.927E+04
CGA:   8     0.128854274447E+04   -0.41067E+04   -0.26462E+04  5064   0.120E+05-0.350E+04
CGA:   9     0.100954061592E+04   -0.27900E+03   -0.74844E+03  5064   0.157E+05-0.764E+04
CGA:  10     0.215622085834E+03   -0.79392E+03   -0.11677E+04  5064   0.433E+04-0.198E+04
CGA:  11    -0.128147585554E+03   -0.34377E+03   -0.38578E+03  5064   0.338E+04-0.377E+03
CGA:  12    -0.509865683622E+03   -0.38172E+03   -0.38592E+03  5064   0.328E+04-0.114E+03
CGA:  13    -0.739656797627E+03   -0.22979E+03   -0.33180E+03  5064   0.666E+03 0.102E+03
CGA:  14    -0.865187509574E+03   -0.12553E+03   -0.12345E+03  5064   0.129E+03 0.121E+03
CGA:  15    -0.911151437902E+03   -0.45964E+02   -0.49387E+02  5064   0.560E+02-0.142E+02
CGA:  16    -0.929990700982E+03   -0.18839E+02   -0.17261E+02  5064   0.277E+02 0.404E+01
CGA:  17    -0.910341968757E+03    0.19649E+02   -0.27432E+02  5064   0.133E+03-0.543E+02
CGA:  18    -0.945498742746E+03   -0.35157E+02   -0.35166E+02  5064   0.119E+02-0.130E+00
CGA:  19    -0.949816694831E+03   -0.43180E+01   -0.43193E+01  5064   0.480E+01-0.107E-01
CGA:  20    -0.951702467037E+03   -0.18858E+01   -0.18804E+01  5064   0.117E+01 0.254E-01
CGA:  21    -0.952153898436E+03   -0.45143E+00   -0.45165E+00  5064   0.346E+00-0.227E-02
CGA:  22    -0.952290651077E+03   -0.13675E+00   -0.13693E+00  5064   0.102E+00-0.112E-02
CGA:  23    -0.952326386217E+03   -0.35735E-01   -0.35756E-01  5064   0.273E-01-0.190E-03
CGA:  24    -0.952335910462E+03   -0.95242E-02   -0.95454E-02  5064   0.774E-02-0.230E-03
CGA:  25    -0.952339041685E+03   -0.31312E-02   -0.31435E-02  5064   0.296E-02-0.824E-04
CGA:  26    -0.952340032029E+03   -0.99034E-03   -0.99077E-03  5064   0.909E-03-0.529E-05
CGA:  27    -0.952340368985E+03   -0.33696E-03   -0.33744E-03  5064   0.360E-03-0.474E-05
CGA:  28    -0.952340503880E+03   -0.13489E-03   -0.13537E-03  5064   0.140E-03-0.475E-05
CGA:  29    -0.952340555053E+03   -0.51173E-04   -0.51043E-04  5064   0.580E-04 0.157E-05
CGA:  30    -0.952340574190E+03   -0.19137E-04   -0.19032E-04  5064   0.224E-04 0.298E-05
CGA:  31    -0.952340582686E+03   -0.84956E-05   -0.84037E-05  5064   0.958E-05 0.140E-05
   1 F= -.95234058E+03 E0= -.95234058E+03  d E =-.499494E-17
