 vasp.6.4.2 20Jul23 (build Nov 12 2023 22:16:35) complex                         
 executed on              LinuxNV date 2025.03.22  17:00:06
 running    4 mpi-ranks, on    1 nodes
 distrk:  each k-point on    1 cores,    4 groups
 distr:  one band on NCORE=   1 cores,    1 groups
 OpenACC runtime initialized ...    4 GPUs detected


--------------------------------------------------------------------------------------------------------


 INCAR:
   PREC = Normal
   ENCUT = 450
   NELM = 500
   IBRION = -1
   ISPIN = 1
   NSW = 0
   ISIF = 2
   EDIFF = 1E-5
   EDIFFG = -5E-3
   ISTART = 0
   ICHARG = 0
   ISMEAR = 0
   SIGMA = 0.05
   LWAVE = .T.
   LCHARG = .T.
   LREAL = Auto
   LPLANE = .TRUE.
   NPAR = 1
   KPAR = 4
   NCORE = 1
   ALGO = All
   LHFCALC = .TRUE.
   HSE06 = .TRUE.
   HFSCREEN = 0.2
   TIME = 0.4
   AEXX = 0.32
   LMAXFOCK = 4
   PRECFOCK = Fast
   NELECT = 1056

 POTCAR:    PAW_PBE Ga_d 06Jul2010                
 POTCAR:    PAW_PBE O 08Apr2002                   
 POTCAR:    PAW_PBE N 08Apr2002                   
 POTCAR:    PAW_PBE Ga_d 06Jul2010                
   SHA256 =  a60ddf36e14f00ea098d9e3914b3745f1b7105e68786148f49ae384e44b4226c Ga_d/POTCAR           
   COPYR  = (c) Copyright 06Jul2010 Georg Kresse                                                    
   COPYR  = This file is part of the software VASP. Any use, copying, and all other rights are regul
   COPYR  = If you do not have a valid VASP license, you may not use, copy or distribute this file. 
   VRHFIN =Ga: s2p1                                                                                 
   LEXCH  = PE                                                                                      
   EATOM  =  2148.8298 eV,  157.9345 Ry                                                             
                                                                                                    
   TITEL  = PAW_PBE Ga_d 06Jul2010                                                                  
   LULTRA =        F    use ultrasoft PP ?                                                          
   IUNSCR =        1    unscreen: 0-lin 1-nonlin 2-no                                               
   RPACOR =    1.700    partial core radius                                                         
   POMASS =   69.723; ZVAL   =   13.000    mass and valenz                                          
   RCORE  =    2.300    outmost cutoff radius                                                       
   RWIGS  =    2.300; RWIGS  =    1.217    wigner-seitz radius (au A)                               
   ENMAX  =  282.691; ENMIN  =  212.018 eV                                                          
   ICORE  =        3    local potential                                                             
   LCOR   =        T    correct aug charges                                                         
   LPAW   =        T    paw PP                                                                      
   EAUG   =  490.690                                                                                
   DEXC   =    0.000                                                                                
   RMAX   =    2.341    core radius for proj-oper                                                   
   RAUG   =    1.300    factor for augmentation sphere                                              
   RDEP   =    2.413    radius for radial grids                                                     
   RDEPT  =    1.856    core radius for aug-charge                                                  
                                                                                                    
   Atomic configuration                                                                             
    9 entries                                                                                       
     n  l   j            E        occ.                                                              
     1  0  0.50    -10228.7831   2.0000                                                             
     2  0  0.50     -1262.1604   2.0000                                                             
     2  1  1.50     -1098.6333   6.0000                                                             
     3  0  0.50      -148.1110   2.0000                                                             
     3  1  1.50       -98.8436   6.0000                                                             
     3  2  2.50       -19.1549  10.0000                                                             
     4  0  0.50        -8.9483   2.0000                                                             
     4  1  0.50        -2.5791   1.0000                                                             
     4  3  2.50        -2.7416   0.0000                                                             
   Description                                                                                      
     l       E           TYP  RCUT    TYP  RCUT                                                     
     2    -19.1549037     23  2.300                                                                 
     2     -5.4423304     23  2.300                                                                 
     0     -8.9483111     23  2.300                                                                 
     0     68.0291300     23  2.300                                                                 
     1     -2.5790802     23  2.100                                                                 
     1     81.6349560     23  2.300                                                                 
     3      6.8029130     23  2.300                                                                 
  local pseudopotential read in
  partial core-charges read in
  partial kinetic energy density read in
  atomic valenz-charges read in
  non local Contribution for L=            2  read in
    real space projection operators read in
  non local Contribution for L=            2  read in
    real space projection operators read in
  non local Contribution for L=            0  read in
    real space projection operators read in
  non local Contribution for L=            0  read in
    real space projection operators read in
  non local Contribution for L=            1  read in
    real space projection operators read in
  non local Contribution for L=            1  read in
    real space projection operators read in
    PAW grid and wavefunctions read in
 
   number of l-projection  operators is LMAX  =            6
   number of lm-projection operators is LMMAX =           18
 
 POTCAR:    PAW_PBE O 08Apr2002                   
   SHA256 =  818f92134a0a090dccd8ba1447fa70422a3b330e708bb4f08108d8ae51209ddf O/POTCAR              
   COPYR  = (c) Copyright 08Apr2002 Georg Kresse                                                    
   COPYR  = This file is part of the software VASP. Any use, copying, and all other rights are regul
   COPYR  = If you do not have a valid VASP license, you may not use, copy or distribute this file. 
   VRHFIN =O: s2p4                                                                                  
   LEXCH  = PE                                                                                      
   EATOM  =   432.3788 eV,   31.7789 Ry                                                             
                                                                                                    
   TITEL  = PAW_PBE O 08Apr2002                                                                     
   LULTRA =        F    use ultrasoft PP ?                                                          
   IUNSCR =        1    unscreen: 0-lin 1-nonlin 2-no                                               
   RPACOR =    1.200    partial core radius                                                         
   POMASS =   16.000; ZVAL   =    6.000    mass and valenz                                          
   RCORE  =    1.520    outmost cutoff radius                                                       
   RWIGS  =    1.550; RWIGS  =    0.820    wigner-seitz radius (au A)                               
   ENMAX  =  400.000; ENMIN  =  300.000 eV                                                          
   ICORE  =        2    local potential                                                             
   LCOR   =        T    correct aug charges                                                         
   LPAW   =        T    paw PP                                                                      
   EAUG   =  605.392                                                                                
   DEXC   =    0.000                                                                                
   RMAX   =    1.553    core radius for proj-oper                                                   
   RAUG   =    1.300    factor for augmentation sphere                                              
   RDEP   =    1.550    radius for radial grids                                                     
   RDEPT  =    1.329    core radius for aug-charge                                                  
                                                                                                    
   Atomic configuration                                                                             
    4 entries                                                                                       
     n  l   j            E        occ.                                                              
     1  0  0.50      -514.6923   2.0000                                                             
     2  0  0.50       -23.9615   2.0000                                                             
     2  1  0.50        -9.0305   4.0000                                                             
     3  2  1.50        -9.5241   0.0000                                                             
   Description                                                                                      
     l       E           TYP  RCUT    TYP  RCUT                                                     
     0    -23.9615318     23  1.200                                                                 
     0     -9.5240782     23  1.200                                                                 
     1     -9.0304911     23  1.520                                                                 
     1      8.1634956     23  1.520                                                                 
     2     -9.5240782      7  1.500                                                                 
  local pseudopotential read in
  partial core-charges read in
  partial kinetic energy density read in
  kinetic energy density of atom read in
  atomic valenz-charges read in
  non local Contribution for L=            0  read in
    real space projection operators read in
  non local Contribution for L=            0  read in
    real space projection operators read in
  non local Contribution for L=            1  read in
    real space projection operators read in
  non local Contribution for L=            1  read in
    real space projection operators read in
    PAW grid and wavefunctions read in
 
   number of l-projection  operators is LMAX  =            4
   number of lm-projection operators is LMMAX =            8
 
 POTCAR:    PAW_PBE N 08Apr2002                   
   SHA256 =  e053789ff3a61a86a1b75d8a110fcc91f86041011e7b0817c7c99e4e8a6349d7 N/POTCAR              
   COPYR  = (c) Copyright 08Apr2002 Georg Kresse                                                    
   COPYR  = This file is part of the software VASP. Any use, copying, and all other rights are regul
   COPYR  = If you do not have a valid VASP license, you may not use, copy or distribute this file. 
   VRHFIN =N: s2p3                                                                                  
   LEXCH  = PE                                                                                      
   EATOM  =   264.5486 eV,   19.4438 Ry                                                             
                                                                                                    
   TITEL  = PAW_PBE N 08Apr2002                                                                     
   LULTRA =        F    use ultrasoft PP ?                                                          
   IUNSCR =        1    unscreen: 0-lin 1-nonlin 2-no                                               
   RPACOR =    1.200    partial core radius                                                         
   POMASS =   14.001; ZVAL   =    5.000    mass and valenz                                          
   RCORE  =    1.500    outmost cutoff radius                                                       
   RWIGS  =    1.400; RWIGS  =    0.741    wigner-seitz radius (au A)                               
   ENMAX  =  400.000; ENMIN  =  300.000 eV                                                          
   ICORE  =        2    local potential                                                             
   LCOR   =        T    correct aug charges                                                         
   LPAW   =        T    paw PP                                                                      
   EAUG   =  627.112                                                                                
   DEXC   =    0.000                                                                                
   RMAX   =    1.529    core radius for proj-oper                                                   
   RAUG   =    1.300    factor for augmentation sphere                                              
   RDEP   =    1.514    radius for radial grids                                                     
   RDEPT  =    1.338    core radius for aug-charge                                                  
                                                                                                    
   Atomic configuration                                                                             
    4 entries                                                                                       
     n  l   j            E        occ.                                                              
     1  0  0.50      -384.7179   2.0000                                                             
     2  0  0.50       -18.5828   2.0000                                                             
     2  1  0.50        -7.0898   3.0000                                                             
     3  2  1.50        -6.8029   0.0000                                                             
   Description                                                                                      
     l       E           TYP  RCUT    TYP  RCUT                                                     
     0    -18.5828119     23  1.200                                                                 
     0    -13.5018863     23  1.200                                                                 
     1     -7.0897853     23  1.500                                                                 
     1      9.5240782     23  1.500                                                                 
     2     -6.8029130      7  1.500                                                                 
  local pseudopotential read in
  partial core-charges read in
  partial kinetic energy density read in
  atomic valenz-charges read in
  non local Contribution for L=            0  read in
    real space projection operators read in
  non local Contribution for L=            0  read in
    real space projection operators read in
  non local Contribution for L=            1  read in
    real space projection operators read in
  non local Contribution for L=            1  read in
    real space projection operators read in
    PAW grid and wavefunctions read in
 
   number of l-projection  operators is LMAX  =            4
   number of lm-projection operators is LMMAX =            8
 
 Optimization of the real space projectors (new method)

 maximal supplied QI-value         = 16.25
 optimisation between [QCUT,QGAM] = [ 10.73, 21.61] = [ 32.22,130.83] Ry 
 Optimized for a Real-space Cutoff    1.42 Angstroem

   l    n(q)    QCUT    max X(q) W(low)/X(q) W(high)/X(q)  e(spline) 
   2      8    10.726     7.143    0.22E-03    0.16E-03    0.73E-07
   2      8    10.726     5.586    0.40E-03    0.26E-03    0.10E-06
   0      9    10.726    12.382    0.25E-04    0.21E-05    0.37E-07
   0      9    10.726     6.622    0.42E-04    0.48E-05    0.77E-07
   1      9    10.726     7.935    0.27E-03    0.13E-04    0.16E-06
   1      9    10.726     2.425    0.23E-03    0.15E-04    0.14E-06
 Optimization of the real space projectors (new method)

 maximal supplied QI-value         = 24.76
 optimisation between [QCUT,QGAM] = [ 10.64, 21.54] = [ 31.73,129.89] Ry 
 Optimized for a Real-space Cutoff    1.23 Angstroem

   l    n(q)    QCUT    max X(q) W(low)/X(q) W(high)/X(q)  e(spline) 
   0      8    10.645    20.381    0.38E-03    0.60E-03    0.15E-06
   0      8    10.645    15.268    0.40E-03    0.65E-03    0.17E-06
   1      7    10.645     5.964    0.30E-03    0.63E-03    0.18E-06
   1      7    10.645     5.382    0.24E-03    0.53E-03    0.16E-06
 Optimization of the real space projectors (new method)

 maximal supplied QI-value         = 25.13
 optimisation between [QCUT,QGAM] = [ 10.81, 21.61] = [ 32.71,130.83] Ry 
 Optimized for a Real-space Cutoff    1.23 Angstroem

   l    n(q)    QCUT    max X(q) W(low)/X(q) W(high)/X(q)  e(spline) 
   0      8    10.807    79.467    0.34E-03    0.68E-03    0.21E-06
   0      8    10.807    66.151    0.34E-03    0.67E-03    0.21E-06
   1      7    10.807    14.030    0.45E-03    0.13E-02    0.11E-05
   1      7    10.807     9.831    0.48E-03    0.13E-02    0.11E-05
  PAW_PBE Ga_d 06Jul2010                :
 energy of atom  1       EATOM=-2148.8298
 kinetic energy error for atom=    0.0038 (will be added to EATOM!!)
  PAW_PBE O 08Apr2002                   :
 energy of atom  2       EATOM= -432.3788
 kinetic energy error for atom=    0.0389 (will be added to EATOM!!)
  PAW_PBE N 08Apr2002                   :
 energy of atom  3       EATOM= -264.5486
 kinetic energy error for atom=    0.0253 (will be added to EATOM!!)
 
 
 POSCAR: Ga48 O72
  positions in direct lattice
  velocities in cartesian coordinates
 exchange correlation table for  LEXCH =        8
   RHO(1)=    0.500       N(1)  =     2000
   RHO(2)=  100.500       N(2)  =     4000
 


--------------------------------------------------------------------------------------------------------


 ion  position               nearest neighbor table
   1  0.659  0.000  0.157-  85 1.94  83 1.96  79 1.96  67 2.02  61 2.07  65 2.07
   2  0.659  0.000  0.656-  86 1.94  84 1.95  80 1.95  68 2.02  62 2.08  66 2.08
   3  0.660  0.333  0.157-  87 1.93  79 1.96  81 1.96  69 2.01  63 2.07  61 2.08
   4  0.659  0.333  0.657-  88 1.94  82 1.95  80 1.95  70 2.02  62 2.08  64 2.08
   5  0.660  0.667  0.157-  89 1.93  83 1.96  81 1.96  71 2.01  63 2.07  65 2.08
   6  0.659  0.667  0.657-  90 1.94  82 1.95  84 1.95  72 2.02  66 2.08  64 2.08
   7  0.841  0.167  0.344-  91 1.93  73 1.96  75 1.96  61 2.03  67 2.08  69 2.08
   8  0.841  0.167  0.843-  92 1.94  74 1.95  76 1.95  62 2.02  70 2.08  68 2.08
   9  0.841  0.500  0.343-  93 1.93  77 1.96  75 1.96  63 2.02  71 2.08  69 2.08
  10  0.842  0.500  0.843-  94 1.94  78 1.95  76 1.95  64 2.02  70 2.08  72 2.08
  11  0.841  0.833  0.344-  95 1.93  73 1.96  77 1.96  65 2.03  67 2.08  71 2.08
  12  0.841  0.833  0.843-  96 1.94  74 1.95  78 1.95  66 2.02  72 2.08  68 2.08
  13  0.589  0.166  0.397-  57 1.84  55 1.84  80 1.85  61 1.88
  14  0.591  0.167  0.898-  79 1.84  56 1.85  58 1.85  62 1.87
  15  0.593  0.500  0.398-  57 1.84  59 1.84  82 1.84  63 1.87
  16  0.592  0.500  0.898-  81 1.84  60 1.85  58 1.85  64 1.87
  17  0.589  0.834  0.397-  59 1.84  55 1.84  84 1.85  65 1.88
  18  0.591  0.833  0.898-  83 1.84  56 1.85  60 1.85  66 1.87
  19  0.908  0.000  0.102-  49 1.84  53 1.84  74 1.85  67 1.88
  20  0.909  0.000  0.602-  73 1.84  54 1.84  50 1.84  68 1.88
  21  0.908  0.333  0.102-  49 1.83  51 1.84  76 1.84  69 1.88
  22  0.909  0.333  0.602-  75 1.84  50 1.84  52 1.85  70 1.87
  23  0.908  0.667  0.102-  53 1.83  51 1.84  78 1.84  71 1.88
  24  0.909  0.667  0.602-  77 1.84  54 1.84  52 1.85  72 1.87
  25  0.160  0.161  0.161- 120 1.97  49 1.98 114 1.99 116 1.99 102 2.06  98 2.12
  26  0.159  0.166  0.655- 115 1.94 117 1.95  50 1.95 103 2.03  97 2.07  99 2.10
  27  0.159  0.500  0.158-  51 1.96 116 1.96 118 1.96 104 2.04 100 2.05  98 2.05
  28  0.158  0.500  0.657-  52 1.94 117 1.95 119 1.95 105 2.03 101 2.08  99 2.08
  29  0.160  0.839  0.161- 120 1.97  53 1.98 114 1.99 118 1.99 106 2.06 100 2.12
  30  0.159  0.834  0.655- 115 1.94 119 1.95  54 1.95 107 2.03  97 2.07 101 2.10
  31  0.335  0.000  0.343- 120 1.94 112 1.97 108 1.97  55 1.98 106 2.14 102 2.14
  32  0.341  0.000  0.843- 109 1.95 113 1.95  56 1.95  97 2.02 103 2.08 107 2.08
  33  0.341  0.333  0.342- 108 1.95  57 1.95 110 1.96  98 2.02 102 2.03 104 2.07
  34  0.341  0.333  0.843- 109 1.94  58 1.95 111 1.96  99 2.02 105 2.07 103 2.07
  35  0.341  0.667  0.342- 112 1.95  59 1.95 110 1.96 100 2.02 106 2.03 104 2.07
  36  0.341  0.667  0.843- 113 1.94  60 1.95 111 1.96 101 2.02 105 2.07 107 2.07
  37  0.093  0.000  0.392- 120 1.85 115 1.87  91 1.88  95 1.88
  38  0.091  0.000  0.897- 114 1.82  92 1.85  96 1.85  97 1.88
  39  0.090  0.333  0.397-  91 1.85 117 1.85  93 1.85  98 1.86
  40  0.092  0.333  0.900- 116 1.84  92 1.85  94 1.85  99 1.88
  41  0.090  0.667  0.397-  95 1.85 119 1.85  93 1.85 100 1.86
  42  0.092  0.667  0.900- 118 1.84  96 1.85  94 1.85 101 1.88
  43  0.410  0.167  0.102- 109 1.84 102 1.84  85 1.85  87 1.85
  44  0.410  0.167  0.603- 108 1.82  86 1.85  88 1.85 103 1.87
  45  0.409  0.500  0.103- 111 1.84  89 1.85  87 1.85 104 1.86
  46  0.409  0.500  0.602- 110 1.83  90 1.85  88 1.85 105 1.88
  47  0.410  0.833  0.102- 113 1.84 106 1.84  85 1.85  89 1.85
  48  0.410  0.833  0.603- 112 1.82  86 1.85  90 1.85 107 1.87
  49  0.994  0.167  0.124-  21 1.83  19 1.84  25 1.98
  50  0.996  0.167  0.628-  22 1.84  20 1.84  26 1.95
  51  0.995  0.500  0.127-  21 1.84  23 1.84  27 1.96
  52  0.996  0.500  0.628-  22 1.85  24 1.85  28 1.94
  53  0.994  0.833  0.124-  23 1.83  19 1.84  29 1.98
  54  0.996  0.833  0.628-  24 1.84  20 1.84  30 1.95
  55  0.501  0.000  0.372-  17 1.84  13 1.84  31 1.98
  56  0.504  0.000  0.872-  14 1.85  18 1.85  32 1.95
  57  0.505  0.335  0.373-  15 1.84  13 1.84  33 1.95
  58  0.504  0.334  0.873-  16 1.85  14 1.85  34 1.95
  59  0.505  0.665  0.373-  15 1.84  17 1.84  35 1.95
  60  0.504  0.666  0.873-  16 1.85  18 1.85  36 1.95
  61  0.672  0.166  0.280-  13 1.88   7 2.03   1 2.07   3 2.08
  62  0.673  0.167  0.780-  14 1.87   8 2.02   4 2.08   2 2.08
  63  0.673  0.500  0.280-  15 1.87   9 2.02   3 2.07   5 2.07
  64  0.673  0.500  0.780-  16 1.87  10 2.02   4 2.08   6 2.08
  65  0.672  0.834  0.280-  17 1.88  11 2.03   1 2.07   5 2.08
  66  0.673  0.833  0.780-  18 1.87  12 2.02   6 2.08   2 2.08
  67  0.827  0.000  0.220-  19 1.88   1 2.02  11 2.08   7 2.08
  68  0.827  0.000  0.719-  20 1.88   2 2.02  12 2.08   8 2.08
  69  0.827  0.333  0.220-  21 1.88   3 2.01   9 2.08   7 2.08
  70  0.827  0.333  0.719-  22 1.87   4 2.02  10 2.08   8 2.08
  71  0.827  0.667  0.220-  23 1.88   5 2.01   9 2.08  11 2.08
  72  0.827  0.667  0.719-  24 1.87   6 2.02  10 2.08  12 2.08
  73  0.830  0.000  0.446-  20 1.84  11 1.96   7 1.96
  74  0.831  0.000  0.945-  19 1.85  12 1.95   8 1.95
  75  0.830  0.334  0.446-  22 1.84   9 1.96   7 1.96
  76  0.831  0.334  0.945-  21 1.84  10 1.95   8 1.95
  77  0.830  0.666  0.446-  24 1.84   9 1.96  11 1.96
  78  0.831  0.666  0.945-  23 1.84  10 1.95  12 1.95
  79  0.668  0.167  0.054-  14 1.84   3 1.96   1 1.96
  80  0.667  0.167  0.554-  13 1.85   2 1.95   4 1.95
  81  0.670  0.500  0.054-  16 1.84   5 1.96   3 1.96
  82  0.669  0.500  0.555-  15 1.84   6 1.95   4 1.95
  83  0.668  0.833  0.054-  18 1.84   5 1.96   1 1.96
  84  0.667  0.833  0.554-  17 1.85   2 1.95   6 1.95
  85  0.497  0.000  0.126-  43 1.85  47 1.85   1 1.94
  86  0.497  0.000  0.629-  44 1.85  48 1.85   2 1.94
  87  0.498  0.334  0.125-  45 1.85  43 1.85   3 1.93
  88  0.497  0.334  0.629-  46 1.85  44 1.85   4 1.94
  89  0.498  0.666  0.125-  45 1.85  47 1.85   5 1.93
  90  0.497  0.666  0.629-  46 1.85  48 1.85   6 1.94
  91  0.002  0.167  0.375-  39 1.85  37 1.88   7 1.93
  92  0.003  0.167  0.871-  40 1.85  38 1.85   8 1.94
  93  0.003  0.500  0.374-  39 1.85  41 1.85   9 1.93
  94  0.004  0.500  0.873-  40 1.85  42 1.85  10 1.94
  95  0.002  0.833  0.375-  41 1.85  37 1.88  11 1.93
  96  0.003  0.833  0.871-  42 1.85  38 1.85  12 1.94
  97  0.173  0.000  0.779-  38 1.88  32 2.02  26 2.07  30 2.07
  98  0.173  0.337  0.282-  39 1.86  33 2.02  27 2.05  25 2.12
  99  0.172  0.333  0.781-  40 1.88  34 2.02  28 2.08  26 2.10
 100  0.173  0.663  0.282-  41 1.86  35 2.02  27 2.05  29 2.12
 101  0.172  0.667  0.781-  42 1.88  36 2.02  28 2.08  30 2.10
 102  0.331  0.174  0.219-  43 1.84  33 2.03  25 2.06  31 2.14
 103  0.328  0.167  0.719-  44 1.87  26 2.03  34 2.07  32 2.08
 104  0.328  0.500  0.219-  45 1.86  27 2.04  35 2.07  33 2.07
 105  0.327  0.500  0.719-  46 1.88  28 2.03  36 2.07  34 2.07
 106  0.331  0.826  0.219-  47 1.84  35 2.03  29 2.06  31 2.14
 107  0.328  0.833  0.719-  48 1.87  30 2.03  36 2.07  32 2.08
 108  0.335  0.170  0.448-  44 1.82  33 1.95  31 1.97
 109  0.334  0.167  0.945-  43 1.84  34 1.94  32 1.95
 110  0.334  0.500  0.446-  46 1.83  35 1.96  33 1.96
 111  0.332  0.500  0.946-  45 1.84  36 1.96  34 1.96
 112  0.335  0.830  0.448-  48 1.82  35 1.95  31 1.97
 113  0.334  0.833  0.945-  47 1.84  36 1.94  32 1.95
 114  0.172  0.000  0.049-  38 1.82  29 1.99  25 1.99
 115  0.165  0.000  0.553-  37 1.87  30 1.94  26 1.94
 116  0.166  0.332  0.057-  40 1.84  27 1.96  25 1.99
 117  0.167  0.334  0.555-  39 1.85  26 1.95  28 1.95
 118  0.166  0.668  0.057-  42 1.84  27 1.96  29 1.99
 119  0.167  0.666  0.555-  41 1.85  30 1.95  28 1.95
 120  0.174  0.000  0.277-  37 1.85  31 1.94  25 1.97  29 1.97
 
  LATTYP: Found a simple monoclinic cell.
 ALAT       =    11.6348202465
 B/A-ratio  =     0.7858051831
 C/A-ratio  =     1.0554931797
 COS(beta)  =    -0.2379290539
  
  Lattice vectors:
  
 A1 = (   0.0000000000,  -2.7682617730, -11.3006977184)
 A2 = (  -9.1427020537,   0.0000000000,   0.0000000000)
 A3 = (   0.0000000000,  12.2804734172,   0.0000000000)


Analysis of symmetry for initial positions (statically):
=====================================================================
 Subroutine PRICEL returns:
 Original cell was already a primitive cell.
 

 Routine SETGRP: Setting up the symmetry group for a 
 simple monoclinic supercell.


 Subroutine GETGRP returns: Found  2 space group operations
 (whereof  2 operations were pure point group operations)
 out of a pool of  4 trial point group operations.


The static configuration has the point symmetry C_1h.


Analysis of symmetry for dynamics (positions and initial velocities):
=====================================================================
 Subroutine PRICEL returns:
 Original cell was already a primitive cell.
 

 Routine SETGRP: Setting up the symmetry group for a 
 simple monoclinic supercell.


 Subroutine GETGRP returns: Found  2 space group operations
 (whereof  2 operations were pure point group operations)
 out of a pool of  4 trial point group operations.


The dynamic configuration has the point symmetry C_1h.


 Subroutine INISYM returns: Found  2 space group operations
 (whereof  2 operations are pure point group operations),
 and found     1 'primitive' translations


----------------------------------------------------------------------------------------

                                     Primitive cell                                     

  volume of cell :    1268.8052

  direct lattice vectors                    reciprocal lattice vectors
     0.000000000 12.280473417  0.000000000     0.000000000  0.081430085 -0.019947423
     9.142702054  0.000000000  0.000000000     0.109376855 -0.000000000  0.000000000
     0.000000000 -2.768261773-11.300697718     0.000000000  0.000000000 -0.088490111

  length of vectors
    12.280473417  9.142702054 11.634820246     0.083837691  0.109376855  0.088490111

  position of ions in fractional coordinates (direct lattice)
     0.658956231  0.000000000  0.156866660
     0.659174492  0.000000000  0.656272664
     0.659518500  0.333426064  0.156574181
     0.659308631  0.333306198  0.656567403
     0.659518500  0.666573936  0.156574181
     0.659308631  0.666693802  0.656567403
     0.840715972  0.166503747  0.343927477
     0.841045182  0.166537337  0.843494843
     0.840961711  0.500000000  0.343381716
     0.841506281  0.500000000  0.843025394
     0.840715972  0.833496253  0.343927477
     0.841045182  0.833462663  0.843494843
     0.588956755  0.165706038  0.396818951
     0.591144847  0.166727993  0.897608368
     0.592693870  0.500000000  0.398084673
     0.591876152  0.500000000  0.897657362
     0.588956755  0.834293962  0.396818951
     0.591144847  0.833272007  0.897608368
     0.908463737  0.000000000  0.102452894
     0.909117666  0.000000000  0.601793972
     0.907974412  0.333427131  0.101728084
     0.908678552  0.333229690  0.602024985
     0.907974412  0.666572869  0.101728084
     0.908678552  0.666770310  0.602024985
     0.159560091  0.160693846  0.161199942
     0.158746253  0.165879650  0.655218762
     0.158533680  0.500000000  0.158158413
     0.158450176  0.500000000  0.657492019
     0.159560091  0.839306154  0.161199942
     0.158746253  0.834120350  0.655218762
     0.334995360  0.000000000  0.343365866
     0.340668889  0.000000000  0.843248247
     0.341460348  0.333453987  0.342404979
     0.340862498  0.333435548  0.843056817
     0.341460348  0.666546013  0.342404979
     0.340862498  0.666564452  0.843056817
     0.093293847  0.000000000  0.392211941
     0.090891255  0.000000000  0.896647763
     0.090340337  0.332684101  0.397424093
     0.091736268  0.332585040  0.899915276
     0.090340337  0.667315899  0.397424093
     0.091736268  0.667414960  0.899915276
     0.409529756  0.167469807  0.102271609
     0.410139823  0.167266928  0.603120361
     0.409340488  0.500000000  0.102683071
     0.409225238  0.500000000  0.602177459
     0.409529756  0.832530193  0.102271609
     0.410139823  0.832733072  0.603120361
     0.993881852  0.167320036  0.124178192
     0.995908606  0.166865062  0.627783491
     0.994914051  0.500000000  0.127142282
     0.995756261  0.500000000  0.627703740
     0.993881852  0.832679964  0.124178192
     0.995908606  0.833134938  0.627783491
     0.500742481  0.000000000  0.372393577
     0.503852103  0.000000000  0.872449054
     0.504993786  0.334553046  0.373238726
     0.504005586  0.333697204  0.872688515
     0.504993786  0.665446954  0.373238726
     0.504005586  0.666302796  0.872688515
     0.671873130  0.166408601  0.280429893
     0.672635049  0.166681593  0.780386240
     0.672971021  0.500000000  0.280062121
     0.673009092  0.500000000  0.780388535
     0.671873130  0.833591399  0.280429893
     0.672635049  0.833318407  0.780386240
     0.826823539  0.000000000  0.219879527
     0.827095220  0.000000000  0.718873697
     0.827008481  0.333261285  0.219658680
     0.827291234  0.333213543  0.719220635
     0.827008481  0.666738715  0.219658680
     0.827291234  0.666786457  0.719220635
     0.830034571  0.000000000  0.446148709
     0.831116077  0.000000000  0.945242220
     0.830496870  0.333741012  0.445972043
     0.831108898  0.333796463  0.944880124
     0.830496870  0.666258988  0.445972043
     0.831108898  0.666203537  0.944880124
     0.668440348  0.166565359  0.054030280
     0.666679941  0.166541782  0.553661074
     0.669562926  0.500000000  0.053920099
     0.668916236  0.500000000  0.554774252
     0.668440348  0.833434641  0.054030280
     0.666679941  0.833458218  0.553661074
     0.496706454  0.000000000  0.125802110
     0.496977449  0.000000000  0.628943247
     0.497818221  0.334202920  0.125483193
     0.497468069  0.334125284  0.629382976
     0.497818221  0.665797080  0.125483193
     0.497468069  0.665874716  0.629382976
     0.001929771  0.167006656  0.375325982
     0.002967555  0.166793919  0.871089066
     0.002725180  0.500000000  0.373944122
     0.004167039  0.500000000  0.873154843
     0.001929771  0.832993344  0.375325982
     0.002967555  0.833206081  0.871089066
     0.172658885  0.000000000  0.779399252
     0.172661290  0.337038357  0.282164912
     0.172429274  0.333125558  0.781275141
     0.172661290  0.662961643  0.282164912
     0.172429274  0.666874442  0.781275141
     0.331493956  0.173673780  0.219421583
     0.327540113  0.166963309  0.719298922
     0.328253791  0.500000000  0.219260700
     0.327425565  0.500000000  0.719444972
     0.331493956  0.826326220  0.219421583
     0.327540113  0.833036691  0.719298922
     0.334887331  0.169999771  0.447672839
     0.333905299  0.167168026  0.945208237
     0.334221548  0.500000000  0.445933072
     0.332121827  0.500000000  0.945897937
     0.334887331  0.830000229  0.447672839
     0.333905299  0.832831974  0.945208237
     0.171785598  0.000000000  0.049341008
     0.165268394  0.000000000  0.553126914
     0.166349885  0.331515606  0.056649849
     0.166796440  0.333929223  0.554686578
     0.166349885  0.668484394  0.056649849
     0.166796440  0.666070777  0.554686578
     0.174167203  0.000000000  0.276967293

  ion indices of the primitive-cell ions
   primitive index   ion index
                 1           1
                 2           2
                 3           3
                 4           4
                 5           5
                 6           6
                 7           7
                 8           8
                 9           9
                10          10
                11          11
                12          12
                13          13
                14          14
                15          15
                16          16
                17          17
                18          18
                19          19
                20          20
                21          21
                22          22
                23          23
                24          24
                25          25
                26          26
                27          27
                28          28
                29          29
                30          30
                31          31
                32          32
                33          33
                34          34
                35          35
                36          36
                37          37
                38          38
                39          39
                40          40
                41          41
                42          42
                43          43
                44          44
                45          45
                46          46
                47          47
                48          48
                49          49
                50          50
                51          51
                52          52
                53          53
                54          54
                55          55
                56          56
                57          57
                58          58
                59          59
                60          60
                61          61
                62          62
                63          63
                64          64
                65          65
                66          66
                67          67
                68          68
                69          69
                70          70
                71          71
                72          72
                73          73
                74          74
                75          75
                76          76
                77          77
                78          78
                79          79
                80          80
                81          81
                82          82
                83          83
                84          84
                85          85
                86          86
                87          87
                88          88
                89          89
                90          90
                91          91
                92          92
                93          93
                94          94
                95          95
                96          96
                97          97
                98          98
                99          99
               100         100
               101         101
               102         102
               103         103
               104         104
               105         105
               106         106
               107         107
               108         108
               109         109
               110         110
               111         111
               112         112
               113         113
               114         114
               115         115
               116         116
               117         117
               118         118
               119         119
               120         120

----------------------------------------------------------------------------------------

 
 
 KPOINTS: Automatic mesh                          

Automatic generation of k-mesh.
 Grid dimensions read from file:
 generate k-points for:    2    2    2

 Generating k-lattice:

  Cartesian coordinates                     Fractional coordinates (reciprocal lattice)
     0.000000000  0.040715043 -0.009973711     0.500000000  0.000000000  0.000000000
     0.054688428 -0.000000000  0.000000000     0.000000000  0.500000000  0.000000000
     0.000000000  0.000000000 -0.044245056     0.000000000  0.000000000  0.500000000

  Length of vectors
     0.041918846  0.054688428  0.044245056

  Shift w.r.t. Gamma in fractional coordinates (k-lattice)
     0.000000000  0.000000000  0.000000000

 
 Subroutine IBZKPT returns following result:
 ===========================================
 
 Found      8 irreducible k-points:
 
 Following reciprocal coordinates:
            Coordinates               Weight
  0.000000  0.000000  0.000000      1.000000
  0.500000  0.000000  0.000000      1.000000
  0.000000  0.500000  0.000000      1.000000
  0.500000  0.500000  0.000000      1.000000
  0.000000  0.000000  0.500000      1.000000
  0.500000  0.000000  0.500000      1.000000
  0.000000  0.500000  0.500000      1.000000
  0.500000  0.500000  0.500000      1.000000
 
 Following cartesian coordinates:
            Coordinates               Weight
  0.000000  0.000000 -0.000000      1.000000
  0.000000  0.040715 -0.009974      1.000000
  0.054688  0.000000 -0.000000      1.000000
  0.054688  0.040715 -0.009974      1.000000
  0.000000  0.000000 -0.044245      1.000000
  0.000000  0.040715 -0.054219      1.000000
  0.054688  0.000000 -0.044245      1.000000
  0.054688  0.040715 -0.054219      1.000000
 
 
 Subroutine IBZKPT_HF returns following result:
 ==============================================
 
 Found      8 k-points in 1st BZ
 the following      8 k-points will be used (e.g. in the exchange kernel)
 Following reciprocal coordinates:   # in IRBZ
  0.000000  0.000000  0.000000    0.12500000   1 t-inv F
  0.500000  0.000000  0.000000    0.12500000   2 t-inv F
  0.000000  0.500000  0.000000    0.12500000   3 t-inv F
  0.500000  0.500000  0.000000    0.12500000   4 t-inv F
  0.000000  0.000000  0.500000    0.12500000   5 t-inv F
  0.500000  0.000000  0.500000    0.12500000   6 t-inv F
  0.000000  0.500000  0.500000    0.12500000   7 t-inv F
  0.500000  0.500000  0.500000    0.12500000   8 t-inv F


--------------------------------------------------------------------------------------------------------




 Dimension of arrays:
   k-points           NKPTS =      8   k-points in BZ     NKDIM =      8   number of bands    NBANDS=    633
   number of dos      NEDOS =    301   number of ions     NIONS =    120
   non local maximal  LDIM  =      6   non local SUM 2l+1 LMDIM =     18
   total plane-waves  NPLWV = 184320
   max r-space proj   IRMAX =   1800   max aug-charges    IRDMAX=   5704
   dimension x,y,z NGX =    64 NGY =   48 NGZ =   60
   dimension x,y,z NGXF=   128 NGYF=   96 NGZF=  120
   support grid    NGXF=   128 NGYF=   96 NGZF=  120
   ions per type =              48  71   1
   NGX,Y,Z   is equivalent  to a cutoff of   8.66,  8.73,  8.57 a.u.
   NGXF,Y,Z  is equivalent  to a cutoff of  17.33, 17.46, 17.15 a.u.

 SYSTEM =  unknown system                          
 POSCAR =  Ga48 O72                                

 Startparameter for this run:
   NWRITE =      2    write-flag & timer
   PREC   = normal    normal or accurate (medium, high low for compatibility)
   ISTART =      0    job   : 0-new  1-cont  2-samecut
   ICHARG =      0    charge: 1-file 2-atom 10-const
   ISPIN  =      1    spin polarized calculation?
   LNONCOLLINEAR =      F non collinear calculations
   LSORBIT =      F    spin-orbit coupling
   INIWAV =      1    electr: 0-lowe 1-rand  2-diag
   LASPH  =      F    aspherical Exc in radial PAW
 Electronic Relaxation 1
   ENCUT  =  450.0 eV  33.07 Ry    5.75 a.u.  21.24 15.81 20.12*2*pi/ulx,y,z
   ENINI  =  450.0     initial cutoff
   ENAUG  =  627.1 eV  augmentation charge cutoff
   NELM   =    500;   NELMIN=  2; NELMDL= -5     # of ELM steps 
   EDIFF  = 0.1E-04   stopping-criterion for ELM
   LREAL  =      T    real-space projection
   NLSPLINE    = F    spline interpolate recip. space projectors
   LCOMPAT=      F    compatible to vasp.4.4
   GGA_COMPAT  = T    GGA compatible to vasp.4.4-vasp.4.6
   LMAXPAW     = -100 max onsite density
   LMAXMIX     =    2 max onsite mixed and CHGCAR
   VOSKOWN=      0    Vosko Wilk Nusair interpolation
   ROPT   =   -0.00050  -0.00050  -0.00050
 Ionic relaxation
   EDIFFG = -.5E-02   stopping-criterion for IOM
   NSW    =      0    number of steps for IOM
   NBLOCK =      1;   KBLOCK =      1    inner block; outer block 
   IBRION =     -1    ionic relax: 0-MD 1-quasi-New 2-CG
   NFREE  =      0    steps in history (QN), initial steepest desc. (CG)
   ISIF   =      2    stress and relaxation
   IWAVPR =     10    prediction:  0-non 1-charg 2-wave 3-comb
   ISYM   =      3    0-nonsym 1-usesym 2-fastsym
   LCORR  =      T    Harris-Foulkes like correction to forces

   POTIM  = 0.5000    time-step for ionic-motion
   TEIN   =    0.0    initial temperature
   TEBEG  =    0.0;   TEEND  =   0.0 temperature during run
   SMASS  =  -3.00    Nose mass-parameter (am)
   estimated Nose-frequenzy (Omega)   =  0.10E-29 period in steps = 0.13E+47 mass=  -0.345E-26a.u.
   SCALEE = 1.0000    scale energy and forces
   NPACO  =    256;   APACO  = 10.0  distance and # of slots for P.C.
   PSTRESS=    0.0 pullay stress

  Mass of Ions in am
   POMASS =  69.72 16.00 14.00
  Ionic Valenz
   ZVAL   =  13.00  6.00  5.00
  Atomic Wigner-Seitz radii
   RWIGS  =  -1.00 -1.00 -1.00
  virtual crystal weights 
   VCA    =   1.00  1.00  1.00
   NELECT =    1056.0000    total number of electrons
   NUPDOWN=      -1.0000    fix difference up-down

 DOS related values:
   EMIN   =  10.00;   EMAX   =-10.00  energy-range for DOS
   EFERMI =   0.00;   METHOD = LEGACY      
   ISMEAR =     0;   SIGMA  =   0.05  broadening in eV -4-tet -1-fermi 0-gaus

 Electronic relaxation 2 (details)
   IALGO  =     58    algorithm
   LDIAG  =      T    sub-space diagonalisation (order eigenvalues)
   LSUBROT=      F    optimize rotation matrix (better conditioning)
   TURBO    =      0    0=normal 1=particle mesh
   IRESTART =      0    0=no restart 2=restart with 2 vectors
   NREBOOT  =      0    no. of reboots
   NMIN     =      0    reboot dimension
   EREF     =   0.00    reference energy to select bands
   IMIX   =      4    mixing-type and parameters
     AMIX     =   0.40;   BMIX     =  1.00
     AMIX_MAG =   1.60;   BMIX_MAG =  1.00
     AMIN     =   0.10
     WC   =   100.;   INIMIX=   1;  MIXPRE=   1;  MAXMIX= -45

 Intra band minimization:
   WEIMIN = 0.0000     energy-eigenvalue tresh-hold
   EBREAK =  0.39E-08  absolut break condition
   DEPER  =   0.30     relativ break condition  

   TIME   =   0.40     timestep for ELM

  volume/ion in A,a.u.               =      10.57        71.35
  Fermi-wavevector in a.u.,A,eV,Ry     =   1.539919  2.910025 32.264175  2.371350
  Thomas-Fermi vector in A             =   2.646079
 
 Write flags
   LWAVE        =      T    write WAVECAR
   LDOWNSAMPLE  =      F    k-point downsampling of WAVECAR
   LCHARG       =      T    write CHGCAR
   LVTOT        =      F    write LOCPOT, total local potential
   LVHAR        =      F    write LOCPOT, Hartree potential only
   LELF         =      F    write electronic localiz. function (ELF)
   LORBIT       =      0    0 simple, 1 ext, 2 COOP (PROOUT), +10 PAW based schemes


 Dipole corrections
   LMONO  =      F    monopole corrections only (constant potential shift)
   LDIPOL =      F    correct potential (dipole corrections)
   IDIPOL =      0    1-x, 2-y, 3-z, 4-all directions 
   EPSILON=  1.0000000 bulk dielectric constant

 Exchange correlation treatment:
   GGA     =    --    GGA type
   LEXCH   =     8    internal setting for exchange type
   LIBXC   =     F    Libxc                    
   VOSKOWN =     0    Vosko Wilk Nusair interpolation
   EXXOEP  =     0    0=HF, 1=EXX-LHF (local Hartree Fock) 2=EXX OEP
   LHFCALC =     T    Hartree Fock is set to
   LSYMGRAD=     F    symmetrize gradient (conserves proper symmetry)
   PRECFOCK=fast      Normal, Fast or Accurate (Low or Medium for compatibility)
   LRHFCALC=     F    long range Hartree Fock
   LRSCOR  =     F    long range correlation only (use DFT for short range part)
   LTHOMAS =     F    Thomas Fermi screening in HF
   LMODELHF=     F    short range full HF, long range fraction AEXX
   FOCKCORR=     1    mode to apply convergence corrections
   LFOCKACE=     T    use Adeptively-Compressed-Exchange operator
   ENCUT4O =  -1.0   cutoff for four orbital integrals eV
   LMAXFOCK=     4    L truncation for augmentation on plane wave grid
   LMAXFOCKAE=  -1    L truncation for all-electron charge restoration on plane wave grid
   NMAXFOCKAE=   1    number of basis functions for all-electron charge restoration
   LFOCKAEDFT=     F  apply the AE augmentation even for DFT
   NKREDX  =     1    reduce k-point grid by
   NKREDY  =     1    reduce k-point grid by
   NKREDZ  =     1    reduce k-point grid by
   SHIFTRED=     F    shift reduced grid of Gamma
   HFKIDENT=     F    idential grid for each k-point
   ODDONLY =     F    use only odd q-grid points
   EVENONLY=     F    use only even q-grid points
   HFALPHA =   -1.0000 decay constant for conv. correction
   MCALPHA =    0.0000 extent of test-charge in conv. correction in multipole expansion
   AEXX    =    0.3200 exact exchange contribution
   HFSCREEN=    0.2000 screening length (either q_TF or 0.3 A-1)
   HFSCREENC=   0.2000 screening length for correlation (either q_TF or 0.3 A-1)
   HFRCUT  =    0.0000 spherical cutoff for potential kernel
   ALDAX   =    0.6800 LDA exchange part
   AGGAX   =    0.6800 GGA exchange part
   ALDAC   =    1.0000 LDA correlation
   AGGAC   =    1.0000 GGA correlation
   ENCUTFOCK=  -1.0 apply spherical cutoff to Coloumb kernel
   NBANDSGWLOW=     1    first orbital included in HF term
   NBLOCK_FOCK=    64    blocking factor in FOCK_ACC

 Linear response parameters
   LEPSILON=     F    determine dielectric tensor
   LRPA    =     F    only Hartree local field effects (RPA)
   LNABLA  =     F    use nabla operator in PAW spheres
   LVEL    =     F    velocity operator in full k-point grid
   CSHIFT  =0.1000    complex shift for real part using Kramers Kronig
   OMEGAMAX=  -1.0    maximum frequency
   DEG_THRESHOLD= 0.2000000E-02 threshold for treating states as degnerate
   RTIME   =   -0.100 relaxation time in fs
  (WPLASMAI=    0.000 imaginary part of plasma frequency in eV, 0.658/RTIME)
   DFIELD  = 0.0000000 0.0000000 0.0000000 field for delta impulse in time
 
  Optional k-point grid parameters
   LKPOINTS_OPT  =     F    use optional k-point grid
   KPOINTS_OPT_MODE=     1    mode for optional k-point grid
 
 Orbital magnetization related:
   ORBITALMAG=     F  switch on orbital magnetization
   LCHIMAG   =     F  perturbation theory with respect to B field
   DQ        =  0.001000  dq finite difference perturbation B field
   LLRAUG    =     F  two centre corrections for induced B field
   LBONE     =     F  B-component reconstruction in AE one-centre
   LVGVCALC  =     T  calculate vGv susceptibility
   LVGVAPPL  =     F  apply vGv susceptibility instead of pGv for G=0

 Random number generation:
   RANDOM_GENERATOR = DEFAULT
   PCG_SEED         = not used


--------------------------------------------------------------------------------------------------------


 Static calculation
 charge density and potential will be updated during run
 non-spin polarized calculation
 Conjugate gradient for all bands (Freysoldt, et al. PRB 79, 241103 (2009))
 preconditioned conjugated gradient                                        
 perform sub-space diagonalisation
    before iterative eigenvector-optimisation
 modified Broyden-mixing scheme, WC =      100.0
 initial mixing is a Kerker type mixing with AMIX =  0.4000 and BMIX =      1.0000
 Hartree-type preconditioning will be used
 using additional bands           105
 real space projection scheme for non local part
 use partial core corrections
 no Harris-corrections to forces 
 use gradient corrections 
 use of overlap-Matrix (Vanderbilt PP)
 Gauss-broadening in eV      SIGMA  =   0.05


--------------------------------------------------------------------------------------------------------


  energy-cutoff  :      450.00
  volume of cell :     1268.81
      direct lattice vectors                 reciprocal lattice vectors
     0.000000000 12.280473417  0.000000000     0.000000000  0.081430085 -0.019947423
     9.142702054  0.000000000  0.000000000     0.109376855 -0.000000000  0.000000000
     0.000000000 -2.768261773-11.300697718     0.000000000  0.000000000 -0.088490111

  length of vectors
    12.280473417  9.142702054 11.634820246     0.083837691  0.109376855  0.088490111


 
 k-points in units of 2pi/SCALE and weight: Automatic mesh                          
   0.00000000  0.00000000 -0.00000000       0.125
   0.00000000  0.04071504 -0.00997371       0.125
   0.05468843  0.00000000 -0.00000000       0.125
   0.05468843  0.04071504 -0.00997371       0.125
   0.00000000  0.00000000 -0.04424506       0.125
   0.00000000  0.04071504 -0.05421877       0.125
   0.05468843  0.00000000 -0.04424506       0.125
   0.05468843  0.04071504 -0.05421877       0.125
 
 k-points in reciprocal lattice and weights: Automatic mesh                          
   0.00000000  0.00000000  0.00000000       0.125
   0.50000000  0.00000000  0.00000000       0.125
   0.00000000  0.50000000  0.00000000       0.125
   0.50000000  0.50000000  0.00000000       0.125
   0.00000000  0.00000000  0.50000000       0.125
   0.50000000  0.00000000  0.50000000       0.125
   0.00000000  0.50000000  0.50000000       0.125
   0.50000000  0.50000000  0.50000000       0.125
 
 position of ions in fractional coordinates (direct lattice) 
   0.65895623  0.00000000  0.15686666
   0.65917449  0.00000000  0.65627266
   0.65951850  0.33342606  0.15657418
   0.65930863  0.33330620  0.65656740
   0.65951850  0.66657394  0.15657418
   0.65930863  0.66669380  0.65656740
   0.84071597  0.16650375  0.34392748
   0.84104518  0.16653734  0.84349484
   0.84096171  0.50000000  0.34338172
   0.84150628  0.50000000  0.84302539
   0.84071597  0.83349625  0.34392748
   0.84104518  0.83346266  0.84349484
   0.58895675  0.16570604  0.39681895
   0.59114485  0.16672799  0.89760837
   0.59269387  0.50000000  0.39808467
   0.59187615  0.50000000  0.89765736
   0.58895675  0.83429396  0.39681895
   0.59114485  0.83327201  0.89760837
   0.90846374  0.00000000  0.10245289
   0.90911767  0.00000000  0.60179397
   0.90797441  0.33342713  0.10172808
   0.90867855  0.33322969  0.60202499
   0.90797441  0.66657287  0.10172808
   0.90867855  0.66677031  0.60202499
   0.15956009  0.16069385  0.16119994
   0.15874625  0.16587965  0.65521876
   0.15853368  0.50000000  0.15815841
   0.15845018  0.50000000  0.65749202
   0.15956009  0.83930615  0.16119994
   0.15874625  0.83412035  0.65521876
   0.33499536  0.00000000  0.34336587
   0.34066889  0.00000000  0.84324825
   0.34146035  0.33345399  0.34240498
   0.34086250  0.33343555  0.84305682
   0.34146035  0.66654601  0.34240498
   0.34086250  0.66656445  0.84305682
   0.09329385  0.00000000  0.39221194
   0.09089125  0.00000000  0.89664776
   0.09034034  0.33268410  0.39742409
   0.09173627  0.33258504  0.89991528
   0.09034034  0.66731590  0.39742409
   0.09173627  0.66741496  0.89991528
   0.40952976  0.16746981  0.10227161
   0.41013982  0.16726693  0.60312036
   0.40934049  0.50000000  0.10268307
   0.40922524  0.50000000  0.60217746
   0.40952976  0.83253019  0.10227161
   0.41013982  0.83273307  0.60312036
   0.99388185  0.16732004  0.12417819
   0.99590861  0.16686506  0.62778349
   0.99491405  0.50000000  0.12714228
   0.99575626  0.50000000  0.62770374
   0.99388185  0.83267996  0.12417819
   0.99590861  0.83313494  0.62778349
   0.50074248  0.00000000  0.37239358
   0.50385210  0.00000000  0.87244905
   0.50499379  0.33455305  0.37323873
   0.50400559  0.33369720  0.87268851
   0.50499379  0.66544695  0.37323873
   0.50400559  0.66630280  0.87268851
   0.67187313  0.16640860  0.28042989
   0.67263505  0.16668159  0.78038624
   0.67297102  0.50000000  0.28006212
   0.67300909  0.50000000  0.78038854
   0.67187313  0.83359140  0.28042989
   0.67263505  0.83331841  0.78038624
   0.82682354  0.00000000  0.21987953
   0.82709522  0.00000000  0.71887370
   0.82700848  0.33326128  0.21965868
   0.82729123  0.33321354  0.71922064
   0.82700848  0.66673872  0.21965868
   0.82729123  0.66678646  0.71922064
   0.83003457  0.00000000  0.44614871
   0.83111608  0.00000000  0.94524222
   0.83049687  0.33374101  0.44597204
   0.83110890  0.33379646  0.94488012
   0.83049687  0.66625899  0.44597204
   0.83110890  0.66620354  0.94488012
   0.66844035  0.16656536  0.05403028
   0.66667994  0.16654178  0.55366107
   0.66956293  0.50000000  0.05392010
   0.66891624  0.50000000  0.55477425
   0.66844035  0.83343464  0.05403028
   0.66667994  0.83345822  0.55366107
   0.49670645  0.00000000  0.12580211
   0.49697745  0.00000000  0.62894325
   0.49781822  0.33420292  0.12548319
   0.49746807  0.33412528  0.62938298
   0.49781822  0.66579708  0.12548319
   0.49746807  0.66587472  0.62938298
   0.00192977  0.16700666  0.37532598
   0.00296755  0.16679392  0.87108907
   0.00272518  0.50000000  0.37394412
   0.00416704  0.50000000  0.87315484
   0.00192977  0.83299334  0.37532598
   0.00296755  0.83320608  0.87108907
   0.17265888  0.00000000  0.77939925
   0.17266129  0.33703836  0.28216491
   0.17242927  0.33312556  0.78127514
   0.17266129  0.66296164  0.28216491
   0.17242927  0.66687444  0.78127514
   0.33149396  0.17367378  0.21942158
   0.32754011  0.16696331  0.71929892
   0.32825379  0.50000000  0.21926070
   0.32742557  0.50000000  0.71944497
   0.33149396  0.82632622  0.21942158
   0.32754011  0.83303669  0.71929892
   0.33488733  0.16999977  0.44767284
   0.33390530  0.16716803  0.94520824
   0.33422155  0.50000000  0.44593307
   0.33212183  0.50000000  0.94589794
   0.33488733  0.83000023  0.44767284
   0.33390530  0.83283197  0.94520824
   0.17178560  0.00000000  0.04934101
   0.16526839  0.00000000  0.55312691
   0.16634989  0.33151561  0.05664985
   0.16679644  0.33392922  0.55468658
   0.16634989  0.66848439  0.05664985
   0.16679644  0.66607078  0.55468658
   0.17416720  0.00000000  0.27696729
 
 position of ions in cartesian coordinates  (Angst):
   0.00000000  7.65804649 -1.77270271
   0.00000000  6.27824030 -7.41633900
   3.04841516  7.66576109 -1.76939749
   3.04731926  6.27907167 -7.41966975
   6.09428689  7.66576109 -1.76939749
   6.09538279  6.27907167 -7.41966975
   1.52229415  9.37230886 -3.88662045
   1.52260125  7.99341847 -9.53208025
   4.57135103  9.37683746 -3.88045297
   4.57135103  8.00038054 -9.52677515
   7.62040791  9.37230886 -3.88662045
   7.62010080  7.99341847 -9.53208025
   1.51500094  6.13416904 -4.48433102
   1.52434437  4.77472364-10.14360083
   4.57135103  6.17655873 -4.49863456
   4.57135103  4.78356879-10.14415450
   7.62770112  6.13416904 -4.48433102
   7.61835769  4.77472364-10.14360083
   0.00000000 10.87274835 -1.15778918
   0.00000000  9.49847208 -6.80069177
   3.04842492 10.86874567 -1.14959833
   3.04661977  9.49244005 -6.80330238
   6.09427714 10.86874567 -1.14959833
   6.09608228  9.49244005 -6.80330238
   1.46917596  1.51322982 -1.82167182
   1.51658822  0.13566209 -7.40442917
   4.57135103  1.50904475 -1.78730042
   4.57135103  0.12573315 -7.43011856
   7.67352609  1.51322982 -1.82167182
   7.62611384  0.13566209 -7.40442917
   0.00000000  3.16337501 -3.88027386
   0.00000000  1.84924335 -9.52929354
   3.04867046  3.24542811 -3.86941517
   3.04850187  1.85215089 -9.52713025
   6.09403160  3.24542811 -3.86941517
   6.09420018  1.85215089 -9.52713025
   0.00000000  0.05994729 -4.43226858
   0.00000000 -1.36596809-10.13274534
   3.04163162  0.00924818 -4.49116954
   3.04072592 -1.36463626-10.16967051
   6.10107044  0.00924818 -4.49116954
   6.10197613 -1.36463626-10.16967051
   1.53112655  4.74610470 -1.15574054
   1.52927168  3.36711615 -6.81568089
   4.57135103  4.74264136 -1.16039035
   4.57135103  3.35849482 -6.80502543
   7.61157550  4.74610470 -1.15574054
   7.61343037  3.36711615 -6.81568089
   1.52975724 11.86158192 -1.40330022
   1.52559755 10.49236013 -7.09439146
   4.57135103 11.86605244 -1.43679649
   4.57135103 10.49071003 -7.09349022
   7.61294482 11.86158192 -1.40330022
   7.61710450 10.49236013 -7.09439146
   0.00000000  5.11847182 -4.20830725
   0.00000000  3.77237500 -9.85928304
   3.05871882  5.16834027 -4.21785802
   3.05089412  3.77359694 -9.86198911
   6.08398323  5.16834027 -4.21785802
   6.09180794  3.77359694 -9.86198911
   1.52142426  7.47461675 -3.16905346
   1.52392014  6.09996344 -8.81890901
   4.57135103  7.48911748 -3.16489738
   4.57135103  6.10455051 -8.81893494
   7.62127779  7.47461675 -3.16905346
   7.61878191  6.09996344 -8.81890901
   0.00000000  9.54510040 -2.48479207
   0.00000000  8.16709028 -8.12377435
   3.04690863  9.54798294 -2.48229634
   3.04647214  8.16853701 -8.12769499
   6.09579342  9.54798294 -2.48229634
   6.09622991  8.16853701 -8.12769499
   0.00000000  8.95816106 -5.04179170
   0.00000000  7.58982099-10.68189660
   3.05129463  8.96432737 -5.03979525
   3.05180161  7.59073520-10.67780466
   6.09140742  8.96432737 -5.03979525
   6.09090045  7.59073520-10.67780466
   1.52285745  8.05919396 -0.61057986
   1.52264190  6.65446651 -6.25675643
   4.57135103  8.07328477 -0.60933474
   4.57135103  6.67884770 -6.26933612
   7.61984461  8.05919396 -0.61057986
   7.62006016  6.65446651 -6.25675643
   0.00000000  5.75153724 -1.42165162
   0.00000000  4.36203880 -7.10749752
   3.05551772  5.76607310 -1.41804763
   3.05480792  4.36684656 -7.11246676
   6.08718433  5.76607310 -1.41804763
   6.08789413  4.36684656 -7.11246676
   1.52689210 -1.01530207 -4.24144546
   1.52494711 -2.37495959 -9.84391422
   4.57135103 -1.00170872 -4.22582949
   4.57135103 -2.36594796 -9.86725894
   7.61580995 -1.01530207 -4.24144546
   7.61775495 -2.37495959 -9.84391422
   0.00000000 -0.03724831 -8.80775535
   3.08144128  1.33925604 -3.18866038
   3.04566772 -0.04526099 -8.82895420
   6.06126078  1.33925604 -3.18866038
   6.09703433 -0.04526099 -8.82895420
   1.58784763  3.46348634 -2.47961698
   1.52649579  2.03113994 -8.12857969
   4.57135103  3.42414094 -2.47779889
   4.57135103  2.02932894 -8.13023016
   7.55485442  3.46348634 -2.47961698
   7.61620626  2.03113994 -8.12857969
   1.55425725  2.87329936 -5.05901543
   1.52836745  1.48393131-10.68151256
   4.57135103  2.86993935 -5.03935485
   4.57135103  1.46012017-10.68930666
   7.58844480  2.87329936 -5.05901543
   7.61433460  1.48393131-10.68151256
   0.00000000  1.97301964 -0.55758781
   0.00000000  0.49837403 -6.25072006
   3.03094841  1.88603373 -0.64018282
   3.05301540  0.51282160 -6.26834534
   6.11175364  1.88603373 -0.64018282
   6.08968666  0.51282160 -6.26834534
   0.00000000  1.37213773 -3.12992365
 


--------------------------------------------------------------------------------------------------------


 k-point   1 :   0.0000 0.0000 0.0000  plane waves:   27533
 k-point   2 :   0.5000 0.0000 0.0000  plane waves:   27522
 k-point   3 :   0.0000 0.5000 0.0000  plane waves:   27488
 k-point   4 :   0.5000 0.5000 0.0000  plane waves:   27488
 k-point   5 :   0.0000 0.0000 0.5000  plane waves:   27482
 k-point   6 :   0.5000 0.0000 0.5000  plane waves:   27476
 k-point   7 :   0.0000 0.5000 0.5000  plane waves:   27468
 k-point   8 :   0.5000 0.5000 0.5000  plane waves:   27564

 maximum and minimum number of plane-waves per node :     27564    27468

 maximum number of plane-waves:     27564
 maximum index in each direction: 
   IXMAX=   21   IYMAX=   15   IZMAX=   20
   IXMIN=  -21   IYMIN=  -16   IZMIN=  -20


 serial   3D FFT for wavefunctions
 parallel 3D FFT for charge:
    minimum data exchange during FFTs selected (reduces bandwidth)


 FFT grid for exact exchange (Hartree Fock) 
  NGX = 48; NGY = 36; NGZ = 48

 
 Radii for the augmentation spheres in the non-local exchange
 for species   1 augmentation radius   1.392 (default was   1.031)
       energy cutoff for augmentation   1800.0
 for species   2 augmentation radius   0.974 (default was   0.722)
       energy cutoff for augmentation   1800.0
 for species   3 augmentation radius   0.957 (default was   0.709)
       energy cutoff for augmentation   1800.0
 Maximum index for augmentation-charges in exchange           749
  SETUP_FOCK is finished

 total amount of memory used by VASP MPI-rank0  7269077. kBytes
=======================================================================

   base      :      30000. kBytes
   nonlr-proj:      32972. kBytes
   fftplans  :      51012. kBytes
   grid      :     102973. kBytes
   one-center:       1866. kBytes
   HF        :        194. kBytes
   wavefun   :    7050060. kBytes
 
     INWAV:  cpu time      0.0000: real time      0.0001
 Broyden mixing: mesh for mixing (old mesh)
   NGX = 43   NGY = 31   NGZ = 41
  (NGX  =128   NGY  = 96   NGZ  =120)
  gives a total of  54653 points

 charge density for first step will be calculated from the start-wavefunctions


--------------------------------------------------------------------------------------------------------


 Maximum index for non-local projection operator          1718
 Maximum index for augmentation-charges          5368 (set IRDMAX)


--------------------------------------------------------------------------------------------------------


 initial charge from wavefunction
 First call to EWALD:  gamma=   0.164
 Maximum number of real-space cells 3x 3x 3
 Maximum number of reciprocal cells 3x 2x 3

    FEWALD:  cpu time      0.0737: real time      0.0737


--------------------------------------- Ionic step        1  -------------------------------------------




--------------------------------------- Iteration      1(   1)  ---------------------------------------


    POTLOK:  cpu time      0.0333: real time      0.0333
    SETDIJ:  cpu time      0.1334: real time      0.1334
    TRIAL :  cpu time      2.9025: real time      2.9125
    CORREC:  cpu time      0.0015: real time      0.0015
    --------------------------------------------
      LOOP:  cpu time      3.9609: real time      3.9706

 eigenvalue-minimisations  : 10592
 total energy-change (2. order) :-0.1832566E+05  (-0.5424580E+05)
 number of electron    1055.9999382 magnetization 
 augmentation part      122.2204984 magnetization 

 Free energy of the ion-electron system (eV)
  ---------------------------------------------------
  alpha Z        PSCENC =      5530.94812622
  Ewald energy   TEWEN  =    -88762.53680430
  -Hartree energ DENC   =     -2115.39622962
  -exchange      EXHF   =         0.00000000
  -V(xc)+E(xc)   XCENC  =      2806.62561801
  PAW double counting   =     59936.94583672   -89144.53760024
  entropy T*S    EENTRO =        -0.01381134
  eigenvalues    EBANDS =    -40311.68723606
  atomic energy  EATOM  =    133733.99279260
  ---------------------------------------------------
  free energy    TOTEN  =    -18325.65930801 eV

  energy without entropy =   -18325.64549667  energy(sigma->0) =   -18325.65240234
  exchange ACFDT corr.  =         0.00000000  see jH, gK, PRB 81, 115126


--------------------------------------------------------------------------------------------------------




--------------------------------------- Iteration      1(   2)  ---------------------------------------


    TRIAL :  cpu time      3.1635: real time      3.1631
    CORREC:  cpu time      0.0016: real time      0.0016
    --------------------------------------------
      LOOP:  cpu time      3.1653: real time      3.1654

 eigenvalue-minimisations  : 13632
 total energy-change (2. order) :-0.4406183E+05  (-0.4276374E+05)
 number of electron    1055.9999382 magnetization 
 augmentation part      122.2204984 magnetization 

 Free energy of the ion-electron system (eV)
  ---------------------------------------------------
  alpha Z        PSCENC =      5530.94812622
  Ewald energy   TEWEN  =    -88762.53680430
  -Hartree energ DENC   =     -2115.39622962
  -exchange      EXHF   =         0.00000000
  -V(xc)+E(xc)   XCENC  =      2806.62561801
  PAW double counting   =     59936.94583672   -89144.53760024
  entropy T*S    EENTRO =        -0.02220402
  eigenvalues    EBANDS =    -84373.51111657
  atomic energy  EATOM  =    133733.99279260
  ---------------------------------------------------
  free energy    TOTEN  =    -62387.49158119 eV

  energy without entropy =   -62387.46937717  energy(sigma->0) =   -62387.48047918
  exchange ACFDT corr.  =         0.00000000  see jH, gK, PRB 81, 115126


--------------------------------------------------------------------------------------------------------




--------------------------------------- Iteration      1(   3)  ---------------------------------------


    TRIAL :  cpu time      3.3012: real time      3.3008
    CORREC:  cpu time      0.0016: real time      0.0016
    --------------------------------------------
      LOOP:  cpu time      3.3030: real time      3.3029

 eigenvalue-minimisations  : 14416
 total energy-change (2. order) :-0.4536408E+04  (-0.4044841E+04)
 number of electron    1055.9999382 magnetization 
 augmentation part      122.2204984 magnetization 

 Free energy of the ion-electron system (eV)
  ---------------------------------------------------
  alpha Z        PSCENC =      5530.94812622
  Ewald energy   TEWEN  =    -88762.53680430
  -Hartree energ DENC   =     -2115.39622962
  -exchange      EXHF   =         0.00000000
  -V(xc)+E(xc)   XCENC  =      2806.62561801
  PAW double counting   =     59936.94583672   -89144.53760024
  entropy T*S    EENTRO =        -0.04298232
  eigenvalues    EBANDS =    -88909.89786421
  atomic energy  EATOM  =    133733.99279260
  ---------------------------------------------------
  free energy    TOTEN  =    -66923.89910713 eV

  energy without entropy =   -66923.85612481  energy(sigma->0) =   -66923.87761597
  exchange ACFDT corr.  =         0.00000000  see jH, gK, PRB 81, 115126


--------------------------------------------------------------------------------------------------------




--------------------------------------- Iteration      1(   4)  ---------------------------------------


    TRIAL :  cpu time      3.7115: real time      3.7110
    CORREC:  cpu time      0.0016: real time      0.0016
    --------------------------------------------
      LOOP:  cpu time      3.7132: real time      3.7131

 eigenvalue-minimisations  : 17184
 total energy-change (2. order) :-0.5486521E+03  (-0.4607905E+03)
 number of electron    1055.9999382 magnetization 
 augmentation part      122.2204984 magnetization 

 Free energy of the ion-electron system (eV)
  ---------------------------------------------------
  alpha Z        PSCENC =      5530.94812622
  Ewald energy   TEWEN  =    -88762.53680430
  -Hartree energ DENC   =     -2115.39622962
  -exchange      EXHF   =         0.00000000
  -V(xc)+E(xc)   XCENC  =      2806.62561801
  PAW double counting   =     59936.94583672   -89144.53760024
  entropy T*S    EENTRO =        -0.04114043
  eigenvalues    EBANDS =    -89458.55177846
  atomic energy  EATOM  =    133733.99279260
  ---------------------------------------------------
  free energy    TOTEN  =    -67472.55117950 eV

  energy without entropy =   -67472.51003907  energy(sigma->0) =   -67472.53060928
  exchange ACFDT corr.  =         0.00000000  see jH, gK, PRB 81, 115126


--------------------------------------------------------------------------------------------------------




--------------------------------------- Iteration      1(   5)  ---------------------------------------


    POTLOK:  cpu time      1.3483: real time      1.3481
    SETDIJ:  cpu time      0.4726: real time      0.4725
    TRIAL :  cpu time    234.2726: real time    234.2334
    CORREC:  cpu time      0.0012: real time      0.0012
    CHARGE:  cpu time      0.2070: real time      0.2070
    --------------------------------------------
      LOOP:  cpu time    236.3019: real time    236.2628

 eigenvalue-minimisations  : 18978
 total energy-change (2. order) : 0.3010914E+05  (-0.7167642E+02)
 number of electron    1055.9998100 magnetization 
 augmentation part      493.8076143 magnetization 

 Free energy of the ion-electron system (eV)
  ---------------------------------------------------
  alpha Z        PSCENC =      5530.94812622
  Ewald energy   TEWEN  =    -88762.53680430
  -Hartree energ DENC   =     -2115.39622962
  -exchange      EXHF   =      4666.06597482
  -V(xc)+E(xc)   XCENC  =      1940.17423151
  PAW double counting   =     60580.70890216   -62661.00082895
  entropy T*S    EENTRO =        -0.00000087
  eigenvalues    EBANDS =    -90276.36342025
  atomic energy  EATOM  =    133733.99279260
  ---------------------------------------------------
  free energy    TOTEN  =    -37363.40725666 eV

  energy without entropy =   -37363.40725580  energy(sigma->0) =   -37363.40725623
  exchange ACFDT corr.  =        -0.08493495  see jH, gK, PRB 81, 115126


--------------------------------------------------------------------------------------------------------




--------------------------------------- Iteration      1(   6)  ---------------------------------------


    POTLOK:  cpu time      1.3917: real time      1.3915
    SETDIJ:  cpu time      0.4718: real time      0.4717
    TRIAL :  cpu time    232.7420: real time    232.7026
    CORREC:  cpu time    235.9399: real time    235.8981
    CHARGE:  cpu time      0.2091: real time      0.2091
    --------------------------------------------
      LOOP:  cpu time    470.7555: real time    470.6743

 eigenvalue-minimisations  :     0
 total energy-change (2. order) : 0.5664345E+05  (-0.1304460E+05)
 number of electron    1055.9997912 magnetization 
 augmentation part      486.3392007 magnetization 

 Free energy of the ion-electron system (eV)
  ---------------------------------------------------
  alpha Z        PSCENC =      5530.94812622
  Ewald energy   TEWEN  =    -88762.53680430
  -Hartree energ DENC   =    -65704.10519622
  -exchange      EXHF   =      4767.65981415
  -V(xc)+E(xc)   XCENC  =      3731.65112778
  PAW double counting   =    144592.02832516  -169118.15485534
  entropy T*S    EENTRO =        -0.01467272
  eigenvalues    EBANDS =     50508.55997264
  atomic energy  EATOM  =    133733.99279260
  ---------------------------------------------------
  free energy    TOTEN  =     19280.04330183 eV

  energy without entropy =    19280.05797455  energy(sigma->0) =    19280.05063819
  exchange ACFDT corr.  =        -0.00000141  see jH, gK, PRB 81, 115126


--------------------------------------------------------------------------------------------------------




--------------------------------------- Iteration      1(   7)  ---------------------------------------


    POTLOK:  cpu time      1.4909: real time      1.4907
    SETDIJ:  cpu time      0.4687: real time      0.4686
    TRIAL :  cpu time    232.8776: real time    232.8363
    CORREC:  cpu time    235.1358: real time    235.0957
    CHARGE:  cpu time      0.2081: real time      0.2080
    --------------------------------------------
      LOOP:  cpu time    470.1825: real time    470.1011

 eigenvalue-minimisations  :     0
 total energy-change (2. order) :-0.1388485E+05  (-0.2646181E+04)
 number of electron    1055.9997880 magnetization 
 augmentation part      466.2622810 magnetization 

 Free energy of the ion-electron system (eV)
  ---------------------------------------------------
  alpha Z        PSCENC =      5530.94812622
  Ewald energy   TEWEN  =    -88762.53680430
  -Hartree energ DENC   =    -44422.04677170
  -exchange      EXHF   =      4143.62104045
  -V(xc)+E(xc)   XCENC  =      3166.29637935
  PAW double counting   =    129635.49933434  -149421.66077278
  entropy T*S    EENTRO =        -0.03959770
  eigenvalues    EBANDS =     11791.09778759
  atomic energy  EATOM  =    133733.99279260
  ---------------------------------------------------
  free energy    TOTEN  =      5395.19643907 eV

  energy without entropy =     5395.23603676  energy(sigma->0) =     5395.21623792
  exchange ACFDT corr.  =      -187.75979752  see jH, gK, PRB 81, 115126


--------------------------------------------------------------------------------------------------------




--------------------------------------- Iteration      1(   8)  ---------------------------------------


    POTLOK:  cpu time      1.5036: real time      1.5035
    SETDIJ:  cpu time      0.4702: real time      0.4702
    TRIAL :  cpu time    233.6833: real time    233.6494
    CORREC:  cpu time    235.8209: real time    235.7843
    CHARGE:  cpu time      0.2093: real time      0.2093
    --------------------------------------------
      LOOP:  cpu time    471.6876: real time    471.6218

 eigenvalue-minimisations  :     0
 total energy-change (2. order) :-0.4106654E+04  (-0.7484380E+03)
 number of electron    1055.9997938 magnetization 
 augmentation part      450.6355574 magnetization 

 Free energy of the ion-electron system (eV)
  ---------------------------------------------------
  alpha Z        PSCENC =      5530.94812622
  Ewald energy   TEWEN  =    -88762.53680430
  -Hartree energ DENC   =    -36356.49643564
  -exchange      EXHF   =      3897.15428257
  -V(xc)+E(xc)   XCENC  =      2968.18286453
  PAW double counting   =    125291.62909066  -142488.08803125
  entropy T*S    EENTRO =        -0.04281071
  eigenvalues    EBANDS =     -2526.20354323
  atomic energy  EATOM  =    133733.99279260
  ---------------------------------------------------
  free energy    TOTEN  =      1288.54274447 eV

  energy without entropy =     1288.58555517  energy(sigma->0) =     1288.56414982
  exchange ACFDT corr.  =      -169.32923577  see jH, gK, PRB 81, 115126


--------------------------------------------------------------------------------------------------------




--------------------------------------- Iteration      1(   9)  ---------------------------------------


    POTLOK:  cpu time      1.4888: real time      1.4906
    SETDIJ:  cpu time      0.4691: real time      0.4691
    TRIAL :  cpu time    234.3233: real time    234.2903
    CORREC:  cpu time    235.7097: real time    235.6702
    CHARGE:  cpu time      0.2148: real time      0.2147
    --------------------------------------------
      LOOP:  cpu time    472.2060: real time    472.1353

 eigenvalue-minimisations  :     0
 total energy-change (2. order) :-0.2790021E+03  (-0.1167734E+04)
 number of electron    1055.9997971 magnetization 
 augmentation part      453.7871320 magnetization 

 Free energy of the ion-electron system (eV)
  ---------------------------------------------------
  alpha Z        PSCENC =      5530.94812622
  Ewald energy   TEWEN  =    -88762.53680430
  -Hartree energ DENC   =    -34171.43337775
  -exchange      EXHF   =      3791.30058165
  -V(xc)+E(xc)   XCENC  =      2887.12132535
  PAW double counting   =    123490.91210050  -139328.97912891
  entropy T*S    EENTRO =        -0.05228417
  eigenvalues    EBANDS =     -6161.74218873
  atomic energy  EATOM  =    133733.99279260
  ---------------------------------------------------
  free energy    TOTEN  =      1009.54061592 eV

  energy without entropy =     1009.59290009  energy(sigma->0) =     1009.56675801
  exchange ACFDT corr.  =      -140.81025514  see jH, gK, PRB 81, 115126


--------------------------------------------------------------------------------------------------------




--------------------------------------- Iteration      1(  10)  ---------------------------------------


    POTLOK:  cpu time      1.5151: real time      1.5148
    SETDIJ:  cpu time      0.4728: real time      0.4727
    TRIAL :  cpu time    234.1050: real time    234.0671
    CORREC:  cpu time    235.8735: real time    235.8326
    CHARGE:  cpu time      0.2227: real time      0.2226
    --------------------------------------------
      LOOP:  cpu time    472.1893: real time    472.1103

 eigenvalue-minimisations  :     0
 total energy-change (2. order) :-0.7939185E+03  (-0.3857756E+03)
 number of electron    1055.9997997 magnetization 
 augmentation part      455.3122834 magnetization 

 Free energy of the ion-electron system (eV)
  ---------------------------------------------------
  alpha Z        PSCENC =      5530.94812622
  Ewald energy   TEWEN  =    -88762.53680430
  -Hartree energ DENC   =    -34187.19996839
  -exchange      EXHF   =      3809.40482568
  -V(xc)+E(xc)   XCENC  =      2902.33743033
  PAW double counting   =    121907.86748930  -137891.61370566
  entropy T*S    EENTRO =        -0.05631222
  eigenvalues    EBANDS =     -6827.52581578
  atomic energy  EATOM  =    133733.99279260
  ---------------------------------------------------
  free energy    TOTEN  =       215.62208583 eV

  energy without entropy =      215.67839806  energy(sigma->0) =      215.65024195
  exchange ACFDT corr.  =      -189.92794828  see jH, gK, PRB 81, 115126


--------------------------------------------------------------------------------------------------------




--------------------------------------- Iteration      1(  11)  ---------------------------------------


    POTLOK:  cpu time      1.4871: real time      1.4869
    SETDIJ:  cpu time      0.4711: real time      0.4711
    TRIAL :  cpu time    233.9786: real time    233.9385
    CORREC:  cpu time    235.9821: real time    235.9462
    CHARGE:  cpu time      0.2069: real time      0.2068
    --------------------------------------------
      LOOP:  cpu time    472.1271: real time    472.0512

 eigenvalue-minimisations  :     0
 total energy-change (2. order) :-0.3437697E+03  (-0.3859246E+03)
[...]
   0.141E-04 0.645E+02 -.351E+02   0.375E-12 -.626E+02 0.363E+02   0.000E+00 -.170E+01 -.113E+01
   0.126E-04 0.648E+02 -.352E+02   0.184E-12 -.626E+02 0.377E+02   0.000E+00 -.202E+01 -.232E+01
   -.129E+02 0.609E+02 -.335E+02   0.125E+02 -.605E+02 0.334E+02   0.391E+00 -.352E+00 0.101E-01
   -.864E+01 0.597E+02 -.346E+02   0.837E+01 -.582E+02 0.378E+02   0.245E+00 -.131E+01 -.295E+01
   -.101E+00 -.405E+02 0.140E+02   0.919E-01 0.504E+02 -.173E+02   0.197E-01 -.859E+01 0.282E+01
   -.304E+00 -.236E+02 0.184E+02   0.317E+00 0.312E+02 -.227E+02   -.995E-02 -.657E+01 0.371E+01
   -.342E-04 -.293E+02 0.176E+02   0.727E-13 0.374E+02 -.216E+02   0.000E+00 -.700E+01 0.344E+01
   0.254E-04 -.230E+02 0.196E+02   -.138E-12 0.304E+02 -.236E+02   0.000E+00 -.635E+01 0.346E+01
   0.102E+00 -.405E+02 0.140E+02   -.919E-01 0.504E+02 -.173E+02   -.197E-01 -.859E+01 0.282E+01
   0.304E+00 -.236E+02 0.184E+02   -.317E+00 0.312E+02 -.227E+02   0.995E-02 -.657E+01 0.371E+01
   -.244E-06 0.351E+02 -.196E+02   0.119E-12 -.446E+02 0.237E+02   0.000E+00 0.821E+01 -.357E+01
   -.120E-04 0.229E+02 -.158E+02   -.206E-12 -.306E+02 0.196E+02   0.000E+00 0.660E+01 -.335E+01
   -.934E+00 0.231E+02 -.146E+02   0.118E+01 -.313E+02 0.183E+02   -.214E+00 0.706E+01 -.327E+01
   -.842E+00 0.240E+02 -.152E+02   0.912E+00 -.316E+02 0.190E+02   -.604E-01 0.655E+01 -.327E+01
   0.934E+00 0.231E+02 -.146E+02   -.118E+01 -.313E+02 0.183E+02   0.214E+00 0.706E+01 -.327E+01
   0.842E+00 0.240E+02 -.152E+02   -.912E+00 -.316E+02 0.190E+02   0.604E-01 0.655E+01 -.327E+01
   0.343E+00 0.664E+02 0.401E+02   -.131E+00 -.644E+02 -.357E+02   -.182E+00 -.172E+01 -.373E+01
   0.156E+01 0.649E+02 0.370E+02   -.163E+01 -.629E+02 -.323E+02   0.614E-01 -.170E+01 -.405E+01
   0.208E-04 0.689E+02 0.357E+02   -.758E-13 -.671E+02 -.309E+02   0.000E+00 -.152E+01 -.410E+01
   0.214E-04 0.653E+02 0.370E+02   0.527E-12 -.632E+02 -.323E+02   0.000E+00 -.178E+01 -.410E+01
   -.343E+00 0.664E+02 0.401E+02   0.131E+00 -.644E+02 -.357E+02   0.182E+00 -.172E+01 -.373E+01
   -.156E+01 0.649E+02 0.370E+02   0.163E+01 -.629E+02 -.323E+02   -.614E-01 -.170E+01 -.405E+01
   -.139E-04 -.750E+02 -.345E+02   0.147E-12 0.735E+02 0.299E+02   0.000E+00 0.132E+01 0.399E+01
   -.326E-04 -.700E+02 -.371E+02   0.524E-11 0.683E+02 0.324E+02   0.000E+00 0.143E+01 0.406E+01
   0.422E+01 -.752E+02 -.336E+02   -.439E+01 0.738E+02 0.288E+02   0.147E+00 0.121E+01 0.415E+01
   0.185E+01 -.714E+02 -.351E+02   -.197E+01 0.696E+02 0.303E+02   0.110E+00 0.155E+01 0.415E+01
   -.422E+01 -.752E+02 -.336E+02   0.439E+01 0.738E+02 0.288E+02   -.147E+00 0.121E+01 0.415E+01
   -.185E+01 -.714E+02 -.351E+02   0.197E+01 0.696E+02 0.303E+02   -.110E+00 0.155E+01 0.415E+01
   0.210E-06 0.121E+03 0.612E+02   0.647E-12 -.134E+03 -.575E+02   0.000E+00 0.113E+02 -.314E+01
   -.316E-04 0.116E+03 0.678E+02   0.113E-11 -.128E+03 -.650E+02   0.000E+00 0.108E+02 -.241E+01
   0.272E+01 0.120E+03 0.615E+02   -.275E+01 -.133E+03 -.578E+02   0.252E-01 0.112E+02 -.320E+01
   0.130E+01 0.115E+03 0.652E+02   -.132E+01 -.128E+03 -.620E+02   0.158E-01 0.109E+02 -.280E+01
   -.272E+01 0.120E+03 0.615E+02   0.275E+01 -.133E+03 -.578E+02   -.252E-01 0.112E+02 -.320E+01
   -.130E+01 0.115E+03 0.652E+02   0.132E+01 -.128E+03 -.620E+02   -.158E-01 0.109E+02 -.280E+01
   0.237E+01 -.121E+03 -.608E+02   -.248E+01 0.134E+03 0.572E+02   0.948E-01 -.109E+02 0.313E+01
   0.409E+00 -.119E+03 -.670E+02   -.244E+00 0.132E+03 0.640E+02   -.143E+00 -.106E+02 0.253E+01
   0.446E-04 -.121E+03 -.618E+02   -.188E-12 0.134E+03 0.581E+02   0.000E+00 -.110E+02 0.316E+01
   0.269E-04 -.119E+03 -.638E+02   0.121E-12 0.132E+03 0.603E+02   0.000E+00 -.109E+02 0.297E+01
   -.237E+01 -.121E+03 -.608E+02   0.248E+01 0.134E+03 0.572E+02   -.948E-01 -.109E+02 0.313E+01
   -.409E+00 -.119E+03 -.670E+02   0.244E+00 0.132E+03 0.640E+02   0.143E+00 -.106E+02 0.253E+01
   -.117E-04 -.667E+01 0.134E+02   0.340E-13 0.133E+02 -.166E+02   0.000E+00 -.573E+01 0.275E+01
   -.902E-05 -.845E+01 0.117E+02   0.208E-12 0.153E+02 -.158E+02   0.000E+00 -.590E+01 0.351E+01
   0.130E+01 -.112E+02 0.938E+01   -.159E+01 0.180E+02 -.124E+02   0.252E+00 -.581E+01 0.260E+01
   -.320E+00 -.102E+02 0.152E+02   0.378E+00 0.170E+02 -.195E+02   -.511E-01 -.586E+01 0.371E+01
   -.130E+01 -.112E+02 0.938E+01   0.159E+01 0.180E+02 -.124E+02   -.252E+00 -.581E+01 0.260E+01
   0.320E+00 -.102E+02 0.152E+02   -.378E+00 0.170E+02 -.195E+02   0.511E-01 -.586E+01 0.371E+01
   0.128E+02 0.530E+01 -.631E+01   -.148E+02 -.113E+02 0.814E+01   0.173E+01 0.510E+01 -.158E+01
   -.965E+00 0.908E+01 -.131E+02   0.100E+01 -.157E+02 0.174E+02   -.323E-01 0.569E+01 -.369E+01
   0.155E-04 0.788E+01 -.116E+02   0.571E-13 -.142E+02 0.147E+02   0.000E+00 0.546E+01 -.269E+01
   -.146E-04 0.769E+01 -.139E+02   0.824E-13 -.143E+02 0.179E+02   0.000E+00 0.568E+01 -.347E+01
   -.128E+02 0.530E+01 -.631E+01   0.148E+02 -.113E+02 0.814E+01   -.173E+01 0.510E+01 -.158E+01
   0.965E+00 0.908E+01 -.131E+02   -.100E+01 -.157E+02 0.174E+02   0.323E-01 0.569E+01 -.369E+01
   -.222E-04 0.656E+02 0.393E+02   -.512E-11 -.639E+02 -.349E+02   0.000E+00 -.145E+01 -.382E+01
   0.968E+01 0.641E+02 0.317E+02   -.106E+02 -.615E+02 -.262E+02   0.827E+00 -.227E+01 -.470E+01
   0.295E+01 0.691E+02 0.386E+02   -.344E+01 -.676E+02 -.338E+02   0.426E+00 -.131E+01 -.414E+01
   -.968E+01 0.641E+02 0.317E+02   0.106E+02 -.615E+02 -.262E+02   -.827E+00 -.227E+01 -.470E+01
   -.295E+01 0.691E+02 0.386E+02   0.344E+01 -.676E+02 -.338E+02   -.426E+00 -.131E+01 -.414E+01
   0.129E+02 -.506E+02 -.356E+02   -.145E+02 0.466E+02 0.302E+02   0.147E+01 0.345E+01 0.466E+01
   0.127E+01 -.581E+02 -.419E+02   -.136E+01 0.559E+02 0.373E+02   0.833E-01 0.196E+01 0.390E+01
   0.129E-05 -.560E+02 -.445E+02   0.902E-13 0.532E+02 0.398E+02   0.000E+00 0.243E+01 0.403E+01
   0.158E-04 -.599E+02 -.420E+02   -.480E-12 0.579E+02 0.378E+02   0.000E+00 0.172E+01 0.368E+01
   -.129E+02 -.506E+02 -.356E+02   0.145E+02 0.466E+02 0.302E+02   -.147E+01 0.345E+01 0.466E+01
   -.127E+01 -.581E+02 -.419E+02   0.136E+01 0.559E+02 0.373E+02   -.833E-01 0.196E+01 0.390E+01
   0.684E+01 0.122E+03 0.533E+02   -.754E+01 -.134E+03 -.484E+02   0.610E+00 0.103E+02 -.416E+01
   0.656E+00 0.125E+03 0.663E+02   -.851E+00 -.138E+03 -.633E+02   0.170E+00 0.106E+02 -.255E+01
   0.825E-05 0.125E+03 0.608E+02   0.209E-13 -.137E+03 -.564E+02   0.000E+00 0.106E+02 -.377E+01
   0.594E-05 0.129E+03 0.644E+02   -.769E-13 -.142E+03 -.611E+02   0.000E+00 0.108E+02 -.284E+01
   -.684E+01 0.122E+03 0.533E+02   0.754E+01 -.134E+03 -.484E+02   -.610E+00 0.103E+02 -.416E+01
   -.656E+00 0.125E+03 0.663E+02   0.851E+00 -.138E+03 -.633E+02   -.170E+00 0.106E+02 -.255E+01
   -.226E-04 -.129E+03 -.449E+02   -.597E-12 0.142E+03 0.386E+02   0.000E+00 -.116E+02 0.540E+01
   -.772E-05 -.116E+03 -.785E+02   -.102E-11 0.127E+03 0.776E+02   0.000E+00 -.952E+01 0.700E+00
   0.972E+01 -.115E+03 -.540E+02   -.112E+02 0.126E+03 0.487E+02   0.129E+01 -.101E+02 0.454E+01
   -.147E+01 -.122E+03 -.663E+02   0.176E+01 0.135E+03 0.634E+02   -.251E+00 -.107E+02 0.251E+01
   -.972E+01 -.115E+03 -.540E+02   0.112E+02 0.126E+03 0.487E+02   -.129E+01 -.101E+02 0.454E+01
   0.147E+01 -.122E+03 -.663E+02   -.176E+01 0.135E+03 0.634E+02   0.251E+00 -.107E+02 0.251E+01
   0.256E-04 0.638E+02 0.397E+02   -.151E-12 -.630E+02 -.370E+02   0.000E+00 -.743E+00 -.238E+01
 -----------------------------------------------------------------------------------------------
   -.167E-03 -.691E+01 -.114E+02   0.933E-13 0.853E-12 0.213E-13   0.167E-15 0.618E+01 0.992E+01
 
 
 POSITION                                       TOTAL-FORCE (eV/Angst)
 -----------------------------------------------------------------------------------
      0.00000      7.65805     -1.77270         0.000000      0.066169      0.002648
      0.00000      6.27824     -7.41634         0.000000      0.065787      0.012126
      3.04842      7.66576     -1.76940         0.001777      0.063348      0.005539
      3.04732      6.27907     -7.41967         0.003966      0.065521      0.005686
      6.09429      7.66576     -1.76940        -0.001777      0.063348      0.005539
      6.09538      6.27907     -7.41967        -0.003966      0.065521      0.005686
      1.52229      9.37231     -3.88662        -0.009232     -0.041888     -0.016962
      1.52260      7.99342     -9.53208        -0.002199     -0.060124     -0.010820
      4.57135      9.37684     -3.88045         0.000000     -0.064069     -0.006606
      4.57135      8.00038     -9.52678         0.000000     -0.074247     -0.013219
      7.62041      9.37231     -3.88662         0.009232     -0.041888     -0.016962
      7.62010      7.99342     -9.53208         0.002199     -0.060124     -0.010820
      1.51500      6.13417     -4.48433         0.020370     -0.038481      0.015806
      1.52434      4.77472    -10.14360        -0.001001     -0.020377      0.014153
      4.57135      6.17656     -4.49863         0.000000     -0.050965      0.021092
      4.57135      4.78357    -10.14415         0.000000     -0.021540      0.018014
      7.62770      6.13417     -4.48433        -0.020370     -0.038481      0.015806
      7.61836      4.77472    -10.14360         0.001001     -0.020377      0.014153
      0.00000     10.87275     -1.15779         0.000000      0.061425     -0.016552
      0.00000      9.49847     -6.80069         0.000000      0.022527     -0.010246
      3.04842     10.86875     -1.14960        -0.020891      0.056691     -0.017014
      3.04662      9.49244     -6.80330        -0.002925      0.023791     -0.021994
      6.09428     10.86875     -1.14960         0.020891      0.056691     -0.017014
      6.09608      9.49244     -6.80330         0.002925      0.023791     -0.021994
      1.46918      1.51323     -1.82167        -0.073691      0.068841     -0.040165
      1.51659      0.13566     -7.40443        -0.018146      0.059850      0.033153
      4.57135      1.50904     -1.78730         0.000000      0.063551     -0.037458
      4.57135      0.12573     -7.43012         0.000000      0.066156      0.024152
      7.67353      1.51323     -1.82167         0.073691      0.068841     -0.040165
      7.62611      0.13566     -7.40443         0.018146      0.059850      0.033153
      0.00000      3.16338     -3.88027         0.000000     -0.138425     -0.010790
      0.00000      1.84924     -9.52929         0.000000     -0.075532     -0.018811
      3.04867      3.24543     -3.86942        -0.034840     -0.075663      0.019351
      3.04850      1.85215     -9.52713        -0.010846     -0.079231     -0.015594
      6.09403      3.24543     -3.86942         0.034840     -0.075663      0.019351
      6.09420      1.85215     -9.52713         0.010846     -0.079231     -0.015594
      0.00000      0.05995     -4.43227         0.000000     -0.048121     -0.027842
      0.00000     -1.36597    -10.13275         0.000000      0.018440     -0.031206
      3.04163      0.00925     -4.49117        -0.004620      0.000146      0.018680
      3.04073     -1.36464    -10.16967        -0.007747     -0.027533      0.002547
      6.10107      0.00925     -4.49117         0.004620      0.000146      0.018680
      6.10198     -1.36464    -10.16967         0.007747     -0.027533      0.002547
      1.53113      4.74610     -1.15574         0.007702     -0.016070     -0.042754
      1.52927      3.36712     -6.81568         0.003914      0.009308      0.020724
      4.57135      4.74264     -1.16039         0.000000      0.009065     -0.021891
      4.57135      3.35849     -6.80503         0.000000      0.024499      0.001557
      7.61158      4.74610     -1.15574        -0.007702     -0.016070     -0.042754
      7.61343      3.36712     -6.81568        -0.003914      0.009308      0.020724
      1.52976     11.86158     -1.40330         0.009723     -0.258189      0.111676
      1.52560     10.49236     -7.09439         0.001412     -0.180500      0.131988
      4.57135     11.86605     -1.43680         0.000000     -0.205456      0.125044
      4.57135     10.49071     -7.09349         0.000000     -0.175243      0.123520
      7.61294     11.86158     -1.40330        -0.009723     -0.258189      0.111676
      7.61710     10.49236     -7.09439        -0.001412     -0.180500      0.131988
      0.00000      5.11847     -4.20831         0.000000      0.250524     -0.127268
      0.00000      3.77237     -9.85928         0.000000      0.181439     -0.117963
      3.05872      5.16834     -4.21786        -0.008848      0.201058     -0.118215
      3.05089      3.77360     -9.86199        -0.002925      0.180568     -0.117751
      6.08398      5.16834     -4.21786         0.008848      0.201058     -0.118215
      6.09181      3.77360     -9.86199         0.002925      0.180568     -0.117751
      1.52142      7.47462     -3.16905        -0.006418     -0.037729     -0.099970
      1.52392      6.09996     -8.81891         0.002818     -0.035219     -0.114926
      4.57135      7.48912     -3.16490         0.000000     -0.025847     -0.110797
      4.57135      6.10455     -8.81893         0.000000     -0.036517     -0.116098
      7.62128      7.47462     -3.16905         0.006418     -0.037729     -0.099970
      7.61878      6.09996     -8.81891        -0.002818     -0.035219     -0.114926
      0.00000      9.54510     -2.48479         0.000000      0.019501      0.114992
      0.00000      8.16709     -8.12377         0.000000      0.022470      0.114065
      3.04691      9.54798     -2.48230         0.005946      0.017719      0.117320
      3.04647      8.16854     -8.12769         0.005629      0.029415      0.115871
      6.09579      9.54798     -2.48230        -0.005946      0.017719      0.117320
      6.09623      8.16854     -8.12769        -0.005629      0.029415      0.115871
      0.00000      8.95816     -5.04179         0.000000      0.409216     -0.077667
      0.00000      7.58982    -10.68190         0.000000      0.397264     -0.049415
      3.05129      8.96433     -5.03980        -0.000408      0.408752     -0.078122
      3.05180      7.59074    -10.67780        -0.001194      0.404340     -0.066840
      6.09141      8.96433     -5.03980         0.000408      0.408752     -0.078122
      6.09090      7.59074    -10.67780         0.001194      0.404340     -0.066840
      1.52286      8.05919     -0.61058         0.004309     -0.401982      0.080553
      1.52264      6.65447     -6.25676        -0.005859     -0.391887      0.057680
      4.57135      8.07328     -0.60933         0.000000     -0.407241      0.078460
      4.57135      6.67885     -6.26934         0.000000     -0.399177      0.069958
      7.61984      8.05919     -0.61058        -0.004309     -0.401982      0.080553
      7.62006      6.65447     -6.25676         0.005859     -0.391887      0.057680
      0.00000      5.75154     -1.42165         0.000000     -0.140941      0.098019
      0.00000      4.36204     -7.10750         0.000000     -0.148285      0.118051
      3.05552      5.76607     -1.41805         0.002859     -0.154521      0.095400
      3.05481      4.36685     -7.11247        -0.006621     -0.155042      0.127325
      6.08718      5.76607     -1.41805        -0.002859     -0.154521      0.095400
      6.08789      4.36685     -7.11247         0.006621     -0.155042      0.127325
      1.52689     -1.01530     -4.24145         0.061005      0.117460     -0.061629
      1.52495     -2.37496     -9.84391        -0.003631      0.151430     -0.126267
      4.57135     -1.00171     -4.22583         0.000000      0.132111     -0.098335
      4.57135     -2.36595     -9.86726         0.000000      0.150014     -0.124453
      7.61581     -1.01530     -4.24145        -0.061005      0.117460     -0.061629
      7.61775     -2.37496     -9.84391         0.003631      0.151430     -0.126267
      0.00000     -0.03725     -8.80776         0.000000     -0.024998     -0.105618
      3.08144      1.33926     -3.18866         0.032180     -0.064725     -0.133821
      3.04567     -0.04526     -8.82895         0.016323     -0.022252     -0.117407
      6.06126      1.33926     -3.18866        -0.032180     -0.064725     -0.133821
      6.09703     -0.04526     -8.82895        -0.016323     -0.022252     -0.117407
      1.58785      3.46349     -2.47962         0.050462      0.108496      0.139437
      1.52650      2.03114     -8.12858         0.002101      0.044819      0.106531
      4.57135      3.42414     -2.47780         0.000000      0.070394      0.114005
      4.57135      2.02933     -8.13023         0.000000      0.036592      0.095003
      7.55485      3.46349     -2.47962        -0.050462      0.108496      0.139437
      7.61621      2.03114     -8.12858        -0.002101      0.044819      0.106531
      1.55426      2.87330     -5.05902         0.016077      0.386634     -0.130305
      1.52837      1.48393    -10.68151         0.007230      0.388372     -0.048235
      4.57135      2.86994     -5.03935         0.000000      0.387145     -0.104509
      4.57135      1.46012    -10.68931         0.000000      0.399221     -0.061758
      7.58844      2.87330     -5.05902        -0.016077      0.386634     -0.130305
      7.61433      1.48393    -10.68151        -0.007230      0.388372     -0.048235
      0.00000      1.97302     -0.55759         0.000000     -0.425833      0.173804
      0.00000      0.49837     -6.25072         0.000000     -0.347779     -0.023369
      3.03095      1.88603     -0.64018         0.048148     -0.369851      0.129007
      3.05302      0.51282     -6.26835        -0.009969     -0.392733      0.047970
      6.11175      1.88603     -0.64018        -0.048148     -0.369851      0.129007
      6.08969      0.51282     -6.26835         0.009969     -0.392733      0.047970
      0.00000      1.37214     -3.12992         0.000000      0.031575     -0.027853
 -----------------------------------------------------------------------------------
    total drift:                               -0.000167     -0.000304     -0.043201


--------------------------------------------------------------------------------------------------------



  FREE ENERGIE OF THE ION-ELECTRON SYSTEM (eV)
  ---------------------------------------------------
  free  energy   TOTEN  =      -952.34058269 eV

  energy  without entropy=     -952.34058269  energy(sigma->0) =     -952.34058269
 


--------------------------------------------------------------------------------------------------------


    POTLOK:  cpu time      1.9447: real time      1.9495


--------------------------------------------------------------------------------------------------------


 writing wavefunctions
     LOOP+:  cpu time  13271.1650: real time  13269.2527
    4ORBIT:  cpu time      0.0000: real time      0.0000

 total amount of memory used by VASP MPI-rank0  7512567. kBytes
=======================================================================

   base      :      30000. kBytes
   nonlr-proj:      47192. kBytes
   fftplans  :      51012. kBytes
   grid      :     102973. kBytes
   one-center:       1866. kBytes
   HF        :        194. kBytes
   wavefun   :    7050060. kBytes
   fock_wrk  :     229270. kBytes
 
  
  
 General timing and accounting informations for this job:
 ========================================================
  
                  Total CPU time used (sec):    13303.495
                            User time (sec):    13293.175
                          System time (sec):       10.320
                         Elapsed time (sec):    13303.329
  
                   Maximum memory used (kb):    13310336.
                   Average memory used (kb):          N/A
  
                          Minor page faults:      3295596
                          Major page faults:            4
                 Voluntary context switches:       245803
