<?xml version="1.0" encoding="ISO-8859-1"?>
<modeling>
 <generator>
  <i name="program" type="string">vasp </i>
  <i name="version" type="string">6.4.2  </i>
  <i name="subversion" type="string">20Jul23 (build Nov 12 2023 22:16:35) complex                          parallel </i>
  <i name="platform" type="string">LinuxNV </i>
  <i name="date" type="string">2025 03 22 </i>
  <i name="time" type="string">17:00:06 </i>
 </generator>
 <incar>
  <i type="int" name="ISTART">     0</i>
  <i type="string" name="PREC">Normal</i>
  <i type="string" name="ALGO">All</i>
  <i type="int" name="ISPIN">     1</i>
  <i type="int" name="ICHARG">     0</i>
  <i type="int" name="NELM">   500</i>
  <i type="int" name="IBRION">    -1</i>
  <i name="EDIFF">      0.00001000</i>
  <i name="EDIFFG">     -0.00500000</i>
  <i type="int" name="NSW">     0</i>
  <i type="int" name="ISIF">     2</i>
  <i name="ENCUT">    450.00000000</i>
  <i name="NELECT">   1056.00000000</i>
  <i type="string" name="LREAL">Auto</i>
  <i type="logical" name="LPLANE"> T  </i>
  <i name="TIME">      0.40000000</i>
  <i type="int" name="ISMEAR">     0</i>
  <i name="SIGMA">      0.05000000</i>
  <i type="logical" name="LWAVE"> T  </i>
  <i type="logical" name="LCHARG"> T  </i>
  <i name="HFSCREEN">      0.20000000</i>
  <i type="logical" name="LHFCALC"> T  </i>
  <i type="int" name="LMAXFOCK">     4</i>
  <i name="AEXX">      0.32000000</i>
  <i type="string" name="PRECFOCK">Fast</i>
 </incar>
 <primitive_cell>
  <structure name="primitive_cell" >
   <crystal>
    <varray name="basis" >
     <v>       0.00000000      12.28047342       0.00000000 </v>
     <v>       9.14270205       0.00000000       0.00000000 </v>
     <v>       0.00000000      -2.76826177     -11.30069772 </v>
    </varray>
    <i name="volume">   1268.80515525 </i>
    <varray name="rec_basis" >
     <v>       0.00000000       0.08143009      -0.01994742 </v>
     <v>       0.10937686      -0.00000000       0.00000000 </v>
     <v>       0.00000000       0.00000000      -0.08849011 </v>
    </varray>
   </crystal>
   <varray name="positions" >
    <v>       0.65895623       0.00000000       0.15686666 </v>
    <v>       0.65917449       0.00000000       0.65627266 </v>
    <v>       0.65951850       0.33342606       0.15657418 </v>
    <v>       0.65930863       0.33330620       0.65656740 </v>
    <v>       0.65951850       0.66657394       0.15657418 </v>
    <v>       0.65930863       0.66669380       0.65656740 </v>
    <v>       0.84071597       0.16650375       0.34392748 </v>
    <v>       0.84104518       0.16653734       0.84349484 </v>
    <v>       0.84096171       0.50000000       0.34338172 </v>
    <v>       0.84150628       0.50000000       0.84302539 </v>
    <v>       0.84071597       0.83349625       0.34392748 </v>
    <v>       0.84104518       0.83346266       0.84349484 </v>
    <v>       0.58895675       0.16570604       0.39681895 </v>
    <v>       0.59114485       0.16672799       0.89760837 </v>
    <v>       0.59269387       0.50000000       0.39808467 </v>
    <v>       0.59187615       0.50000000       0.89765736 </v>
    <v>       0.58895675       0.83429396       0.39681895 </v>
    <v>       0.59114485       0.83327201       0.89760837 </v>
    <v>       0.90846374       0.00000000       0.10245289 </v>
    <v>       0.90911767       0.00000000       0.60179397 </v>
    <v>       0.90797441       0.33342713       0.10172808 </v>
    <v>       0.90867855       0.33322969       0.60202499 </v>
    <v>       0.90797441       0.66657287       0.10172808 </v>
    <v>       0.90867855       0.66677031       0.60202499 </v>
    <v>       0.15956009       0.16069385       0.16119994 </v>
    <v>       0.15874625       0.16587965       0.65521876 </v>
    <v>       0.15853368       0.50000000       0.15815841 </v>
    <v>       0.15845018       0.50000000       0.65749202 </v>
    <v>       0.15956009       0.83930615       0.16119994 </v>
    <v>       0.15874625       0.83412035       0.65521876 </v>
    <v>       0.33499536       0.00000000       0.34336587 </v>
    <v>       0.34066889       0.00000000       0.84324825 </v>
    <v>       0.34146035       0.33345399       0.34240498 </v>
    <v>       0.34086250       0.33343555       0.84305682 </v>
    <v>       0.34146035       0.66654601       0.34240498 </v>
    <v>       0.34086250       0.66656445       0.84305682 </v>
    <v>       0.09329385       0.00000000       0.39221194 </v>
    <v>       0.09089125       0.00000000       0.89664776 </v>
    <v>       0.09034034       0.33268410       0.39742409 </v>
    <v>       0.09173627       0.33258504       0.89991528 </v>
    <v>       0.09034034       0.66731590       0.39742409 </v>
    <v>       0.09173627       0.66741496       0.89991528 </v>
    <v>       0.40952976       0.16746981       0.10227161 </v>
    <v>       0.41013982       0.16726693       0.60312036 </v>
    <v>       0.40934049       0.50000000       0.10268307 </v>
    <v>       0.40922524       0.50000000       0.60217746 </v>
    <v>       0.40952976       0.83253019       0.10227161 </v>
    <v>       0.41013982       0.83273307       0.60312036 </v>
    <v>       0.99388185       0.16732004       0.12417819 </v>
    <v>       0.99590861       0.16686506       0.62778349 </v>
    <v>       0.99491405       0.50000000       0.12714228 </v>
    <v>       0.99575626       0.50000000       0.62770374 </v>
    <v>       0.99388185       0.83267996       0.12417819 </v>
    <v>       0.99590861       0.83313494       0.62778349 </v>
    <v>       0.50074248       0.00000000       0.37239358 </v>
    <v>       0.50385210       0.00000000       0.87244905 </v>
    <v>       0.50499379       0.33455305       0.37323873 </v>
    <v>       0.50400559       0.33369720       0.87268851 </v>
    <v>       0.50499379       0.66544695       0.37323873 </v>
    <v>       0.50400559       0.66630280       0.87268851 </v>
    <v>       0.67187313       0.16640860       0.28042989 </v>
    <v>       0.67263505       0.16668159       0.78038624 </v>
    <v>       0.67297102       0.50000000       0.28006212 </v>
    <v>       0.67300909       0.50000000       0.78038854 </v>
    <v>       0.67187313       0.83359140       0.28042989 </v>
    <v>       0.67263505       0.83331841       0.78038624 </v>
    <v>       0.82682354       0.00000000       0.21987953 </v>
    <v>       0.82709522       0.00000000       0.71887370 </v>
    <v>       0.82700848       0.33326128       0.21965868 </v>
    <v>       0.82729123       0.33321354       0.71922064 </v>
    <v>       0.82700848       0.66673872       0.21965868 </v>
    <v>       0.82729123       0.66678646       0.71922064 </v>
    <v>       0.83003457       0.00000000       0.44614871 </v>
    <v>       0.83111608       0.00000000       0.94524222 </v>
    <v>       0.83049687       0.33374101       0.44597204 </v>
    <v>       0.83110890       0.33379646       0.94488012 </v>
    <v>       0.83049687       0.66625899       0.44597204 </v>
    <v>       0.83110890       0.66620354       0.94488012 </v>
    <v>       0.66844035       0.16656536       0.05403028 </v>
    <v>       0.66667994       0.16654178       0.55366107 </v>
    <v>       0.66956293       0.50000000       0.05392010 </v>
    <v>       0.66891624       0.50000000       0.55477425 </v>
    <v>       0.66844035       0.83343464       0.05403028 </v>
    <v>       0.66667994       0.83345822       0.55366107 </v>
    <v>       0.49670645       0.00000000       0.12580211 </v>
    <v>       0.49697745       0.00000000       0.62894325 </v>
    <v>       0.49781822       0.33420292       0.12548319 </v>
    <v>       0.49746807       0.33412528       0.62938298 </v>
    <v>       0.49781822       0.66579708       0.12548319 </v>
    <v>       0.49746807       0.66587472       0.62938298 </v>
    <v>       0.00192977       0.16700666       0.37532598 </v>
    <v>       0.00296755       0.16679392       0.87108907 </v>
    <v>       0.00272518       0.50000000       0.37394412 </v>
    <v>       0.00416704       0.50000000       0.87315484 </v>
    <v>       0.00192977       0.83299334       0.37532598 </v>
    <v>       0.00296755       0.83320608       0.87108907 </v>
    <v>       0.17265888       0.00000000       0.77939925 </v>
    <v>       0.17266129       0.33703836       0.28216491 </v>
    <v>       0.17242927       0.33312556       0.78127514 </v>
    <v>       0.17266129       0.66296164       0.28216491 </v>
    <v>       0.17242927       0.66687444       0.78127514 </v>
    <v>       0.33149396       0.17367378       0.21942158 </v>
    <v>       0.32754011       0.16696331       0.71929892 </v>
    <v>       0.32825379       0.50000000       0.21926070 </v>
    <v>       0.32742557       0.50000000       0.71944497 </v>
    <v>       0.33149396       0.82632622       0.21942158 </v>
    <v>       0.32754011       0.83303669       0.71929892 </v>
    <v>       0.33488733       0.16999977       0.44767284 </v>
    <v>       0.33390530       0.16716803       0.94520824 </v>
    <v>       0.33422155       0.50000000       0.44593307 </v>
    <v>       0.33212183       0.50000000       0.94589794 </v>
    <v>       0.33488733       0.83000023       0.44767284 </v>
    <v>       0.33390530       0.83283197       0.94520824 </v>
    <v>       0.17178560       0.00000000       0.04934101 </v>
    <v>       0.16526839       0.00000000       0.55312691 </v>
    <v>       0.16634989       0.33151561       0.05664985 </v>
    <v>       0.16679644       0.33392922       0.55468658 </v>
    <v>       0.16634989       0.66848439       0.05664985 </v>
    <v>       0.16679644       0.66607078       0.55468658 </v>
    <v>       0.17416720       0.00000000       0.27696729 </v>
   </varray>
  </structure>
  <varray name="primitive_index" >
   <v type="int" >        1 </v>
   <v type="int" >        2 </v>
   <v type="int" >        3 </v>
   <v type="int" >        4 </v>
   <v type="int" >        5 </v>
   <v type="int" >        6 </v>
   <v type="int" >        7 </v>
   <v type="int" >        8 </v>
   <v type="int" >        9 </v>
   <v type="int" >       10 </v>
   <v type="int" >       11 </v>
   <v type="int" >       12 </v>
   <v type="int" >       13 </v>
   <v type="int" >       14 </v>
   <v type="int" >       15 </v>
   <v type="int" >       16 </v>
   <v type="int" >       17 </v>
   <v type="int" >       18 </v>
   <v type="int" >       19 </v>
   <v type="int" >       20 </v>
   <v type="int" >       21 </v>
   <v type="int" >       22 </v>
   <v type="int" >       23 </v>
   <v type="int" >       24 </v>
   <v type="int" >       25 </v>
   <v type="int" >       26 </v>
   <v type="int" >       27 </v>
   <v type="int" >       28 </v>
   <v type="int" >       29 </v>
   <v type="int" >       30 </v>
   <v type="int" >       31 </v>
   <v type="int" >       32 </v>
   <v type="int" >       33 </v>
   <v type="int" >       34 </v>
   <v type="int" >       35 </v>
   <v type="int" >       36 </v>
   <v type="int" >       37 </v>
   <v type="int" >       38 </v>
   <v type="int" >       39 </v>
   <v type="int" >       40 </v>
   <v type="int" >       41 </v>
   <v type="int" >       42 </v>
   <v type="int" >       43 </v>
   <v type="int" >       44 </v>
   <v type="int" >       45 </v>
   <v type="int" >       46 </v>
   <v type="int" >       47 </v>
   <v type="int" >       48 </v>
   <v type="int" >       49 </v>
   <v type="int" >       50 </v>
   <v type="int" >       51 </v>
   <v type="int" >       52 </v>
   <v type="int" >       53 </v>
   <v type="int" >       54 </v>
   <v type="int" >       55 </v>
   <v type="int" >       56 </v>
   <v type="int" >       57 </v>
   <v type="int" >       58 </v>
   <v type="int" >       59 </v>
   <v type="int" >       60 </v>
   <v type="int" >       61 </v>
   <v type="int" >       62 </v>
   <v type="int" >       63 </v>
   <v type="int" >       64 </v>
   <v type="int" >       65 </v>
   <v type="int" >       66 </v>
   <v type="int" >       67 </v>
   <v type="int" >       68 </v>
   <v type="int" >       69 </v>
   <v type="int" >       70 </v>
   <v type="int" >       71 </v>
   <v type="int" >       72 </v>
   <v type="int" >       73 </v>
   <v type="int" >       74 </v>
   <v type="int" >       75 </v>
   <v type="int" >       76 </v>
   <v type="int" >       77 </v>
   <v type="int" >       78 </v>
   <v type="int" >       79 </v>
   <v type="int" >       80 </v>
   <v type="int" >       81 </v>
   <v type="int" >       82 </v>
   <v type="int" >       83 </v>
   <v type="int" >       84 </v>
   <v type="int" >       85 </v>
   <v type="int" >       86 </v>
   <v type="int" >       87 </v>
   <v type="int" >       88 </v>
   <v type="int" >       89 </v>
   <v type="int" >       90 </v>
   <v type="int" >       91 </v>
   <v type="int" >       92 </v>
   <v type="int" >       93 </v>
   <v type="int" >       94 </v>
   <v type="int" >       95 </v>
   <v type="int" >       96 </v>
   <v type="int" >       97 </v>
   <v type="int" >       98 </v>
   <v type="int" >       99 </v>
   <v type="int" >      100 </v>
   <v type="int" >      101 </v>
   <v type="int" >      102 </v>
   <v type="int" >      103 </v>
   <v type="int" >      104 </v>
   <v type="int" >      105 </v>
   <v type="int" >      106 </v>
   <v type="int" >      107 </v>
   <v type="int" >      108 </v>
   <v type="int" >      109 </v>
   <v type="int" >      110 </v>
   <v type="int" >      111 </v>
   <v type="int" >      112 </v>
   <v type="int" >      113 </v>
   <v type="int" >      114 </v>
   <v type="int" >      115 </v>
   <v type="int" >      116 </v>
   <v type="int" >      117 </v>
   <v type="int" >      118 </v>
   <v type="int" >      119 </v>
   <v type="int" >      120 </v>
  </varray>
 </primitive_cell>
 <kpoints>
  <generation param="Gamma">
   <v type="int" name="divisions">       2        2        2 </v>
   <v name="usershift">      0.00000000       0.00000000       0.00000000 </v>
   <v name="genvec1">      0.50000000       0.00000000       0.00000000 </v>
   <v name="genvec2">      0.00000000       0.50000000       0.00000000 </v>
   <v name="genvec3">      0.00000000       0.00000000       0.50000000 </v>
   <v name="shift">      0.00000000       0.00000000       0.00000000 </v>
  </generation>
  <varray name="kpointlist" >
   <v>       0.00000000       0.00000000       0.00000000 </v>
   <v>       0.50000000       0.00000000       0.00000000 </v>
   <v>       0.00000000       0.50000000       0.00000000 </v>
   <v>       0.50000000       0.50000000       0.00000000 </v>
   <v>       0.00000000       0.00000000       0.50000000 </v>
   <v>       0.50000000       0.00000000       0.50000000 </v>
   <v>       0.00000000       0.50000000       0.50000000 </v>
   <v>       0.50000000       0.50000000       0.50000000 </v>
  </varray>
  <varray name="weights" >
   <v>       0.12500000 </v>
   <v>       0.12500000 </v>
   <v>       0.12500000 </v>
   <v>       0.12500000 </v>
   <v>       0.12500000 </v>
   <v>       0.12500000 </v>
   <v>       0.12500000 </v>
   <v>       0.12500000 </v>
  </varray>
 </kpoints>
 <parameters>
  <separator name="general" >
   <i type="string" name="SYSTEM">unknown system</i>
   <i type="logical" name="LCOMPAT"> F  </i>
  </separator>
  <separator name="electronic" >
   <i type="string" name="PREC">normal</i>
   <i name="ENMAX">    450.00000000</i>
   <i name="ENAUG">    627.11200000</i>
   <i name="EDIFF">      0.00001000</i>
   <i type="int" name="IALGO">    58</i>
   <i type="int" name="IWAVPR">    10</i>
   <i type="int" name="NBANDS">   633</i>
   <i type="int" name="NBANDSLOW">    -1</i>
   <i type="int" name="NBANDSHIGH">    -1</i>
   <i name="NELECT">   1056.00000000</i>
   <i type="int" name="TURBO">     0</i>
   <i type="int" name="IRESTART">     0</i>
   <i type="int" name="NREBOOT">     0</i>
   <i type="int" name="NMIN">     0</i>
   <i name="EREF">      0.00000000</i>
   <separator name="electronic smearing" >
    <i type="int" name="ISMEAR">     0</i>
    <i name="SIGMA">      0.05000000</i>
    <i name="KSPACING">      0.50000000</i>
    <i type="logical" name="KGAMMA"> T  </i>
    <i type="logical" name="KBLOWUP"> T  </i>
   </separator>
   <separator name="electronic projectors" >
    <i type="logical" name="LREAL"> T  </i>
    <v name="ROPT">     -0.00050000     -0.00050000     -0.00050000</v>
    <i type="int" name="LMAXPAW">  -100</i>
    <i type="int" name="LMAXMIX">     2</i>
    <i type="logical" name="NLSPLINE"> F  </i>
   </separator>
   <separator name="electronic startup" >
    <i type="int" name="ISTART">     0</i>
    <i type="int" name="ICHARG">     0</i>
    <i type="int" name="INIWAV">     1</i>
   </separator>
   <separator name="electronic spin" >
    <i type="int" name="ISPIN">     1</i>
    <i type="logical" name="LNONCOLLINEAR"> F  </i>
    <v name="MAGMOM">      1.00000000      1.00000000      1.00000000      1.00000000      1.00000000      1.00000000      1.00000000      1.00000000      1.00000000      1.00000000      1.00000000      1.00000000      1.00000000      1.00000000      1.00000000      1.00000000      1.00000000      1.00000000      1.00000000      1.00000000
      1.00000000      1.00000000      1.00000000      1.00000000      1.00000000      1.00000000      1.00000000      1.00000000      1.00000000      1.00000000      1.00000000      1.00000000      1.00000000      1.00000000      1.00000000      1.00000000      1.00000000      1.00000000      1.00000000      1.00000000
      1.00000000      1.00000000      1.00000000      1.00000000      1.00000000      1.00000000      1.00000000      1.00000000      1.00000000      1.00000000      1.00000000      1.00000000      1.00000000      1.00000000      1.00000000      1.00000000      1.00000000      1.00000000      1.00000000      1.00000000
      1.00000000      1.00000000      1.00000000      1.00000000      1.00000000      1.00000000      1.00000000      1.00000000      1.00000000      1.00000000      1.00000000      1.00000000      1.00000000      1.00000000      1.00000000      1.00000000      1.00000000      1.00000000      1.00000000      1.00000000
      1.00000000      1.00000000      1.00000000      1.00000000      1.00000000      1.00000000      1.00000000      1.00000000      1.00000000      1.00000000      1.00000000      1.00000000      1.00000000      1.00000000      1.00000000      1.00000000      1.00000000      1.00000000      1.00000000      1.00000000
      1.00000000      1.00000000      1.00000000      1.00000000      1.00000000      1.00000000      1.00000000      1.00000000      1.00000000      1.00000000      1.00000000      1.00000000      1.00000000      1.00000000      1.00000000      1.00000000      1.00000000      1.00000000      1.00000000      1.00000000
</v>
    <i name="NUPDOWN">     -1.00000000</i>
    <i type="logical" name="LSORBIT"> F  </i>
    <v name="SAXIS">      0.00000000      0.00000000      1.00000000</v>
    <i type="logical" name="LSPIRAL"> F  </i>
    <v name="QSPIRAL">      0.00000000      0.00000000      0.00000000</v>
    <i type="logical" name="LZEROZ"> F  </i>
   </separator>
   <separator name="electronic exchange-correlation" >
    <i type="logical" name="LASPH"> F  </i>
    <i type="logical" name="LMETAGGA"> F  </i>
   </separator>
   <separator name="electronic convergence" >
    <i type="int" name="NELM">   500</i>
    <i type="int" name="NELMDL">    -5</i>
    <i type="int" name="NELMIN">     2</i>
    <i name="ENINI">    450.00000000</i>
    <separator name="electronic convergence detail" >
     <i type="logical" name="LDIAG"> T  </i>
     <i type="logical" name="LSUBROT"> F  </i>
     <i name="WEIMIN">      0.00000000</i>
     <i name="EBREAK">      0.00000000</i>
     <i name="DEPER">      0.30000000</i>
     <i type="int" name="NRMM">     4</i>
     <i name="TIME">      0.40000000</i>
    </separator>
   </separator>
   <separator name="electronic mixer" >
    <i name="AMIX">      0.40000000</i>
    <i name="BMIX">      1.00000000</i>
    <i name="AMIN">      0.10000000</i>
    <i name="AMIX_MAG">      1.60000000</i>
    <i name="BMIX_MAG">      1.00000000</i>
    <separator name="electronic mixer details" >
     <i type="int" name="IMIX">     4</i>
     <i type="logical" name="MIXFIRST"> F  </i>
     <i type="int" name="MAXMIX">   -45</i>
     <i name="WC">    100.00000000</i>
     <i type="int" name="INIMIX">     1</i>
     <i type="int" name="MIXPRE">     1</i>
     <i type="int" name="MREMOVE">     5</i>
    </separator>
   </separator>
   <separator name="electronic dipolcorrection" >
    <i type="logical" name="LDIPOL"> F  </i>
    <i type="logical" name="LMONO"> F  </i>
    <i type="int" name="IDIPOL">     0</i>
    <i name="EPSILON">      1.00000000</i>
    <v name="DIPOL">   -100.00000000   -100.00000000   -100.00000000</v>
    <i name="EFIELD">      0.00000000</i>
   </separator>
  </separator>
  <separator name="grids" >
   <i type="int" name="NGX">    64</i>
   <i type="int" name="NGY">    48</i>
   <i type="int" name="NGZ">    60</i>
   <i type="int" name="NGXF">   128</i>
   <i type="int" name="NGYF">    96</i>
   <i type="int" name="NGZF">   120</i>
   <i type="logical" name="ADDGRID"> F  </i>
  </separator>
  <separator name="ionic" >
   <i type="int" name="NSW">     0</i>
   <i type="int" name="IBRION">    -1</i>
   <i type="int" name="MDALGO">     0</i>
   <i type="int" name="ISIF">     2</i>
   <i name="PSTRESS">      0.00000000</i>
   <i name="EDIFFG">     -0.00500000</i>
   <i type="int" name="NFREE">     0</i>
   <i name="POTIM">      0.50000000</i>
   <i name="SMASS">     -3.00000000</i>
   <i name="SCALEE">      1.00000000</i>
  </separator>
  <separator name="ionic md" >
   <i name="TEBEG">      0.00010000</i>
   <i name="TEEND">      0.00010000</i>
   <i type="int" name="NBLOCK">     1</i>
   <i type="int" name="KBLOCK">     1</i>
   <i type="int" name="NPACO">   256</i>
   <i name="APACO">     10.00000000</i>
  </separator>
  <separator name="symmetry" >
   <i type="int" name="ISYM">     3</i>
   <i name="SYMPREC">      0.00001000</i>
  </separator>
  <separator name="dos" >
   <i type="int" name="LORBIT">     0</i>
   <v name="RWIGS">     -1.00000000     -1.00000000     -1.00000000</v>
   <i type="int" name="NEDOS">   301</i>
   <i name="EMIN">     10.00000000</i>
   <i name="EMAX">    -10.00000000</i>
   <i name="EFERMI">      0.00000000</i>
  </separator>
  <separator name="writing" >
   <i type="int" name="NWRITE">     2</i>
   <i type="logical" name="LWAVE"> T  </i>
   <i type="logical" name="LDOWNSAMPLE"> F  </i>
   <i type="logical" name="LCHARG"> T  </i>
   <i type="logical" name="LPARD"> F  </i>
   <i type="logical" name="LVTOT"> F  </i>
   <i type="logical" name="LVHAR"> F  </i>
   <i type="logical" name="LELF"> F  </i>
   <i type="logical" name="LOPTICS"> F  </i>
   <v name="STM">      0.00000000      0.00000000      0.00000000      0.00000000      0.00000000      0.00000000      0.00000000</v>
  </separator>
  <separator name="performance" >
   <i type="int" name="NPAR">     1</i>
   <i type="int" name="NSIM">     4</i>
   <i type="int" name="NBLK">    -1</i>
   <i type="logical" name="LPLANE"> T  </i>
   <i type="logical" name="LSCALAPACK"> T  </i>
   <i type="logical" name="LSCAAWARE"> F  </i>
   <i type="logical" name="LSCALU"> F  </i>
   <i type="logical" name="LASYNC"> F  </i>
   <i type="logical" name="LORBITALREAL"> F  </i>
  </separator>
  <separator name="miscellaneous" >
   <i type="int" name="IDIOT">     3</i>
   <i type="int" name="PHON_NSTRUCT">    -1</i>
   <i type="logical" name="LMUSIC"> F  </i>
   <v name="POMASS">     69.72300000     16.00000000     14.00100000</v>
   <v name="DARWINR">      0.00000000      0.00000000      0.00000000</v>
   <v name="DARWINV">      1.00000000      1.00000000      1.00000000</v>
   <i type="logical" name="LCORR"> T  </i>
  </separator>
  <i type="logical" name="GGA_COMPAT"> T  </i>
  <i type="logical" name="LBERRY"> F  </i>
  <i type="int" name="ICORELEVEL">     0</i>
  <i type="logical" name="LDAU"> F  </i>
  <i type="int" name="I_CONSTRAINED_M">     0</i>
  <separator name="electronic exchange-correlation" >
   <i type="string" name="GGA">--</i>
   <i type="int" name="VOSKOWN">     0</i>
   <i type="logical" name="LHFCALC"> T  </i>
   <i type="string" name="PRECFOCK">fast</i>
   <i type="logical" name="LSYMGRAD"> F  </i>
   <i type="logical" name="LHFONE"> F  </i>
   <i type="logical" name="LRHFCALC"> F  </i>
   <i type="logical" name="LTHOMAS"> F  </i>
   <i type="logical" name="LMODELHF"> F  </i>
   <i type="logical" name="LFOCKACE"> T  </i>
   <i name="ENCUT4O">     -1.00000000</i>
   <i type="int" name="EXXOEP">     0</i>
   <i type="int" name="FOURORBIT">     0</i>
   <i name="AEXX">      0.32000000</i>
   <i name="HFALPHA">     -1.00000000</i>
   <i name="MCALPHA">      0.00000000</i>
   <i name="ALDAX">      0.68000000</i>
   <i name="AGGAX">      0.68000000</i>
   <i name="ALDAC">      1.00000000</i>
   <i name="AGGAC">      1.00000000</i>
   <i type="int" name="NKREDX">     1</i>
   <i type="int" name="NKREDY">     1</i>
   <i type="int" name="NKREDZ">     1</i>
   <i type="logical" name="SHIFTRED"> F  </i>
   <i type="logical" name="ODDONLY"> F  </i>
   <i type="logical" name="EVENONLY"> F  </i>
   <i type="int" name="LMAXFOCK">     4</i>
   <i type="int" name="NMAXFOCKAE">     1</i>
   <i type="logical" name="LFOCKAEDFT"> F  </i>
   <i name="HFSCREEN">      0.20000000</i>
   <i name="HFSCREENC">      0.20000000</i>
   <i type="int" name="NBANDSGWLOW">     1</i>
  </separator>
  <separator name="vdW DFT" >
   <i type="logical" name="LUSE_VDW"> F  </i>
   <i type="int" name="IVDW_NL">     1</i>
   <i type="logical" name="LSPIN_VDW"> F  </i>
   <i name="Zab_VDW">     -0.84910000</i>
   <i name="PARAM1">      0.12340000</i>
   <i name="PARAM2">      1.00000000</i>
   <i name="PARAM3">      0.00000000</i>
  </separator>
  <separator name="model GW" >
   <i type="int" name="MODEL_GW">     0</i>
   <i name="MODEL_EPS0">      6.34402578</i>
   <i name="MODEL_ALPHA">      1.00000000</i>
  </separator>
  <separator name="linear response parameters" >
   <i type="logical" name="LEPSILON"> F  </i>
   <i type="logical" name="LRPA"> F  </i>
   <i type="logical" name="LNABLA"> F  </i>
   <i type="logical" name="LVEL"> F  </i>
   <i name="CSHIFT">      0.10000000</i>
   <i name="OMEGAMAX">     -1.00000000</i>
   <i name="DEG_THRESHOLD">      0.00200000</i>
   <i name="RTIME">     -0.10000000</i>
   <i name="WPLASMAI">      0.00000000</i>
   <v name="DFIELD">      0.00000000      0.00000000      0.00000000</v>
   <v name="WPLASMA">      0.00000000      0.00000000      0.00000000      0.00000000      0.00000000      0.00000000      0.00000000      0.00000000      0.00000000</v>
  </separator>
  <separator name="orbital magnetization" >
   <i type="logical" name="NUCIND"> F  </i>
   <v name="MAGPOS">      0.00000000      0.00000000      0.00000000</v>
   <i type="logical" name="LNICSALL"> T  </i>
   <i type="logical" name="ORBITALMAG"> F  </i>
   <i type="logical" name="LMAGBLOCH"> F  </i>
   <i type="logical" name="LCHIMAG"> F  </i>
   <i type="logical" name="LGAUGE"> T  </i>
   <i type="int" name="MAGATOM">     0</i>
   <v name="MAGDIPOL">      0.00000000      0.00000000      0.00000000</v>
   <v name="AVECCONST">      0.00000000      0.00000000      0.00000000</v>
  </separator>
  <separator name="response functions" >
   <i type="logical" name="LALL_IN_ONE"> F  </i>
   <i type="int" name="IALL_IN_ONE">    -1</i>
   <i type="int" name="NBANDS_WAVE">    -1</i>
   <i type="logical" name="LFINITE_TEMPERATURE"> F  </i>
   <i type="logical" name="LADDER"> F  </i>
   <i type="logical" name="LRPAFORCE"> F  </i>
   <i type="logical" name="LFXC"> F  </i>
   <i type="logical" name="LHARTREE"> T  </i>
   <i type="int" name="IBSE">     0</i>
   <v type="int" name="KPOINT">    -1     0     0     0</v>
   <i type="logical" name="LTCTC"> F  </i>
   <i type="logical" name="LTCTE"> F  </i>
   <i type="logical" name="LTETE"> F  </i>
   <i type="logical" name="LTRIPLET"> F  </i>
   <i type="logical" name="LFXCEPS"> F  </i>
   <i type="logical" name="LFXHEG"> F  </i>
   <i type="int" name="NATURALO">     2</i>
   <i type="logical" name="LHOLEGF"> F  </i>
   <i type="logical" name="L2ORDER"> F  </i>
   <i type="logical" name="LDMP1"> F  </i>
   <i type="logical" name="LMP2LT"> F  </i>
   <i type="logical" name="LSMP2LT"> F  </i>
   <i type="logical" name="LGWLF"> F  </i>
   <i name="ENCUTGW">     -1.60000002</i>
   <i name="ENCUTGWSOFT">     -1.60000002</i>
   <i name="ENCUTLF">     -1.00000000</i>
   <i type="logical" name="LESF_SPLINES"> F  </i>
   <i type="int" name="LMAXMP2">    -1</i>
   <i name="SCISSOR">      0.00000000</i>
   <i type="int" name="NOMEGA">     0</i>
   <i type="int" name="NOMEGAR">     0</i>
   <i type="int" name="NBANDSGW">    -1</i>
   <i type="int" name="NBANDSO">    -1</i>
   <i type="int" name="NBANDSV">    -1</i>
   <i type="int" name="NELMGW">     1</i>
   <i type="int" name="NELMHF">     1</i>
   <i type="int" name="DIM">     3</i>
   <i type="int" name="IESPILON">     4</i>
   <i type="int" name="ANTIRES">     0</i>
   <i name="OMEGAMAX">    -30.00000000</i>
   <i name="OMEGAMIN">    -30.00000000</i>
   <i name="OMEGATL">   -200.00000000</i>
   <i type="int" name="OMEGAGRID">     0</i>
   <i name="CSHIFT">     -0.10000000</i>
   <i type="logical" name="LSELFENERGY"> F  </i>
   <i type="logical" name="LSPECTRAL"> F  </i>
   <i type="logical" name="LSPECTRALGW"> F  </i>
   <i type="logical" name="LSINGLES"> F  </i>
   <i type="logical" name="LFERMIGW"> F  </i>
   <i type="logical" name="ODDONLYGW"> F  </i>
   <i type="logical" name="EVENONLYGW"> F  </i>
   <i type="int" name="NKREDLFX">     1</i>
   <i type="int" name="NKREDLFY">     1</i>
   <i type="int" name="NKREDLFZ">     1</i>
   <i type="int" name="MAXMEM">  2800</i>
   <i type="int" name="TELESCOPE">     0</i>
   <i type="int" name="NTAUPAR">    -1</i>
   <i type="int" name="NOMEGAPAR">    -1</i>
   <i name="DAMP_NEWTON">      0.80000001</i>
   <i name="LAMBDA">      1.00000000</i>
  </separator>
  <separator name="External order field" >
   <i name="OFIELD_KAPPA">      0.00000000</i>
   <v name="OFIELD_K">      0.00000000      0.00000000      0.00000000</v>
   <i name="OFIELD_Q6_NEAR">      0.00000000</i>
   <i name="OFIELD_Q6_FAR">      0.00000000</i>
   <i name="OFIELD_A">      0.00000000</i>
  </separator>
  <separator name="optional k-points parameters" >
   <i type="int" name="KPOINTS_OPT_MODE">     1</i>
   <i type="logical" name="LKPOINTS_OPT"> F  </i>
  </separator>
 </parameters>
 <atominfo>
  <atoms>     120 </atoms>
  <types>       3 </types>
  <array name="atoms" >
   <dimension dim="1">ion</dimension>
   <field type="string">element</field>
   <field type="int">atomtype</field>
   <set>
    <rc><c>Ga</c><c>   1</c></rc>
    <rc><c>Ga</c><c>   1</c></rc>
    <rc><c>Ga</c><c>   1</c></rc>
    <rc><c>Ga</c><c>   1</c></rc>
    <rc><c>Ga</c><c>   1</c></rc>
    <rc><c>Ga</c><c>   1</c></rc>
    <rc><c>Ga</c><c>   1</c></rc>
    <rc><c>Ga</c><c>   1</c></rc>
    <rc><c>Ga</c><c>   1</c></rc>
    <rc><c>Ga</c><c>   1</c></rc>
    <rc><c>Ga</c><c>   1</c></rc>
    <rc><c>Ga</c><c>   1</c></rc>
    <rc><c>Ga</c><c>   1</c></rc>
    <rc><c>Ga</c><c>   1</c></rc>
    <rc><c>Ga</c><c>   1</c></rc>
    <rc><c>Ga</c><c>   1</c></rc>
    <rc><c>Ga</c><c>   1</c></rc>
    <rc><c>Ga</c><c>   1</c></rc>
    <rc><c>Ga</c><c>   1</c></rc>
    <rc><c>Ga</c><c>   1</c></rc>
    <rc><c>Ga</c><c>   1</c></rc>
    <rc><c>Ga</c><c>   1</c></rc>
    <rc><c>Ga</c><c>   1</c></rc>
    <rc><c>Ga</c><c>   1</c></rc>
    <rc><c>Ga</c><c>   1</c></rc>
    <rc><c>Ga</c><c>   1</c></rc>
    <rc><c>Ga</c><c>   1</c></rc>
    <rc><c>Ga</c><c>   1</c></rc>
    <rc><c>Ga</c><c>   1</c></rc>
    <rc><c>Ga</c><c>   1</c></rc>
    <rc><c>Ga</c><c>   1</c></rc>
    <rc><c>Ga</c><c>   1</c></rc>
    <rc><c>Ga</c><c>   1</c></rc>
    <rc><c>Ga</c><c>   1</c></rc>
    <rc><c>Ga</c><c>   1</c></rc>
    <rc><c>Ga</c><c>   1</c></rc>
    <rc><c>Ga</c><c>   1</c></rc>
    <rc><c>Ga</c><c>   1</c></rc>
    <rc><c>Ga</c><c>   1</c></rc>
    <rc><c>Ga</c><c>   1</c></rc>
    <rc><c>Ga</c><c>   1</c></rc>
    <rc><c>Ga</c><c>   1</c></rc>
    <rc><c>Ga</c><c>   1</c></rc>
    <rc><c>Ga</c><c>   1</c></rc>
    <rc><c>Ga</c><c>   1</c></rc>
    <rc><c>Ga</c><c>   1</c></rc>
    <rc><c>Ga</c><c>   1</c></rc>
    <rc><c>Ga</c><c>   1</c></rc>
    <rc><c>O </c><c>   2</c></rc>
    <rc><c>O </c><c>   2</c></rc>
    <rc><c>O </c><c>   2</c></rc>
    <rc><c>O </c><c>   2</c></rc>
    <rc><c>O </c><c>   2</c></rc>
    <rc><c>O </c><c>   2</c></rc>
    <rc><c>O </c><c>   2</c></rc>
    <rc><c>O </c><c>   2</c></rc>
    <rc><c>O </c><c>   2</c></rc>
    <rc><c>O </c><c>   2</c></rc>
    <rc><c>O </c><c>   2</c></rc>
    <rc><c>O </c><c>   2</c></rc>
    <rc><c>O </c><c>   2</c></rc>
    <rc><c>O </c><c>   2</c></rc>
    <rc><c>O </c><c>   2</c></rc>
    <rc><c>O </c><c>   2</c></rc>
    <rc><c>O </c><c>   2</c></rc>
    <rc><c>O </c><c>   2</c></rc>
    <rc><c>O </c><c>   2</c></rc>
    <rc><c>O </c><c>   2</c></rc>
    <rc><c>O </c><c>   2</c></rc>
    <rc><c>O </c><c>   2</c></rc>
    <rc><c>O </c><c>   2</c></rc>
    <rc><c>O </c><c>   2</c></rc>
    <rc><c>O </c><c>   2</c></rc>
    <rc><c>O </c><c>   2</c></rc>
    <rc><c>O </c><c>   2</c></rc>
    <rc><c>O </c><c>   2</c></rc>
    <rc><c>O </c><c>   2</c></rc>
    <rc><c>O </c><c>   2</c></rc>
    <rc><c>O </c><c>   2</c></rc>
    <rc><c>O </c><c>   2</c></rc>
    <rc><c>O </c><c>   2</c></rc>
    <rc><c>O </c><c>   2</c></rc>
    <rc><c>O </c><c>   2</c></rc>
    <rc><c>O </c><c>   2</c></rc>
    <rc><c>O </c><c>   2</c></rc>
    <rc><c>O </c><c>   2</c></rc>
    <rc><c>O </c><c>   2</c></rc>
    <rc><c>O </c><c>   2</c></rc>
    <rc><c>O </c><c>   2</c></rc>
    <rc><c>O </c><c>   2</c></rc>
    <rc><c>O </c><c>   2</c></rc>
    <rc><c>O </c><c>   2</c></rc>
    <rc><c>O </c><c>   2</c></rc>
    <rc><c>O </c><c>   2</c></rc>
    <rc><c>O </c><c>   2</c></rc>
    <rc><c>O </c><c>   2</c></rc>
    <rc><c>O </c><c>   2</c></rc>
    <rc><c>O </c><c>   2</c></rc>
    <rc><c>O </c><c>   2</c></rc>
    <rc><c>O </c><c>   2</c></rc>
    <rc><c>O </c><c>   2</c></rc>
    <rc><c>O </c><c>   2</c></rc>
    <rc><c>O </c><c>   2</c></rc>
    <rc><c>O </c><c>   2</c></rc>
    <rc><c>O </c><c>   2</c></rc>
    <rc><c>O </c><c>   2</c></rc>
    <rc><c>O </c><c>   2</c></rc>
    <rc><c>O </c><c>   2</c></rc>
    <rc><c>O </c><c>   2</c></rc>
    <rc><c>O </c><c>   2</c></rc>
    <rc><c>O </c><c>   2</c></rc>
    <rc><c>O </c><c>   2</c></rc>
    <rc><c>O </c><c>   2</c></rc>
    <rc><c>O </c><c>   2</c></rc>
    <rc><c>O </c><c>   2</c></rc>
    <rc><c>O </c><c>   2</c></rc>
    <rc><c>O </c><c>   2</c></rc>
    <rc><c>O </c><c>   2</c></rc>
    <rc><c>O </c><c>   2</c></rc>
    <rc><c>N </c><c>   3</c></rc>
   </set>
  </array>
  <array name="atomtypes" >
   <dimension dim="1">type</dimension>
   <field type="int">atomspertype</field>
   <field type="string">element</field>
   <field>mass</field>
   <field>valence</field>
   <field type="string">pseudopotential</field>
   <set>
    <rc><c>  48</c><c>Ga</c><c>     69.72300000</c><c>     13.00000000</c><c>  PAW_PBE Ga_d 06Jul2010                </c></rc>
    <rc><c>  71</c><c>O </c><c>     16.00000000</c><c>      6.00000000</c><c>  PAW_PBE O 08Apr2002                   </c></rc>
    <rc><c>   1</c><c>N </c><c>     14.00100000</c><c>      5.00000000</c><c>  PAW_PBE N 08Apr2002                   </c></rc>
   </set>
  </array>
 </atominfo>
 <structure name="initialpos" >
  <crystal>
   <varray name="basis" >
    <v>       0.00000000      12.28047342       0.00000000 </v>
    <v>       9.14270205       0.00000000       0.00000000 </v>
    <v>       0.00000000      -2.76826177     -11.30069772 </v>
   </varray>
   <i name="volume">   1268.80515525 </i>
   <varray name="rec_basis" >
    <v>       0.00000000       0.08143009      -0.01994742 </v>
    <v>       0.10937686      -0.00000000       0.00000000 </v>
    <v>       0.00000000       0.00000000      -0.08849011 </v>
   </varray>
  </crystal>
  <varray name="positions" >
   <v>       0.65895623       0.00000000       0.15686666 </v>
   <v>       0.65917449       0.00000000       0.65627266 </v>
   <v>       0.65951850       0.33342606       0.15657418 </v>
   <v>       0.65930863       0.33330620       0.65656740 </v>
   <v>       0.65951850       0.66657394       0.15657418 </v>
   <v>       0.65930863       0.66669380       0.65656740 </v>
   <v>       0.84071597       0.16650375       0.34392748 </v>
   <v>       0.84104518       0.16653734       0.84349484 </v>
   <v>       0.84096171       0.50000000       0.34338172 </v>
   <v>       0.84150628       0.50000000       0.84302539 </v>
   <v>       0.84071597       0.83349625       0.34392748 </v>
   <v>       0.84104518       0.83346266       0.84349484 </v>
   <v>       0.58895675       0.16570604       0.39681895 </v>
   <v>       0.59114485       0.16672799       0.89760837 </v>
   <v>       0.59269387       0.50000000       0.39808467 </v>
   <v>       0.59187615       0.50000000       0.89765736 </v>
   <v>       0.58895675       0.83429396       0.39681895 </v>
   <v>       0.59114485       0.83327201       0.89760837 </v>
   <v>       0.90846374       0.00000000       0.10245289 </v>
   <v>       0.90911767       0.00000000       0.60179397 </v>
   <v>       0.90797441       0.33342713       0.10172808 </v>
   <v>       0.90867855       0.33322969       0.60202499 </v>
   <v>       0.90797441       0.66657287       0.10172808 </v>
   <v>       0.90867855       0.66677031       0.60202499 </v>
   <v>       0.15956009       0.16069385       0.16119994 </v>
   <v>       0.15874625       0.16587965       0.65521876 </v>
   <v>       0.15853368       0.50000000       0.15815841 </v>
   <v>       0.15845018       0.50000000       0.65749202 </v>
   <v>       0.15956009       0.83930615       0.16119994 </v>
   <v>       0.15874625       0.83412035       0.65521876 </v>
   <v>       0.33499536       0.00000000       0.34336587 </v>
   <v>       0.34066889       0.00000000       0.84324825 </v>
   <v>       0.34146035       0.33345399       0.34240498 </v>
   <v>       0.34086250       0.33343555       0.84305682 </v>
   <v>       0.34146035       0.66654601       0.34240498 </v>
   <v>       0.34086250       0.66656445       0.84305682 </v>
   <v>       0.09329385       0.00000000       0.39221194 </v>
   <v>       0.09089125       0.00000000       0.89664776 </v>
   <v>       0.09034034       0.33268410       0.39742409 </v>
   <v>       0.09173627       0.33258504       0.89991528 </v>
   <v>       0.09034034       0.66731590       0.39742409 </v>
   <v>       0.09173627       0.66741496       0.89991528 </v>
   <v>       0.40952976       0.16746981       0.10227161 </v>
   <v>       0.41013982       0.16726693       0.60312036 </v>
   <v>       0.40934049       0.50000000       0.10268307 </v>
   <v>       0.40922524       0.50000000       0.60217746 </v>
   <v>       0.40952976       0.83253019       0.10227161 </v>
   <v>       0.41013982       0.83273307       0.60312036 </v>
   <v>       0.99388185       0.16732004       0.12417819 </v>
   <v>       0.99590861       0.16686506       0.62778349 </v>
   <v>       0.99491405       0.50000000       0.12714228 </v>
   <v>       0.99575626       0.50000000       0.62770374 </v>
   <v>       0.99388185       0.83267996       0.12417819 </v>
   <v>       0.99590861       0.83313494       0.62778349 </v>
   <v>       0.50074248       0.00000000       0.37239358 </v>
   <v>       0.50385210       0.00000000       0.87244905 </v>
   <v>       0.50499379       0.33455305       0.37323873 </v>
   <v>       0.50400559       0.33369720       0.87268851 </v>
   <v>       0.50499379       0.66544695       0.37323873 </v>
   <v>       0.50400559       0.66630280       0.87268851 </v>
   <v>       0.67187313       0.16640860       0.28042989 </v>
   <v>       0.67263505       0.16668159       0.78038624 </v>
   <v>       0.67297102       0.50000000       0.28006212 </v>
   <v>       0.67300909       0.50000000       0.78038854 </v>
   <v>       0.67187313       0.83359140       0.28042989 </v>
   <v>       0.67263505       0.83331841       0.78038624 </v>
   <v>       0.82682354       0.00000000       0.21987953 </v>
   <v>       0.82709522       0.00000000       0.71887370 </v>
   <v>       0.82700848       0.33326128       0.21965868 </v>
   <v>       0.82729123       0.33321354       0.71922064 </v>
   <v>       0.82700848       0.66673872       0.21965868 </v>
   <v>       0.82729123       0.66678646       0.71922064 </v>
   <v>       0.83003457       0.00000000       0.44614871 </v>
   <v>       0.83111608       0.00000000       0.94524222 </v>
   <v>       0.83049687       0.33374101       0.44597204 </v>
   <v>       0.83110890       0.33379646       0.94488012 </v>
   <v>       0.83049687       0.66625899       0.44597204 </v>
   <v>       0.83110890       0.66620354       0.94488012 </v>
   <v>       0.66844035       0.16656536       0.05403028 </v>
   <v>       0.66667994       0.16654178       0.55366107 </v>
   <v>       0.66956293       0.50000000       0.05392010 </v>
   <v>       0.66891624       0.50000000       0.55477425 </v>
   <v>       0.66844035       0.83343464       0.05403028 </v>
   <v>       0.66667994       0.83345822       0.55366107 </v>
   <v>       0.49670645       0.00000000       0.12580211 </v>
   <v>       0.49697745       0.00000000       0.62894325 </v>
   <v>       0.49781822       0.33420292       0.12548319 </v>
   <v>       0.49746807       0.33412528       0.62938298 </v>
   <v>       0.49781822       0.66579708       0.12548319 </v>
   <v>       0.49746807       0.66587472       0.62938298 </v>
   <v>       0.00192977       0.16700666       0.37532598 </v>
   <v>       0.00296755       0.16679392       0.87108907 </v>
   <v>       0.00272518       0.50000000       0.37394412 </v>
   <v>       0.00416704       0.50000000       0.87315484 </v>
   <v>       0.00192977       0.83299334       0.37532598 </v>
   <v>       0.00296755       0.83320608       0.87108907 </v>
   <v>       0.17265888       0.00000000       0.77939925 </v>
   <v>       0.17266129       0.33703836       0.28216491 </v>
   <v>       0.17242927       0.33312556       0.78127514 </v>
   <v>       0.17266129       0.66296164       0.28216491 </v>
   <v>       0.17242927       0.66687444       0.78127514 </v>
   <v>       0.33149396       0.17367378       0.21942158 </v>
   <v>       0.32754011       0.16696331       0.71929892 </v>
   <v>       0.32825379       0.50000000       0.21926070 </v>
   <v>       0.32742557       0.50000000       0.71944497 </v>
   <v>       0.33149396       0.82632622       0.21942158 </v>
   <v>       0.32754011       0.83303669       0.71929892 </v>
   <v>       0.33488733       0.16999977       0.44767284 </v>
   <v>       0.33390530       0.16716803       0.94520824 </v>
   <v>       0.33422155       0.50000000       0.44593307 </v>
   <v>       0.33212183       0.50000000       0.94589794 </v>
   <v>       0.33488733       0.83000023       0.44767284 </v>
   <v>       0.33390530       0.83283197       0.94520824 </v>
   <v>       0.17178560       0.00000000       0.04934101 </v>
   <v>       0.16526839       0.00000000       0.55312691 </v>
   <v>       0.16634989       0.33151561       0.05664985 </v>
   <v>       0.16679644       0.33392922       0.55468658 </v>
   <v>       0.16634989       0.66848439       0.05664985 </v>
   <v>       0.16679644       0.66607078       0.55468658 </v>
   <v>       0.17416720       0.00000000       0.27696729 </v>
  </varray>
 </structure>
 <calculation>
  <scstep>
   <time name="total">    3.96    3.97</time>
   <energy>
    <i name="alphaZ">   5530.94812622 </i>
    <i name="ewald"> -88762.53680430 </i>
    <i name="hartreedc">  -2115.39622962 </i>
    <i name="XCdc">   2806.62561801 </i>
    <i name="pawpsdc">  59936.94583672 </i>
    <i name="pawaedc"> -89144.53760024 </i>
    <i name="eentropy">     -0.01381134 </i>
    <i name="bandstr"> -40311.68723606 </i>
    <i name="atom"> 133733.99279260 </i>
    <i name="e_fr_energy"> -18325.65930801 </i>
    <i name="e_wo_entrp"> -18325.64549667 </i>
    <i name="e_0_energy"> -18325.65240234 </i>
   </energy>
  </scstep>
  <scstep>
   <time name="total">    3.17    3.17</time>
   <energy>
    <i name="e_fr_energy"> -62387.49158119 </i>
    <i name="e_wo_entrp"> -62387.46937717 </i>
    <i name="e_0_energy"> -62387.48047918 </i>
   </energy>
  </scstep>
  <scstep>
   <time name="total">    3.30    3.30</time>
   <energy>
    <i name="e_fr_energy"> -66923.89910713 </i>
    <i name="e_wo_entrp"> -66923.85612481 </i>
    <i name="e_0_energy"> -66923.87761597 </i>
   </energy>
  </scstep>
  <scstep>
   <time name="total">    3.71    3.71</time>
   <energy>
    <i name="e_fr_energy"> -67472.55117950 </i>
    <i name="e_wo_entrp"> -67472.51003907 </i>
    <i name="e_0_energy"> -67472.53060928 </i>
   </energy>
  </scstep>
  <scstep>
   <time name="total">  236.30  236.26</time>
   <energy>
    <i name="e_fr_energy"> -37363.40725666 </i>
    <i name="e_wo_entrp"> -37363.40725580 </i>
    <i name="e_0_energy"> -37363.40725623 </i>
   </energy>
  </scstep>
  <scstep>
   <time name="total">  470.76  470.67</time>
   <energy>
    <i name="e_fr_energy">  19280.04330183 </i>
    <i name="e_wo_entrp">  19280.05797455 </i>
    <i name="e_0_energy">  19280.05063819 </i>
   </energy>
  </scstep>
  <scstep>
   <time name="total">  470.18  470.10</time>
   <energy>
    <i name="e_fr_energy">   5395.19643907 </i>
    <i name="e_wo_entrp">   5395.23603676 </i>
    <i name="e_0_energy">   5395.21623792 </i>
   </energy>
  </scstep>
  <scstep>
   <time name="total">  471.69  471.62</time>
   <energy>
    <i name="e_fr_energy">   1288.54274447 </i>
    <i name="e_wo_entrp">   1288.58555517 </i>
    <i name="e_0_energy">   1288.56414982 </i>
   </energy>
  </scstep>
  <scstep>
   <time name="total">  472.21  472.14</time>
   <energy>
    <i name="e_fr_energy">   1009.54061592 </i>
    <i name="e_wo_entrp">   1009.59290009 </i>
    <i name="e_0_energy">   1009.56675801 </i>
   </energy>
  </scstep>
  <scstep>
   <time name="total">  472.19  472.11</time>
   <energy>
    <i name="e_fr_energy">    215.62208583 </i>
    <i name="e_wo_entrp">    215.67839806 </i>
    <i name="e_0_energy">    215.65024195 </i>
   </energy>
  </scstep>
  <scstep>
   <time name="total">  472.13  472.05</time>
   <energy>
    <i name="e_fr_energy">   -128.14758555 </i>
    <i name="e_wo_entrp">   -128.10904392 </i>
    <i name="e_0_energy">   -128.12831474 </i>
   </energy>
  </scstep>
  <scstep>
   <time name="total">  470.22  470.15</time>
   <energy>
    <i name="e_fr_energy">   -509.86568362 </i>
    <i name="e_wo_entrp">   -509.84977059 </i>
    <i name="e_0_energy">   -509.85772710 </i>
   </energy>
  </scstep>
  <scstep>
   <time name="total">  469.03  468.98</time>
   <energy>
    <i name="e_fr_energy">   -739.65679763 </i>
    <i name="e_wo_entrp">   -739.65035269 </i>
    <i name="e_0_energy">   -739.65357516 </i>
   </energy>
  </scstep>
  <scstep>
   <time name="total">  469.15  469.07</time>
   <energy>
    <i name="e_fr_energy">   -865.18750957 </i>
    <i name="e_wo_entrp">   -865.18103851 </i>
    <i name="e_0_energy">   -865.18427404 </i>
   </energy>
  </scstep>
  <scstep>
   <time name="total">  468.83  468.75</time>
   <energy>
    <i name="e_fr_energy">   -911.15143790 </i>
    <i name="e_wo_entrp">   -911.14503480 </i>
    <i name="e_0_energy">   -911.14823635 </i>
   </energy>
  </scstep>
  <scstep>
   <time name="total">  469.21  469.13</time>
   <energy>
    <i name="e_fr_energy">   -929.99070098 </i>
    <i name="e_wo_entrp">   -929.99070098 </i>
    <i name="e_0_energy">   -929.99070098 </i>
   </energy>
  </scstep>
  <scstep>
   <time name="total">  468.49  468.42</time>
   <energy>
    <i name="e_fr_energy">   -910.34196876 </i>
    <i name="e_wo_entrp">   -910.34196876 </i>
    <i name="e_0_energy">   -910.34196876 </i>
   </energy>
  </scstep>
  <scstep>
   <time name="total">  468.66  468.61</time>
   <energy>
    <i name="e_fr_energy">   -945.49874275 </i>
    <i name="e_wo_entrp">   -945.49874275 </i>
    <i name="e_0_energy">   -945.49874275 </i>
   </energy>
  </scstep>
  <scstep>
   <time name="total">  469.00  468.93</time>
   <energy>
    <i name="e_fr_energy">   -949.81669483 </i>
    <i name="e_wo_entrp">   -949.81669483 </i>
    <i name="e_0_energy">   -949.81669483 </i>
   </energy>
  </scstep>
  <scstep>
   <time name="total">  468.94  468.87</time>
   <energy>
    <i name="e_fr_energy">   -951.70246704 </i>
    <i name="e_wo_entrp">   -951.70246704 </i>
    <i name="e_0_energy">   -951.70246704 </i>
   </energy>
  </scstep>
  <scstep>
   <time name="total">  469.04  468.97</time>
   <energy>
    <i name="e_fr_energy">   -952.15389844 </i>
    <i name="e_wo_entrp">   -952.15389844 </i>
    <i name="e_0_energy">   -952.15389844 </i>
   </energy>
  </scstep>
  <scstep>
   <time name="total">  468.78  468.70</time>
   <energy>
    <i name="e_fr_energy">   -952.29065108 </i>
    <i name="e_wo_entrp">   -952.29065108 </i>
    <i name="e_0_energy">   -952.29065108 </i>
   </energy>
  </scstep>
  <scstep>
   <time name="total">  468.70  468.63</time>
   <energy>
    <i name="e_fr_energy">   -952.32638622 </i>
    <i name="e_wo_entrp">   -952.32638622 </i>
    <i name="e_0_energy">   -952.32638622 </i>
   </energy>
  </scstep>
  <scstep>
   <time name="total">  468.79  468.71</time>
   <energy>
    <i name="e_fr_energy">   -952.33591046 </i>
    <i name="e_wo_entrp">   -952.33591046 </i>
    <i name="e_0_energy">   -952.33591046 </i>
   </energy>
  </scstep>
  <scstep>
   <time name="total">  468.71  468.63</time>
   <energy>
    <i name="e_fr_energy">   -952.33904169 </i>
    <i name="e_wo_entrp">   -952.33904169 </i>
    <i name="e_0_energy">   -952.33904169 </i>
   </energy>
  </scstep>
  <scstep>
   <time name="total">  468.94  468.86</time>
   <energy>
    <i name="e_fr_energy">   -952.34003203 </i>
    <i name="e_wo_entrp">   -952.34003203 </i>
    <i name="e_0_energy">   -952.34003203 </i>
   </energy>
  </scstep>
  <scstep>
   <time name="total">  468.84  468.77</time>
   <energy>
    <i name="e_fr_energy">   -952.34036899 </i>
    <i name="e_wo_entrp">   -952.34036899 </i>
    <i name="e_0_energy">   -952.34036899 </i>
   </energy>
  </scstep>
  <scstep>
   <time name="total">  469.09  469.01</time>
   <energy>
    <i name="e_fr_energy">   -952.34050388 </i>
    <i name="e_wo_entrp">   -952.34050388 </i>
    <i name="e_0_energy">   -952.34050388 </i>
   </energy>
  </scstep>
  <scstep>
   <time name="total">  468.76  468.68</time>
   <energy>
    <i name="e_fr_energy">   -952.34055505 </i>
    <i name="e_wo_entrp">   -952.34055505 </i>
    <i name="e_0_energy">   -952.34055505 </i>
   </energy>
  </scstep>
  <scstep>
   <time name="total">  468.83  468.76</time>
   <energy>
    <i name="e_fr_energy">   -952.34057419 </i>
    <i name="e_wo_entrp">   -952.34057419 </i>
    <i name="e_0_energy">   -952.34057419 </i>
   </energy>
  </scstep>
  <scstep>
   <time name="total">  698.88  698.75</time>
   <energy>
    <i name="alphaZ">   5530.94812622 </i>
    <i name="ewald"> -88762.53680430 </i>
    <i name="hartreedc"> -33839.70449490 </i>
    <i name="XCdc">   2915.22325063 </i>
    <i name="pawpsdc"> 121594.74940923 </i>
    <i name="pawaedc">-137170.64107417 </i>
    <i name="eentropy">     -0.00000000 </i>
    <i name="bandstr">  -8844.16353186 </i>
    <i name="atom"> 133733.99279260 </i>
    <i name="e_fr_energy">   -952.34058269 </i>
    <i name="e_wo_entrp">   -952.34058269 </i>
    <i name="e_0_energy">   -952.34058269 </i>
   </energy>
  </scstep>
  <structure>
   <crystal>
    <varray name="basis" >
     <v>       0.00000000      12.28047342       0.00000000 </v>
     <v>       9.14270205       0.00000000       0.00000000 </v>
     <v>       0.00000000      -2.76826177     -11.30069772 </v>
    </varray>
    <i name="volume">   1268.80515525 </i>
    <varray name="rec_basis" >
     <v>       0.00000000       0.08143009      -0.01994742 </v>
     <v>       0.10937686      -0.00000000       0.00000000 </v>
     <v>       0.00000000       0.00000000      -0.08849011 </v>
    </varray>
   </crystal>
   <varray name="positions" >
    <v>       0.65895623       0.00000000       0.15686666 </v>
    <v>       0.65917449       0.00000000       0.65627266 </v>
    <v>       0.65951850       0.33342606       0.15657418 </v>
    <v>       0.65930863       0.33330620       0.65656740 </v>
    <v>       0.65951850       0.66657394       0.15657418 </v>
    <v>       0.65930863       0.66669380       0.65656740 </v>
    <v>       0.84071597       0.16650375       0.34392748 </v>
    <v>       0.84104518       0.16653734       0.84349484 </v>
    <v>       0.84096171       0.50000000       0.34338172 </v>
    <v>       0.84150628       0.50000000       0.84302539 </v>
    <v>       0.84071597       0.83349625       0.34392748 </v>
    <v>       0.84104518       0.83346266       0.84349484 </v>
    <v>       0.58895675       0.16570604       0.39681895 </v>
    <v>       0.59114485       0.16672799       0.89760837 </v>
    <v>       0.59269387       0.50000000       0.39808467 </v>
    <v>       0.59187615       0.50000000       0.89765736 </v>
    <v>       0.58895675       0.83429396       0.39681895 </v>
    <v>       0.59114485       0.83327201       0.89760837 </v>
    <v>       0.90846374       0.00000000       0.10245289 </v>
    <v>       0.90911767       0.00000000       0.60179397 </v>
    <v>       0.90797441       0.33342713       0.10172808 </v>
    <v>       0.90867855       0.33322969       0.60202499 </v>
    <v>       0.90797441       0.66657287       0.10172808 </v>
    <v>       0.90867855       0.66677031       0.60202499 </v>
    <v>       0.15956009       0.16069385       0.16119994 </v>
    <v>       0.15874625       0.16587965       0.65521876 </v>
    <v>       0.15853368       0.50000000       0.15815841 </v>
    <v>       0.15845018       0.50000000       0.65749202 </v>
    <v>       0.15956009       0.83930615       0.16119994 </v>
    <v>       0.15874625       0.83412035       0.65521876 </v>
    <v>       0.33499536       0.00000000       0.34336587 </v>
    <v>       0.34066889       0.00000000       0.84324825 </v>
    <v>       0.34146035       0.33345399       0.34240498 </v>
    <v>       0.34086250       0.33343555       0.84305682 </v>
    <v>       0.34146035       0.66654601       0.34240498 </v>
    <v>       0.34086250       0.66656445       0.84305682 </v>
    <v>       0.09329385       0.00000000       0.39221194 </v>
    <v>       0.09089125       0.00000000       0.89664776 </v>
    <v>       0.09034034       0.33268410       0.39742409 </v>
    <v>       0.09173627       0.33258504       0.89991528 </v>
    <v>       0.09034034       0.66731590       0.39742409 </v>
    <v>       0.09173627       0.66741496       0.89991528 </v>
    <v>       0.40952976       0.16746981       0.10227161 </v>
    <v>       0.41013982       0.16726693       0.60312036 </v>
    <v>       0.40934049       0.50000000       0.10268307 </v>
    <v>       0.40922524       0.50000000       0.60217746 </v>
    <v>       0.40952976       0.83253019       0.10227161 </v>
    <v>       0.41013982       0.83273307       0.60312036 </v>
    <v>       0.99388185       0.16732004       0.12417819 </v>
    <v>       0.99590861       0.16686506       0.62778349 </v>
    <v>       0.99491405       0.50000000       0.12714228 </v>
    <v>       0.99575626       0.50000000       0.62770374 </v>
    <v>       0.99388185       0.83267996       0.12417819 </v>
    <v>       0.99590861       0.83313494       0.62778349 </v>
    <v>       0.50074248       0.00000000       0.37239358 </v>
    <v>       0.50385210       0.00000000       0.87244905 </v>
    <v>       0.50499379       0.33455305       0.37323873 </v>
    <v>       0.50400559       0.33369720       0.87268851 </v>
    <v>       0.50499379       0.66544695       0.37323873 </v>
    <v>       0.50400559       0.66630280       0.87268851 </v>
    <v>       0.67187313       0.16640860       0.28042989 </v>
    <v>       0.67263505       0.16668159       0.78038624 </v>
    <v>       0.67297102       0.50000000       0.28006212 </v>
    <v>       0.67300909       0.50000000       0.78038854 </v>
    <v>       0.67187313       0.83359140       0.28042989 </v>
    <v>       0.67263505       0.83331841       0.78038624 </v>
    <v>       0.82682354       0.00000000       0.21987953 </v>
    <v>       0.82709522       0.00000000       0.71887370 </v>
    <v>       0.82700848       0.33326128       0.21965868 </v>
    <v>       0.82729123       0.33321354       0.71922064 </v>
    <v>       0.82700848       0.66673872       0.21965868 </v>
    <v>       0.82729123       0.66678646       0.71922064 </v>
    <v>       0.83003457       0.00000000       0.44614871 </v>
    <v>       0.83111608       0.00000000       0.94524222 </v>
    <v>       0.83049687       0.33374101       0.44597204 </v>
    <v>       0.83110890       0.33379646       0.94488012 </v>
    <v>       0.83049687       0.66625899       0.44597204 </v>
    <v>       0.83110890       0.66620354       0.94488012 </v>
    <v>       0.66844035       0.16656536       0.05403028 </v>
    <v>       0.66667994       0.16654178       0.55366107 </v>
    <v>       0.66956293       0.50000000       0.05392010 </v>
    <v>       0.66891624       0.50000000       0.55477425 </v>
    <v>       0.66844035       0.83343464       0.05403028 </v>
    <v>       0.66667994       0.83345822       0.55366107 </v>
    <v>       0.49670645       0.00000000       0.12580211 </v>
    <v>       0.49697745       0.00000000       0.62894325 </v>
    <v>       0.49781822       0.33420292       0.12548319 </v>
    <v>       0.49746807       0.33412528       0.62938298 </v>
    <v>       0.49781822       0.66579708       0.12548319 </v>
    <v>       0.49746807       0.66587472       0.62938298 </v>
    <v>       0.00192977       0.16700666       0.37532598 </v>
    <v>       0.00296755       0.16679392       0.87108907 </v>
    <v>       0.00272518       0.50000000       0.37394412 </v>
    <v>       0.00416704       0.50000000       0.87315484 </v>
    <v>       0.00192977       0.83299334       0.37532598 </v>
    <v>       0.00296755       0.83320608       0.87108907 </v>
    <v>       0.17265888       0.00000000       0.77939925 </v>
    <v>       0.17266129       0.33703836       0.28216491 </v>
    <v>       0.17242927       0.33312556       0.78127514 </v>
    <v>       0.17266129       0.66296164       0.28216491 </v>
    <v>       0.17242927       0.66687444       0.78127514 </v>
    <v>       0.33149396       0.17367378       0.21942158 </v>
    <v>       0.32754011       0.16696331       0.71929892 </v>
    <v>       0.32825379       0.50000000       0.21926070 </v>
    <v>       0.32742557       0.50000000       0.71944497 </v>
    <v>       0.33149396       0.82632622       0.21942158 </v>
    <v>       0.32754011       0.83303669       0.71929892 </v>
    <v>       0.33488733       0.16999977       0.44767284 </v>
    <v>       0.33390530       0.16716803       0.94520824 </v>
    <v>       0.33422155       0.50000000       0.44593307 </v>
    <v>       0.33212183       0.50000000       0.94589794 </v>
    <v>       0.33488733       0.83000023       0.44767284 </v>
    <v>       0.33390530       0.83283197       0.94520824 </v>
    <v>       0.17178560       0.00000000       0.04934101 </v>
    <v>       0.16526839       0.00000000       0.55312691 </v>
    <v>       0.16634989       0.33151561       0.05664985 </v>
    <v>       0.16679644       0.33392922       0.55468658 </v>
    <v>       0.16634989       0.66848439       0.05664985 </v>
    <v>       0.16679644       0.66607078       0.55468658 </v>
    <v>       0.17416720       0.00000000       0.27696729 </v>
   </varray>
  </structure>
  <varray name="forces" >
   <v>       0.00000000       0.06616884       0.00264810 </v>
   <v>       0.00000000       0.06578677       0.01212627 </v>
   <v>       0.00177749       0.06334819       0.00553909 </v>
   <v>       0.00396631       0.06552102       0.00568589 </v>
   <v>      -0.00177749       0.06334819       0.00553909 </v>
   <v>      -0.00396631       0.06552102       0.00568589 </v>
   <v>      -0.00923206      -0.04188803      -0.01696151 </v>
   <v>      -0.00219875      -0.06012358      -0.01081999 </v>
   <v>       0.00000000      -0.06406916      -0.00660572 </v>
   <v>       0.00000000      -0.07424669      -0.01321910 </v>
   <v>       0.00923206      -0.04188803      -0.01696151 </v>
   <v>       0.00219875      -0.06012358      -0.01081999 </v>
   <v>       0.02036972      -0.03848111       0.01580598 </v>
   <v>      -0.00100113      -0.02037683       0.01415344 </v>
   <v>       0.00000000      -0.05096475       0.02109249 </v>
   <v>       0.00000000      -0.02154033       0.01801355 </v>
   <v>      -0.02036972      -0.03848111       0.01580598 </v>
   <v>       0.00100113      -0.02037683       0.01415344 </v>
   <v>       0.00000000       0.06142535      -0.01655195 </v>
   <v>       0.00000000       0.02252699      -0.01024561 </v>
   <v>      -0.02089068       0.05669127      -0.01701410 </v>
   <v>      -0.00292520       0.02379092      -0.02199439 </v>
   <v>       0.02089068       0.05669127      -0.01701410 </v>
   <v>       0.00292520       0.02379092      -0.02199439 </v>
   <v>      -0.07369133       0.06884140      -0.04016508 </v>
   <v>      -0.01814553       0.05984968       0.03315293 </v>
   <v>       0.00000000       0.06355131      -0.03745804 </v>
   <v>       0.00000000       0.06615607       0.02415160 </v>
   <v>       0.07369133       0.06884140      -0.04016508 </v>
   <v>       0.01814553       0.05984968       0.03315293 </v>
   <v>       0.00000000      -0.13842480      -0.01079021 </v>
   <v>       0.00000000      -0.07553204      -0.01881117 </v>
   <v>      -0.03483951      -0.07566317       0.01935124 </v>
   <v>      -0.01084639      -0.07923102      -0.01559443 </v>
   <v>       0.03483951      -0.07566317       0.01935124 </v>
   <v>       0.01084639      -0.07923102      -0.01559443 </v>
   <v>       0.00000000      -0.04812083      -0.02784168 </v>
   <v>       0.00000000       0.01844008      -0.03120569 </v>
   <v>      -0.00462016       0.00014610       0.01868017 </v>
   <v>      -0.00774693      -0.02753337       0.00254660 </v>
   <v>       0.00462016       0.00014610       0.01868017 </v>
   <v>       0.00774693      -0.02753337       0.00254660 </v>
   <v>       0.00770193      -0.01606979      -0.04275430 </v>
   <v>       0.00391363       0.00930833       0.02072367 </v>
   <v>       0.00000000       0.00906549      -0.02189104 </v>
   <v>       0.00000000       0.02449926       0.00155729 </v>
   <v>      -0.00770193      -0.01606979      -0.04275430 </v>
   <v>      -0.00391363       0.00930833       0.02072367 </v>
   <v>       0.00972346      -0.25818910       0.11167603 </v>
   <v>       0.00141154      -0.18050004       0.13198823 </v>
   <v>       0.00000000      -0.20545647       0.12504450 </v>
   <v>       0.00000000      -0.17524288       0.12352044 </v>
   <v>      -0.00972346      -0.25818910       0.11167603 </v>
   <v>      -0.00141154      -0.18050004       0.13198823 </v>
   <v>       0.00000000       0.25052364      -0.12726778 </v>
   <v>       0.00000000       0.18143947      -0.11796281 </v>
   <v>      -0.00884781       0.20105831      -0.11821458 </v>
   <v>      -0.00292451       0.18056849      -0.11775129 </v>
   <v>       0.00884781       0.20105831      -0.11821458 </v>
   <v>       0.00292451       0.18056849      -0.11775129 </v>
   <v>      -0.00641832      -0.03772908      -0.09997028 </v>
   <v>       0.00281778      -0.03521926      -0.11492599 </v>
   <v>       0.00000000      -0.02584658      -0.11079677 </v>
   <v>       0.00000000      -0.03651680      -0.11609779 </v>
   <v>       0.00641832      -0.03772908      -0.09997028 </v>
   <v>      -0.00281778      -0.03521926      -0.11492599 </v>
   <v>       0.00000000       0.01950087       0.11499239 </v>
   <v>       0.00000000       0.02247022       0.11406479 </v>
   <v>       0.00594619       0.01771872       0.11732023 </v>
   <v>       0.00562867       0.02941451       0.11587138 </v>
   <v>      -0.00594619       0.01771872       0.11732023 </v>
   <v>      -0.00562867       0.02941451       0.11587138 </v>
   <v>       0.00000000       0.40921579      -0.07766702 </v>
   <v>       0.00000000       0.39726392      -0.04941466 </v>
   <v>      -0.00040795       0.40875160      -0.07812210 </v>
   <v>      -0.00119449       0.40434023      -0.06683992 </v>
   <v>       0.00040795       0.40875160      -0.07812210 </v>
   <v>       0.00119449       0.40434023      -0.06683992 </v>
   <v>       0.00430935      -0.40198170       0.08055315 </v>
   <v>      -0.00585942      -0.39188660       0.05767960 </v>
   <v>       0.00000000      -0.40724070       0.07846042 </v>
   <v>       0.00000000      -0.39917693       0.06995753 </v>
   <v>      -0.00430935      -0.40198170       0.08055315 </v>
   <v>       0.00585942      -0.39188660       0.05767960 </v>
   <v>       0.00000000      -0.14094143       0.09801909 </v>
   <v>       0.00000000      -0.14828460       0.11805112 </v>
   <v>       0.00285948      -0.15452111       0.09539991 </v>
   <v>      -0.00662058      -0.15504150       0.12732490 </v>
   <v>      -0.00285948      -0.15452111       0.09539991 </v>
   <v>       0.00662058      -0.15504150       0.12732490 </v>
   <v>       0.06100499       0.11746011      -0.06162873 </v>
   <v>      -0.00363140       0.15142988      -0.12626713 </v>
   <v>       0.00000000       0.13211147      -0.09833535 </v>
   <v>       0.00000000       0.15001399      -0.12445319 </v>
   <v>      -0.06100499       0.11746011      -0.06162873 </v>
   <v>       0.00363140       0.15142988      -0.12626713 </v>
   <v>       0.00000000      -0.02499764      -0.10561849 </v>
   <v>       0.03218024      -0.06472464      -0.13382055 </v>
   <v>       0.01632258      -0.02225187      -0.11740710 </v>
   <v>      -0.03218024      -0.06472464      -0.13382055 </v>
   <v>      -0.01632258      -0.02225187      -0.11740710 </v>
   <v>       0.05046205       0.10849635       0.13943665 </v>
   <v>       0.00210081       0.04481939       0.10653067 </v>
   <v>       0.00000000       0.07039409       0.11400502 </v>
   <v>       0.00000000       0.03659238       0.09500318 </v>
   <v>      -0.05046205       0.10849635       0.13943665 </v>
   <v>      -0.00210081       0.04481939       0.10653067 </v>
   <v>       0.01607686       0.38663355      -0.13030538 </v>
   <v>       0.00722990       0.38837198      -0.04823492 </v>
   <v>       0.00000000       0.38714501      -0.10450858 </v>
   <v>       0.00000000       0.39922117      -0.06175766 </v>
   <v>      -0.01607686       0.38663355      -0.13030538 </v>
   <v>      -0.00722990       0.38837198      -0.04823492 </v>
   <v>       0.00000000      -0.42583296       0.17380429 </v>
   <v>       0.00000000      -0.34777933      -0.02336885 </v>
   <v>       0.04814811      -0.36985144       0.12900730 </v>
   <v>      -0.00996884      -0.39273297       0.04796970 </v>
   <v>      -0.04814811      -0.36985144       0.12900730 </v>
   <v>       0.00996884      -0.39273297       0.04796970 </v>
   <v>       0.00000000       0.03157517      -0.02785291 </v>
  </varray>
  <varray name="stress" >
   <v>     -35.05656476       0.00000000       0.00000000 </v>
   <v>       0.00000000     -29.58760403       1.51402332 </v>
   <v>       0.00000000       1.51402328     -28.33720072 </v>
  </varray>
  <energy>
   <i name="e_fr_energy">   -952.34058269 </i>
   <i name="e_wo_entrp">   -952.34058269 </i>
   <i name="e_0_energy">   -952.34058269 </i>
  </energy>
  <time name="totalsc">13271.1713269.25</time>
  <eigenvalues>
   <array>
    <dimension dim="1">band</dimension>
    <dimension dim="2">kpoint</dimension>
    <dimension dim="3">spin</dimension>
    <field>eigene</field>
    <field>occ</field>
    <set>
     <set comment="spin 1">
      <set comment="kpoint 1">
       <r>  -18.6853    1.0000 </r>
       <r>  -18.4153    1.0000 </r>
       <r>  -18.3458    1.0000 </r>
       <r>  -18.1556    1.0000 </r>
       <r>  -18.1194    1.0000 </r>
       <r>  -17.9971    1.0000 </r>
       <r>  -17.9883    1.0000 </r>
       <r>  -17.9194    1.0000 </r>
       <r>  -17.8313    1.0000 </r>
       <r>  -17.8102    1.0000 </r>
       <r>  -17.8100    1.0000 </r>
       <r>  -17.7512    1.0000 </r>
       <r>  -17.7485    1.0000 </r>
       <r>  -17.7058    1.0000 </r>
       <r>  -17.6995    1.0000 </r>
       <r>  -17.6610    1.0000 </r>
       <r>  -17.5939    1.0000 </r>
       <r>  -17.5586    1.0000 </r>
       <r>  -17.5473    1.0000 </r>
       <r>  -17.5300    1.0000 </r>
       <r>  -17.5275    1.0000 </r>
       <r>  -17.5170    1.0000 </r>
       <r>  -17.4774    1.0000 </r>
       <r>  -17.4729    1.0000 </r>
       <r>  -17.4612    1.0000 </r>
       <r>  -17.4296    1.0000 </r>
       <r>  -17.4003    1.0000 </r>
       <r>  -17.3822    1.0000 </r>
       <r>  -17.3799    1.0000 </r>
       <r>  -17.3572    1.0000 </r>
       <r>  -17.3469    1.0000 </r>
       <r>  -17.3368    1.0000 </r>
       <r>  -17.3321    1.0000 </r>
       <r>  -17.3186    1.0000 </r>
       <r>  -17.2506    1.0000 </r>
       <r>  -17.2390    1.0000 </r>
       <r>  -17.2259    1.0000 </r>
       <r>  -17.2214    1.0000 </r>
       <r>  -17.2122    1.0000 </r>
       <r>  -17.1876    1.0000 </r>
       <r>  -17.1769    1.0000 </r>
       <r>  -17.1753    1.0000 </r>
       <r>  -17.1660    1.0000 </r>
       <r>  -17.1525    1.0000 </r>
       <r>  -17.1456    1.0000 </r>
       <r>  -17.1296    1.0000 </r>
       <r>  -17.0776    1.0000 </r>
       <r>  -17.0724    1.0000 </r>
       <r>  -17.0395    1.0000 </r>
       <r>  -17.0158    1.0000 </r>
       <r>  -17.0122    1.0000 </r>
       <r>  -16.9797    1.0000 </r>
       <r>  -16.9761    1.0000 </r>
       <r>  -16.9692    1.0000 </r>
       <r>  -16.9522    1.0000 </r>
       <r>  -16.9477    1.0000 </r>
       <r>  -16.9429    1.0000 </r>
       <r>  -16.9405    1.0000 </r>
       <r>  -16.9314    1.0000 </r>
       <r>  -16.9166    1.0000 </r>
       <r>  -16.9111    1.0000 </r>
       <r>  -16.8947    1.0000 </r>
       <r>  -16.8901    1.0000 </r>
       <r>  -16.8412    1.0000 </r>
       <r>  -16.8306    1.0000 </r>
       <r>  -16.7779    1.0000 </r>
       <r>  -16.7753    1.0000 </r>
       <r>  -16.7234    1.0000 </r>
       <r>  -16.7044    1.0000 </r>
       <r>  -16.6590    1.0000 </r>
       <r>  -16.5518    1.0000 </r>
       <r>  -13.4056    1.0000 </r>
       <r>  -13.0963    1.0000 </r>
       <r>  -13.0906    1.0000 </r>
       <r>  -13.0727    1.0000 </r>
       <r>  -13.0670    1.0000 </r>
       <r>  -13.0489    1.0000 </r>
       <r>  -13.0320    1.0000 </r>
       <r>  -13.0216    1.0000 </r>
       <r>  -13.0191    1.0000 </r>
       <r>  -13.0135    1.0000 </r>
       <r>  -13.0118    1.0000 </r>
       <r>  -13.0054    1.0000 </r>
       <r>  -12.9956    1.0000 </r>
       <r>  -12.9906    1.0000 </r>
       <r>  -12.9871    1.0000 </r>
       <r>  -12.9854    1.0000 </r>
       <r>  -12.9828    1.0000 </r>
       <r>  -12.9807    1.0000 </r>
       <r>  -12.9775    1.0000 </r>
       <r>  -12.9716    1.0000 </r>
       <r>  -12.9687    1.0000 </r>
       <r>  -12.9662    1.0000 </r>
       <r>  -12.9661    1.0000 </r>
       <r>  -12.9619    1.0000 </r>
       <r>  -12.9562    1.0000 </r>
       <r>  -12.9551    1.0000 </r>
       <r>  -12.9516    1.0000 </r>
       <r>  -12.9507    1.0000 </r>
       <r>  -12.9448    1.0000 </r>
       <r>  -12.9440    1.0000 </r>
       <r>  -12.9412    1.0000 </r>
       <r>  -12.9398    1.0000 </r>
       <r>  -12.9356    1.0000 </r>
       <r>  -12.9319    1.0000 </r>
       <r>  -12.9284    1.0000 </r>
       <r>  -12.9274    1.0000 </r>
       <r>  -12.9265    1.0000 </r>
       <r>  -12.9253    1.0000 </r>
       <r>  -12.9226    1.0000 </r>
       <r>  -12.9182    1.0000 </r>
       <r>  -12.9178    1.0000 </r>
       <r>  -12.9141    1.0000 </r>
       <r>  -12.9091    1.0000 </r>
       <r>  -12.9033    1.0000 </r>
       <r>  -12.9014    1.0000 </r>
       <r>  -12.8965    1.0000 </r>
       <r>  -12.8923    1.0000 </r>
       <r>  -12.8865    1.0000 </r>
       <r>  -12.8854    1.0000 </r>
       <r>  -12.8829    1.0000 </r>
       <r>  -12.8783    1.0000 </r>
       <r>  -12.8711    1.0000 </r>
       <r>  -12.8664    1.0000 </r>
       <r>  -12.8627    1.0000 </r>
       <r>  -12.8599    1.0000 </r>
       <r>  -12.8559    1.0000 </r>
       <r>  -12.8543    1.0000 </r>
       <r>  -12.8530    1.0000 </r>
       <r>  -12.8485    1.0000 </r>
       <r>  -12.8466    1.0000 </r>
       <r>  -12.8427    1.0000 </r>
       <r>  -12.8380    1.0000 </r>
       <r>  -12.8350    1.0000 </r>
       <r>  -12.8335    1.0000 </r>
       <r>  -12.8271    1.0000 </r>
       <r>  -12.8238    1.0000 </r>
       <r>  -12.8217    1.0000 </r>
       <r>  -12.8146    1.0000 </r>
       <r>  -12.8124    1.0000 </r>
       <r>  -12.8104    1.0000 </r>
       <r>  -12.8057    1.0000 </r>
       <r>  -12.8052    1.0000 </r>
       <r>  -12.8028    1.0000 </r>
       <r>  -12.7998    1.0000 </r>
       <r>  -12.7976    1.0000 </r>
       <r>  -12.7962    1.0000 </r>
       <r>  -12.7905    1.0000 </r>
       <r>  -12.7888    1.0000 </r>
       <r>  -12.7841    1.0000 </r>
       <r>  -12.7832    1.0000 </r>
       <r>  -12.7786    1.0000 </r>
       <r>  -12.7771    1.0000 </r>
       <r>  -12.7758    1.0000 </r>
       <r>  -12.7740    1.0000 </r>
       <r>  -12.7701    1.0000 </r>
       <r>  -12.7695    1.0000 </r>
       <r>  -12.7668    1.0000 </r>
       <r>  -12.7634    1.0000 </r>
       <r>  -12.7620    1.0000 </r>
       <r>  -12.7577    1.0000 </r>
       <r>  -12.7538    1.0000 </r>
       <r>  -12.7529    1.0000 </r>
       <r>  -12.7497    1.0000 </r>
       <r>  -12.7490    1.0000 </r>
       <r>  -12.7489    1.0000 </r>
       <r>  -12.7467    1.0000 </r>
       <r>  -12.7403    1.0000 </r>
       <r>  -12.7387    1.0000 </r>
       <r>  -12.7326    1.0000 </r>
       <r>  -12.7317    1.0000 </r>
       <r>  -12.7298    1.0000 </r>
       <r>  -12.7282    1.0000 </r>
       <r>  -12.7233    1.0000 </r>
       <r>  -12.7226    1.0000 </r>
       <r>  -12.7164    1.0000 </r>
       <r>  -12.7157    1.0000 </r>
       <r>  -12.7095    1.0000 </r>
       <r>  -12.7074    1.0000 </r>
       <r>  -12.7066    1.0000 </r>
       <r>  -12.7025    1.0000 </r>
       <r>  -12.7011    1.0000 </r>
       <r>  -12.6965    1.0000 </r>
       <r>  -12.6956    1.0000 </r>
       <r>  -12.6948    1.0000 </r>
       <r>  -12.6905    1.0000 </r>
       <r>  -12.6899    1.0000 </r>
       <r>  -12.6878    1.0000 </r>
       <r>  -12.6839    1.0000 </r>
       <r>  -12.6797    1.0000 </r>
       <r>  -12.6737    1.0000 </r>
       <r>  -12.6721    1.0000 </r>
       <r>  -12.6703    1.0000 </r>
       <r>  -12.6693    1.0000 </r>
       <r>  -12.6663    1.0000 </r>
       <r>  -12.6658    1.0000 </r>
       <r>  -12.6619    1.0000 </r>
       <r>  -12.6617    1.0000 </r>
       <r>  -12.6613    1.0000 </r>
       <r>  -12.6601    1.0000 </r>
       <r>  -12.6548    1.0000 </r>
       <r>  -12.6547    1.0000 </r>
       <r>  -12.6532    1.0000 </r>
       <r>  -12.6521    1.0000 </r>
       <r>  -12.6463    1.0000 </r>
       <r>  -12.6460    1.0000 </r>
       <r>  -12.6451    1.0000 </r>
       <r>  -12.6432    1.0000 </r>
       <r>  -12.6421    1.0000 </r>
       <r>  -12.6349    1.0000 </r>
       <r>  -12.6324    1.0000 </r>
       <r>  -12.6316    1.0000 </r>
       <r>  -12.6309    1.0000 </r>
       <r>  -12.6289    1.0000 </r>
       <r>  -12.6262    1.0000 </r>
       <r>  -12.6252    1.0000 </r>
       <r>  -12.6229    1.0000 </r>
       <r>  -12.6190    1.0000 </r>
       <r>  -12.6185    1.0000 </r>
       <r>  -12.6153    1.0000 </r>
       <r>  -12.6150    1.0000 </r>
       <r>  -12.6128    1.0000 </r>
       <r>  -12.6126    1.0000 </r>
       <r>  -12.6099    1.0000 </r>
       <r>  -12.6027    1.0000 </r>
       <r>  -12.6025    1.0000 </r>
       <r>  -12.5993    1.0000 </r>
       <r>  -12.5976    1.0000 </r>
       <r>  -12.5935    1.0000 </r>
       <r>  -12.5904    1.0000 </r>
       <r>  -12.5848    1.0000 </r>
       <r>  -12.5740    1.0000 </r>
       <r>  -12.5685    1.0000 </r>
       <r>  -12.5678    1.0000 </r>
       <r>  -12.5626    1.0000 </r>
       <r>  -12.5625    1.0000 </r>
       <r>  -12.5602    1.0000 </r>
       <r>  -12.5598    1.0000 </r>
       <r>  -12.5556    1.0000 </r>
       <r>  -12.5454    1.0000 </r>
       <r>  -12.5368    1.0000 </r>
       <r>  -12.5278    1.0000 </r>
       <r>  -12.5143    1.0000 </r>
       <r>  -12.5064    1.0000 </r>
       <r>  -12.4961    1.0000 </r>
       <r>  -12.4914    1.0000 </r>
       <r>  -12.4809    1.0000 </r>
       <r>  -12.4793    1.0000 </r>
       <r>  -12.4732    1.0000 </r>
       <r>  -12.4659    1.0000 </r>
       <r>  -12.4592    1.0000 </r>
       <r>  -12.4455    1.0000 </r>
       <r>  -12.4250    1.0000 </r>
       <r>  -12.4153    1.0000 </r>
       <r>  -12.4101    1.0000 </r>
       <r>  -12.4069    1.0000 </r>
       <r>  -12.3956    1.0000 </r>
       <r>  -12.3913    1.0000 </r>
       <r>  -12.3771    1.0000 </r>
       <r>  -12.3715    1.0000 </r>
       <r>  -12.3677    1.0000 </r>
       <r>  -12.3539    1.0000 </r>
       <r>  -12.3347    1.0000 </r>
       <r>  -12.2999    1.0000 </r>
       <r>  -12.2914    1.0000 </r>
       <r>  -12.2530    1.0000 </r>
       <r>  -12.2514    1.0000 </r>
       <r>  -12.2434    1.0000 </r>
       <r>  -12.2196    1.0000 </r>
       <r>  -12.2141    1.0000 </r>
       <r>  -12.2087    1.0000 </r>
       <r>  -12.2043    1.0000 </r>
       <r>  -12.2034    1.0000 </r>
       <r>  -12.1888    1.0000 </r>
       <r>  -12.1751    1.0000 </r>
       <r>  -12.1530    1.0000 </r>
       <r>  -12.1500    1.0000 </r>
       <r>  -12.1395    1.0000 </r>
       <r>  -12.1380    1.0000 </r>
       <r>  -12.1334    1.0000 </r>
       <r>  -12.1283    1.0000 </r>
       <r>  -12.1018    1.0000 </r>
       <r>  -12.0965    1.0000 </r>
       <r>  -12.0956    1.0000 </r>
       <r>  -12.0653    1.0000 </r>
       <r>  -12.0579    1.0000 </r>
       <r>  -12.0513    1.0000 </r>
       <r>  -12.0343    1.0000 </r>
       <r>  -12.0107    1.0000 </r>
       <r>  -11.9989    1.0000 </r>
       <r>  -11.9804    1.0000 </r>
       <r>  -11.9731    1.0000 </r>
       <r>  -11.9295    1.0000 </r>
       <r>  -11.9213    1.0000 </r>
       <r>  -11.8914    1.0000 </r>
       <r>  -11.8897    1.0000 </r>
       <r>  -11.8790    1.0000 </r>
       <r>  -11.8591    1.0000 </r>
       <r>  -11.8584    1.0000 </r>
       <r>  -11.8436    1.0000 </r>
       <r>  -11.8292    1.0000 </r>
       <r>  -11.8174    1.0000 </r>
       <r>  -11.7811    1.0000 </r>
       <r>  -11.7660    1.0000 </r>
       <r>  -11.7486    1.0000 </r>
       <r>  -11.7271    1.0000 </r>
       <r>  -11.6902    1.0000 </r>
       <r>  -11.6697    1.0000 </r>
       <r>  -11.6360    1.0000 </r>
       <r>  -11.5850    1.0000 </r>
       <r>  -11.5125    1.0000 </r>
       <r>   -9.9307    1.0000 </r>
       <r>   -5.1723    1.0000 </r>
       <r>   -5.1092    1.0000 </r>
       <r>   -4.8603    1.0000 </r>
       <r>   -4.8318    1.0000 </r>
       <r>   -4.5317    1.0000 </r>
[...]
       <r>   -12.0600   193.1405   569.8995 </r>
       <r>   -11.9230   134.7539   588.3593 </r>
       <r>   -11.7860   119.9772   604.7949 </r>
       <r>   -11.6491    82.2616   616.0638 </r>
       <r>   -11.5121    37.3488   621.1802 </r>
       <r>   -11.3751     5.9839   621.9999 </r>
       <r>   -11.2381     0.0004   622.0000 </r>
       <r>   -11.1011     0.0000   622.0000 </r>
       <r>   -10.9641     0.0000   622.0000 </r>
       <r>   -10.8271     0.0000   622.0000 </r>
       <r>   -10.6901     0.0000   622.0000 </r>
       <r>   -10.5531     0.0000   622.0000 </r>
       <r>   -10.4161     0.0000   622.0000 </r>
       <r>   -10.2792     0.0000   622.0000 </r>
       <r>   -10.1422     0.0000   622.0000 </r>
       <r>   -10.0052     0.2471   622.0339 </r>
       <r>    -9.8682    13.7356   623.9155 </r>
       <r>    -9.7312     0.6169   624.0000 </r>
       <r>    -9.5942     0.0000   624.0000 </r>
       <r>    -9.4572     0.0000   624.0000 </r>
       <r>    -9.3202     0.0000   624.0000 </r>
       <r>    -9.1832     0.0000   624.0000 </r>
       <r>    -9.0463     0.0000   624.0000 </r>
       <r>    -8.9093     0.0000   624.0000 </r>
       <r>    -8.7723     0.0000   624.0000 </r>
       <r>    -8.6353     0.0000   624.0000 </r>
       <r>    -8.4983     0.0000   624.0000 </r>
       <r>    -8.3613     0.0000   624.0000 </r>
       <r>    -8.2243     0.0000   624.0000 </r>
       <r>    -8.0873     0.0000   624.0000 </r>
       <r>    -7.9503     0.0000   624.0000 </r>
       <r>    -7.8134     0.0000   624.0000 </r>
       <r>    -7.6764     0.0000   624.0000 </r>
       <r>    -7.5394     0.0000   624.0000 </r>
       <r>    -7.4024     0.0000   624.0000 </r>
       <r>    -7.2654     0.0000   624.0000 </r>
       <r>    -7.1284     0.0000   624.0000 </r>
       <r>    -6.9914     0.0000   624.0000 </r>
       <r>    -6.8544     0.0000   624.0000 </r>
       <r>    -6.7174     0.0000   624.0000 </r>
       <r>    -6.5805     0.0000   624.0000 </r>
       <r>    -6.4435     0.0000   624.0000 </r>
       <r>    -6.3065     0.0000   624.0000 </r>
       <r>    -6.1695     0.0000   624.0000 </r>
       <r>    -6.0325     0.0000   624.0000 </r>
       <r>    -5.8955     0.0000   624.0000 </r>
       <r>    -5.7585     0.0000   624.0000 </r>
       <r>    -5.6215     0.0000   624.0000 </r>
       <r>    -5.4845     0.0000   624.0000 </r>
       <r>    -5.3476     0.0000   624.0000 </r>
       <r>    -5.2106     0.4360   624.0597 </r>
       <r>    -5.0736     6.4387   624.9418 </r>
       <r>    -4.9366    15.5169   627.0674 </r>
       <r>    -4.7996    22.6013   630.1635 </r>
       <r>    -4.6626    34.0216   634.8241 </r>
       <r>    -4.5256    24.5936   638.1932 </r>
       <r>    -4.3886    48.2813   644.8072 </r>
       <r>    -4.2516    38.3210   650.0567 </r>
       <r>    -4.1147    60.4474   658.3374 </r>
       <r>    -3.9777    47.3304   664.8211 </r>
       <r>    -3.8407    42.1223   670.5914 </r>
       <r>    -3.7037    49.8270   677.4172 </r>
       <r>    -3.5667    36.1969   682.3758 </r>
       <r>    -3.4297    36.1939   687.3339 </r>
       <r>    -3.2927    32.7246   691.8168 </r>
       <r>    -3.1557    29.6430   695.8776 </r>
       <r>    -3.0187    40.6903   701.4517 </r>
       <r>    -2.8817    38.8030   706.7673 </r>
       <r>    -2.7448    33.3741   711.3392 </r>
       <r>    -2.6078    29.1566   715.3334 </r>
       <r>    -2.4708    36.9114   720.3898 </r>
       <r>    -2.3338    38.5851   725.6755 </r>
       <r>    -2.1968    48.0933   732.2638 </r>
       <r>    -2.0598    42.3443   738.0645 </r>
       <r>    -1.9228    35.1825   742.8841 </r>
       <r>    -1.7858    53.2449   750.1781 </r>
       <r>    -1.6488    77.7976   760.8355 </r>
       <r>    -1.5119    59.8646   769.0363 </r>
       <r>    -1.3749    54.8659   776.5523 </r>
       <r>    -1.2379    70.8565   786.2589 </r>
       <r>    -1.1009    52.6098   793.4659 </r>
       <r>    -0.9639    44.3743   799.5447 </r>
       <r>    -0.8269    72.8395   809.5229 </r>
       <r>    -0.6899    67.7640   818.8058 </r>
       <r>    -0.5529    73.6057   828.8890 </r>
       <r>    -0.4159    73.6644   838.9802 </r>
       <r>    -0.2790    55.7891   846.6227 </r>
       <r>    -0.1420    73.3248   856.6674 </r>
       <r>    -0.0050    71.1962   866.4205 </r>
       <r>     0.1320    85.1940   878.0912 </r>
       <r>     0.2690    72.4945   888.0221 </r>
       <r>     0.4060    65.6349   897.0134 </r>
       <r>     0.5430    66.6762   906.1473 </r>
       <r>     0.6800    91.9819   918.7478 </r>
       <r>     0.8170    91.3436   931.2609 </r>
       <r>     0.9539    91.3201   943.7708 </r>
       <r>     1.0909    85.7934   955.5235 </r>
       <r>     1.2279   113.5953   971.0848 </r>
       <r>     1.3649   116.4140   987.0323 </r>
       <r>     1.5019   129.4188  1004.7613 </r>
       <r>     1.6389   118.8487  1021.0422 </r>
       <r>     1.7759    80.8048  1032.1116 </r>
       <r>     1.9129    61.7612  1040.5722 </r>
       <r>     2.0499    55.2240  1048.1373 </r>
       <r>     2.1868    13.5672  1049.9959 </r>
       <r>     2.3238     0.0875  1050.0079 </r>
       <r>     2.4608     8.1831  1051.1289 </r>
       <r>     2.5978     6.3502  1051.9988 </r>
       <r>     2.7348     4.0255  1052.5502 </r>
       <r>     2.8718    16.1683  1054.7651 </r>
       <r>     3.0088     9.0109  1055.9995 </r>
       <r>     3.1458     0.0037  1056.0000 </r>
       <r>     3.2828     0.0000  1056.0000 </r>
       <r>     3.4197     0.0000  1056.0000 </r>
       <r>     3.5567     0.0000  1056.0000 </r>
       <r>     3.6937     0.0000  1056.0000 </r>
       <r>     3.8307     0.0000  1056.0000 </r>
       <r>     3.9677     0.0000  1056.0000 </r>
       <r>     4.1047     0.0000  1056.0000 </r>
       <r>     4.2417     0.0000  1056.0000 </r>
       <r>     4.3787     0.0000  1056.0000 </r>
       <r>     4.5157     0.0000  1056.0000 </r>
       <r>     4.6527     0.0000  1056.0000 </r>
       <r>     4.7896     0.0000  1056.0000 </r>
       <r>     4.9266     0.0000  1056.0000 </r>
       <r>     5.0636     0.0000  1056.0000 </r>
       <r>     5.2006     0.0000  1056.0000 </r>
       <r>     5.3376     0.0000  1056.0000 </r>
       <r>     5.4746     0.0000  1056.0000 </r>
       <r>     5.6116     0.0000  1056.0000 </r>
       <r>     5.7486     0.0000  1056.0000 </r>
       <r>     5.8856     0.0000  1056.0000 </r>
       <r>     6.0225     0.0000  1056.0000 </r>
       <r>     6.1595     0.0000  1056.0000 </r>
       <r>     6.2965     0.0000  1056.0000 </r>
       <r>     6.4335     0.0000  1056.0000 </r>
       <r>     6.5705     0.0000  1056.0000 </r>
       <r>     6.7075     0.0197  1056.0027 </r>
       <r>     6.8445     1.7004  1056.2356 </r>
       <r>     6.9815     0.1049  1056.2500 </r>
       <r>     7.1185     0.0000  1056.2500 </r>
       <r>     7.2554     0.0000  1056.2500 </r>
       <r>     7.3924     0.0000  1056.2500 </r>
       <r>     7.5294     0.2725  1056.2873 </r>
       <r>     7.6664     4.1202  1056.8518 </r>
       <r>     7.8034     2.8118  1057.2369 </r>
       <r>     7.9404     0.7365  1057.3378 </r>
       <r>     8.0774     4.7923  1057.9943 </r>
       <r>     8.2144     1.8652  1058.2498 </r>
       <r>     8.3514     0.0015  1058.2501 </r>
       <r>     8.4883     2.3119  1058.5668 </r>
       <r>     8.6253     7.3195  1059.5694 </r>
       <r>     8.7623     5.9869  1060.3896 </r>
       <r>     8.8993     4.9732  1061.0709 </r>
       <r>     9.0363     5.9445  1061.8852 </r>
       <r>     9.1733     2.7499  1062.2619 </r>
       <r>     9.3103     7.9332  1063.3487 </r>
       <r>     9.4473     9.1656  1064.6043 </r>
       <r>     9.5843     4.0545  1065.1597 </r>
       <r>     9.7212     3.9482  1065.7005 </r>
       <r>     9.8582    13.7774  1067.5879 </r>
       <r>     9.9952    14.4264  1069.5642 </r>
       <r>    10.1322     9.4044  1070.8525 </r>
       <r>    10.2692     9.5555  1072.1614 </r>
       <r>    10.4062    20.9330  1075.0290 </r>
       <r>    10.5432    30.9677  1079.2713 </r>
       <r>    10.6802    43.7154  1085.2598 </r>
       <r>    10.8172    36.2913  1090.2313 </r>
       <r>    10.9542    43.0173  1096.1242 </r>
       <r>    11.0911    24.5399  1099.4859 </r>
       <r>    11.2281    26.1568  1103.0691 </r>
       <r>    11.3651    32.6386  1107.5403 </r>
       <r>    11.5021    26.1959  1111.1288 </r>
       <r>    11.6391    40.0790  1116.6192 </r>
       <r>    11.7761    38.9613  1121.9565 </r>
       <r>    11.9131    35.7680  1126.8563 </r>
       <r>    12.0501    33.0162  1131.3792 </r>
       <r>    12.1871    22.1330  1134.4112 </r>
       <r>    12.3240    34.0025  1139.0691 </r>
       <r>    12.4610    39.1055  1144.4261 </r>
       <r>    12.5980    44.4397  1150.5139 </r>
       <r>    12.7350    34.8666  1155.2902 </r>
       <r>    12.8720    24.5138  1158.6484 </r>
       <r>    13.0090    16.6413  1160.9281 </r>
       <r>    13.1460     9.6513  1162.2502 </r>
       <r>    13.2830    21.0924  1165.1396 </r>
       <r>    13.4200    11.8110  1166.7576 </r>
       <r>    13.5569    17.1905  1169.1125 </r>
       <r>    13.6939    19.6906  1171.8099 </r>
       <r>    13.8309    23.2748  1174.9983 </r>
       <r>    13.9679    22.5984  1178.0940 </r>
       <r>    14.1049    28.1285  1181.9473 </r>
       <r>    14.2419    27.4104  1185.7022 </r>
       <r>    14.3789    23.6220  1188.9382 </r>
       <r>    14.5159    19.2392  1191.5737 </r>
       <r>    14.6529    13.3807  1193.4067 </r>
       <r>    14.7898    14.5032  1195.3935 </r>
       <r>    14.9268    17.8342  1197.8366 </r>
       <r>    15.0638    25.8873  1201.3829 </r>
       <r>    15.2008    23.0616  1204.5421 </r>
       <r>    15.3378    24.9957  1207.9662 </r>
       <r>    15.4748    23.8494  1211.2333 </r>
       <r>    15.6118    27.6424  1215.0200 </r>
       <r>    15.7488    26.6679  1218.6732 </r>
       <r>    15.8858    30.3136  1222.8259 </r>
       <r>    16.0227    26.5890  1226.4683 </r>
       <r>    16.1597    30.6560  1230.6678 </r>
       <r>    16.2967    23.7080  1233.9155 </r>
       <r>    16.4337    23.8553  1237.1835 </r>
       <r>    16.5707    18.8146  1239.7609 </r>
       <r>    16.7077    26.0912  1243.3351 </r>
       <r>    16.8447    21.9637  1246.3439 </r>
       <r>    16.9817    22.2001  1249.3850 </r>
       <r>    17.1187    21.7148  1252.3597 </r>
       <r>    17.2556    18.5840  1254.9055 </r>
       <r>    17.3926    16.7335  1257.1978 </r>
       <r>    17.5296    11.5529  1258.7805 </r>
       <r>    17.6666    11.8484  1260.4036 </r>
       <r>    17.8036     9.5644  1261.7138 </r>
       <r>    17.9406     2.3852  1262.0405 </r>
       <r>    18.0776    11.2488  1263.5815 </r>
       <r>    18.2146     3.9678  1264.1250 </r>
       <r>    18.3516     3.3770  1264.5877 </r>
       <r>    18.4886     2.5023  1264.9304 </r>
       <r>    18.6255     4.5639  1265.5556 </r>
       <r>    18.7625     3.2312  1265.9983 </r>
       <r>    18.8995     0.0126  1266.0000 </r>
       <r>    19.0365     0.0000  1266.0000 </r>
       <r>    19.1735     0.0000  1266.0000 </r>
       <r>    19.3105     0.0000  1266.0000 </r>
       <r>    19.4475     0.0000  1266.0000 </r>
       <r>    19.5845     0.0000  1266.0000 </r>
       <r>    19.7215     0.0000  1266.0000 </r>
       <r>    19.8584     0.0000  1266.0000 </r>
       <r>    19.9954     0.0000  1266.0000 </r>
       <r>    20.1324     0.0000  1266.0000 </r>
       <r>    20.2694     0.0000  1266.0000 </r>
       <r>    20.4064     0.0000  1266.0000 </r>
       <r>    20.5434     0.0000  1266.0000 </r>
      </set>
     </set>
    </array>
   </total>
  </dos>
 </calculation>
 <structure name="finalpos" >
  <crystal>
   <varray name="basis" >
    <v>       0.00000000      12.28047342       0.00000000 </v>
    <v>       9.14270205       0.00000000       0.00000000 </v>
    <v>       0.00000000      -2.76826177     -11.30069772 </v>
   </varray>
   <i name="volume">   1268.80515525 </i>
   <varray name="rec_basis" >
    <v>       0.00000000       0.08143009      -0.01994742 </v>
    <v>       0.10937686      -0.00000000       0.00000000 </v>
    <v>       0.00000000       0.00000000      -0.08849011 </v>
   </varray>
  </crystal>
  <varray name="positions" >
   <v>       0.65895623       0.00000000       0.15686666 </v>
   <v>       0.65917449       0.00000000       0.65627266 </v>
   <v>       0.65951850       0.33342606       0.15657418 </v>
   <v>       0.65930863       0.33330620       0.65656740 </v>
   <v>       0.65951850       0.66657394       0.15657418 </v>
   <v>       0.65930863       0.66669380       0.65656740 </v>
   <v>       0.84071597       0.16650375       0.34392748 </v>
   <v>       0.84104518       0.16653734       0.84349484 </v>
   <v>       0.84096171       0.50000000       0.34338172 </v>
   <v>       0.84150628       0.50000000       0.84302539 </v>
   <v>       0.84071597       0.83349625       0.34392748 </v>
   <v>       0.84104518       0.83346266       0.84349484 </v>
   <v>       0.58895675       0.16570604       0.39681895 </v>
   <v>       0.59114485       0.16672799       0.89760837 </v>
   <v>       0.59269387       0.50000000       0.39808467 </v>
   <v>       0.59187615       0.50000000       0.89765736 </v>
   <v>       0.58895675       0.83429396       0.39681895 </v>
   <v>       0.59114485       0.83327201       0.89760837 </v>
   <v>       0.90846374       0.00000000       0.10245289 </v>
   <v>       0.90911767       0.00000000       0.60179397 </v>
   <v>       0.90797441       0.33342713       0.10172808 </v>
   <v>       0.90867855       0.33322969       0.60202499 </v>
   <v>       0.90797441       0.66657287       0.10172808 </v>
   <v>       0.90867855       0.66677031       0.60202499 </v>
   <v>       0.15956009       0.16069385       0.16119994 </v>
   <v>       0.15874625       0.16587965       0.65521876 </v>
   <v>       0.15853368       0.50000000       0.15815841 </v>
   <v>       0.15845018       0.50000000       0.65749202 </v>
   <v>       0.15956009       0.83930615       0.16119994 </v>
   <v>       0.15874625       0.83412035       0.65521876 </v>
   <v>       0.33499536       0.00000000       0.34336587 </v>
   <v>       0.34066889       0.00000000       0.84324825 </v>
   <v>       0.34146035       0.33345399       0.34240498 </v>
   <v>       0.34086250       0.33343555       0.84305682 </v>
   <v>       0.34146035       0.66654601       0.34240498 </v>
   <v>       0.34086250       0.66656445       0.84305682 </v>
   <v>       0.09329385       0.00000000       0.39221194 </v>
   <v>       0.09089125       0.00000000       0.89664776 </v>
   <v>       0.09034034       0.33268410       0.39742409 </v>
   <v>       0.09173627       0.33258504       0.89991528 </v>
   <v>       0.09034034       0.66731590       0.39742409 </v>
   <v>       0.09173627       0.66741496       0.89991528 </v>
   <v>       0.40952976       0.16746981       0.10227161 </v>
   <v>       0.41013982       0.16726693       0.60312036 </v>
   <v>       0.40934049       0.50000000       0.10268307 </v>
   <v>       0.40922524       0.50000000       0.60217746 </v>
   <v>       0.40952976       0.83253019       0.10227161 </v>
   <v>       0.41013982       0.83273307       0.60312036 </v>
   <v>       0.99388185       0.16732004       0.12417819 </v>
   <v>       0.99590861       0.16686506       0.62778349 </v>
   <v>       0.99491405       0.50000000       0.12714228 </v>
   <v>       0.99575626       0.50000000       0.62770374 </v>
   <v>       0.99388185       0.83267996       0.12417819 </v>
   <v>       0.99590861       0.83313494       0.62778349 </v>
   <v>       0.50074248       0.00000000       0.37239358 </v>
   <v>       0.50385210       0.00000000       0.87244905 </v>
   <v>       0.50499379       0.33455305       0.37323873 </v>
   <v>       0.50400559       0.33369720       0.87268851 </v>
   <v>       0.50499379       0.66544695       0.37323873 </v>
   <v>       0.50400559       0.66630280       0.87268851 </v>
   <v>       0.67187313       0.16640860       0.28042989 </v>
   <v>       0.67263505       0.16668159       0.78038624 </v>
   <v>       0.67297102       0.50000000       0.28006212 </v>
   <v>       0.67300909       0.50000000       0.78038854 </v>
   <v>       0.67187313       0.83359140       0.28042989 </v>
   <v>       0.67263505       0.83331841       0.78038624 </v>
   <v>       0.82682354       0.00000000       0.21987953 </v>
   <v>       0.82709522       0.00000000       0.71887370 </v>
   <v>       0.82700848       0.33326128       0.21965868 </v>
   <v>       0.82729123       0.33321354       0.71922064 </v>
   <v>       0.82700848       0.66673872       0.21965868 </v>
   <v>       0.82729123       0.66678646       0.71922064 </v>
   <v>       0.83003457       0.00000000       0.44614871 </v>
   <v>       0.83111608       0.00000000       0.94524222 </v>
   <v>       0.83049687       0.33374101       0.44597204 </v>
   <v>       0.83110890       0.33379646       0.94488012 </v>
   <v>       0.83049687       0.66625899       0.44597204 </v>
   <v>       0.83110890       0.66620354       0.94488012 </v>
   <v>       0.66844035       0.16656536       0.05403028 </v>
   <v>       0.66667994       0.16654178       0.55366107 </v>
   <v>       0.66956293       0.50000000       0.05392010 </v>
   <v>       0.66891624       0.50000000       0.55477425 </v>
   <v>       0.66844035       0.83343464       0.05403028 </v>
   <v>       0.66667994       0.83345822       0.55366107 </v>
   <v>       0.49670645       0.00000000       0.12580211 </v>
   <v>       0.49697745       0.00000000       0.62894325 </v>
   <v>       0.49781822       0.33420292       0.12548319 </v>
   <v>       0.49746807       0.33412528       0.62938298 </v>
   <v>       0.49781822       0.66579708       0.12548319 </v>
   <v>       0.49746807       0.66587472       0.62938298 </v>
   <v>       0.00192977       0.16700666       0.37532598 </v>
   <v>       0.00296755       0.16679392       0.87108907 </v>
   <v>       0.00272518       0.50000000       0.37394412 </v>
   <v>       0.00416704       0.50000000       0.87315484 </v>
   <v>       0.00192977       0.83299334       0.37532598 </v>
   <v>       0.00296755       0.83320608       0.87108907 </v>
   <v>       0.17265888       0.00000000       0.77939925 </v>
   <v>       0.17266129       0.33703836       0.28216491 </v>
   <v>       0.17242927       0.33312556       0.78127514 </v>
   <v>       0.17266129       0.66296164       0.28216491 </v>
   <v>       0.17242927       0.66687444       0.78127514 </v>
   <v>       0.33149396       0.17367378       0.21942158 </v>
   <v>       0.32754011       0.16696331       0.71929892 </v>
   <v>       0.32825379       0.50000000       0.21926070 </v>
   <v>       0.32742557       0.50000000       0.71944497 </v>
   <v>       0.33149396       0.82632622       0.21942158 </v>
   <v>       0.32754011       0.83303669       0.71929892 </v>
   <v>       0.33488733       0.16999977       0.44767284 </v>
   <v>       0.33390530       0.16716803       0.94520824 </v>
   <v>       0.33422155       0.50000000       0.44593307 </v>
   <v>       0.33212183       0.50000000       0.94589794 </v>
   <v>       0.33488733       0.83000023       0.44767284 </v>
   <v>       0.33390530       0.83283197       0.94520824 </v>
   <v>       0.17178560       0.00000000       0.04934101 </v>
   <v>       0.16526839       0.00000000       0.55312691 </v>
   <v>       0.16634989       0.33151561       0.05664985 </v>
   <v>       0.16679644       0.33392922       0.55468658 </v>
   <v>       0.16634989       0.66848439       0.05664985 </v>
   <v>       0.16679644       0.66607078       0.55468658 </v>
   <v>       0.17416720       0.00000000       0.27696729 </v>
  </varray>
 </structure>
</modeling>
