 running    4 mpi-ranks, on    1 nodes
 distrk:  each k-point on    1 cores,    4 groups
 distr:  one band on    1 cores,    1 groups
 OpenACC runtime initialized ...    4 GPUs detected
 vasp.6.4.2 20Jul23 (build Nov 12 2023 22:16:35) complex                         
 POSCAR found type information on POSCAR GaO P 
 POSCAR found :  3 types and     120 ions
 scaLAPACK will be used selectively (only on CPU)
 LDA part: xc-table for Pade appr. of Perdew
 POSCAR, INCAR and KPOINTS ok, starting setup
 FFT: planning ... GRIDC
 FFT: planning ... GRID_SOFT
 FFT: planning ... GRID
 WAVECAR not read
 initial charge from wavefunction
 entering main loop
       N       E                     dE             d eps       ncg     rms          ort
DAV:   1    -0.216901895524E+05   -0.21690E+05   -0.54486E+05  5064   0.749E+03
DAV:   2    -0.661274396032E+05   -0.44437E+05   -0.43005E+05  5064   0.122E+03
DAV:   3    -0.710312433877E+05   -0.49038E+04   -0.43850E+04  5064   0.367E+02
DAV:   4    -0.716929553867E+05   -0.66171E+03   -0.58285E+03  5064   0.112E+02
DAV:   5    -0.386280383929E+05    0.33065E+05   -0.96963E+02  5064   0.599E+01
 gam= 0.000 g(H,U,f)=  0.795E+05 0.210E+05 0.241E+05 ort(H,U,f) = 0.000E+00 0.000E+00 0.000E+00
SDA:   6     0.290510391684E+05    0.67679E+05   -0.96963E+02  5064   0.125E+06 0.000E+00
 gam= 0.000 trial= 0.400  step= 0.330 mean= 0.400
 gam= 0.568 g(H,U,f)=  0.286E+05 0.356E+05 0.657E+04 ort(H,U,f) = 0.316E+04-0.339E+05-0.520E+04
CGA:   7     0.738414365052E+04   -0.21667E+05   -0.20545E+05  5064   0.708E+05-0.359E+05
 gam= 0.568 trial= 0.396  step= 0.218 mean= 0.396
 gam= 0.194 g(H,U,f)=  0.959E+04 0.388E+04 0.284E+03 ort(H,U,f) = 0.343E+04 0.407E+04 0.321E+03
CGA:   8     0.281586314433E+04   -0.45683E+04   -0.54969E+04  5064   0.138E+05 0.782E+04
 gam= 0.194 trial= 0.388  step= 0.196 mean= 0.388
 gam= 0.653 g(H,U,f)=  0.725E+04 0.151E+04 0.220E+03 ort(H,U,f) = 0.491E+03-0.951E+03-0.755E+03
CGA:   9     0.161906713317E+04   -0.11968E+04   -0.14999E+04  5064   0.898E+04-0.122E+04
 gam= 0.653 trial= 0.378  step= 0.230 mean= 0.378
 gam= 0.686 g(H,U,f)=  0.459E+04 0.153E+04 0.408E+02 ort(H,U,f) = 0.682E+03 0.233E+02-0.400E+01
CGA:  10     0.780343432424E+03   -0.83872E+03   -0.94107E+03  5064   0.616E+04 0.701E+03
 gam= 0.686 trial= 0.371  step= 0.218 mean= 0.371
 gam= 0.532 g(H,U,f)=  0.254E+04 0.725E+03 0.125E+02 ort(H,U,f) = 0.172E+03 0.282E+03 0.200E+02
CGA:  11     0.313959628948E+03   -0.46638E+03   -0.72232E+03  5064   0.328E+04 0.474E+03
 gam= 0.532 trial= 0.363  step= 0.401 mean= 0.363
 gam= 0.442 g(H,U,f)=  0.103E+04 0.362E+03 0.520E+02 ort(H,U,f) =-0.256E+03 0.280E+03 0.330E+02
CGA:  12    -0.395149099160E+03   -0.70911E+03   -0.70700E+03  5064   0.145E+04 0.571E+02
 gam= 0.442 trial= 0.365  step= 0.342 mean= 0.365
 gam= 0.416 g(H,U,f)=  0.529E+03 0.729E+02 0.581E+00 ort(H,U,f) = 0.127E+03 0.121E+03-0.973E-01
CGA:  13    -0.640738248518E+03   -0.24559E+03   -0.25196E+03  5064   0.602E+03 0.248E+03
 gam= 0.416 trial= 0.364  step= 0.507 mean= 0.364
 gam= 0.433 g(H,U,f)=  0.222E+03 0.389E+02 0.499E+00 ort(H,U,f) =-0.363E+02 0.591E+02-0.132E+00
CGA:  14    -0.822386826076E+03   -0.18165E+03   -0.17898E+03  5064   0.261E+03 0.227E+02
 gam= 0.433 trial= 0.371  step= 0.624 mean= 0.371
 gam= 0.568 g(H,U,f)=  0.130E+03 0.183E+02 0.686E-01 ort(H,U,f) =-0.458E+02 0.301E+02-0.316E+00
CGA:  15    -0.905237623216E+03   -0.82851E+02   -0.84459E+02  5064   0.148E+03-0.160E+02
 gam= 0.568 trial= 0.384  step= 0.557 mean= 0.384
 gam= 0.461 g(H,U,f)=  0.614E+02 0.698E+01 0.322E-01 ort(H,U,f) =-0.143E+02 0.728E+01-0.104E+00
CGA:  16    -0.943248554975E+03   -0.38011E+02   -0.38748E+02  5064   0.684E+02-0.712E+01
 gam= 0.461 trial= 0.392  step= 0.516 mean= 0.392
 gam= 0.498 g(H,U,f)=  0.295E+02 0.455E+01 0.212E-01 ort(H,U,f) =-0.217E+01 0.107E+01-0.668E-01
CGA:  17    -0.959974235663E+03   -0.16726E+02   -0.16795E+02  5064   0.341E+02-0.117E+01
 gam= 0.498 trial= 0.398  step= 0.576 mean= 0.398
 gam= 0.523 g(H,U,f)=  0.143E+02 0.325E+01 0.320E+00 ort(H,U,f) =-0.268E+01 0.246E+01 0.552E+00
CGA:  18    -0.969640546091E+03   -0.96663E+01   -0.96554E+01  5064   0.178E+02 0.341E+00
 gam= 0.523 trial= 0.407  step= 0.613 mean= 0.407
 gam= 0.621 g(H,U,f)=  0.946E+01 0.160E+01 0.135E-02 ort(H,U,f) =-0.459E+01 0.141E+01 0.132E+00
CGA:  19    -0.974674805604E+03   -0.50343E+01   -0.55195E+01  5064   0.111E+02-0.305E+01
 gam= 0.621 trial= 0.418  step= 0.543 mean= 0.418
 gam= 0.574 g(H,U,f)=  0.560E+01 0.757E+00 0.915E-05 ort(H,U,f) =-0.105E+01 0.833E+00 0.241E-04
CGA:  20    -0.977150358492E+03   -0.24756E+01   -0.24925E+01  5064   0.635E+01-0.219E+00
 gam= 0.574 trial= 0.424  step= 0.501 mean= 0.424
 gam= 0.504 g(H,U,f)=  0.276E+01 0.441E+00 0.981E-03 ort(H,U,f) =-0.289E+00 0.240E+00 0.514E-02
CGA:  21    -0.978708445562E+03   -0.15581E+01   -0.15614E+01  5064   0.321E+01-0.447E-01
 gam= 0.504 trial= 0.428  step= 0.542 mean= 0.428
 gam= 0.580 g(H,U,f)=  0.158E+01 0.274E+00 0.173E-02 ort(H,U,f) =-0.107E+00 0.111E+00 0.129E-01
CGA:  22    -0.979572008505E+03   -0.86356E+00   -0.86322E+00  5064   0.186E+01 0.170E-01
 gam= 0.580 trial= 0.433  step= 0.497 mean= 0.433
 gam= 0.545 g(H,U,f)=  0.857E+00 0.155E+00 0.225E-02 ort(H,U,f) =-0.961E-01 0.853E-01 0.208E-01
CGA:  23    -0.980036401914E+03   -0.46439E+00   -0.46416E+00  5064   0.101E+01 0.101E-01
 gam= 0.545 trial= 0.437  step= 0.483 mean= 0.437
 gam= 0.584 g(H,U,f)=  0.500E+00 0.897E-01 0.267E-02 ort(H,U,f) =-0.593E-01 0.658E-01-0.158E-01
CGA:  24    -0.980282095563E+03   -0.24569E+00   -0.24613E+00  5064   0.592E+00-0.932E-02
 gam= 0.584 trial= 0.439  step= 0.448 mean= 0.439
 gam= 0.530 g(H,U,f)=  0.250E+00 0.543E-01 0.885E-02 ort(H,U,f) =-0.220E-01 0.542E-01-0.289E-01
CGA:  25    -0.980413487366E+03   -0.13139E+00   -0.13137E+00  5064   0.314E+00 0.333E-02
 gam= 0.530 trial= 0.439  step= 0.485 mean= 0.439
 gam= 0.554 g(H,U,f)=  0.135E+00 0.280E-01 0.107E-01 ort(H,U,f) =-0.319E-01 0.392E-01-0.656E-02
CGA:  26    -0.980489954292E+03   -0.76467E-01   -0.76446E-01  5064   0.174E+00 0.700E-03
 gam= 0.554 trial= 0.442  step= 0.538 mean= 0.442
 gam= 0.626 g(H,U,f)=  0.873E-01 0.128E-01 0.863E-02 ort(H,U,f) =-0.257E-01 0.185E-01 0.699E-02
CGA:  27    -0.980536816827E+03   -0.46863E-01   -0.46878E-01  5064   0.109E+00-0.212E-03
 gam= 0.626 trial= 0.447  step= 0.547 mean= 0.447
 gam= 0.645 g(H,U,f)=  0.588E-01 0.688E-02 0.457E-02 ort(H,U,f) =-0.142E-01 0.385E-02 0.977E-02
CGA:  28    -0.980566463830E+03   -0.29647E-01   -0.29694E-01  5064   0.702E-01-0.626E-03
 gam= 0.645 trial= 0.452  step= 0.493 mean= 0.452
 gam= 0.584 g(H,U,f)=  0.347E-01 0.483E-02 0.149E-02 ort(H,U,f) =-0.459E-02-0.142E-02 0.588E-02
CGA:  29    -0.980583669066E+03   -0.17205E-01   -0.17210E-01  5064   0.410E-01-0.126E-03
 gam= 0.584 trial= 0.454  step= 0.472 mean= 0.454
 gam= 0.567 g(H,U,f)=  0.189E-01 0.403E-02 0.281E-03 ort(H,U,f) =-0.102E-02-0.698E-03 0.175E-02
CGA:  30    -0.980593329269E+03   -0.96602E-02   -0.96595E-02  5064   0.232E-01 0.327E-04
 gam= 0.567 trial= 0.455  step= 0.498 mean= 0.455
 gam= 0.574 g(H,U,f)=  0.103E-01 0.297E-02 0.796E-04 ort(H,U,f) =-0.960E-03 0.114E-02-0.132E-03
CGA:  31    -0.980599116309E+03   -0.57870E-02   -0.57854E-02  5064   0.133E-01 0.487E-04
 gam= 0.574 trial= 0.457  step= 0.530 mean= 0.457
 gam= 0.601 g(H,U,f)=  0.610E-02 0.174E-02 0.171E-03 ort(H,U,f) =-0.123E-02 0.168E-02-0.403E-03
CGA:  32    -0.980602656960E+03   -0.35407E-02   -0.35384E-02  5064   0.802E-02 0.524E-04
 gam= 0.601 trial= 0.460  step= 0.542 mean= 0.460
 gam= 0.622 g(H,U,f)=  0.389E-02 0.883E-03 0.213E-03 ort(H,U,f) =-0.101E-02 0.119E-02-0.145E-03
CGA:  33    -0.980604840063E+03   -0.21831E-02   -0.21814E-02  5064   0.499E-02 0.399E-04
 gam= 0.622 trial= 0.464  step= 0.536 mean= 0.464
 gam= 0.632 g(H,U,f)=  0.260E-02 0.381E-03 0.167E-03 ort(H,U,f) =-0.574E-03 0.517E-03 0.821E-04
CGA:  34    -0.980606184356E+03   -0.13443E-02   -0.13434E-02  5064   0.315E-02 0.252E-04
 gam= 0.632 trial= 0.468  step= 0.518 mean= 0.468
 gam= 0.600 g(H,U,f)=  0.161E-02 0.184E-03 0.948E-04 ort(H,U,f) =-0.174E-03 0.314E-04 0.149E-03
CGA:  35    -0.980607004450E+03   -0.82009E-03   -0.81994E-03  5064   0.189E-02 0.663E-05
 gam= 0.600 trial= 0.470  step= 0.498 mean= 0.470
 gam= 0.577 g(H,U,f)=  0.906E-03 0.146E-03 0.407E-04 ort(H,U,f) =-0.322E-04-0.822E-04 0.110E-03
CGA:  36    -0.980607476538E+03   -0.47209E-03   -0.47216E-03  5064   0.109E-02-0.468E-05
 gam= 0.577 trial= 0.472  step= 0.502 mean= 0.472
 gam= 0.000 g(H,U,f)=  0.513E-03 0.115E-03 0.131E-04 ort(H,U,f) =-0.440E-04-0.106E-04 0.472E-04
SDA:  37    -0.980607749892E+03   -0.27335E-03   -0.27348E-03  5064   0.641E-03-0.738E-05
 gam= 0.000 trial= 0.473  step= 0.905 mean= 0.473
 gam= 0.404 g(H,U,f)=  0.204E-03 0.489E-04 0.598E-05 ort(H,U,f) =-0.685E-04 0.567E-04 0.888E-05
CGA:  38    -0.980608039442E+03   -0.28955E-03   -0.29020E-03  5064   0.259E-03-0.296E-05
 gam= 0.404 trial= 0.495  step= 0.747 mean= 0.495
 gam= 0.447 g(H,U,f)=  0.100E-03 0.134E-04 0.207E-05 ort(H,U,f) =-0.468E-04 0.379E-04 0.562E-05
CGA:  39    -0.980608135416E+03   -0.95974E-04   -0.96381E-04  5064   0.116E-03-0.322E-05
 gam= 0.447 trial= 0.508  step= 0.584 mean= 0.508
 gam= 0.343 g(H,U,f)=  0.359E-04 0.318E-05 0.663E-06 ort(H,U,f) =-0.195E-04 0.127E-04 0.255E-05
CGA:  40    -0.980608168672E+03   -0.33256E-04   -0.33420E-04  5064   0.398E-04-0.426E-05
 gam= 0.343 trial= 0.511  step= 0.598 mean= 0.511
 gam= 0.362 g(H,U,f)=  0.136E-04 0.616E-06 0.195E-06 ort(H,U,f) =-0.452E-05 0.278E-05 0.797E-06
CGA:  41    -0.980608180082E+03   -0.11410E-04   -0.11450E-04  5064   0.144E-04-0.942E-06
 gam= 0.362 trial= 0.516  step= 0.504 mean= 0.516
 gam= 0.241 g(H,U,f)=  0.330E-05 0.954E-07 0.700E-07 ort(H,U,f) =-0.324E-06 0.441E-06 0.272E-06
CGA:  42    -0.980608183620E+03   -0.35381E-05   -0.35406E-05  5064   0.347E-05 0.388E-06
 gam= 0.241 trial= 0.515  step= 0.602 mean= 0.515
 final diagonalization
   1 F= -.98060818E+03 E0= -.98059812E+03  d E =-.201324E-01
 writing wavefunctions
Warning: ieee_invalid is signaling
Warning: ieee_divide_by_zero is signaling
Warning: ieee_underflow is signaling
Warning: ieee_inexact is signaling
FORTRAN STOP
Warning: ieee_invalid is signaling
Warning: ieee_divide_by_zero is signaling
Warning: ieee_underflow is signaling
Warning: ieee_inexact is signaling
FORTRAN STOP
Warning: ieee_invalid is signaling
Warning: ieee_divide_by_zero is signaling
Warning: ieee_underflow is signaling
Warning: ieee_inexact is signaling
FORTRAN STOP
Warning: ieee_invalid is signaling
Warning: ieee_divide_by_zero is signaling
Warning: ieee_underflow is signaling
Warning: ieee_inexact is signaling
FORTRAN STOP
