       N       E                     dE             d eps       ncg     rms          ort
DAV:   1    -0.216901895524E+05   -0.21690E+05   -0.54486E+05  5064   0.749E+03
DAV:   2    -0.661274396032E+05   -0.44437E+05   -0.43005E+05  5064   0.122E+03
DAV:   3    -0.710312433877E+05   -0.49038E+04   -0.43850E+04  5064   0.367E+02
DAV:   4    -0.716929553867E+05   -0.66171E+03   -0.58285E+03  5064   0.112E+02
DAV:   5    -0.386280383929E+05    0.33065E+05   -0.96963E+02  5064   0.599E+01
SDA:   6     0.290510391684E+05    0.67679E+05   -0.96963E+02  5064   0.125E+06 0.000E+00
CGA:   7     0.738414365052E+04   -0.21667E+05   -0.20545E+05  5064   0.708E+05-0.359E+05
CGA:   8     0.281586314433E+04   -0.45683E+04   -0.54969E+04  5064   0.138E+05 0.782E+04
CGA:   9     0.161906713317E+04   -0.11968E+04   -0.14999E+04  5064   0.898E+04-0.122E+04
CGA:  10     0.780343432424E+03   -0.83872E+03   -0.94107E+03  5064   0.616E+04 0.701E+03
CGA:  11     0.313959628948E+03   -0.46638E+03   -0.72232E+03  5064   0.328E+04 0.474E+03
CGA:  12    -0.395149099160E+03   -0.70911E+03   -0.70700E+03  5064   0.145E+04 0.571E+02
CGA:  13    -0.640738248518E+03   -0.24559E+03   -0.25196E+03  5064   0.602E+03 0.248E+03
CGA:  14    -0.822386826076E+03   -0.18165E+03   -0.17898E+03  5064   0.261E+03 0.227E+02
CGA:  15    -0.905237623216E+03   -0.82851E+02   -0.84459E+02  5064   0.148E+03-0.160E+02
CGA:  16    -0.943248554975E+03   -0.38011E+02   -0.38748E+02  5064   0.684E+02-0.712E+01
CGA:  17    -0.959974235663E+03   -0.16726E+02   -0.16795E+02  5064   0.341E+02-0.117E+01
CGA:  18    -0.969640546091E+03   -0.96663E+01   -0.96554E+01  5064   0.178E+02 0.341E+00
CGA:  19    -0.974674805604E+03   -0.50343E+01   -0.55195E+01  5064   0.111E+02-0.305E+01
CGA:  20    -0.977150358492E+03   -0.24756E+01   -0.24925E+01  5064   0.635E+01-0.219E+00
CGA:  21    -0.978708445562E+03   -0.15581E+01   -0.15614E+01  5064   0.321E+01-0.447E-01
CGA:  22    -0.979572008505E+03   -0.86356E+00   -0.86322E+00  5064   0.186E+01 0.170E-01
CGA:  23    -0.980036401914E+03   -0.46439E+00   -0.46416E+00  5064   0.101E+01 0.101E-01
CGA:  24    -0.980282095563E+03   -0.24569E+00   -0.24613E+00  5064   0.592E+00-0.932E-02
CGA:  25    -0.980413487366E+03   -0.13139E+00   -0.13137E+00  5064   0.314E+00 0.333E-02
CGA:  26    -0.980489954292E+03   -0.76467E-01   -0.76446E-01  5064   0.174E+00 0.700E-03
CGA:  27    -0.980536816827E+03   -0.46863E-01   -0.46878E-01  5064   0.109E+00-0.212E-03
CGA:  28    -0.980566463830E+03   -0.29647E-01   -0.29694E-01  5064   0.702E-01-0.626E-03
CGA:  29    -0.980583669066E+03   -0.17205E-01   -0.17210E-01  5064   0.410E-01-0.126E-03
CGA:  30    -0.980593329269E+03   -0.96602E-02   -0.96595E-02  5064   0.232E-01 0.327E-04
CGA:  31    -0.980599116309E+03   -0.57870E-02   -0.57854E-02  5064   0.133E-01 0.487E-04
CGA:  32    -0.980602656960E+03   -0.35407E-02   -0.35384E-02  5064   0.802E-02 0.524E-04
CGA:  33    -0.980604840063E+03   -0.21831E-02   -0.21814E-02  5064   0.499E-02 0.399E-04
CGA:  34    -0.980606184356E+03   -0.13443E-02   -0.13434E-02  5064   0.315E-02 0.252E-04
CGA:  35    -0.980607004450E+03   -0.82009E-03   -0.81994E-03  5064   0.189E-02 0.663E-05
CGA:  36    -0.980607476538E+03   -0.47209E-03   -0.47216E-03  5064   0.109E-02-0.468E-05
SDA:  37    -0.980607749892E+03   -0.27335E-03   -0.27348E-03  5064   0.641E-03-0.738E-05
CGA:  38    -0.980608039442E+03   -0.28955E-03   -0.29020E-03  5064   0.259E-03-0.296E-05
CGA:  39    -0.980608135416E+03   -0.95974E-04   -0.96381E-04  5064   0.116E-03-0.322E-05
CGA:  40    -0.980608168672E+03   -0.33256E-04   -0.33420E-04  5064   0.398E-04-0.426E-05
CGA:  41    -0.980608180082E+03   -0.11410E-04   -0.11450E-04  5064   0.144E-04-0.942E-06
CGA:  42    -0.980608183620E+03   -0.35381E-05   -0.35406E-05  5064   0.347E-05 0.388E-06
   1 F= -.98060818E+03 E0= -.98059812E+03  d E =-.201324E-01
