<?xml version="1.0" encoding="ISO-8859-1"?>
<modeling>
 <generator>
  <i name="program" type="string">vasp </i>
  <i name="version" type="string">6.4.2  </i>
  <i name="subversion" type="string">20Jul23 (build Nov 12 2023 22:16:35) complex                          parallel </i>
  <i name="platform" type="string">LinuxNV </i>
  <i name="date" type="string">2025 03 07 </i>
  <i name="time" type="string">20:57:32 </i>
 </generator>
 <incar>
  <i type="int" name="ISTART">     0</i>
  <i type="string" name="PREC">Normal</i>
  <i type="string" name="ALGO">All</i>
  <i type="int" name="ISPIN">     1</i>
  <i type="int" name="ICHARG">     0</i>
  <i type="int" name="IBRION">    -1</i>
  <i name="EDIFF">      0.00001000</i>
  <i name="EDIFFG">     -0.00500000</i>
  <i type="int" name="NSW">     0</i>
  <i type="int" name="ISIF">     2</i>
  <i name="ENCUT">    450.00000000</i>
  <i type="string" name="LREAL">Auto</i>
  <i type="logical" name="LPLANE"> T  </i>
  <i name="TIME">      0.40000000</i>
  <i type="int" name="ISMEAR">     0</i>
  <i name="SIGMA">      0.05000000</i>
  <i type="logical" name="LWAVE"> T  </i>
  <i type="logical" name="LCHARG"> T  </i>
  <i name="HFSCREEN">      0.18000000</i>
  <i type="logical" name="LHFCALC"> T  </i>
  <i type="int" name="LMAXFOCK">     4</i>
  <i name="AEXX">      0.35000000</i>
  <i type="string" name="PRECFOCK">Fast</i>
 </incar>
 <primitive_cell>
  <structure name="primitive_cell" >
   <crystal>
    <varray name="basis" >
     <v>       0.00000000      12.28047342       0.00000000 </v>
     <v>       9.14270205       0.00000000       0.00000000 </v>
     <v>       0.00000000      -2.76826177     -11.30069772 </v>
    </varray>
    <i name="volume">   1268.80515525 </i>
    <varray name="rec_basis" >
     <v>       0.00000000       0.08143009      -0.01994742 </v>
     <v>       0.10937686      -0.00000000       0.00000000 </v>
     <v>       0.00000000       0.00000000      -0.08849011 </v>
    </varray>
   </crystal>
   <varray name="positions" >
    <v>       0.65841153       0.99936839       0.15594726 </v>
    <v>       0.65924052       0.99988245       0.65685037 </v>
    <v>       0.65841153       0.33396494       0.15594726 </v>
    <v>       0.65924052       0.33345088       0.65685037 </v>
    <v>       0.65867212       0.66666667       0.15627204 </v>
    <v>       0.65942154       0.66666667       0.65696699 </v>
    <v>       0.83915821       0.16666667       0.34358410 </v>
    <v>       0.84109925       0.16666667       0.84319846 </v>
    <v>       0.84069420       0.50049232       0.34287143 </v>
    <v>       0.84163294       0.50012640       0.84381130 </v>
    <v>       0.84069420       0.83284101       0.34287143 </v>
    <v>       0.84163294       0.83320694       0.84381130 </v>
    <v>       0.59154307       0.16666667       0.39787937 </v>
    <v>       0.59077746       0.16666667       0.89752085 </v>
    <v>       0.59173254       0.50013887       0.39780198 </v>
    <v>       0.59049925       0.50013675       0.89708038 </v>
    <v>       0.59173254       0.83319447       0.39780198 </v>
    <v>       0.59049925       0.83319658       0.89708038 </v>
    <v>       0.90855874       0.99879970       0.10373790 </v>
    <v>       0.90774455       0.99907033       0.60111480 </v>
    <v>       0.90855874       0.33453363       0.10373790 </v>
    <v>       0.90774455       0.33426300       0.60111480 </v>
    <v>       0.90943629       0.66666667       0.10297831 </v>
    <v>       0.90876544       0.66666667       0.60187610 </v>
    <v>       0.16083122       0.16666667       0.15874508 </v>
    <v>       0.15992701       0.16666667       0.65514882 </v>
    <v>       0.15972128       0.50006066       0.15731777 </v>
    <v>       0.15898134       0.50005007       0.65621686 </v>
    <v>       0.15972128       0.83327267       0.15731777 </v>
    <v>       0.15898134       0.83328326       0.65621686 </v>
    <v>       0.34188542       0.99958715       0.34401728 </v>
    <v>       0.34068231       0.00002627       0.84304672 </v>
    <v>       0.34188542       0.33374618       0.34401728 </v>
    <v>       0.34068231       0.33330706       0.84304672 </v>
    <v>       0.34178095       0.66666667       0.34354144 </v>
    <v>       0.34048515       0.66666667       0.84328594 </v>
    <v>       0.09009222       0.99994989       0.39685224 </v>
    <v>       0.09143830       0.99982263       0.89748689 </v>
    <v>       0.09009222       0.33338344       0.39685224 </v>
    <v>       0.09143830       0.33351070       0.89748689 </v>
    <v>       0.09154335       0.66666667       0.39777827 </v>
    <v>       0.09144461       0.66666667       0.89788478 </v>
    <v>       0.40893800       0.16666667       0.10203667 </v>
    <v>       0.40955747       0.16666667       0.60250534 </v>
    <v>       0.40890129       0.50007993       0.10204512 </v>
    <v>       0.40922825       0.50013447       0.60279652 </v>
    <v>       0.40890129       0.83325340       0.10204512 </v>
    <v>       0.40922825       0.83319887       0.60279652 </v>
    <v>       0.99661113       0.16666667       0.13759535 </v>
    <v>       0.99567463       0.16666667       0.62038228 </v>
    <v>       0.99693515       0.50009825       0.12778757 </v>
    <v>       0.99621543       0.49986548       0.62697037 </v>
    <v>       0.99693515       0.83323508       0.12778757 </v>
    <v>       0.99621543       0.83346785       0.62697037 </v>
    <v>       0.50431531       0.99994345       0.37306041 </v>
    <v>       0.50329978       0.00007566       0.87259284 </v>
    <v>       0.50431531       0.33338988       0.37306041 </v>
    <v>       0.50329978       0.33325767       0.87259284 </v>
    <v>       0.50417299       0.66666667       0.37321175 </v>
    <v>       0.50299146       0.66666667       0.87215667 </v>
    <v>       0.67227387       0.16666667       0.27997742 </v>
    <v>       0.67303230       0.16666667       0.78099002 </v>
    <v>       0.67163823       0.50081811       0.27964334 </v>
    <v>       0.67331733       0.49964802       0.78109064 </v>
    <v>       0.67163823       0.83251523       0.27964334 </v>
    <v>       0.67331733       0.83368531       0.78109064 </v>
    <v>       0.82518217       0.99695601       0.21820392 </v>
    <v>       0.82809448       0.00030552       0.71983635 </v>
    <v>       0.82518217       0.33637733       0.21820392 </v>
    <v>       0.82809448       0.33302781       0.71983635 </v>
    <v>       0.82710545       0.66666667       0.21914886 </v>
    <v>       0.82788916       0.66666667       0.71979768 </v>
    <v>       0.82804288       0.99793736       0.44570647 </v>
    <v>       0.83436599       0.00067285       0.94658977 </v>
    <v>       0.82804288       0.33539597       0.44570647 </v>
    <v>       0.83436599       0.33266049       0.94658977 </v>
    <v>       0.83100963       0.66666667       0.44563369 </v>
    <v>       0.83294907       0.66666667       0.94621605 </v>
    <v>       0.66764910       0.16666667       0.05391916 </v>
    <v>       0.66801223       0.16666667       0.55471477 </v>
    <v>       0.66725028       0.50036980       0.05334289 </v>
    <v>       0.66792078       0.50009462       0.55473330 </v>
    <v>       0.66725028       0.83296354       0.05334289 </v>
    <v>       0.66792078       0.83323872       0.55473330 </v>
    <v>       0.49614194       0.00002054       0.12677424 </v>
    <v>       0.49676815       0.99986822       0.62797927 </v>
    <v>       0.49614194       0.33331280       0.12677424 </v>
    <v>       0.49676815       0.33346511       0.62797927 </v>
    <v>       0.49602808       0.66666667       0.12626531 </v>
    <v>       0.49686326       0.66666667       0.62827312 </v>
    <v>       0.00388407       0.16666667       0.87238772 </v>
    <v>       0.00342649       0.50149442       0.37314147 </v>
    <v>       0.00406290       0.50006400       0.87267721 </v>
    <v>       0.00342649       0.83183891       0.37314147 </v>
    <v>       0.00406290       0.83326933       0.87267721 </v>
    <v>       0.17431805       0.99842954       0.28083415 </v>
    <v>       0.17200015       0.00062916       0.77965997 </v>
    <v>       0.17431805       0.33490379       0.28083415 </v>
    <v>       0.17200015       0.33270417       0.77965997 </v>
    <v>       0.17338056       0.66666667       0.28082628 </v>
    <v>       0.17227266       0.66666667       0.78018328 </v>
    <v>       0.32837292       0.16666667       0.21982223 </v>
    <v>       0.32775931       0.16666667       0.71946064 </v>
    <v>       0.32817604       0.50015934       0.21955162 </v>
    <v>       0.32753489       0.49991262       0.71983058 </v>
    <v>       0.32817604       0.83317399       0.21955162 </v>
    <v>       0.32753489       0.83342071       0.71983058 </v>
    <v>       0.33334012       0.16666667       0.44594935 </v>
    <v>       0.33155580       0.16666667       0.94556760 </v>
    <v>       0.33323698       0.50035796       0.44616078 </v>
    <v>       0.33125242       0.49968482       0.94561506 </v>
    <v>       0.33323698       0.83297537       0.44616078 </v>
    <v>       0.33125242       0.83364851       0.94561506 </v>
    <v>       0.16638853       0.00093484       0.05458800 </v>
    <v>       0.16918229       0.99895162       0.55392015 </v>
    <v>       0.16638853       0.33239849       0.05458800 </v>
    <v>       0.16918229       0.33438172       0.55392015 </v>
    <v>       0.16813647       0.66666667       0.05447995 </v>
    <v>       0.16848598       0.66666667       0.55443366 </v>
    <v>       0.00014599       0.16666667       0.36883432 </v>
   </varray>
  </structure>
  <varray name="primitive_index" >
   <v type="int" >        1 </v>
   <v type="int" >        2 </v>
   <v type="int" >        3 </v>
   <v type="int" >        4 </v>
   <v type="int" >        5 </v>
   <v type="int" >        6 </v>
   <v type="int" >        7 </v>
   <v type="int" >        8 </v>
   <v type="int" >        9 </v>
   <v type="int" >       10 </v>
   <v type="int" >       11 </v>
   <v type="int" >       12 </v>
   <v type="int" >       13 </v>
   <v type="int" >       14 </v>
   <v type="int" >       15 </v>
   <v type="int" >       16 </v>
   <v type="int" >       17 </v>
   <v type="int" >       18 </v>
   <v type="int" >       19 </v>
   <v type="int" >       20 </v>
   <v type="int" >       21 </v>
   <v type="int" >       22 </v>
   <v type="int" >       23 </v>
   <v type="int" >       24 </v>
   <v type="int" >       25 </v>
   <v type="int" >       26 </v>
   <v type="int" >       27 </v>
   <v type="int" >       28 </v>
   <v type="int" >       29 </v>
   <v type="int" >       30 </v>
   <v type="int" >       31 </v>
   <v type="int" >       32 </v>
   <v type="int" >       33 </v>
   <v type="int" >       34 </v>
   <v type="int" >       35 </v>
   <v type="int" >       36 </v>
   <v type="int" >       37 </v>
   <v type="int" >       38 </v>
   <v type="int" >       39 </v>
   <v type="int" >       40 </v>
   <v type="int" >       41 </v>
   <v type="int" >       42 </v>
   <v type="int" >       43 </v>
   <v type="int" >       44 </v>
   <v type="int" >       45 </v>
   <v type="int" >       46 </v>
   <v type="int" >       47 </v>
   <v type="int" >       48 </v>
   <v type="int" >       49 </v>
   <v type="int" >       50 </v>
   <v type="int" >       51 </v>
   <v type="int" >       52 </v>
   <v type="int" >       53 </v>
   <v type="int" >       54 </v>
   <v type="int" >       55 </v>
   <v type="int" >       56 </v>
   <v type="int" >       57 </v>
   <v type="int" >       58 </v>
   <v type="int" >       59 </v>
   <v type="int" >       60 </v>
   <v type="int" >       61 </v>
   <v type="int" >       62 </v>
   <v type="int" >       63 </v>
   <v type="int" >       64 </v>
   <v type="int" >       65 </v>
   <v type="int" >       66 </v>
   <v type="int" >       67 </v>
   <v type="int" >       68 </v>
   <v type="int" >       69 </v>
   <v type="int" >       70 </v>
   <v type="int" >       71 </v>
   <v type="int" >       72 </v>
   <v type="int" >       73 </v>
   <v type="int" >       74 </v>
   <v type="int" >       75 </v>
   <v type="int" >       76 </v>
   <v type="int" >       77 </v>
   <v type="int" >       78 </v>
   <v type="int" >       79 </v>
   <v type="int" >       80 </v>
   <v type="int" >       81 </v>
   <v type="int" >       82 </v>
   <v type="int" >       83 </v>
   <v type="int" >       84 </v>
   <v type="int" >       85 </v>
   <v type="int" >       86 </v>
   <v type="int" >       87 </v>
   <v type="int" >       88 </v>
   <v type="int" >       89 </v>
   <v type="int" >       90 </v>
   <v type="int" >       91 </v>
   <v type="int" >       92 </v>
   <v type="int" >       93 </v>
   <v type="int" >       94 </v>
   <v type="int" >       95 </v>
   <v type="int" >       96 </v>
   <v type="int" >       97 </v>
   <v type="int" >       98 </v>
   <v type="int" >       99 </v>
   <v type="int" >      100 </v>
   <v type="int" >      101 </v>
   <v type="int" >      102 </v>
   <v type="int" >      103 </v>
   <v type="int" >      104 </v>
   <v type="int" >      105 </v>
   <v type="int" >      106 </v>
   <v type="int" >      107 </v>
   <v type="int" >      108 </v>
   <v type="int" >      109 </v>
   <v type="int" >      110 </v>
   <v type="int" >      111 </v>
   <v type="int" >      112 </v>
   <v type="int" >      113 </v>
   <v type="int" >      114 </v>
   <v type="int" >      115 </v>
   <v type="int" >      116 </v>
   <v type="int" >      117 </v>
   <v type="int" >      118 </v>
   <v type="int" >      119 </v>
   <v type="int" >      120 </v>
  </varray>
 </primitive_cell>
 <kpoints>
  <generation param="Gamma">
   <v type="int" name="divisions">       2        2        2 </v>
   <v name="usershift">      0.00000000       0.00000000       0.00000000 </v>
   <v name="genvec1">      0.50000000       0.00000000       0.00000000 </v>
   <v name="genvec2">      0.00000000       0.50000000       0.00000000 </v>
   <v name="genvec3">      0.00000000       0.00000000       0.50000000 </v>
   <v name="shift">      0.00000000       0.00000000       0.00000000 </v>
  </generation>
  <varray name="kpointlist" >
   <v>       0.00000000       0.00000000       0.00000000 </v>
   <v>       0.50000000       0.00000000       0.00000000 </v>
   <v>       0.00000000       0.50000000       0.00000000 </v>
   <v>       0.50000000       0.50000000       0.00000000 </v>
   <v>       0.00000000       0.00000000       0.50000000 </v>
   <v>       0.50000000       0.00000000       0.50000000 </v>
   <v>       0.00000000       0.50000000       0.50000000 </v>
   <v>       0.50000000       0.50000000       0.50000000 </v>
  </varray>
  <varray name="weights" >
   <v>       0.12500000 </v>
   <v>       0.12500000 </v>
   <v>       0.12500000 </v>
   <v>       0.12500000 </v>
   <v>       0.12500000 </v>
   <v>       0.12500000 </v>
   <v>       0.12500000 </v>
   <v>       0.12500000 </v>
  </varray>
 </kpoints>
 <parameters>
  <separator name="general" >
   <i type="string" name="SYSTEM">unknown system</i>
   <i type="logical" name="LCOMPAT"> F  </i>
  </separator>
  <separator name="electronic" >
   <i type="string" name="PREC">normal</i>
   <i name="ENMAX">    450.00000000</i>
   <i name="ENAUG">    627.11200000</i>
   <i name="EDIFF">      0.00001000</i>
   <i type="int" name="IALGO">    58</i>
   <i type="int" name="IWAVPR">    10</i>
   <i type="int" name="NBANDS">   633</i>
   <i type="int" name="NBANDSLOW">    -1</i>
   <i type="int" name="NBANDSHIGH">    -1</i>
   <i name="NELECT">   1055.00000000</i>
   <i type="int" name="TURBO">     0</i>
   <i type="int" name="IRESTART">     0</i>
   <i type="int" name="NREBOOT">     0</i>
   <i type="int" name="NMIN">     0</i>
   <i name="EREF">      0.00000000</i>
   <separator name="electronic smearing" >
    <i type="int" name="ISMEAR">     0</i>
    <i name="SIGMA">      0.05000000</i>
    <i name="KSPACING">      0.50000000</i>
    <i type="logical" name="KGAMMA"> T  </i>
    <i type="logical" name="KBLOWUP"> T  </i>
   </separator>
   <separator name="electronic projectors" >
    <i type="logical" name="LREAL"> T  </i>
    <v name="ROPT">     -0.00050000     -0.00050000     -0.00050000</v>
    <i type="int" name="LMAXPAW">  -100</i>
    <i type="int" name="LMAXMIX">     2</i>
    <i type="logical" name="NLSPLINE"> F  </i>
   </separator>
   <separator name="electronic startup" >
    <i type="int" name="ISTART">     0</i>
    <i type="int" name="ICHARG">     0</i>
    <i type="int" name="INIWAV">     1</i>
   </separator>
   <separator name="electronic spin" >
    <i type="int" name="ISPIN">     1</i>
    <i type="logical" name="LNONCOLLINEAR"> F  </i>
    <v name="MAGMOM">      1.00000000      1.00000000      1.00000000      1.00000000      1.00000000      1.00000000      1.00000000      1.00000000      1.00000000      1.00000000      1.00000000      1.00000000      1.00000000      1.00000000      1.00000000      1.00000000      1.00000000      1.00000000      1.00000000      1.00000000
      1.00000000      1.00000000      1.00000000      1.00000000      1.00000000      1.00000000      1.00000000      1.00000000      1.00000000      1.00000000      1.00000000      1.00000000      1.00000000      1.00000000      1.00000000      1.00000000      1.00000000      1.00000000      1.00000000      1.00000000
      1.00000000      1.00000000      1.00000000      1.00000000      1.00000000      1.00000000      1.00000000      1.00000000      1.00000000      1.00000000      1.00000000      1.00000000      1.00000000      1.00000000      1.00000000      1.00000000      1.00000000      1.00000000      1.00000000      1.00000000
      1.00000000      1.00000000      1.00000000      1.00000000      1.00000000      1.00000000      1.00000000      1.00000000      1.00000000      1.00000000      1.00000000      1.00000000      1.00000000      1.00000000      1.00000000      1.00000000      1.00000000      1.00000000      1.00000000      1.00000000
      1.00000000      1.00000000      1.00000000      1.00000000      1.00000000      1.00000000      1.00000000      1.00000000      1.00000000      1.00000000      1.00000000      1.00000000      1.00000000      1.00000000      1.00000000      1.00000000      1.00000000      1.00000000      1.00000000      1.00000000
      1.00000000      1.00000000      1.00000000      1.00000000      1.00000000      1.00000000      1.00000000      1.00000000      1.00000000      1.00000000      1.00000000      1.00000000      1.00000000      1.00000000      1.00000000      1.00000000      1.00000000      1.00000000      1.00000000      1.00000000
</v>
    <i name="NUPDOWN">     -1.00000000</i>
    <i type="logical" name="LSORBIT"> F  </i>
    <v name="SAXIS">      0.00000000      0.00000000      1.00000000</v>
    <i type="logical" name="LSPIRAL"> F  </i>
    <v name="QSPIRAL">      0.00000000      0.00000000      0.00000000</v>
    <i type="logical" name="LZEROZ"> F  </i>
   </separator>
   <separator name="electronic exchange-correlation" >
    <i type="logical" name="LASPH"> F  </i>
    <i type="logical" name="LMETAGGA"> F  </i>
   </separator>
   <separator name="electronic convergence" >
    <i type="int" name="NELM">    60</i>
    <i type="int" name="NELMDL">    -5</i>
    <i type="int" name="NELMIN">     2</i>
    <i name="ENINI">    450.00000000</i>
    <separator name="electronic convergence detail" >
     <i type="logical" name="LDIAG"> T  </i>
     <i type="logical" name="LSUBROT"> F  </i>
     <i name="WEIMIN">      0.00000000</i>
     <i name="EBREAK">      0.00000000</i>
     <i name="DEPER">      0.30000000</i>
     <i type="int" name="NRMM">     4</i>
     <i name="TIME">      0.40000000</i>
    </separator>
   </separator>
   <separator name="electronic mixer" >
    <i name="AMIX">      0.40000000</i>
    <i name="BMIX">      1.00000000</i>
    <i name="AMIN">      0.10000000</i>
    <i name="AMIX_MAG">      1.60000000</i>
    <i name="BMIX_MAG">      1.00000000</i>
    <separator name="electronic mixer details" >
     <i type="int" name="IMIX">     4</i>
     <i type="logical" name="MIXFIRST"> F  </i>
     <i type="int" name="MAXMIX">   -45</i>
     <i name="WC">    100.00000000</i>
     <i type="int" name="INIMIX">     1</i>
     <i type="int" name="MIXPRE">     1</i>
     <i type="int" name="MREMOVE">     5</i>
    </separator>
   </separator>
   <separator name="electronic dipolcorrection" >
    <i type="logical" name="LDIPOL"> F  </i>
    <i type="logical" name="LMONO"> F  </i>
    <i type="int" name="IDIPOL">     0</i>
    <i name="EPSILON">      1.00000000</i>
    <v name="DIPOL">   -100.00000000   -100.00000000   -100.00000000</v>
    <i name="EFIELD">      0.00000000</i>
   </separator>
  </separator>
  <separator name="grids" >
   <i type="int" name="NGX">    64</i>
   <i type="int" name="NGY">    48</i>
   <i type="int" name="NGZ">    60</i>
   <i type="int" name="NGXF">   128</i>
   <i type="int" name="NGYF">    96</i>
   <i type="int" name="NGZF">   120</i>
   <i type="logical" name="ADDGRID"> F  </i>
  </separator>
  <separator name="ionic" >
   <i type="int" name="NSW">     0</i>
   <i type="int" name="IBRION">    -1</i>
   <i type="int" name="MDALGO">     0</i>
   <i type="int" name="ISIF">     2</i>
   <i name="PSTRESS">      0.00000000</i>
   <i name="EDIFFG">     -0.00500000</i>
   <i type="int" name="NFREE">     0</i>
   <i name="POTIM">      0.50000000</i>
   <i name="SMASS">     -3.00000000</i>
   <i name="SCALEE">      1.00000000</i>
  </separator>
  <separator name="ionic md" >
   <i name="TEBEG">      0.00010000</i>
   <i name="TEEND">      0.00010000</i>
   <i type="int" name="NBLOCK">     1</i>
   <i type="int" name="KBLOCK">     1</i>
   <i type="int" name="NPACO">   256</i>
   <i name="APACO">     10.00000000</i>
  </separator>
  <separator name="symmetry" >
   <i type="int" name="ISYM">     3</i>
   <i name="SYMPREC">      0.00001000</i>
  </separator>
  <separator name="dos" >
   <i type="int" name="LORBIT">     0</i>
   <v name="RWIGS">     -1.00000000     -1.00000000     -1.00000000</v>
   <i type="int" name="NEDOS">   301</i>
   <i name="EMIN">     10.00000000</i>
   <i name="EMAX">    -10.00000000</i>
   <i name="EFERMI">      0.00000000</i>
  </separator>
  <separator name="writing" >
   <i type="int" name="NWRITE">     2</i>
   <i type="logical" name="LWAVE"> T  </i>
   <i type="logical" name="LDOWNSAMPLE"> F  </i>
   <i type="logical" name="LCHARG"> T  </i>
   <i type="logical" name="LPARD"> F  </i>
   <i type="logical" name="LVTOT"> F  </i>
   <i type="logical" name="LVHAR"> F  </i>
   <i type="logical" name="LELF"> F  </i>
   <i type="logical" name="LOPTICS"> F  </i>
   <v name="STM">      0.00000000      0.00000000      0.00000000      0.00000000      0.00000000      0.00000000      0.00000000</v>
  </separator>
  <separator name="performance" >
   <i type="int" name="NPAR">     1</i>
   <i type="int" name="NSIM">     4</i>
   <i type="int" name="NBLK">    -1</i>
   <i type="logical" name="LPLANE"> T  </i>
   <i type="logical" name="LSCALAPACK"> T  </i>
   <i type="logical" name="LSCAAWARE"> F  </i>
   <i type="logical" name="LSCALU"> F  </i>
   <i type="logical" name="LASYNC"> F  </i>
   <i type="logical" name="LORBITALREAL"> F  </i>
  </separator>
  <separator name="miscellaneous" >
   <i type="int" name="IDIOT">     3</i>
   <i type="int" name="PHON_NSTRUCT">    -1</i>
   <i type="logical" name="LMUSIC"> F  </i>
   <v name="POMASS">     69.72300000     16.00000000     14.00100000</v>
   <v name="DARWINR">      0.00000000      0.00000000      0.00000000</v>
   <v name="DARWINV">      1.00000000      1.00000000      1.00000000</v>
   <i type="logical" name="LCORR"> T  </i>
  </separator>
  <i type="logical" name="GGA_COMPAT"> T  </i>
  <i type="logical" name="LBERRY"> F  </i>
  <i type="int" name="ICORELEVEL">     0</i>
  <i type="logical" name="LDAU"> F  </i>
  <i type="int" name="I_CONSTRAINED_M">     0</i>
  <separator name="electronic exchange-correlation" >
   <i type="string" name="GGA">--</i>
   <i type="int" name="VOSKOWN">     0</i>
   <i type="logical" name="LHFCALC"> T  </i>
   <i type="string" name="PRECFOCK">fast</i>
   <i type="logical" name="LSYMGRAD"> F  </i>
   <i type="logical" name="LHFONE"> F  </i>
   <i type="logical" name="LRHFCALC"> F  </i>
   <i type="logical" name="LTHOMAS"> F  </i>
   <i type="logical" name="LMODELHF"> F  </i>
   <i type="logical" name="LFOCKACE"> T  </i>
   <i name="ENCUT4O">     -1.00000000</i>
   <i type="int" name="EXXOEP">     0</i>
   <i type="int" name="FOURORBIT">     0</i>
   <i name="AEXX">      0.35000000</i>
   <i name="HFALPHA">     -1.00000000</i>
   <i name="MCALPHA">      0.00000000</i>
   <i name="ALDAX">      0.65000000</i>
   <i name="AGGAX">      0.65000000</i>
   <i name="ALDAC">      1.00000000</i>
   <i name="AGGAC">      1.00000000</i>
   <i type="int" name="NKREDX">     1</i>
   <i type="int" name="NKREDY">     1</i>
   <i type="int" name="NKREDZ">     1</i>
   <i type="logical" name="SHIFTRED"> F  </i>
   <i type="logical" name="ODDONLY"> F  </i>
   <i type="logical" name="EVENONLY"> F  </i>
   <i type="int" name="LMAXFOCK">     4</i>
   <i type="int" name="NMAXFOCKAE">     1</i>
   <i type="logical" name="LFOCKAEDFT"> F  </i>
   <i name="HFSCREEN">      0.18000000</i>
   <i name="HFSCREENC">      0.18000000</i>
   <i type="int" name="NBANDSGWLOW">     1</i>
  </separator>
  <separator name="vdW DFT" >
   <i type="logical" name="LUSE_VDW"> F  </i>
   <i type="int" name="IVDW_NL">     1</i>
   <i type="logical" name="LSPIN_VDW"> F  </i>
   <i name="Zab_VDW">     -0.84910000</i>
   <i name="PARAM1">      0.12340000</i>
   <i name="PARAM2">      1.00000000</i>
   <i name="PARAM3">      0.00000000</i>
  </separator>
  <separator name="model GW" >
   <i type="int" name="MODEL_GW">     0</i>
   <i name="MODEL_EPS0">      6.34402578</i>
   <i name="MODEL_ALPHA">      1.00000000</i>
  </separator>
  <separator name="linear response parameters" >
   <i type="logical" name="LEPSILON"> F  </i>
   <i type="logical" name="LRPA"> F  </i>
   <i type="logical" name="LNABLA"> F  </i>
   <i type="logical" name="LVEL"> F  </i>
   <i name="CSHIFT">      0.10000000</i>
   <i name="OMEGAMAX">     -1.00000000</i>
   <i name="DEG_THRESHOLD">      0.00200000</i>
   <i name="RTIME">     -0.10000000</i>
   <i name="WPLASMAI">      0.00000000</i>
   <v name="DFIELD">      0.00000000      0.00000000      0.00000000</v>
   <v name="WPLASMA">      0.00000000      0.00000000      0.00000000      0.00000000      0.00000000      0.00000000      0.00000000      0.00000000      0.00000000</v>
  </separator>
  <separator name="orbital magnetization" >
   <i type="logical" name="NUCIND"> F  </i>
   <v name="MAGPOS">      0.00000000      0.00000000      0.00000000</v>
   <i type="logical" name="LNICSALL"> T  </i>
   <i type="logical" name="ORBITALMAG"> F  </i>
   <i type="logical" name="LMAGBLOCH"> F  </i>
   <i type="logical" name="LCHIMAG"> F  </i>
   <i type="logical" name="LGAUGE"> T  </i>
   <i type="int" name="MAGATOM">     0</i>
   <v name="MAGDIPOL">      0.00000000      0.00000000      0.00000000</v>
   <v name="AVECCONST">      0.00000000      0.00000000      0.00000000</v>
  </separator>
  <separator name="response functions" >
   <i type="logical" name="LALL_IN_ONE"> F  </i>
   <i type="int" name="IALL_IN_ONE">    -1</i>
   <i type="int" name="NBANDS_WAVE">    -1</i>
   <i type="logical" name="LFINITE_TEMPERATURE"> F  </i>
   <i type="logical" name="LADDER"> F  </i>
   <i type="logical" name="LRPAFORCE"> F  </i>
   <i type="logical" name="LFXC"> F  </i>
   <i type="logical" name="LHARTREE"> T  </i>
   <i type="int" name="IBSE">     0</i>
   <v type="int" name="KPOINT">    -1     0     0     0</v>
   <i type="logical" name="LTCTC"> F  </i>
   <i type="logical" name="LTCTE"> F  </i>
   <i type="logical" name="LTETE"> F  </i>
   <i type="logical" name="LTRIPLET"> F  </i>
   <i type="logical" name="LFXCEPS"> F  </i>
   <i type="logical" name="LFXHEG"> F  </i>
   <i type="int" name="NATURALO">     2</i>
   <i type="logical" name="LHOLEGF"> F  </i>
   <i type="logical" name="L2ORDER"> F  </i>
   <i type="logical" name="LDMP1"> F  </i>
   <i type="logical" name="LMP2LT"> F  </i>
   <i type="logical" name="LSMP2LT"> F  </i>
   <i type="logical" name="LGWLF"> F  </i>
   <i name="ENCUTGW">     -1.60000002</i>
   <i name="ENCUTGWSOFT">     -1.60000002</i>
   <i name="ENCUTLF">     -1.00000000</i>
   <i type="logical" name="LESF_SPLINES"> F  </i>
   <i type="int" name="LMAXMP2">    -1</i>
   <i name="SCISSOR">      0.00000000</i>
   <i type="int" name="NOMEGA">     0</i>
   <i type="int" name="NOMEGAR">     0</i>
   <i type="int" name="NBANDSGW">    -1</i>
   <i type="int" name="NBANDSO">    -1</i>
   <i type="int" name="NBANDSV">    -1</i>
   <i type="int" name="NELMGW">     1</i>
   <i type="int" name="NELMHF">     1</i>
   <i type="int" name="DIM">     3</i>
   <i type="int" name="IESPILON">     4</i>
   <i type="int" name="ANTIRES">     0</i>
   <i name="OMEGAMAX">    -30.00000000</i>
   <i name="OMEGAMIN">    -30.00000000</i>
   <i name="OMEGATL">   -200.00000000</i>
   <i type="int" name="OMEGAGRID">     0</i>
   <i name="CSHIFT">     -0.10000000</i>
   <i type="logical" name="LSELFENERGY"> F  </i>
   <i type="logical" name="LSPECTRAL"> F  </i>
   <i type="logical" name="LSPECTRALGW"> F  </i>
   <i type="logical" name="LSINGLES"> F  </i>
   <i type="logical" name="LFERMIGW"> F  </i>
   <i type="logical" name="ODDONLYGW"> F  </i>
   <i type="logical" name="EVENONLYGW"> F  </i>
   <i type="int" name="NKREDLFX">     1</i>
   <i type="int" name="NKREDLFY">     1</i>
   <i type="int" name="NKREDLFZ">     1</i>
   <i type="int" name="MAXMEM">  2800</i>
   <i type="int" name="TELESCOPE">     0</i>
   <i type="int" name="NTAUPAR">    -1</i>
   <i type="int" name="NOMEGAPAR">    -1</i>
   <i name="DAMP_NEWTON">      0.80000001</i>
   <i name="LAMBDA">      1.00000000</i>
  </separator>
  <separator name="External order field" >
   <i name="OFIELD_KAPPA">      0.00000000</i>
   <v name="OFIELD_K">      0.00000000      0.00000000      0.00000000</v>
   <i name="OFIELD_Q6_NEAR">      0.00000000</i>
   <i name="OFIELD_Q6_FAR">      0.00000000</i>
   <i name="OFIELD_A">      0.00000000</i>
  </separator>
  <separator name="optional k-points parameters" >
   <i type="int" name="KPOINTS_OPT_MODE">     1</i>
   <i type="logical" name="LKPOINTS_OPT"> F  </i>
  </separator>
 </parameters>
 <atominfo>
  <atoms>     120 </atoms>
  <types>       3 </types>
  <array name="atoms" >
   <dimension dim="1">ion</dimension>
   <field type="string">element</field>
   <field type="int">atomtype</field>
   <set>
    <rc><c>Ga</c><c>   1</c></rc>
    <rc><c>Ga</c><c>   1</c></rc>
    <rc><c>Ga</c><c>   1</c></rc>
    <rc><c>Ga</c><c>   1</c></rc>
    <rc><c>Ga</c><c>   1</c></rc>
    <rc><c>Ga</c><c>   1</c></rc>
    <rc><c>Ga</c><c>   1</c></rc>
    <rc><c>Ga</c><c>   1</c></rc>
    <rc><c>Ga</c><c>   1</c></rc>
    <rc><c>Ga</c><c>   1</c></rc>
    <rc><c>Ga</c><c>   1</c></rc>
    <rc><c>Ga</c><c>   1</c></rc>
    <rc><c>Ga</c><c>   1</c></rc>
    <rc><c>Ga</c><c>   1</c></rc>
    <rc><c>Ga</c><c>   1</c></rc>
    <rc><c>Ga</c><c>   1</c></rc>
    <rc><c>Ga</c><c>   1</c></rc>
    <rc><c>Ga</c><c>   1</c></rc>
    <rc><c>Ga</c><c>   1</c></rc>
    <rc><c>Ga</c><c>   1</c></rc>
    <rc><c>Ga</c><c>   1</c></rc>
    <rc><c>Ga</c><c>   1</c></rc>
    <rc><c>Ga</c><c>   1</c></rc>
    <rc><c>Ga</c><c>   1</c></rc>
    <rc><c>Ga</c><c>   1</c></rc>
    <rc><c>Ga</c><c>   1</c></rc>
    <rc><c>Ga</c><c>   1</c></rc>
    <rc><c>Ga</c><c>   1</c></rc>
    <rc><c>Ga</c><c>   1</c></rc>
    <rc><c>Ga</c><c>   1</c></rc>
    <rc><c>Ga</c><c>   1</c></rc>
    <rc><c>Ga</c><c>   1</c></rc>
    <rc><c>Ga</c><c>   1</c></rc>
    <rc><c>Ga</c><c>   1</c></rc>
    <rc><c>Ga</c><c>   1</c></rc>
    <rc><c>Ga</c><c>   1</c></rc>
    <rc><c>Ga</c><c>   1</c></rc>
    <rc><c>Ga</c><c>   1</c></rc>
    <rc><c>Ga</c><c>   1</c></rc>
    <rc><c>Ga</c><c>   1</c></rc>
    <rc><c>Ga</c><c>   1</c></rc>
    <rc><c>Ga</c><c>   1</c></rc>
    <rc><c>Ga</c><c>   1</c></rc>
    <rc><c>Ga</c><c>   1</c></rc>
    <rc><c>Ga</c><c>   1</c></rc>
    <rc><c>Ga</c><c>   1</c></rc>
    <rc><c>Ga</c><c>   1</c></rc>
    <rc><c>Ga</c><c>   1</c></rc>
    <rc><c>O </c><c>   2</c></rc>
    <rc><c>O </c><c>   2</c></rc>
    <rc><c>O </c><c>   2</c></rc>
    <rc><c>O </c><c>   2</c></rc>
    <rc><c>O </c><c>   2</c></rc>
    <rc><c>O </c><c>   2</c></rc>
    <rc><c>O </c><c>   2</c></rc>
    <rc><c>O </c><c>   2</c></rc>
    <rc><c>O </c><c>   2</c></rc>
    <rc><c>O </c><c>   2</c></rc>
    <rc><c>O </c><c>   2</c></rc>
    <rc><c>O </c><c>   2</c></rc>
    <rc><c>O </c><c>   2</c></rc>
    <rc><c>O </c><c>   2</c></rc>
    <rc><c>O </c><c>   2</c></rc>
    <rc><c>O </c><c>   2</c></rc>
    <rc><c>O </c><c>   2</c></rc>
    <rc><c>O </c><c>   2</c></rc>
    <rc><c>O </c><c>   2</c></rc>
    <rc><c>O </c><c>   2</c></rc>
    <rc><c>O </c><c>   2</c></rc>
    <rc><c>O </c><c>   2</c></rc>
    <rc><c>O </c><c>   2</c></rc>
    <rc><c>O </c><c>   2</c></rc>
    <rc><c>O </c><c>   2</c></rc>
    <rc><c>O </c><c>   2</c></rc>
    <rc><c>O </c><c>   2</c></rc>
    <rc><c>O </c><c>   2</c></rc>
    <rc><c>O </c><c>   2</c></rc>
    <rc><c>O </c><c>   2</c></rc>
    <rc><c>O </c><c>   2</c></rc>
    <rc><c>O </c><c>   2</c></rc>
    <rc><c>O </c><c>   2</c></rc>
    <rc><c>O </c><c>   2</c></rc>
    <rc><c>O </c><c>   2</c></rc>
    <rc><c>O </c><c>   2</c></rc>
    <rc><c>O </c><c>   2</c></rc>
    <rc><c>O </c><c>   2</c></rc>
    <rc><c>O </c><c>   2</c></rc>
    <rc><c>O </c><c>   2</c></rc>
    <rc><c>O </c><c>   2</c></rc>
    <rc><c>O </c><c>   2</c></rc>
    <rc><c>O </c><c>   2</c></rc>
    <rc><c>O </c><c>   2</c></rc>
    <rc><c>O </c><c>   2</c></rc>
    <rc><c>O </c><c>   2</c></rc>
    <rc><c>O </c><c>   2</c></rc>
    <rc><c>O </c><c>   2</c></rc>
    <rc><c>O </c><c>   2</c></rc>
    <rc><c>O </c><c>   2</c></rc>
    <rc><c>O </c><c>   2</c></rc>
    <rc><c>O </c><c>   2</c></rc>
    <rc><c>O </c><c>   2</c></rc>
    <rc><c>O </c><c>   2</c></rc>
    <rc><c>O </c><c>   2</c></rc>
    <rc><c>O </c><c>   2</c></rc>
    <rc><c>O </c><c>   2</c></rc>
    <rc><c>O </c><c>   2</c></rc>
    <rc><c>O </c><c>   2</c></rc>
    <rc><c>O </c><c>   2</c></rc>
    <rc><c>O </c><c>   2</c></rc>
    <rc><c>O </c><c>   2</c></rc>
    <rc><c>O </c><c>   2</c></rc>
    <rc><c>O </c><c>   2</c></rc>
    <rc><c>O </c><c>   2</c></rc>
    <rc><c>O </c><c>   2</c></rc>
    <rc><c>O </c><c>   2</c></rc>
    <rc><c>O </c><c>   2</c></rc>
    <rc><c>O </c><c>   2</c></rc>
    <rc><c>O </c><c>   2</c></rc>
    <rc><c>O </c><c>   2</c></rc>
    <rc><c>N </c><c>   3</c></rc>
   </set>
  </array>
  <array name="atomtypes" >
   <dimension dim="1">type</dimension>
   <field type="int">atomspertype</field>
   <field type="string">element</field>
   <field>mass</field>
   <field>valence</field>
   <field type="string">pseudopotential</field>
   <set>
    <rc><c>  48</c><c>Ga</c><c>     69.72300000</c><c>     13.00000000</c><c>  PAW_PBE Ga_d 06Jul2010                </c></rc>
    <rc><c>  71</c><c>O </c><c>     16.00000000</c><c>      6.00000000</c><c>  PAW_PBE O 08Apr2002                   </c></rc>
    <rc><c>   1</c><c>N </c><c>     14.00100000</c><c>      5.00000000</c><c>  PAW_PBE N 08Apr2002                   </c></rc>
   </set>
  </array>
 </atominfo>
 <structure name="initialpos" >
  <crystal>
   <varray name="basis" >
    <v>       0.00000000      12.28047342       0.00000000 </v>
    <v>       9.14270205       0.00000000       0.00000000 </v>
    <v>       0.00000000      -2.76826177     -11.30069772 </v>
   </varray>
   <i name="volume">   1268.80515525 </i>
   <varray name="rec_basis" >
    <v>       0.00000000       0.08143009      -0.01994742 </v>
    <v>       0.10937686      -0.00000000       0.00000000 </v>
    <v>       0.00000000       0.00000000      -0.08849011 </v>
   </varray>
  </crystal>
  <varray name="positions" >
   <v>       0.65841153       0.99936839       0.15594726 </v>
   <v>       0.65924052       0.99988245       0.65685037 </v>
   <v>       0.65841153       0.33396494       0.15594726 </v>
   <v>       0.65924052       0.33345088       0.65685037 </v>
   <v>       0.65867212       0.66666667       0.15627204 </v>
   <v>       0.65942154       0.66666667       0.65696699 </v>
   <v>       0.83915821       0.16666667       0.34358410 </v>
   <v>       0.84109925       0.16666667       0.84319846 </v>
   <v>       0.84069420       0.50049232       0.34287143 </v>
   <v>       0.84163294       0.50012640       0.84381130 </v>
   <v>       0.84069420       0.83284101       0.34287143 </v>
   <v>       0.84163294       0.83320694       0.84381130 </v>
   <v>       0.59154307       0.16666667       0.39787937 </v>
   <v>       0.59077746       0.16666667       0.89752085 </v>
   <v>       0.59173254       0.50013887       0.39780198 </v>
   <v>       0.59049925       0.50013675       0.89708038 </v>
   <v>       0.59173254       0.83319447       0.39780198 </v>
   <v>       0.59049925       0.83319658       0.89708038 </v>
   <v>       0.90855874       0.99879970       0.10373790 </v>
   <v>       0.90774455       0.99907033       0.60111480 </v>
   <v>       0.90855874       0.33453363       0.10373790 </v>
   <v>       0.90774455       0.33426300       0.60111480 </v>
   <v>       0.90943629       0.66666667       0.10297831 </v>
   <v>       0.90876544       0.66666667       0.60187610 </v>
   <v>       0.16083122       0.16666667       0.15874508 </v>
   <v>       0.15992701       0.16666667       0.65514882 </v>
   <v>       0.15972128       0.50006066       0.15731777 </v>
   <v>       0.15898134       0.50005007       0.65621686 </v>
   <v>       0.15972128       0.83327267       0.15731777 </v>
   <v>       0.15898134       0.83328326       0.65621686 </v>
   <v>       0.34188542       0.99958715       0.34401728 </v>
   <v>       0.34068231       0.00002627       0.84304672 </v>
   <v>       0.34188542       0.33374618       0.34401728 </v>
   <v>       0.34068231       0.33330706       0.84304672 </v>
   <v>       0.34178095       0.66666667       0.34354144 </v>
   <v>       0.34048515       0.66666667       0.84328594 </v>
   <v>       0.09009222       0.99994989       0.39685224 </v>
   <v>       0.09143830       0.99982263       0.89748689 </v>
   <v>       0.09009222       0.33338344       0.39685224 </v>
   <v>       0.09143830       0.33351070       0.89748689 </v>
   <v>       0.09154335       0.66666667       0.39777827 </v>
   <v>       0.09144461       0.66666667       0.89788478 </v>
   <v>       0.40893800       0.16666667       0.10203667 </v>
   <v>       0.40955747       0.16666667       0.60250534 </v>
   <v>       0.40890129       0.50007993       0.10204512 </v>
   <v>       0.40922825       0.50013447       0.60279652 </v>
   <v>       0.40890129       0.83325340       0.10204512 </v>
   <v>       0.40922825       0.83319887       0.60279652 </v>
   <v>       0.99661113       0.16666667       0.13759535 </v>
   <v>       0.99567463       0.16666667       0.62038228 </v>
   <v>       0.99693515       0.50009825       0.12778757 </v>
   <v>       0.99621543       0.49986548       0.62697037 </v>
   <v>       0.99693515       0.83323508       0.12778757 </v>
   <v>       0.99621543       0.83346785       0.62697037 </v>
   <v>       0.50431531       0.99994345       0.37306041 </v>
   <v>       0.50329978       0.00007566       0.87259284 </v>
   <v>       0.50431531       0.33338988       0.37306041 </v>
   <v>       0.50329978       0.33325767       0.87259284 </v>
   <v>       0.50417299       0.66666667       0.37321175 </v>
   <v>       0.50299146       0.66666667       0.87215667 </v>
   <v>       0.67227387       0.16666667       0.27997742 </v>
   <v>       0.67303230       0.16666667       0.78099002 </v>
   <v>       0.67163823       0.50081811       0.27964334 </v>
   <v>       0.67331733       0.49964802       0.78109064 </v>
   <v>       0.67163823       0.83251523       0.27964334 </v>
   <v>       0.67331733       0.83368531       0.78109064 </v>
   <v>       0.82518217       0.99695601       0.21820392 </v>
   <v>       0.82809448       0.00030552       0.71983635 </v>
   <v>       0.82518217       0.33637733       0.21820392 </v>
   <v>       0.82809448       0.33302781       0.71983635 </v>
   <v>       0.82710545       0.66666667       0.21914886 </v>
   <v>       0.82788916       0.66666667       0.71979768 </v>
   <v>       0.82804288       0.99793736       0.44570647 </v>
   <v>       0.83436599       0.00067285       0.94658977 </v>
   <v>       0.82804288       0.33539597       0.44570647 </v>
   <v>       0.83436599       0.33266049       0.94658977 </v>
   <v>       0.83100963       0.66666667       0.44563369 </v>
   <v>       0.83294907       0.66666667       0.94621605 </v>
   <v>       0.66764910       0.16666667       0.05391916 </v>
   <v>       0.66801223       0.16666667       0.55471477 </v>
   <v>       0.66725028       0.50036980       0.05334289 </v>
   <v>       0.66792078       0.50009462       0.55473330 </v>
   <v>       0.66725028       0.83296354       0.05334289 </v>
   <v>       0.66792078       0.83323872       0.55473330 </v>
   <v>       0.49614194       0.00002054       0.12677424 </v>
   <v>       0.49676815       0.99986822       0.62797927 </v>
   <v>       0.49614194       0.33331280       0.12677424 </v>
   <v>       0.49676815       0.33346511       0.62797927 </v>
   <v>       0.49602808       0.66666667       0.12626531 </v>
   <v>       0.49686326       0.66666667       0.62827312 </v>
   <v>       0.00388407       0.16666667       0.87238772 </v>
   <v>       0.00342649       0.50149442       0.37314147 </v>
   <v>       0.00406290       0.50006400       0.87267721 </v>
   <v>       0.00342649       0.83183891       0.37314147 </v>
   <v>       0.00406290       0.83326933       0.87267721 </v>
   <v>       0.17431805       0.99842954       0.28083415 </v>
   <v>       0.17200015       0.00062916       0.77965997 </v>
   <v>       0.17431805       0.33490379       0.28083415 </v>
   <v>       0.17200015       0.33270417       0.77965997 </v>
   <v>       0.17338056       0.66666667       0.28082628 </v>
   <v>       0.17227266       0.66666667       0.78018328 </v>
   <v>       0.32837292       0.16666667       0.21982223 </v>
   <v>       0.32775931       0.16666667       0.71946064 </v>
   <v>       0.32817604       0.50015934       0.21955162 </v>
   <v>       0.32753489       0.49991262       0.71983058 </v>
   <v>       0.32817604       0.83317399       0.21955162 </v>
   <v>       0.32753489       0.83342071       0.71983058 </v>
   <v>       0.33334012       0.16666667       0.44594935 </v>
   <v>       0.33155580       0.16666667       0.94556760 </v>
   <v>       0.33323698       0.50035796       0.44616078 </v>
   <v>       0.33125242       0.49968482       0.94561506 </v>
   <v>       0.33323698       0.83297537       0.44616078 </v>
   <v>       0.33125242       0.83364851       0.94561506 </v>
   <v>       0.16638853       0.00093484       0.05458800 </v>
   <v>       0.16918229       0.99895162       0.55392015 </v>
   <v>       0.16638853       0.33239849       0.05458800 </v>
   <v>       0.16918229       0.33438172       0.55392015 </v>
   <v>       0.16813647       0.66666667       0.05447995 </v>
   <v>       0.16848598       0.66666667       0.55443366 </v>
   <v>       0.00014599       0.16666667       0.36883432 </v>
  </varray>
 </structure>
 <calculation>
  <scstep>
   <time name="total">    4.07    4.08</time>
   <energy>
    <i name="alphaZ">   5530.94812622 </i>
    <i name="ewald"> -88767.74176337 </i>
    <i name="hartreedc">  -2110.47737191 </i>
    <i name="XCdc">   2801.99420178 </i>
    <i name="pawpsdc">  59853.63315401 </i>
    <i name="pawaedc"> -91655.36873912 </i>
    <i name="eentropy">     -0.00709698 </i>
    <i name="bandstr"> -40733.27809578 </i>
    <i name="atom"> 133692.73004162 </i>
    <i name="e_fr_energy"> -21387.56754352 </i>
    <i name="e_wo_entrp"> -21387.56044654 </i>
    <i name="e_0_energy"> -21387.56399503 </i>
   </energy>
  </scstep>
  <scstep>
   <time name="total">    3.20    3.20</time>
   <energy>
    <i name="e_fr_energy"> -65459.12920560 </i>
    <i name="e_wo_entrp"> -65459.11426054 </i>
    <i name="e_0_energy"> -65459.12173307 </i>
   </energy>
  </scstep>
  <scstep>
   <time name="total">    3.34    3.34</time>
   <energy>
    <i name="e_fr_energy"> -70008.55584477 </i>
    <i name="e_wo_entrp"> -70008.51474369 </i>
    <i name="e_0_energy"> -70008.53529423 </i>
   </energy>
  </scstep>
  <scstep>
   <time name="total">    3.68    3.67</time>
   <energy>
    <i name="e_fr_energy"> -70540.04768678 </i>
    <i name="e_wo_entrp"> -70539.99377292 </i>
    <i name="e_0_energy"> -70540.02072985 </i>
   </energy>
  </scstep>
  <scstep>
   <time name="total">  236.30  236.27</time>
   <energy>
    <i name="e_fr_energy"> -37543.72314119 </i>
    <i name="e_wo_entrp"> -37543.69565761 </i>
    <i name="e_0_energy"> -37543.70939940 </i>
   </energy>
  </scstep>
  <scstep>
   <time name="total">  469.98  469.97</time>
   <energy>
    <i name="e_fr_energy">  19151.25688985 </i>
    <i name="e_wo_entrp">  19151.28254381 </i>
    <i name="e_0_energy">  19151.26971683 </i>
   </energy>
  </scstep>
  <scstep>
   <time name="total">  471.41  471.51</time>
   <energy>
    <i name="e_fr_energy">   4926.45164483 </i>
    <i name="e_wo_entrp">   4926.47446022 </i>
    <i name="e_0_energy">   4926.46305253 </i>
   </energy>
  </scstep>
  <scstep>
   <time name="total">  471.73  471.73</time>
   <energy>
    <i name="e_fr_energy">   1020.91841216 </i>
    <i name="e_wo_entrp">   1020.94573587 </i>
    <i name="e_0_energy">   1020.93207402 </i>
   </energy>
  </scstep>
  <scstep>
   <time name="total">  469.67  469.68</time>
   <energy>
    <i name="e_fr_energy">    146.66852158 </i>
    <i name="e_wo_entrp">    146.70574084 </i>
    <i name="e_0_energy">    146.68713121 </i>
   </energy>
  </scstep>
  <scstep>
   <time name="total">  469.89  469.86</time>
   <energy>
    <i name="e_fr_energy">   -294.89416360 </i>
    <i name="e_wo_entrp">   -294.88279421 </i>
    <i name="e_0_energy">   -294.88847891 </i>
   </energy>
  </scstep>
  <scstep>
   <time name="total">  469.03  469.02</time>
   <energy>
    <i name="e_fr_energy">   -542.84736585 </i>
    <i name="e_wo_entrp">   -542.84063830 </i>
    <i name="e_0_energy">   -542.84400208 </i>
   </energy>
  </scstep>
  <scstep>
   <time name="total">  468.51  468.50</time>
   <energy>
    <i name="e_fr_energy">   -776.54357088 </i>
    <i name="e_wo_entrp">   -776.53742977 </i>
    <i name="e_0_energy">   -776.54050033 </i>
   </energy>
  </scstep>
  <scstep>
   <time name="total">  468.71  468.71</time>
   <energy>
    <i name="e_fr_energy">   -882.74037141 </i>
    <i name="e_wo_entrp">   -882.74024958 </i>
    <i name="e_0_energy">   -882.74031050 </i>
   </energy>
  </scstep>
  <scstep>
   <time name="total">  468.26  468.25</time>
   <energy>
    <i name="e_fr_energy">   -938.25609928 </i>
    <i name="e_wo_entrp">   -938.25609493 </i>
    <i name="e_0_energy">   -938.25609711 </i>
   </energy>
  </scstep>
  <scstep>
   <time name="total">  468.37  468.30</time>
   <energy>
    <i name="e_fr_energy">   -963.21622686 </i>
    <i name="e_wo_entrp">   -963.21365014 </i>
    <i name="e_0_energy">   -963.21493850 </i>
   </energy>
  </scstep>
  <scstep>
   <time name="total">  468.27  468.19</time>
   <energy>
    <i name="e_fr_energy">   -975.73747355 </i>
    <i name="e_wo_entrp">   -975.73747280 </i>
    <i name="e_0_energy">   -975.73747317 </i>
   </energy>
  </scstep>
  <scstep>
   <time name="total">  468.57  468.48</time>
   <energy>
    <i name="e_fr_energy">   -980.94552976 </i>
    <i name="e_wo_entrp">   -980.94552715 </i>
    <i name="e_0_energy">   -980.94552846 </i>
   </energy>
  </scstep>
  <scstep>
   <time name="total">  468.29  468.21</time>
   <energy>
    <i name="e_fr_energy">   -983.55426116 </i>
    <i name="e_wo_entrp">   -983.55420319 </i>
    <i name="e_0_energy">   -983.55423217 </i>
   </energy>
  </scstep>
  <scstep>
   <time name="total">  468.73  468.64</time>
   <energy>
    <i name="e_fr_energy">   -984.96494750 </i>
    <i name="e_wo_entrp">   -984.96412564 </i>
    <i name="e_0_energy">   -984.96453657 </i>
   </energy>
  </scstep>
  <scstep>
   <time name="total">  468.56  468.48</time>
   <energy>
    <i name="e_fr_energy">   -985.67704166 </i>
    <i name="e_wo_entrp">   -985.67176269 </i>
    <i name="e_0_energy">   -985.67440218 </i>
   </energy>
  </scstep>
  <scstep>
   <time name="total">  468.62  468.52</time>
   <energy>
    <i name="e_fr_energy">   -986.05139091 </i>
    <i name="e_wo_entrp">   -986.03487704 </i>
    <i name="e_0_energy">   -986.04313397 </i>
   </energy>
  </scstep>
  <scstep>
   <time name="total">  469.05  468.97</time>
   <energy>
    <i name="e_fr_energy">   -986.23976639 </i>
    <i name="e_wo_entrp">   -986.21450446 </i>
    <i name="e_0_energy">   -986.22713543 </i>
   </energy>
  </scstep>
  <scstep>
   <time name="total">  469.01  468.93</time>
   <energy>
    <i name="e_fr_energy">   -986.33633464 </i>
    <i name="e_wo_entrp">   -986.31170871 </i>
    <i name="e_0_energy">   -986.32402167 </i>
   </energy>
  </scstep>
  <scstep>
   <time name="total">  468.82  468.73</time>
   <energy>
    <i name="e_fr_energy">   -986.38369898 </i>
    <i name="e_wo_entrp">   -986.36038686 </i>
    <i name="e_0_energy">   -986.37204292 </i>
   </energy>
  </scstep>
  <scstep>
   <time name="total">  468.76  468.66</time>
   <energy>
    <i name="e_fr_energy">   -986.40989940 </i>
    <i name="e_wo_entrp">   -986.38715581 </i>
    <i name="e_0_energy">   -986.39852761 </i>
   </energy>
  </scstep>
  <scstep>
   <time name="total">  468.58  468.49</time>
   <energy>
    <i name="e_fr_energy">   -986.42426255 </i>
    <i name="e_wo_entrp">   -986.40160975 </i>
    <i name="e_0_energy">   -986.41293615 </i>
   </energy>
  </scstep>
  <scstep>
   <time name="total">  468.76  468.67</time>
   <energy>
    <i name="e_fr_energy">   -986.43196240 </i>
    <i name="e_wo_entrp">   -986.40912312 </i>
    <i name="e_0_energy">   -986.42054276 </i>
   </energy>
  </scstep>
  <scstep>
   <time name="total">  468.92  468.82</time>
   <energy>
    <i name="e_fr_energy">   -986.43643654 </i>
    <i name="e_wo_entrp">   -986.41334245 </i>
    <i name="e_0_energy">   -986.42488949 </i>
   </energy>
  </scstep>
  <scstep>
   <time name="total">  468.65  468.57</time>
   <energy>
    <i name="e_fr_energy">   -986.43906486 </i>
    <i name="e_wo_entrp">   -986.41582471 </i>
    <i name="e_0_energy">   -986.42744479 </i>
   </energy>
  </scstep>
  <scstep>
   <time name="total">  468.78  468.70</time>
   <energy>
    <i name="e_fr_energy">   -986.44061045 </i>
    <i name="e_wo_entrp">   -986.41736613 </i>
    <i name="e_0_energy">   -986.42898829 </i>
   </energy>
  </scstep>
  <scstep>
   <time name="total">  468.83  468.73</time>
   <energy>
    <i name="e_fr_energy">   -986.44154910 </i>
    <i name="e_wo_entrp">   -986.41834404 </i>
    <i name="e_0_energy">   -986.42994657 </i>
   </energy>
  </scstep>
  <scstep>
   <time name="total">  468.90  468.81</time>
   <energy>
    <i name="e_fr_energy">   -986.44206077 </i>
    <i name="e_wo_entrp">   -986.41886134 </i>
    <i name="e_0_energy">   -986.43046106 </i>
   </energy>
  </scstep>
  <scstep>
   <time name="total">  468.97  468.88</time>
   <energy>
    <i name="e_fr_energy">   -986.44233216 </i>
    <i name="e_wo_entrp">   -986.41909640 </i>
    <i name="e_0_energy">   -986.43071428 </i>
   </energy>
  </scstep>
  <scstep>
   <time name="total">  468.62  468.54</time>
   <energy>
    <i name="e_fr_energy">   -986.44248841 </i>
    <i name="e_wo_entrp">   -986.41919633 </i>
    <i name="e_0_energy">   -986.43084237 </i>
   </energy>
  </scstep>
  <scstep>
   <time name="total">  468.79  468.70</time>
   <energy>
    <i name="e_fr_energy">   -986.44257704 </i>
    <i name="e_wo_entrp">   -986.41923048 </i>
    <i name="e_0_energy">   -986.43090376 </i>
   </energy>
  </scstep>
  <scstep>
   <time name="total">  468.91  468.81</time>
   <energy>
    <i name="e_fr_energy">   -986.44262812 </i>
    <i name="e_wo_entrp">   -986.41923841 </i>
    <i name="e_0_energy">   -986.43093327 </i>
   </energy>
  </scstep>
  <scstep>
   <time name="total">  468.80  468.70</time>
   <energy>
    <i name="e_fr_energy">   -986.44265974 </i>
    <i name="e_wo_entrp">   -986.41926279 </i>
    <i name="e_0_energy">   -986.43096127 </i>
   </energy>
  </scstep>
  <scstep>
   <time name="total">  468.79  468.70</time>
   <energy>
    <i name="e_fr_energy">   -986.44268957 </i>
    <i name="e_wo_entrp">   -986.41928242 </i>
    <i name="e_0_energy">   -986.43098599 </i>
   </energy>
  </scstep>
  <scstep>
   <time name="total">  698.85  698.70</time>
   <energy>
    <i name="alphaZ">   5530.94812622 </i>
    <i name="ewald"> -88767.74176337 </i>
    <i name="hartreedc"> -33844.33309945 </i>
    <i name="XCdc">   2794.11217770 </i>
    <i name="pawpsdc"> 121512.07731851 </i>
    <i name="pawaedc">-137008.98994302 </i>
    <i name="eentropy">     -0.02341360 </i>
    <i name="bandstr">  -9205.24458681 </i>
    <i name="atom"> 133692.73004162 </i>
    <i name="e_fr_energy">   -986.44269913 </i>
    <i name="e_wo_entrp">   -986.41928553 </i>
    <i name="e_0_energy">   -986.43099233 </i>
   </energy>
  </scstep>
  <structure>
   <crystal>
    <varray name="basis" >
     <v>       0.00000000      12.28047342       0.00000000 </v>
     <v>       9.14270205       0.00000000       0.00000000 </v>
     <v>       0.00000000      -2.76826177     -11.30069772 </v>
    </varray>
    <i name="volume">   1268.80515525 </i>
    <varray name="rec_basis" >
     <v>       0.00000000       0.08143009      -0.01994742 </v>
     <v>       0.10937686      -0.00000000       0.00000000 </v>
     <v>       0.00000000       0.00000000      -0.08849011 </v>
    </varray>
   </crystal>
   <varray name="positions" >
    <v>       0.65841153       0.99936839       0.15594726 </v>
    <v>       0.65924052       0.99988245       0.65685037 </v>
    <v>       0.65841153       0.33396494       0.15594726 </v>
    <v>       0.65924052       0.33345088       0.65685037 </v>
    <v>       0.65867212       0.66666667       0.15627204 </v>
    <v>       0.65942154       0.66666667       0.65696699 </v>
    <v>       0.83915821       0.16666667       0.34358410 </v>
    <v>       0.84109925       0.16666667       0.84319846 </v>
    <v>       0.84069420       0.50049232       0.34287143 </v>
    <v>       0.84163294       0.50012640       0.84381130 </v>
    <v>       0.84069420       0.83284101       0.34287143 </v>
    <v>       0.84163294       0.83320694       0.84381130 </v>
    <v>       0.59154307       0.16666667       0.39787937 </v>
    <v>       0.59077746       0.16666667       0.89752085 </v>
    <v>       0.59173254       0.50013887       0.39780198 </v>
    <v>       0.59049925       0.50013675       0.89708038 </v>
    <v>       0.59173254       0.83319447       0.39780198 </v>
    <v>       0.59049925       0.83319658       0.89708038 </v>
    <v>       0.90855874       0.99879970       0.10373790 </v>
    <v>       0.90774455       0.99907033       0.60111480 </v>
    <v>       0.90855874       0.33453363       0.10373790 </v>
    <v>       0.90774455       0.33426300       0.60111480 </v>
    <v>       0.90943629       0.66666667       0.10297831 </v>
    <v>       0.90876544       0.66666667       0.60187610 </v>
    <v>       0.16083122       0.16666667       0.15874508 </v>
    <v>       0.15992701       0.16666667       0.65514882 </v>
    <v>       0.15972128       0.50006066       0.15731777 </v>
    <v>       0.15898134       0.50005007       0.65621686 </v>
    <v>       0.15972128       0.83327267       0.15731777 </v>
    <v>       0.15898134       0.83328326       0.65621686 </v>
    <v>       0.34188542       0.99958715       0.34401728 </v>
    <v>       0.34068231       0.00002627       0.84304672 </v>
    <v>       0.34188542       0.33374618       0.34401728 </v>
    <v>       0.34068231       0.33330706       0.84304672 </v>
    <v>       0.34178095       0.66666667       0.34354144 </v>
    <v>       0.34048515       0.66666667       0.84328594 </v>
    <v>       0.09009222       0.99994989       0.39685224 </v>
    <v>       0.09143830       0.99982263       0.89748689 </v>
    <v>       0.09009222       0.33338344       0.39685224 </v>
    <v>       0.09143830       0.33351070       0.89748689 </v>
    <v>       0.09154335       0.66666667       0.39777827 </v>
    <v>       0.09144461       0.66666667       0.89788478 </v>
    <v>       0.40893800       0.16666667       0.10203667 </v>
    <v>       0.40955747       0.16666667       0.60250534 </v>
    <v>       0.40890129       0.50007993       0.10204512 </v>
    <v>       0.40922825       0.50013447       0.60279652 </v>
    <v>       0.40890129       0.83325340       0.10204512 </v>
    <v>       0.40922825       0.83319887       0.60279652 </v>
    <v>       0.99661113       0.16666667       0.13759535 </v>
    <v>       0.99567463       0.16666667       0.62038228 </v>
    <v>       0.99693515       0.50009825       0.12778757 </v>
    <v>       0.99621543       0.49986548       0.62697037 </v>
    <v>       0.99693515       0.83323508       0.12778757 </v>
    <v>       0.99621543       0.83346785       0.62697037 </v>
    <v>       0.50431531       0.99994345       0.37306041 </v>
    <v>       0.50329978       0.00007566       0.87259284 </v>
    <v>       0.50431531       0.33338988       0.37306041 </v>
    <v>       0.50329978       0.33325767       0.87259284 </v>
    <v>       0.50417299       0.66666667       0.37321175 </v>
    <v>       0.50299146       0.66666667       0.87215667 </v>
    <v>       0.67227387       0.16666667       0.27997742 </v>
    <v>       0.67303230       0.16666667       0.78099002 </v>
    <v>       0.67163823       0.50081811       0.27964334 </v>
    <v>       0.67331733       0.49964802       0.78109064 </v>
    <v>       0.67163823       0.83251523       0.27964334 </v>
    <v>       0.67331733       0.83368531       0.78109064 </v>
    <v>       0.82518217       0.99695601       0.21820392 </v>
    <v>       0.82809448       0.00030552       0.71983635 </v>
    <v>       0.82518217       0.33637733       0.21820392 </v>
    <v>       0.82809448       0.33302781       0.71983635 </v>
    <v>       0.82710545       0.66666667       0.21914886 </v>
    <v>       0.82788916       0.66666667       0.71979768 </v>
    <v>       0.82804288       0.99793736       0.44570647 </v>
    <v>       0.83436599       0.00067285       0.94658977 </v>
    <v>       0.82804288       0.33539597       0.44570647 </v>
    <v>       0.83436599       0.33266049       0.94658977 </v>
    <v>       0.83100963       0.66666667       0.44563369 </v>
    <v>       0.83294907       0.66666667       0.94621605 </v>
    <v>       0.66764910       0.16666667       0.05391916 </v>
    <v>       0.66801223       0.16666667       0.55471477 </v>
    <v>       0.66725028       0.50036980       0.05334289 </v>
    <v>       0.66792078       0.50009462       0.55473330 </v>
    <v>       0.66725028       0.83296354       0.05334289 </v>
    <v>       0.66792078       0.83323872       0.55473330 </v>
    <v>       0.49614194       0.00002054       0.12677424 </v>
    <v>       0.49676815       0.99986822       0.62797927 </v>
    <v>       0.49614194       0.33331280       0.12677424 </v>
    <v>       0.49676815       0.33346511       0.62797927 </v>
    <v>       0.49602808       0.66666667       0.12626531 </v>
    <v>       0.49686326       0.66666667       0.62827312 </v>
    <v>       0.00388407       0.16666667       0.87238772 </v>
    <v>       0.00342649       0.50149442       0.37314147 </v>
    <v>       0.00406290       0.50006400       0.87267721 </v>
    <v>       0.00342649       0.83183891       0.37314147 </v>
    <v>       0.00406290       0.83326933       0.87267721 </v>
    <v>       0.17431805       0.99842954       0.28083415 </v>
    <v>       0.17200015       0.00062916       0.77965997 </v>
    <v>       0.17431805       0.33490379       0.28083415 </v>
    <v>       0.17200015       0.33270417       0.77965997 </v>
    <v>       0.17338056       0.66666667       0.28082628 </v>
    <v>       0.17227266       0.66666667       0.78018328 </v>
    <v>       0.32837292       0.16666667       0.21982223 </v>
    <v>       0.32775931       0.16666667       0.71946064 </v>
    <v>       0.32817604       0.50015934       0.21955162 </v>
    <v>       0.32753489       0.49991262       0.71983058 </v>
    <v>       0.32817604       0.83317399       0.21955162 </v>
    <v>       0.32753489       0.83342071       0.71983058 </v>
    <v>       0.33334012       0.16666667       0.44594935 </v>
    <v>       0.33155580       0.16666667       0.94556760 </v>
    <v>       0.33323698       0.50035796       0.44616078 </v>
    <v>       0.33125242       0.49968482       0.94561506 </v>
    <v>       0.33323698       0.83297537       0.44616078 </v>
    <v>       0.33125242       0.83364851       0.94561506 </v>
    <v>       0.16638853       0.00093484       0.05458800 </v>
    <v>       0.16918229       0.99895162       0.55392015 </v>
    <v>       0.16638853       0.33239849       0.05458800 </v>
    <v>       0.16918229       0.33438172       0.55392015 </v>
    <v>       0.16813647       0.66666667       0.05447995 </v>
    <v>       0.16848598       0.66666667       0.55443366 </v>
    <v>       0.00014599       0.16666667       0.36883432 </v>
   </varray>
  </structure>
  <varray name="forces" >
   <v>      -0.00905780       0.07622690       0.01525810 </v>
   <v>       0.00120374       0.08499161       0.00321802 </v>
   <v>       0.00905780       0.07622690       0.01525810 </v>
   <v>      -0.00120374       0.08499161       0.00321802 </v>
   <v>       0.00000000       0.06259125       0.00836204 </v>
   <v>       0.00000000       0.08366226       0.01250821 </v>
   <v>       0.00000000      -0.45209710       0.05232734 </v>
   <v>       0.00000000      -0.02863864      -0.02794885 </v>
   <v>       0.00926192      -0.12605286       0.00902154 </v>
   <v>      -0.01083048      -0.06636764      -0.01476609 </v>
   <v>      -0.00926192      -0.12605286       0.00902154 </v>
   <v>       0.01083048      -0.06636764      -0.01476609 </v>
   <v>       0.00000000      -0.02764211       0.00824516 </v>
   <v>       0.00000000      -0.01712841       0.01194211 </v>
   <v>       0.00066827      -0.02624012       0.01508987 </v>
   <v>      -0.00196549      -0.01499284       0.00586697 </v>
   <v>      -0.00066827      -0.02624012       0.01508987 </v>
   <v>       0.00196549      -0.01499284       0.00586697 </v>
   <v>       0.03949345       0.05554146      -0.00070688 </v>
   <v>       0.02777364       0.02426756      -0.03738180 </v>
   <v>      -0.03949345       0.05554146      -0.00070688 </v>
   <v>      -0.02777364       0.02426756      -0.03738180 </v>
   <v>       0.00000000       0.02807581       0.00045510 </v>
   <v>       0.00000000       0.01553853      -0.03303195 </v>
   <v>       0.00000000       0.04844065       0.06491119 </v>
   <v>       0.00000000       0.04973895      -0.03744917 </v>
   <v>      -0.00486714       0.07355542       0.02802200 </v>
   <v>       0.00887415       0.07065179      -0.01402016 </v>
   <v>       0.00486714       0.07355542       0.02802200 </v>
   <v>      -0.00887415       0.07065179      -0.01402016 </v>
   <v>      -0.00803380      -0.05679716      -0.01421215 </v>
   <v>      -0.00056658      -0.07691076      -0.00886082 </v>
   <v>       0.00803380      -0.05679716      -0.01421215 </v>
   <v>       0.00056658      -0.07691076      -0.00886082 </v>
   <v>       0.00000000      -0.06219422      -0.01270157 </v>
   <v>       0.00000000      -0.07845200      -0.00363177 </v>
   <v>      -0.36951388       0.23571328      -0.04104080 </v>
   <v>       0.03971124      -0.06393275       0.01209496 </v>
   <v>       0.36951388       0.23571328      -0.04104080 </v>
   <v>      -0.03971124      -0.06393275       0.01209496 </v>
   <v>       0.00000000      -0.00763325       0.00831150 </v>
   <v>       0.00000000      -0.03565533       0.01826110 </v>
   <v>       0.00000000       0.02387003      -0.01060187 </v>
   <v>       0.00000000       0.03498961      -0.02532347 </v>
   <v>       0.00013496       0.02052722      -0.01334685 </v>
   <v>       0.00108397       0.03426833      -0.01722507 </v>
   <v>      -0.00013496       0.02052722      -0.01334685 </v>
   <v>      -0.00108397       0.03426833      -0.01722507 </v>
   <v>       0.00000000      -0.19422102       0.16984022 </v>
   <v>       0.00000000      -0.19658814       0.09175928 </v>
   <v>       0.00985908      -0.19821019       0.10878186 </v>
   <v>       0.00676981      -0.18336674       0.14587058 </v>
   <v>      -0.00985908      -0.19821019       0.10878186 </v>
   <v>      -0.00676981      -0.18336674       0.14587058 </v>
   <v>      -0.00030065       0.18061477      -0.12538249 </v>
   <v>      -0.00378143       0.17934128      -0.12336991 </v>
   <v>       0.00030065       0.18061477      -0.12538249 </v>
   <v>       0.00378143       0.17934128      -0.12336991 </v>
   <v>       0.00000000       0.18194780      -0.11964387 </v>
   <v>       0.00000000       0.17940348      -0.12589521 </v>
   <v>       0.00000000      -0.01834993      -0.14338698 </v>
   <v>       0.00000000      -0.04441305      -0.12261041 </v>
   <v>       0.00394785      -0.04256498      -0.12231581 </v>
   <v>       0.00339091      -0.04904127      -0.11956774 </v>
   <v>      -0.00394785      -0.04256498      -0.12231581 </v>
   <v>      -0.00339091      -0.04904127      -0.11956774 </v>
   <v>       0.01068849       0.05609350       0.09089381 </v>
   <v>      -0.00489394       0.03364238       0.13912471 </v>
   <v>      -0.01068849       0.05609350       0.09089381 </v>
   <v>       0.00489394       0.03364238       0.13912471 </v>
   <v>       0.00000000       0.05249301       0.10598765 </v>
   <v>       0.00000000       0.03873780       0.12737197 </v>
   <v>       0.03163425       0.50725943      -0.05856470 </v>
   <v>      -0.02056773       0.40074131      -0.08351884 </v>
   <v>      -0.03163425       0.50725943      -0.05856470 </v>
   <v>       0.02056773       0.40074131      -0.08351884 </v>
   <v>       0.00000000       0.45484936      -0.07386429 </v>
   <v>       0.00000000       0.43632275      -0.08209457 </v>
   <v>       0.00000000      -0.43585948       0.08389634 </v>
   <v>       0.00000000      -0.43460318       0.08036788 </v>
   <v>      -0.00164935      -0.43580624       0.07832181 </v>
   <v>       0.00228528      -0.42929769       0.07667233 </v>
   <v>       0.00164935      -0.43580624       0.07832181 </v>
   <v>      -0.00228528      -0.42929769       0.07667233 </v>
   <v>      -0.00317562      -0.18498738       0.12898765 </v>
   <v>       0.00128349      -0.18674585       0.13085730 </v>
   <v>       0.00317562      -0.18498738       0.12898765 </v>
   <v>      -0.00128349      -0.18674585       0.13085730 </v>
   <v>       0.00000000      -0.19446692       0.11996527 </v>
   <v>       0.00000000      -0.18770041       0.13042102 </v>
   <v>       0.00000000       0.20051447      -0.12584302 </v>
   <v>      -0.04708074       0.17673614      -0.11663414 </v>
   <v>       0.01017680       0.19088780      -0.12833905 </v>
   <v>       0.04708074       0.17673614      -0.11663414 </v>
   <v>      -0.01017680       0.19088780      -0.12833905 </v>
   <v>       0.02692526      -0.07944714      -0.14844085 </v>
   <v>      -0.01069286      -0.01862345      -0.11028582 </v>
   <v>      -0.02692526      -0.07944714      -0.14844085 </v>
   <v>       0.01069286      -0.01862345      -0.11028582 </v>
   <v>       0.00000000      -0.04993544      -0.13048742 </v>
   <v>       0.00000000      -0.02671086      -0.12081262 </v>
   <v>       0.00000000       0.01128362       0.12599815 </v>
   <v>       0.00000000       0.02771627       0.13763261 </v>
   <v>      -0.00185825       0.03013351       0.11993499 </v>
   <v>      -0.00383759       0.03217212       0.13306563 </v>
   <v>       0.00185825       0.03013351       0.11993499 </v>
   <v>       0.00383759       0.03217212       0.13306563 </v>
   <v>       0.00000000       0.42019555      -0.08278914 </v>
   <v>       0.00000000       0.43723934      -0.07591279 </v>
   <v>      -0.00569252       0.42850724      -0.08071336 </v>
   <v>       0.00421001       0.43926935      -0.07581268 </v>
   <v>       0.00569252       0.42850724      -0.08071336 </v>
   <v>      -0.00421001       0.43926935      -0.07581268 </v>
   <v>      -0.01644658      -0.39362598       0.06089999 </v>
   <v>       0.04054970      -0.46924443       0.12332461 </v>
   <v>       0.01644658      -0.39362598       0.06089999 </v>
   <v>      -0.04054970      -0.46924443       0.12332461 </v>
   <v>       0.00000000      -0.42640046       0.07237918 </v>
   <v>       0.00000000      -0.44000062       0.08825327 </v>
   <v>       0.00000000       0.11330616      -0.10676908 </v>
  </varray>
  <varray name="stress" >
   <v>     -56.06157456       0.00000000       0.00000000 </v>
   <v>       0.00000000     -53.14662684       1.21368599 </v>
   <v>       0.00000000       1.21368573     -55.74059362 </v>
  </varray>
  <energy>
   <i name="e_fr_energy">   -986.44269913 </i>
   <i name="e_wo_entrp">   -986.41928553 </i>
   <i name="e_0_energy">   -986.43099233 </i>
  </energy>
  <time name="totalsc">17011.1617011.15</time>
  <eigenvalues>
   <array>
    <dimension dim="1">band</dimension>
    <dimension dim="2">kpoint</dimension>
    <dimension dim="3">spin</dimension>
    <field>eigene</field>
    <field>occ</field>
    <set>
     <set comment="spin 1">
      <set comment="kpoint 1">
       <r>  -19.0410    1.0000 </r>
       <r>  -18.7664    1.0000 </r>
       <r>  -18.7032    1.0000 </r>
       <r>  -18.6372    1.0000 </r>
       <r>  -18.4959    1.0000 </r>
       <r>  -18.3533    1.0000 </r>
       <r>  -18.3458    1.0000 </r>
       <r>  -18.2830    1.0000 </r>
       <r>  -18.2027    1.0000 </r>
       <r>  -18.1769    1.0000 </r>
       <r>  -18.1720    1.0000 </r>
       <r>  -18.0916    1.0000 </r>
       <r>  -18.0909    1.0000 </r>
       <r>  -18.0763    1.0000 </r>
       <r>  -18.0716    1.0000 </r>
       <r>  -18.0582    1.0000 </r>
       <r>  -18.0436    1.0000 </r>
       <r>  -18.0148    1.0000 </r>
       <r>  -17.9244    1.0000 </r>
       <r>  -17.9099    1.0000 </r>
       <r>  -17.9040    1.0000 </r>
       <r>  -17.8921    1.0000 </r>
       <r>  -17.8790    1.0000 </r>
       <r>  -17.8786    1.0000 </r>
       <r>  -17.8762    1.0000 </r>
       <r>  -17.7900    1.0000 </r>
       <r>  -17.7526    1.0000 </r>
       <r>  -17.7439    1.0000 </r>
       <r>  -17.7419    1.0000 </r>
       <r>  -17.7325    1.0000 </r>
       <r>  -17.7270    1.0000 </r>
       <r>  -17.7032    1.0000 </r>
       <r>  -17.6961    1.0000 </r>
       <r>  -17.6818    1.0000 </r>
       <r>  -17.6598    1.0000 </r>
       <r>  -17.6570    1.0000 </r>
       <r>  -17.6385    1.0000 </r>
       <r>  -17.6253    1.0000 </r>
       <r>  -17.5540    1.0000 </r>
       <r>  -17.5498    1.0000 </r>
       <r>  -17.5492    1.0000 </r>
       <r>  -17.5350    1.0000 </r>
       <r>  -17.5323    1.0000 </r>
       <r>  -17.5288    1.0000 </r>
       <r>  -17.5271    1.0000 </r>
       <r>  -17.5150    1.0000 </r>
       <r>  -17.4950    1.0000 </r>
       <r>  -17.4421    1.0000 </r>
       <r>  -17.3973    1.0000 </r>
       <r>  -17.3945    1.0000 </r>
       <r>  -17.3891    1.0000 </r>
       <r>  -17.3693    1.0000 </r>
       <r>  -17.3666    1.0000 </r>
       <r>  -17.2974    1.0000 </r>
       <r>  -17.2948    1.0000 </r>
       <r>  -17.2901    1.0000 </r>
       <r>  -17.2876    1.0000 </r>
       <r>  -17.2735    1.0000 </r>
       <r>  -17.2714    1.0000 </r>
       <r>  -17.2654    1.0000 </r>
       <r>  -17.2605    1.0000 </r>
       <r>  -17.2593    1.0000 </r>
       <r>  -17.2550    1.0000 </r>
       <r>  -17.2528    1.0000 </r>
       <r>  -17.2490    1.0000 </r>
       <r>  -17.2478    1.0000 </r>
       <r>  -17.2406    1.0000 </r>
       <r>  -17.2283    1.0000 </r>
       <r>  -17.2266    1.0000 </r>
       <r>  -17.1668    1.0000 </r>
       <r>  -17.1400    1.0000 </r>
       <r>  -14.4831    1.0000 </r>
       <r>  -13.4626    1.0000 </r>
       <r>  -13.4461    1.0000 </r>
       <r>  -13.4415    1.0000 </r>
       <r>  -13.4400    1.0000 </r>
       <r>  -13.4320    1.0000 </r>
       <r>  -13.4120    1.0000 </r>
       <r>  -13.4049    1.0000 </r>
       <r>  -13.4024    1.0000 </r>
       <r>  -13.4002    1.0000 </r>
       <r>  -13.3965    1.0000 </r>
       <r>  -13.3898    1.0000 </r>
       <r>  -13.3845    1.0000 </r>
       <r>  -13.3786    1.0000 </r>
       <r>  -13.3653    1.0000 </r>
       <r>  -13.3646    1.0000 </r>
       <r>  -13.3614    1.0000 </r>
       <r>  -13.3537    1.0000 </r>
       <r>  -13.3531    1.0000 </r>
       <r>  -13.3523    1.0000 </r>
       <r>  -13.3455    1.0000 </r>
       <r>  -13.3452    1.0000 </r>
       <r>  -13.3420    1.0000 </r>
       <r>  -13.3371    1.0000 </r>
       <r>  -13.3368    1.0000 </r>
       <r>  -13.3335    1.0000 </r>
       <r>  -13.3331    1.0000 </r>
       <r>  -13.3307    1.0000 </r>
       <r>  -13.3270    1.0000 </r>
       <r>  -13.3255    1.0000 </r>
       <r>  -13.3252    1.0000 </r>
       <r>  -13.3237    1.0000 </r>
       <r>  -13.3158    1.0000 </r>
       <r>  -13.3155    1.0000 </r>
       <r>  -13.3139    1.0000 </r>
       <r>  -13.3126    1.0000 </r>
       <r>  -13.3074    1.0000 </r>
       <r>  -13.3071    1.0000 </r>
       <r>  -13.3050    1.0000 </r>
       <r>  -13.3050    1.0000 </r>
       <r>  -13.3032    1.0000 </r>
       <r>  -13.3016    1.0000 </r>
       <r>  -13.3014    1.0000 </r>
       <r>  -13.2993    1.0000 </r>
       <r>  -13.2981    1.0000 </r>
       <r>  -13.2947    1.0000 </r>
       <r>  -13.2945    1.0000 </r>
       <r>  -13.2916    1.0000 </r>
       <r>  -13.2912    1.0000 </r>
       <r>  -13.2833    1.0000 </r>
       <r>  -13.2822    1.0000 </r>
       <r>  -13.2812    1.0000 </r>
       <r>  -13.2805    1.0000 </r>
       <r>  -13.2795    1.0000 </r>
       <r>  -13.2770    1.0000 </r>
       <r>  -13.2752    1.0000 </r>
       <r>  -13.2696    1.0000 </r>
       <r>  -13.2674    1.0000 </r>
       <r>  -13.2672    1.0000 </r>
       <r>  -13.2583    1.0000 </r>
       <r>  -13.2455    1.0000 </r>
       <r>  -13.2416    1.0000 </r>
       <r>  -13.2355    1.0000 </r>
       <r>  -13.2344    1.0000 </r>
       <r>  -13.2272    1.0000 </r>
       <r>  -13.2205    1.0000 </r>
       <r>  -13.2187    1.0000 </r>
       <r>  -13.2171    1.0000 </r>
       <r>  -13.2106    1.0000 </r>
       <r>  -13.2074    1.0000 </r>
       <r>  -13.2024    1.0000 </r>
       <r>  -13.2008    1.0000 </r>
       <r>  -13.1999    1.0000 </r>
       <r>  -13.1924    1.0000 </r>
       <r>  -13.1885    1.0000 </r>
       <r>  -13.1874    1.0000 </r>
       <r>  -13.1874    1.0000 </r>
       <r>  -13.1844    1.0000 </r>
       <r>  -13.1810    1.0000 </r>
       <r>  -13.1800    1.0000 </r>
       <r>  -13.1770    1.0000 </r>
       <r>  -13.1762    1.0000 </r>
       <r>  -13.1735    1.0000 </r>
       <r>  -13.1728    1.0000 </r>
       <r>  -13.1714    1.0000 </r>
       <r>  -13.1676    1.0000 </r>
       <r>  -13.1639    1.0000 </r>
       <r>  -13.1629    1.0000 </r>
       <r>  -13.1609    1.0000 </r>
       <r>  -13.1601    1.0000 </r>
       <r>  -13.1584    1.0000 </r>
       <r>  -13.1569    1.0000 </r>
       <r>  -13.1549    1.0000 </r>
       <r>  -13.1543    1.0000 </r>
       <r>  -13.1538    1.0000 </r>
       <r>  -13.1497    1.0000 </r>
       <r>  -13.1475    1.0000 </r>
       <r>  -13.1467    1.0000 </r>
       <r>  -13.1451    1.0000 </r>
       <r>  -13.1438    1.0000 </r>
       <r>  -13.1407    1.0000 </r>
       <r>  -13.1365    1.0000 </r>
       <r>  -13.1352    1.0000 </r>
       <r>  -13.1343    1.0000 </r>
       <r>  -13.1325    1.0000 </r>
       <r>  -13.1285    1.0000 </r>
       <r>  -13.1273    1.0000 </r>
       <r>  -13.1264    1.0000 </r>
       <r>  -13.1214    1.0000 </r>
       <r>  -13.1197    1.0000 </r>
       <r>  -13.1186    1.0000 </r>
       <r>  -13.1178    1.0000 </r>
       <r>  -13.1156    1.0000 </r>
       <r>  -13.1059    1.0000 </r>
       <r>  -13.1058    1.0000 </r>
       <r>  -13.0997    1.0000 </r>
       <r>  -13.0967    1.0000 </r>
       <r>  -13.0947    1.0000 </r>
       <r>  -13.0853    1.0000 </r>
       <r>  -13.0852    1.0000 </r>
       <r>  -13.0824    1.0000 </r>
       <r>  -13.0812    1.0000 </r>
       <r>  -13.0783    1.0000 </r>
       <r>  -13.0693    1.0000 </r>
       <r>  -13.0667    1.0000 </r>
       <r>  -13.0646    1.0000 </r>
       <r>  -13.0615    1.0000 </r>
       <r>  -13.0601    1.0000 </r>
       <r>  -13.0599    1.0000 </r>
       <r>  -13.0571    1.0000 </r>
       <r>  -13.0528    1.0000 </r>
       <r>  -13.0527    1.0000 </r>
       <r>  -13.0460    1.0000 </r>
       <r>  -13.0430    1.0000 </r>
       <r>  -13.0389    1.0000 </r>
       <r>  -13.0387    1.0000 </r>
       <r>  -13.0368    1.0000 </r>
       <r>  -13.0363    1.0000 </r>
       <r>  -13.0328    1.0000 </r>
       <r>  -13.0321    1.0000 </r>
       <r>  -13.0281    1.0000 </r>
       <r>  -13.0259    1.0000 </r>
       <r>  -13.0257    1.0000 </r>
       <r>  -13.0247    1.0000 </r>
       <r>  -13.0240    1.0000 </r>
       <r>  -13.0213    1.0000 </r>
       <r>  -13.0184    1.0000 </r>
       <r>  -13.0170    1.0000 </r>
       <r>  -13.0154    1.0000 </r>
       <r>  -13.0095    1.0000 </r>
       <r>  -13.0040    1.0000 </r>
       <r>  -13.0021    1.0000 </r>
       <r>  -12.9999    1.0000 </r>
       <r>  -12.9994    1.0000 </r>
       <r>  -12.9945    1.0000 </r>
       <r>  -12.9940    1.0000 </r>
       <r>  -12.9933    1.0000 </r>
       <r>  -12.9920    1.0000 </r>
       <r>  -12.9914    1.0000 </r>
       <r>  -12.9878    1.0000 </r>
       <r>  -12.9863    1.0000 </r>
       <r>  -12.9858    1.0000 </r>
       <r>  -12.9842    1.0000 </r>
       <r>  -12.9828    1.0000 </r>
       <r>  -12.9806    1.0000 </r>
       <r>  -12.9794    1.0000 </r>
       <r>  -12.9756    1.0000 </r>
       <r>  -12.9675    1.0000 </r>
       <r>  -12.9671    1.0000 </r>
       <r>  -12.9662    1.0000 </r>
       <r>  -12.9626    1.0000 </r>
       <r>  -12.9608    1.0000 </r>
       <r>  -12.9601    1.0000 </r>
       <r>  -12.9578    1.0000 </r>
       <r>  -12.9493    1.0000 </r>
       <r>  -12.9466    1.0000 </r>
       <r>  -12.9458    1.0000 </r>
       <r>  -12.9412    1.0000 </r>
       <r>  -12.9408    1.0000 </r>
       <r>  -12.9392    1.0000 </r>
       <r>  -12.9298    1.0000 </r>
       <r>  -12.9295    1.0000 </r>
       <r>  -12.9264    1.0000 </r>
       <r>  -12.9205    1.0000 </r>
       <r>  -12.9193    1.0000 </r>
       <r>  -12.9181    1.0000 </r>
       <r>  -12.9136    1.0000 </r>
       <r>  -12.9127    1.0000 </r>
       <r>  -12.9090    1.0000 </r>
       <r>  -12.9045    1.0000 </r>
       <r>  -12.9013    1.0000 </r>
       <r>  -12.8920    1.0000 </r>
       <r>  -12.8809    1.0000 </r>
       <r>  -12.8782    1.0000 </r>
       <r>  -12.8568    1.0000 </r>
       <r>  -12.8418    1.0000 </r>
[...]
       <r>   -12.3007    99.9286   592.5294 </r>
       <r>   -12.1613   123.5433   609.7473 </r>
       <r>   -12.0220    80.0243   620.9000 </r>
       <r>   -11.8826     7.8813   621.9984 </r>
       <r>   -11.7432     0.0117   622.0000 </r>
       <r>   -11.6039     0.0000   622.0000 </r>
       <r>   -11.4645     0.0000   622.0000 </r>
       <r>   -11.3251     0.0000   622.0000 </r>
       <r>   -11.1858     0.3729   622.0520 </r>
       <r>   -11.0464    13.6416   623.9532 </r>
       <r>   -10.9070     0.3361   624.0000 </r>
       <r>   -10.7677     0.0000   624.0000 </r>
       <r>   -10.6283     0.0000   624.0000 </r>
       <r>   -10.4889     0.0000   624.0000 </r>
       <r>   -10.3496     0.0000   624.0000 </r>
       <r>   -10.2102     0.0000   624.0000 </r>
       <r>   -10.0708     0.0000   624.0000 </r>
       <r>    -9.9315     0.0000   624.0000 </r>
       <r>    -9.7921     0.0000   624.0000 </r>
       <r>    -9.6527     0.0000   624.0000 </r>
       <r>    -9.5134     0.0000   624.0000 </r>
       <r>    -9.3740     0.0000   624.0000 </r>
       <r>    -9.2346     0.0000   624.0000 </r>
       <r>    -9.0953     0.0000   624.0000 </r>
       <r>    -8.9559     0.0000   624.0000 </r>
       <r>    -8.8165     0.0000   624.0000 </r>
       <r>    -8.6772     0.0000   624.0000 </r>
       <r>    -8.5378     0.0000   624.0000 </r>
       <r>    -8.3984     0.0000   624.0000 </r>
       <r>    -8.2591     0.0000   624.0000 </r>
       <r>    -8.1197     0.0000   624.0000 </r>
       <r>    -7.9803     0.0000   624.0000 </r>
       <r>    -7.8410     0.0000   624.0000 </r>
       <r>    -7.7016     0.0000   624.0000 </r>
       <r>    -7.5622     0.0000   624.0000 </r>
       <r>    -7.4229     0.0000   624.0000 </r>
       <r>    -7.2835     0.0000   624.0000 </r>
       <r>    -7.1441     0.0000   624.0000 </r>
       <r>    -7.0048     0.0000   624.0000 </r>
       <r>    -6.8654     0.0000   624.0000 </r>
       <r>    -6.7260     0.0000   624.0000 </r>
       <r>    -6.5867     0.0000   624.0000 </r>
       <r>    -6.4473     0.0000   624.0000 </r>
       <r>    -6.3079     0.0000   624.0000 </r>
       <r>    -6.1686     0.0000   624.0000 </r>
       <r>    -6.0292     0.0000   624.0000 </r>
       <r>    -5.8898     0.0000   624.0000 </r>
       <r>    -5.7505     0.0000   624.0000 </r>
       <r>    -5.6111     0.0000   624.0000 </r>
       <r>    -5.4717     0.0047   624.0007 </r>
       <r>    -5.3324     5.2634   624.7342 </r>
       <r>    -5.1930     9.5577   626.0662 </r>
       <r>    -5.0536    20.1598   628.8758 </r>
       <r>    -4.9143    32.2185   633.3660 </r>
       <r>    -4.7749    25.9939   636.9887 </r>
       <r>    -4.6355    45.2685   643.2976 </r>
       <r>    -4.4962    39.0377   648.7382 </r>
       <r>    -4.3568    58.1409   656.8411 </r>
       <r>    -4.2174    57.0524   664.7923 </r>
       <r>    -4.0781    40.8045   670.4791 </r>
       <r>    -3.9387    47.6586   677.1211 </r>
       <r>    -3.7993    48.8312   683.9266 </r>
       <r>    -3.6600    27.1934   687.7165 </r>
       <r>    -3.5206    31.6746   692.1308 </r>
       <r>    -3.3812    28.3032   696.0754 </r>
       <r>    -3.2419    39.5807   701.5916 </r>
       <r>    -3.1025    37.5212   706.8208 </r>
       <r>    -2.9631    37.5037   712.0476 </r>
       <r>    -2.8238    27.2938   715.8514 </r>
       <r>    -2.6844    38.6642   721.2399 </r>
       <r>    -2.5450    36.5432   726.3328 </r>
       <r>    -2.4057    46.1592   732.7659 </r>
       <r>    -2.2663    44.7544   739.0032 </r>
       <r>    -2.1269    31.7264   743.4248 </r>
       <r>    -1.9876    52.7022   750.7697 </r>
       <r>    -1.8482    82.1318   762.2162 </r>
       <r>    -1.7088    57.4629   770.2246 </r>
       <r>    -1.5695    57.3957   778.2237 </r>
       <r>    -1.4301    71.3623   788.1692 </r>
       <r>    -1.2907    50.0441   795.1437 </r>
       <r>    -1.1514    39.6751   800.6731 </r>
       <r>    -1.0120    84.0557   812.3876 </r>
       <r>    -0.8726    60.4776   820.8162 </r>
       <r>    -0.7333    78.2983   831.7284 </r>
       <r>    -0.5939    67.0239   841.0693 </r>
       <r>    -0.4545    52.7897   848.4264 </r>
       <r>    -0.3152    76.0619   859.0269 </r>
       <r>    -0.1758    76.5568   869.6964 </r>
       <r>    -0.0364    79.1576   880.7283 </r>
       <r>     0.1029    76.6133   891.4057 </r>
       <r>     0.2423    57.8307   899.4654 </r>
       <r>     0.3817    78.2984   910.3776 </r>
       <r>     0.5210   100.9434   924.4457 </r>
       <r>     0.6604    87.7399   936.6738 </r>
       <r>     0.7998    89.2077   949.1064 </r>
       <r>     0.9391    78.3985   960.0325 </r>
       <r>     1.0785   138.6815   979.3601 </r>
       <r>     1.2179   116.6242   995.6137 </r>
       <r>     1.3572   129.1351  1013.6108 </r>
       <r>     1.4966   118.4042  1030.1124 </r>
       <r>     1.6360    69.1203  1039.7455 </r>
       <r>     1.7753    52.9371  1047.1232 </r>
       <r>     1.9147    46.6333  1053.6223 </r>
       <r>     2.0541     2.7101  1054.0000 </r>
       <r>     2.1934     0.0000  1054.0000 </r>
       <r>     2.3328     0.0000  1054.0000 </r>
       <r>     2.4722     0.0000  1054.0000 </r>
       <r>     2.6115     0.0000  1054.0000 </r>
       <r>     2.7509     0.0000  1054.0000 </r>
       <r>     2.8903     0.0000  1054.0000 </r>
       <r>     3.0296     0.0000  1054.0000 </r>
       <r>     3.1690     0.0000  1054.0000 </r>
       <r>     3.3084     0.0000  1054.0000 </r>
       <r>     3.4477     0.0000  1054.0000 </r>
       <r>     3.5871     0.0171  1054.0024 </r>
       <r>     3.7265     9.2913  1055.2973 </r>
       <r>     3.8658     5.0416  1055.9999 </r>
       <r>     4.0052     0.0006  1056.0000 </r>
       <r>     4.1446     0.0000  1056.0000 </r>
       <r>     4.2839     0.0000  1056.0000 </r>
       <r>     4.4233     0.0000  1056.0000 </r>
       <r>     4.5627     0.0000  1056.0000 </r>
       <r>     4.7020     0.0000  1056.0000 </r>
       <r>     4.8414     0.0000  1056.0000 </r>
       <r>     4.9808     0.0000  1056.0000 </r>
       <r>     5.1201     0.0000  1056.0000 </r>
       <r>     5.2595     0.0000  1056.0000 </r>
       <r>     5.3989     0.0000  1056.0000 </r>
       <r>     5.5382     0.0000  1056.0000 </r>
       <r>     5.6776     0.0000  1056.0000 </r>
       <r>     5.8170     0.0000  1056.0000 </r>
       <r>     5.9563     0.0000  1056.0000 </r>
       <r>     6.0957     0.0000  1056.0000 </r>
       <r>     6.2351     0.0000  1056.0000 </r>
       <r>     6.3744     0.0000  1056.0000 </r>
       <r>     6.5138     0.0000  1056.0000 </r>
       <r>     6.6532     0.0000  1056.0000 </r>
       <r>     6.7926     0.0042  1056.0006 </r>
       <r>     6.9319     1.5512  1056.2168 </r>
       <r>     7.0713     0.2385  1056.2500 </r>
       <r>     7.2107     0.0000  1056.2500 </r>
       <r>     7.3500     0.0000  1056.2500 </r>
       <r>     7.4894     0.0000  1056.2500 </r>
       <r>     7.6288     0.0379  1056.2553 </r>
       <r>     7.7681     4.2569  1056.8485 </r>
       <r>     7.9075     2.8619  1057.2474 </r>
       <r>     8.0469     0.3774  1057.3000 </r>
       <r>     8.1862     5.1939  1058.0238 </r>
       <r>     8.3256     1.6226  1058.2500 </r>
       <r>     8.4650     0.0001  1058.2500 </r>
       <r>     8.6043     1.1188  1058.4059 </r>
       <r>     8.7437     9.6497  1059.7508 </r>
       <r>     8.8831     5.7178  1060.5477 </r>
       <r>     9.0224     3.5526  1061.0428 </r>
       <r>     9.1618     6.1633  1061.9017 </r>
       <r>     9.3012     2.8215  1062.2949 </r>
       <r>     9.4405     9.3776  1063.6019 </r>
       <r>     9.5799     8.2310  1064.7490 </r>
       <r>     9.7193     3.3780  1065.2198 </r>
       <r>     9.8586     3.4590  1065.7019 </r>
       <r>     9.9980    15.2468  1067.8267 </r>
       <r>    10.1374    13.5126  1069.7100 </r>
       <r>    10.2767     7.9258  1070.8146 </r>
       <r>    10.4161     8.3727  1071.9814 </r>
       <r>    10.5555    25.1408  1075.4852 </r>
       <r>    10.6948    27.3487  1079.2967 </r>
       <r>    10.8342    46.1320  1085.7260 </r>
       <r>    10.9736    35.4802  1090.6708 </r>
       <r>    11.1129    48.1021  1097.3746 </r>
       <r>    11.2523    16.6284  1099.6920 </r>
       <r>    11.3917    29.4479  1103.7961 </r>
       <r>    11.5310    32.2843  1108.2955 </r>
       <r>    11.6704    27.1173  1112.0747 </r>
       <r>    11.8098    39.6932  1117.6066 </r>
       <r>    11.9491    38.2249  1122.9339 </r>
       <r>    12.0885    37.4298  1128.1504 </r>
       <r>    12.2279    30.8700  1132.4527 </r>
       <r>    12.3672    19.8697  1135.2218 </r>
       <r>    12.5066    39.6322  1140.7453 </r>
       <r>    12.6460    42.7335  1146.7009 </r>
       <r>    12.7853    54.8114  1154.3398 </r>
       <r>    12.9247    29.0254  1158.3850 </r>
       <r>    13.0641    14.1535  1160.3575 </r>
       <r>    13.2034    11.8914  1162.0148 </r>
       <r>    13.3428    19.4613  1164.7270 </r>
       <r>    13.4822    28.1653  1168.6523 </r>
       <r>    13.6215    18.9097  1171.2877 </r>
       <r>    13.7609    28.4484  1175.2525 </r>
       <r>    13.9003    27.9192  1179.1435 </r>
       <r>    14.0396    29.0627  1183.1938 </r>
       <r>    14.1790    29.7953  1187.3463 </r>
       <r>    14.3184    32.5280  1191.8796 </r>
       <r>    14.4577    13.1471  1193.7119 </r>
       <r>    14.5971    11.5646  1195.3236 </r>
       <r>    14.7365    18.3228  1197.8772 </r>
       <r>    14.8758    22.7403  1201.0465 </r>
       <r>    15.0152    20.3771  1203.8864 </r>
       <r>    15.1546    18.5962  1206.4781 </r>
       <r>    15.2939    22.5979  1209.6275 </r>
       <r>    15.4333    23.9426  1212.9643 </r>
       <r>    15.5727    29.9050  1217.1320 </r>
       <r>    15.7120    27.8876  1221.0186 </r>
       <r>    15.8514    31.0327  1225.3436 </r>
       <r>    15.9908    18.3531  1227.9014 </r>
       <r>    16.1301    23.8216  1231.2213 </r>
       <r>    16.2695    26.8886  1234.9687 </r>
       <r>    16.4089    20.0094  1237.7574 </r>
       <r>    16.5482    22.8472  1240.9415 </r>
       <r>    16.6876    18.9834  1243.5871 </r>
       <r>    16.8270    22.0190  1246.6559 </r>
       <r>    16.9663    18.9510  1249.2970 </r>
       <r>    17.1057    21.7251  1252.3247 </r>
       <r>    17.2451    15.6583  1254.5070 </r>
       <r>    17.3844    15.4183  1256.6558 </r>
       <r>    17.5238    16.6545  1258.9769 </r>
       <r>    17.6632    10.4729  1260.4364 </r>
       <r>    17.8025     9.1650  1261.7138 </r>
       <r>    17.9419    10.1888  1263.1337 </r>
       <r>    18.0813     2.6113  1263.4977 </r>
       <r>    18.2206     1.1572  1263.6589 </r>
       <r>    18.3600     4.6921  1264.3129 </r>
       <r>    18.4994     2.1801  1264.6167 </r>
       <r>    18.6387     3.1835  1265.0604 </r>
       <r>    18.7781     4.4851  1265.6854 </r>
       <r>    18.9175     0.5994  1265.7690 </r>
       <r>    19.0568     1.6469  1265.9985 </r>
       <r>    19.1962     0.0109  1266.0000 </r>
       <r>    19.3356     0.0000  1266.0000 </r>
       <r>    19.4749     0.0000  1266.0000 </r>
       <r>    19.6143     0.0000  1266.0000 </r>
       <r>    19.7537     0.0000  1266.0000 </r>
       <r>    19.8930     0.0000  1266.0000 </r>
       <r>    20.0324     0.0000  1266.0000 </r>
       <r>    20.1718     0.0000  1266.0000 </r>
       <r>    20.3111     0.0000  1266.0000 </r>
       <r>    20.4505     0.0000  1266.0000 </r>
       <r>    20.5899     0.0000  1266.0000 </r>
       <r>    20.7292     0.0000  1266.0000 </r>
       <r>    20.8686     0.0000  1266.0000 </r>
      </set>
     </set>
    </array>
   </total>
  </dos>
 </calculation>
 <structure name="finalpos" >
  <crystal>
   <varray name="basis" >
    <v>       0.00000000      12.28047342       0.00000000 </v>
    <v>       9.14270205       0.00000000       0.00000000 </v>
    <v>       0.00000000      -2.76826177     -11.30069772 </v>
   </varray>
   <i name="volume">   1268.80515525 </i>
   <varray name="rec_basis" >
    <v>       0.00000000       0.08143009      -0.01994742 </v>
    <v>       0.10937686      -0.00000000       0.00000000 </v>
    <v>       0.00000000       0.00000000      -0.08849011 </v>
   </varray>
  </crystal>
  <varray name="positions" >
   <v>       0.65841153       0.99936839       0.15594726 </v>
   <v>       0.65924052       0.99988245       0.65685037 </v>
   <v>       0.65841153       0.33396494       0.15594726 </v>
   <v>       0.65924052       0.33345088       0.65685037 </v>
   <v>       0.65867212       0.66666667       0.15627204 </v>
   <v>       0.65942154       0.66666667       0.65696699 </v>
   <v>       0.83915821       0.16666667       0.34358410 </v>
   <v>       0.84109925       0.16666667       0.84319846 </v>
   <v>       0.84069420       0.50049232       0.34287143 </v>
   <v>       0.84163294       0.50012640       0.84381130 </v>
   <v>       0.84069420       0.83284101       0.34287143 </v>
   <v>       0.84163294       0.83320694       0.84381130 </v>
   <v>       0.59154307       0.16666667       0.39787937 </v>
   <v>       0.59077746       0.16666667       0.89752085 </v>
   <v>       0.59173254       0.50013887       0.39780198 </v>
   <v>       0.59049925       0.50013675       0.89708038 </v>
   <v>       0.59173254       0.83319447       0.39780198 </v>
   <v>       0.59049925       0.83319658       0.89708038 </v>
   <v>       0.90855874       0.99879970       0.10373790 </v>
   <v>       0.90774455       0.99907033       0.60111480 </v>
   <v>       0.90855874       0.33453363       0.10373790 </v>
   <v>       0.90774455       0.33426300       0.60111480 </v>
   <v>       0.90943629       0.66666667       0.10297831 </v>
   <v>       0.90876544       0.66666667       0.60187610 </v>
   <v>       0.16083122       0.16666667       0.15874508 </v>
   <v>       0.15992701       0.16666667       0.65514882 </v>
   <v>       0.15972128       0.50006066       0.15731777 </v>
   <v>       0.15898134       0.50005007       0.65621686 </v>
   <v>       0.15972128       0.83327267       0.15731777 </v>
   <v>       0.15898134       0.83328326       0.65621686 </v>
   <v>       0.34188542       0.99958715       0.34401728 </v>
   <v>       0.34068231       0.00002627       0.84304672 </v>
   <v>       0.34188542       0.33374618       0.34401728 </v>
   <v>       0.34068231       0.33330706       0.84304672 </v>
   <v>       0.34178095       0.66666667       0.34354144 </v>
   <v>       0.34048515       0.66666667       0.84328594 </v>
   <v>       0.09009222       0.99994989       0.39685224 </v>
   <v>       0.09143830       0.99982263       0.89748689 </v>
   <v>       0.09009222       0.33338344       0.39685224 </v>
   <v>       0.09143830       0.33351070       0.89748689 </v>
   <v>       0.09154335       0.66666667       0.39777827 </v>
   <v>       0.09144461       0.66666667       0.89788478 </v>
   <v>       0.40893800       0.16666667       0.10203667 </v>
   <v>       0.40955747       0.16666667       0.60250534 </v>
   <v>       0.40890129       0.50007993       0.10204512 </v>
   <v>       0.40922825       0.50013447       0.60279652 </v>
   <v>       0.40890129       0.83325340       0.10204512 </v>
   <v>       0.40922825       0.83319887       0.60279652 </v>
   <v>       0.99661113       0.16666667       0.13759535 </v>
   <v>       0.99567463       0.16666667       0.62038228 </v>
   <v>       0.99693515       0.50009825       0.12778757 </v>
   <v>       0.99621543       0.49986548       0.62697037 </v>
   <v>       0.99693515       0.83323508       0.12778757 </v>
   <v>       0.99621543       0.83346785       0.62697037 </v>
   <v>       0.50431531       0.99994345       0.37306041 </v>
   <v>       0.50329978       0.00007566       0.87259284 </v>
   <v>       0.50431531       0.33338988       0.37306041 </v>
   <v>       0.50329978       0.33325767       0.87259284 </v>
   <v>       0.50417299       0.66666667       0.37321175 </v>
   <v>       0.50299146       0.66666667       0.87215667 </v>
   <v>       0.67227387       0.16666667       0.27997742 </v>
   <v>       0.67303230       0.16666667       0.78099002 </v>
   <v>       0.67163823       0.50081811       0.27964334 </v>
   <v>       0.67331733       0.49964802       0.78109064 </v>
   <v>       0.67163823       0.83251523       0.27964334 </v>
   <v>       0.67331733       0.83368531       0.78109064 </v>
   <v>       0.82518217       0.99695601       0.21820392 </v>
   <v>       0.82809448       0.00030552       0.71983635 </v>
   <v>       0.82518217       0.33637733       0.21820392 </v>
   <v>       0.82809448       0.33302781       0.71983635 </v>
   <v>       0.82710545       0.66666667       0.21914886 </v>
   <v>       0.82788916       0.66666667       0.71979768 </v>
   <v>       0.82804288       0.99793736       0.44570647 </v>
   <v>       0.83436599       0.00067285       0.94658977 </v>
   <v>       0.82804288       0.33539597       0.44570647 </v>
   <v>       0.83436599       0.33266049       0.94658977 </v>
   <v>       0.83100963       0.66666667       0.44563369 </v>
   <v>       0.83294907       0.66666667       0.94621605 </v>
   <v>       0.66764910       0.16666667       0.05391916 </v>
   <v>       0.66801223       0.16666667       0.55471477 </v>
   <v>       0.66725028       0.50036980       0.05334289 </v>
   <v>       0.66792078       0.50009462       0.55473330 </v>
   <v>       0.66725028       0.83296354       0.05334289 </v>
   <v>       0.66792078       0.83323872       0.55473330 </v>
   <v>       0.49614194       0.00002054       0.12677424 </v>
   <v>       0.49676815       0.99986822       0.62797927 </v>
   <v>       0.49614194       0.33331280       0.12677424 </v>
   <v>       0.49676815       0.33346511       0.62797927 </v>
   <v>       0.49602808       0.66666667       0.12626531 </v>
   <v>       0.49686326       0.66666667       0.62827312 </v>
   <v>       0.00388407       0.16666667       0.87238772 </v>
   <v>       0.00342649       0.50149442       0.37314147 </v>
   <v>       0.00406290       0.50006400       0.87267721 </v>
   <v>       0.00342649       0.83183891       0.37314147 </v>
   <v>       0.00406290       0.83326933       0.87267721 </v>
   <v>       0.17431805       0.99842954       0.28083415 </v>
   <v>       0.17200015       0.00062916       0.77965997 </v>
   <v>       0.17431805       0.33490379       0.28083415 </v>
   <v>       0.17200015       0.33270417       0.77965997 </v>
   <v>       0.17338056       0.66666667       0.28082628 </v>
   <v>       0.17227266       0.66666667       0.78018328 </v>
   <v>       0.32837292       0.16666667       0.21982223 </v>
   <v>       0.32775931       0.16666667       0.71946064 </v>
   <v>       0.32817604       0.50015934       0.21955162 </v>
   <v>       0.32753489       0.49991262       0.71983058 </v>
   <v>       0.32817604       0.83317399       0.21955162 </v>
   <v>       0.32753489       0.83342071       0.71983058 </v>
   <v>       0.33334012       0.16666667       0.44594935 </v>
   <v>       0.33155580       0.16666667       0.94556760 </v>
   <v>       0.33323698       0.50035796       0.44616078 </v>
   <v>       0.33125242       0.49968482       0.94561506 </v>
   <v>       0.33323698       0.83297537       0.44616078 </v>
   <v>       0.33125242       0.83364851       0.94561506 </v>
   <v>       0.16638853       0.00093484       0.05458800 </v>
   <v>       0.16918229       0.99895162       0.55392015 </v>
   <v>       0.16638853       0.33239849       0.05458800 </v>
   <v>       0.16918229       0.33438172       0.55392015 </v>
   <v>       0.16813647       0.66666667       0.05447995 </v>
   <v>       0.16848598       0.66666667       0.55443366 </v>
   <v>       0.00014599       0.16666667       0.36883432 </v>
  </varray>
 </structure>
</modeling>
