       N       E                     dE             d eps       ncg     rms          ort
DAV:   1    -0.482929663452E+04   -0.48293E+04   -0.11222E+05   840   0.745E+03
DAV:   2    -0.107336732674E+05   -0.59044E+04   -0.57193E+04   840   0.149E+03
DAV:   3    -0.114143422670E+05   -0.68067E+03   -0.60427E+03   840   0.364E+02
DAV:   4    -0.114950835927E+05   -0.80741E+02   -0.73562E+02   840   0.100E+02
DAV:   5    -0.650091659032E+04    0.49942E+04   -0.10205E+02   840   0.506E+01
SDA:   6     0.558516647994E+04    0.12086E+05   -0.10205E+02   840   0.142E+05 0.000E+00
CGA:   7     0.252365552791E+04   -0.30615E+04   -0.57917E+04   840   0.130E+05-0.325E+04
CGA:   8     0.183593200729E+04   -0.68772E+03   -0.12998E+04   840   0.493E+04 0.257E+04
CGA:   9     0.113600549060E+04   -0.69993E+03   -0.80215E+03   840   0.256E+04 0.942E+03
CGA:  10     0.694613915173E+03   -0.44139E+03   -0.48656E+03   840   0.200E+04 0.469E+03
CGA:  11     0.383263102121E+03   -0.31135E+03   -0.34983E+03   840   0.905E+03 0.222E+03
CGA:  12     0.179010995774E+03   -0.20425E+03   -0.20297E+03   840   0.441E+03 0.186E+03
CGA:  13     0.877966244242E+02   -0.91214E+02   -0.93091E+02   840   0.562E+03 0.215E+02
CGA:  14    -0.281649881023E+02   -0.11596E+03   -0.11722E+03   840   0.292E+03-0.419E+03
CGA:  15    -0.102425279161E+03   -0.74260E+02   -0.72134E+02   840   0.750E+02 0.245E+02
CGA:  16    -0.136008761043E+03   -0.33583E+02   -0.38542E+02   840   0.456E+02-0.145E+02
CGA:  17    -0.148594411797E+03   -0.12586E+02   -0.16668E+02   840   0.235E+02-0.122E+02
CGA:  18    -0.153994470681E+03   -0.54001E+01   -0.54257E+01   840   0.832E+01-0.187E+00
CGA:  19    -0.156628803211E+03   -0.26343E+01   -0.26294E+01   840   0.319E+01 0.640E-01
CGA:  20    -0.157656032654E+03   -0.10272E+01   -0.10242E+01   840   0.137E+01 0.268E-01
CGA:  21    -0.158159723486E+03   -0.50369E+00   -0.50371E+00   840   0.680E+00-0.369E-02
CGA:  22    -0.158381038144E+03   -0.22131E+00   -0.22186E+00   840   0.296E+00-0.585E-02
CGA:  23    -0.158479672135E+03   -0.98634E-01   -0.98816E-01   840   0.116E+00-0.140E-02
CGA:  24    -0.158517356910E+03   -0.37685E-01   -0.37690E-01   840   0.408E-01 0.208E-04
CGA:  25    -0.158531541033E+03   -0.14184E-01   -0.14182E-01   840   0.153E-01 0.916E-05
CGA:  26    -0.158537257896E+03   -0.57169E-02   -0.57185E-02   840   0.712E-02-0.189E-04
CGA:  27    -0.158539883241E+03   -0.26253E-02   -0.26261E-02   840   0.320E-02-0.605E-05
CGA:  28    -0.158540996419E+03   -0.11132E-02   -0.11135E-02   840   0.137E-02-0.313E-05
CGA:  29    -0.158541483514E+03   -0.48709E-03   -0.48757E-03   840   0.566E-03-0.548E-05
CGA:  30    -0.158541673868E+03   -0.19035E-03   -0.19051E-03   840   0.227E-03-0.266E-05
CGA:  31    -0.158541752576E+03   -0.78708E-04   -0.78740E-04   840   0.102E-03-0.503E-06
CGA:  32    -0.158541787531E+03   -0.34955E-04   -0.34981E-04   840   0.455E-04-0.464E-06
CGA:  33    -0.158541802980E+03   -0.15449E-04   -0.15473E-04   840   0.228E-04-0.463E-06
CGA:  34    -0.158541810155E+03   -0.71752E-05   -0.71697E-05   840   0.105E-04 0.216E-06
   1 F= -.15854181E+03 E0= -.15854181E+03  d E =-.738698E-21
