 vasp.6.4.2 20Jul23 (build Nov 12 2023 22:16:35) complex                         
 executed on              LinuxNV date 2025.03.25  16:03:09
 running    4 mpi-ranks, on    1 nodes
 distrk:  each k-point on    1 cores,    4 groups
 distr:  one band on NCORE=   1 cores,    1 groups
 OpenACC runtime initialized ...    4 GPUs detected


--------------------------------------------------------------------------------------------------------


 INCAR:
   PREC = Normal
   ENCUT = 450
   NELM = 500
   IBRION = -1
   ISPIN = 1
   NSW = 0
   ISIF = 2
   EDIFF = 1E-5
   EDIFFG = -5E-3
   ISTART = 0
   ICHARG = 0
   ISMEAR = 0
   SIGMA = 0.05
   LWAVE = .T.
   LCHARG = .T.
   LREAL = Auto
   LPLANE = .TRUE.
   NPAR = 1
   KPAR = 4
   NCORE = 1
   ALGO = All
   LHFCALC = .TRUE.
   HSE06 = .TRUE.
   HFSCREEN = 0.2
   TIME = 0.4
   AEXX = 0.32
   LMAXFOCK = 4
   PRECFOCK = Fast

 POTCAR:    PAW_PBE Ga_d 06Jul2010                
 POTCAR:    PAW_PBE O 08Apr2002                   
 POTCAR:    PAW_PBE Ga_d 06Jul2010                
   SHA256 =  a60ddf36e14f00ea098d9e3914b3745f1b7105e68786148f49ae384e44b4226c Ga_d/POTCAR           
   COPYR  = (c) Copyright 06Jul2010 Georg Kresse                                                    
   COPYR  = This file is part of the software VASP. Any use, copying, and all other rights are regul
   COPYR  = If you do not have a valid VASP license, you may not use, copy or distribute this file. 
   VRHFIN =Ga: s2p1                                                                                 
   LEXCH  = PE                                                                                      
   EATOM  =  2148.8298 eV,  157.9345 Ry                                                             
                                                                                                    
   TITEL  = PAW_PBE Ga_d 06Jul2010                                                                  
   LULTRA =        F    use ultrasoft PP ?                                                          
   IUNSCR =        1    unscreen: 0-lin 1-nonlin 2-no                                               
   RPACOR =    1.700    partial core radius                                                         
   POMASS =   69.723; ZVAL   =   13.000    mass and valenz                                          
   RCORE  =    2.300    outmost cutoff radius                                                       
   RWIGS  =    2.300; RWIGS  =    1.217    wigner-seitz radius (au A)                               
   ENMAX  =  282.691; ENMIN  =  212.018 eV                                                          
   ICORE  =        3    local potential                                                             
   LCOR   =        T    correct aug charges                                                         
   LPAW   =        T    paw PP                                                                      
   EAUG   =  490.690                                                                                
   DEXC   =    0.000                                                                                
   RMAX   =    2.341    core radius for proj-oper                                                   
   RAUG   =    1.300    factor for augmentation sphere                                              
   RDEP   =    2.413    radius for radial grids                                                     
   RDEPT  =    1.856    core radius for aug-charge                                                  
                                                                                                    
   Atomic configuration                                                                             
    9 entries                                                                                       
     n  l   j            E        occ.                                                              
     1  0  0.50    -10228.7831   2.0000                                                             
     2  0  0.50     -1262.1604   2.0000                                                             
     2  1  1.50     -1098.6333   6.0000                                                             
     3  0  0.50      -148.1110   2.0000                                                             
     3  1  1.50       -98.8436   6.0000                                                             
     3  2  2.50       -19.1549  10.0000                                                             
     4  0  0.50        -8.9483   2.0000                                                             
     4  1  0.50        -2.5791   1.0000                                                             
     4  3  2.50        -2.7416   0.0000                                                             
   Description                                                                                      
     l       E           TYP  RCUT    TYP  RCUT                                                     
     2    -19.1549037     23  2.300                                                                 
     2     -5.4423304     23  2.300                                                                 
     0     -8.9483111     23  2.300                                                                 
     0     68.0291300     23  2.300                                                                 
     1     -2.5790802     23  2.100                                                                 
     1     81.6349560     23  2.300                                                                 
     3      6.8029130     23  2.300                                                                 
  local pseudopotential read in
  partial core-charges read in
  partial kinetic energy density read in
  atomic valenz-charges read in
  non local Contribution for L=            2  read in
    real space projection operators read in
  non local Contribution for L=            2  read in
    real space projection operators read in
  non local Contribution for L=            0  read in
    real space projection operators read in
  non local Contribution for L=            0  read in
    real space projection operators read in
  non local Contribution for L=            1  read in
    real space projection operators read in
  non local Contribution for L=            1  read in
    real space projection operators read in
    PAW grid and wavefunctions read in
 
   number of l-projection  operators is LMAX  =            6
   number of lm-projection operators is LMMAX =           18
 
 POTCAR:    PAW_PBE O 08Apr2002                   
   SHA256 =  818f92134a0a090dccd8ba1447fa70422a3b330e708bb4f08108d8ae51209ddf O/POTCAR              
   COPYR  = (c) Copyright 08Apr2002 Georg Kresse                                                    
   COPYR  = This file is part of the software VASP. Any use, copying, and all other rights are regul
   COPYR  = If you do not have a valid VASP license, you may not use, copy or distribute this file. 
   VRHFIN =O: s2p4                                                                                  
   LEXCH  = PE                                                                                      
   EATOM  =   432.3788 eV,   31.7789 Ry                                                             
                                                                                                    
   TITEL  = PAW_PBE O 08Apr2002                                                                     
   LULTRA =        F    use ultrasoft PP ?                                                          
   IUNSCR =        1    unscreen: 0-lin 1-nonlin 2-no                                               
   RPACOR =    1.200    partial core radius                                                         
   POMASS =   16.000; ZVAL   =    6.000    mass and valenz                                          
   RCORE  =    1.520    outmost cutoff radius                                                       
   RWIGS  =    1.550; RWIGS  =    0.820    wigner-seitz radius (au A)                               
   ENMAX  =  400.000; ENMIN  =  300.000 eV                                                          
   ICORE  =        2    local potential                                                             
   LCOR   =        T    correct aug charges                                                         
   LPAW   =        T    paw PP                                                                      
   EAUG   =  605.392                                                                                
   DEXC   =    0.000                                                                                
   RMAX   =    1.553    core radius for proj-oper                                                   
   RAUG   =    1.300    factor for augmentation sphere                                              
   RDEP   =    1.550    radius for radial grids                                                     
   RDEPT  =    1.329    core radius for aug-charge                                                  
                                                                                                    
   Atomic configuration                                                                             
    4 entries                                                                                       
     n  l   j            E        occ.                                                              
     1  0  0.50      -514.6923   2.0000                                                             
     2  0  0.50       -23.9615   2.0000                                                             
     2  1  0.50        -9.0305   4.0000                                                             
     3  2  1.50        -9.5241   0.0000                                                             
   Description                                                                                      
     l       E           TYP  RCUT    TYP  RCUT                                                     
     0    -23.9615318     23  1.200                                                                 
     0     -9.5240782     23  1.200                                                                 
     1     -9.0304911     23  1.520                                                                 
     1      8.1634956     23  1.520                                                                 
     2     -9.5240782      7  1.500                                                                 
  local pseudopotential read in
  partial core-charges read in
  partial kinetic energy density read in
  kinetic energy density of atom read in
  atomic valenz-charges read in
  non local Contribution for L=            0  read in
    real space projection operators read in
  non local Contribution for L=            0  read in
    real space projection operators read in
  non local Contribution for L=            1  read in
    real space projection operators read in
  non local Contribution for L=            1  read in
    real space projection operators read in
    PAW grid and wavefunctions read in
 
   number of l-projection  operators is LMAX  =            4
   number of lm-projection operators is LMMAX =            8
 
 Optimization of the real space projectors (new method)

 maximal supplied QI-value         = 16.25
 optimisation between [QCUT,QGAM] = [ 10.73, 21.61] = [ 32.22,130.83] Ry 
 Optimized for a Real-space Cutoff    1.42 Angstroem

   l    n(q)    QCUT    max X(q) W(low)/X(q) W(high)/X(q)  e(spline) 
   2      8    10.726     7.143    0.22E-03    0.16E-03    0.73E-07
   2      8    10.726     5.586    0.40E-03    0.26E-03    0.10E-06
   0      9    10.726    12.382    0.25E-04    0.21E-05    0.37E-07
   0      9    10.726     6.622    0.42E-04    0.48E-05    0.77E-07
   1      9    10.726     7.935    0.27E-03    0.13E-04    0.16E-06
   1      9    10.726     2.425    0.23E-03    0.15E-04    0.14E-06
 Optimization of the real space projectors (new method)

 maximal supplied QI-value         = 24.76
 optimisation between [QCUT,QGAM] = [ 10.64, 21.54] = [ 31.73,129.89] Ry 
 Optimized for a Real-space Cutoff    1.23 Angstroem

   l    n(q)    QCUT    max X(q) W(low)/X(q) W(high)/X(q)  e(spline) 
   0      8    10.645    20.381    0.38E-03    0.60E-03    0.15E-06
   0      8    10.645    15.268    0.40E-03    0.65E-03    0.17E-06
   1      7    10.645     5.964    0.30E-03    0.63E-03    0.18E-06
   1      7    10.645     5.382    0.24E-03    0.53E-03    0.16E-06
  PAW_PBE Ga_d 06Jul2010                :
 energy of atom  1       EATOM=-2148.8298
 kinetic energy error for atom=    0.0038 (will be added to EATOM!!)
  PAW_PBE O 08Apr2002                   :
 energy of atom  2       EATOM= -432.3788
 kinetic energy error for atom=    0.0389 (will be added to EATOM!!)
 
 
 POSCAR: Ga8 O12
  positions in direct lattice
  velocities in cartesian coordinates
 exchange correlation table for  LEXCH =        8
   RHO(1)=    0.500       N(1)  =     2000
   RHO(2)=  100.500       N(2)  =     4000
 


--------------------------------------------------------------------------------------------------------


 ion  position               nearest neighbor table
   1  0.659  0.000  0.313-  15 1.94  14 1.95  14 1.95  12 2.01  11 2.09  11 2.09
   2  0.841  0.500  0.687-  16 1.94  13 1.95  13 1.95  11 2.01  12 2.09  12 2.09
   3  0.591  0.500  0.795-  14 1.84  10 1.85  10 1.85  11 1.87
   4  0.909  0.000  0.205-  13 1.84   9 1.85   9 1.85  12 1.87
   5  0.159  0.500  0.313-   9 1.94  20 1.95  20 1.95  18 2.01  17 2.09  17 2.09
   6  0.341  0.000  0.687-  10 1.94  19 1.95  19 1.95  17 2.01  18 2.09  18 2.09
   7  0.091  0.000  0.795-  20 1.84  16 1.85  16 1.85  17 1.87
   8  0.409  0.500  0.205-  19 1.84  15 1.85  15 1.85  18 1.87
   9  0.997  0.500  0.256-   4 1.85   4 1.85   5 1.94
  10  0.503  0.000  0.744-   3 1.85   3 1.85   6 1.94
  11  0.674  0.500  0.563-   3 1.87   2 2.01   1 2.09   1 2.09
  12  0.826  0.000  0.437-   4 1.87   1 2.01   2 2.09   2 2.09
  13  0.833  0.000  0.893-   4 1.84   2 1.95   2 1.95
  14  0.667  0.500  0.107-   3 1.84   1 1.95   1 1.95
  15  0.497  0.000  0.256-   8 1.85   8 1.85   1 1.94
  16  0.003  0.500  0.744-   7 1.85   7 1.85   2 1.94
  17  0.174  0.000  0.563-   7 1.87   6 2.01   5 2.09   5 2.09
  18  0.326  0.500  0.437-   8 1.87   5 2.01   6 2.09   6 2.09
  19  0.333  0.500  0.893-   8 1.84   6 1.95   6 1.95
  20  0.167  0.000  0.107-   7 1.84   5 1.95   5 1.95
 
  LATTYP: Found a simple monoclinic cell.
 ALAT       =     5.8174101232
 B/A-ratio  =     0.5238701220
 C/A-ratio  =     2.1099131345
 COS(beta)  =    -0.2359030828
  
  Lattice vectors:
  
 A1 = (   0.0000000000,  -1.3841308865,  -5.6503488592)
 A2 = (   3.0475673512,   0.0000000000,   0.0000000000)
 A3 = (   0.0000000000, -10.8963425307,   5.6503488592)


Analysis of symmetry for initial positions (statically):
=====================================================================
 Subroutine PRICEL returns following result:
 
  LATTYP: Found a base centered monoclinic cell.
 ALAT       =    12.2804734172
 B/A-ratio  =     0.2481636699
 C/A-ratio  =     0.4737122036
 COS(beta)  =    -0.2379290539
  
  Lattice vectors:
  
 A1 = (  -1.5237836756,   6.1402367086,   0.0000000000)
 A2 = (   1.5237836756,   6.1402367086,   0.0000000000)
 A3 = (   0.0000000000,  -1.3841308865,  -5.6503488592)
 
   2 primitive cells build up your supercell.
 

 Routine SETGRP: Setting up the symmetry group for a 
 simple monoclinic supercell.


 Subroutine GETGRP returns: Found  4 space group operations
 (whereof  4 operations were pure point group operations)
 out of a pool of  4 trial point group operations.


The static configuration has the point symmetry C_2h.


Analysis of symmetry for dynamics (positions and initial velocities):
=====================================================================
 Subroutine PRICEL returns following result:
 
  LATTYP: Found a base centered monoclinic cell.
 ALAT       =    12.2804734172
 B/A-ratio  =     0.2481636699
 C/A-ratio  =     0.4737122036
 COS(beta)  =    -0.2379290539
  
  Lattice vectors:
  
 A1 = (  -1.5237836756,   6.1402367086,   0.0000000000)
 A2 = (   1.5237836756,   6.1402367086,   0.0000000000)
 A3 = (   0.0000000000,  -1.3841308865,  -5.6503488592)
 
   2 primitive cells build up your supercell.
 

 Routine SETGRP: Setting up the symmetry group for a 
 simple monoclinic supercell.


 Subroutine GETGRP returns: Found  4 space group operations
 (whereof  4 operations were pure point group operations)
 out of a pool of  4 trial point group operations.


The dynamic configuration has the point symmetry C_2h.


 Subroutine INISYM returns: Found  4 space group operations
 (whereof  4 operations are pure point group operations),
 and found     2 'primitive' translations


----------------------------------------------------------------------------------------

                                     Primitive cell                                     

  volume of cell :     105.7338

  direct lattice vectors                    reciprocal lattice vectors
    -1.523783676  6.140236709  0.000000000    -0.328130566  0.081430085 -0.019947423
     1.523783676  6.140236709  0.000000000     0.328130566  0.081430085 -0.019947423
     0.000000000 -1.384130887 -5.650348859     0.000000000  0.000000000 -0.176980223

  length of vectors
     6.326485875  6.326485875  5.817410123     0.338671562  0.338671562  0.176980223

  position of ions in fractional coordinates (direct lattice)
     0.659051335  0.659051335  0.312607814
     0.340948665  0.340948665  0.687392186
     0.090893632  0.090893632  0.794737926
     0.909106368  0.909106368  0.205262074
     0.497198287  0.497198287  0.255845138
     0.502801713  0.502801713  0.744154862
     0.173731940  0.173731940  0.563438178
     0.826268060  0.826268060  0.436561822
     0.833171938  0.833171938  0.892621350
     0.166828062  0.166828062  0.107378650

  ion indices of the primitive-cell ions
   primitive index   ion index
                 1           1
                 2           6
                 3           7
                 4           4
                 5          15
                 6          10
                 7          17
                 8          12
                 9          13
                10          20

----------------------------------------------------------------------------------------

 
 
 KPOINTS: Automatic mesh                          

Automatic generation of k-mesh.
 Grid dimensions read from file:
 generate k-points for:    2    2    2

 Generating k-lattice:

  Cartesian coordinates                     Fractional coordinates (reciprocal lattice)
     0.000000000  0.040715043 -0.009973711     0.500000000  0.000000000 -0.000000000
     0.164065283 -0.000000000  0.000000000     0.000000000  0.500000000  0.000000000
     0.000000000  0.000000000 -0.088490111     0.000000000  0.000000000  0.500000000

  Length of vectors
     0.041918846  0.164065283  0.088490111

  Shift w.r.t. Gamma in fractional coordinates (k-lattice)
     0.000000000  0.000000000  0.000000000

 
 Subroutine IBZKPT returns following result:
 ===========================================
 
 Found      8 irreducible k-points:
 
 Following reciprocal coordinates:
            Coordinates               Weight
  0.000000  0.000000  0.000000      1.000000
  0.500000  0.000000  0.000000      1.000000
  0.000000  0.500000  0.000000      1.000000
  0.500000  0.500000  0.000000      1.000000
  0.000000  0.000000  0.500000      1.000000
  0.500000  0.000000  0.500000      1.000000
  0.000000  0.500000  0.500000      1.000000
  0.500000  0.500000  0.500000      1.000000
 
 Following cartesian coordinates:
            Coordinates               Weight
  0.000000  0.000000 -0.000000      1.000000
  0.000000  0.040715 -0.009974      1.000000
  0.164065  0.000000 -0.000000      1.000000
  0.164065  0.040715 -0.009974      1.000000
  0.000000  0.000000 -0.088490      1.000000
  0.000000  0.040715 -0.098464      1.000000
  0.164065  0.000000 -0.088490      1.000000
  0.164065  0.040715 -0.098464      1.000000
 
 
 Subroutine IBZKPT_HF returns following result:
 ==============================================
 
 Found      8 k-points in 1st BZ
 the following      8 k-points will be used (e.g. in the exchange kernel)
 Following reciprocal coordinates:   # in IRBZ
  0.000000  0.000000  0.000000    0.12500000   1 t-inv F
  0.500000  0.000000  0.000000    0.12500000   2 t-inv F
  0.000000  0.500000  0.000000    0.12500000   3 t-inv F
  0.500000  0.500000  0.000000    0.12500000   4 t-inv F
  0.000000  0.000000  0.500000    0.12500000   5 t-inv F
  0.500000  0.000000  0.500000    0.12500000   6 t-inv F
  0.000000  0.500000  0.500000    0.12500000   7 t-inv F
  0.500000  0.500000  0.500000    0.12500000   8 t-inv F


--------------------------------------------------------------------------------------------------------




 Dimension of arrays:
   k-points           NKPTS =      8   k-points in BZ     NKDIM =      8   number of bands    NBANDS=    105
   number of dos      NEDOS =    301   number of ions     NIONS =     20
   non local maximal  LDIM  =      6   non local SUM 2l+1 LMDIM =     18
   total plane-waves  NPLWV =  30720
   max r-space proj   IRMAX =   1800   max aug-charges    IRDMAX=   5704
   dimension x,y,z NGX =    64 NGY =   16 NGZ =   30
   dimension x,y,z NGXF=   128 NGYF=   32 NGZF=   60
   support grid    NGXF=   128 NGYF=   32 NGZF=   60
   ions per type =               8  12
   NGX,Y,Z   is equivalent  to a cutoff of   8.66,  8.73,  8.57 a.u.
   NGXF,Y,Z  is equivalent  to a cutoff of  17.33, 17.46, 17.15 a.u.

 SYSTEM =  unknown system                          
 POSCAR =  Ga8 O12                                 

 Startparameter for this run:
   NWRITE =      2    write-flag & timer
   PREC   = normal    normal or accurate (medium, high low for compatibility)
   ISTART =      0    job   : 0-new  1-cont  2-samecut
   ICHARG =      0    charge: 1-file 2-atom 10-const
   ISPIN  =      1    spin polarized calculation?
   LNONCOLLINEAR =      F non collinear calculations
   LSORBIT =      F    spin-orbit coupling
   INIWAV =      1    electr: 0-lowe 1-rand  2-diag
   LASPH  =      F    aspherical Exc in radial PAW
 Electronic Relaxation 1
   ENCUT  =  450.0 eV  33.07 Ry    5.75 a.u.  21.24  5.27 10.06*2*pi/ulx,y,z
   ENINI  =  450.0     initial cutoff
   ENAUG  =  605.4 eV  augmentation charge cutoff
   NELM   =    500;   NELMIN=  2; NELMDL= -5     # of ELM steps 
   EDIFF  = 0.1E-04   stopping-criterion for ELM
   LREAL  =      T    real-space projection
   NLSPLINE    = F    spline interpolate recip. space projectors
   LCOMPAT=      F    compatible to vasp.4.4
   GGA_COMPAT  = T    GGA compatible to vasp.4.4-vasp.4.6
   LMAXPAW     = -100 max onsite density
   LMAXMIX     =    2 max onsite mixed and CHGCAR
   VOSKOWN=      0    Vosko Wilk Nusair interpolation
   ROPT   =   -0.00050  -0.00050
 Ionic relaxation
   EDIFFG = -.5E-02   stopping-criterion for IOM
   NSW    =      0    number of steps for IOM
   NBLOCK =      1;   KBLOCK =      1    inner block; outer block 
   IBRION =     -1    ionic relax: 0-MD 1-quasi-New 2-CG
   NFREE  =      0    steps in history (QN), initial steepest desc. (CG)
   ISIF   =      2    stress and relaxation
   IWAVPR =     10    prediction:  0-non 1-charg 2-wave 3-comb
   ISYM   =      3    0-nonsym 1-usesym 2-fastsym
   LCORR  =      T    Harris-Foulkes like correction to forces

   POTIM  = 0.5000    time-step for ionic-motion
   TEIN   =    0.0    initial temperature
   TEBEG  =    0.0;   TEEND  =   0.0 temperature during run
   SMASS  =  -3.00    Nose mass-parameter (am)
   estimated Nose-frequenzy (Omega)   =  0.10E-29 period in steps = 0.13E+47 mass=  -0.345E-26a.u.
   SCALEE = 1.0000    scale energy and forces
   NPACO  =    256;   APACO  = 10.0  distance and # of slots for P.C.
   PSTRESS=    0.0 pullay stress

  Mass of Ions in am
   POMASS =  69.72 16.00
  Ionic Valenz
   ZVAL   =  13.00  6.00
  Atomic Wigner-Seitz radii
   RWIGS  =  -1.00 -1.00
  virtual crystal weights 
   VCA    =   1.00  1.00
   NELECT =     176.0000    total number of electrons
   NUPDOWN=      -1.0000    fix difference up-down

 DOS related values:
   EMIN   =  10.00;   EMAX   =-10.00  energy-range for DOS
   EFERMI =   0.00;   METHOD = LEGACY      
   ISMEAR =     0;   SIGMA  =   0.05  broadening in eV -4-tet -1-fermi 0-gaus

 Electronic relaxation 2 (details)
   IALGO  =     58    algorithm
   LDIAG  =      T    sub-space diagonalisation (order eigenvalues)
   LSUBROT=      F    optimize rotation matrix (better conditioning)
   TURBO    =      0    0=normal 1=particle mesh
   IRESTART =      0    0=no restart 2=restart with 2 vectors
   NREBOOT  =      0    no. of reboots
   NMIN     =      0    reboot dimension
   EREF     =   0.00    reference energy to select bands
   IMIX   =      4    mixing-type and parameters
     AMIX     =   0.40;   BMIX     =  1.00
     AMIX_MAG =   1.60;   BMIX_MAG =  1.00
     AMIN     =   0.10
     WC   =   100.;   INIMIX=   1;  MIXPRE=   1;  MAXMIX= -45

 Intra band minimization:
   WEIMIN = 0.0000     energy-eigenvalue tresh-hold
   EBREAK =  0.24E-07  absolut break condition
   DEPER  =   0.30     relativ break condition  

   TIME   =   0.40     timestep for ELM

  volume/ion in A,a.u.               =      10.57        71.35
  Fermi-wavevector in a.u.,A,eV,Ry     =   1.539919  2.910025 32.264175  2.371350
  Thomas-Fermi vector in A             =   2.646079
 
 Write flags
   LWAVE        =      T    write WAVECAR
   LDOWNSAMPLE  =      F    k-point downsampling of WAVECAR
   LCHARG       =      T    write CHGCAR
   LVTOT        =      F    write LOCPOT, total local potential
   LVHAR        =      F    write LOCPOT, Hartree potential only
   LELF         =      F    write electronic localiz. function (ELF)
   LORBIT       =      0    0 simple, 1 ext, 2 COOP (PROOUT), +10 PAW based schemes


 Dipole corrections
   LMONO  =      F    monopole corrections only (constant potential shift)
   LDIPOL =      F    correct potential (dipole corrections)
   IDIPOL =      0    1-x, 2-y, 3-z, 4-all directions 
   EPSILON=  1.0000000 bulk dielectric constant

 Exchange correlation treatment:
   GGA     =    --    GGA type
   LEXCH   =     8    internal setting for exchange type
   LIBXC   =     F    Libxc                    
   VOSKOWN =     0    Vosko Wilk Nusair interpolation
   EXXOEP  =     0    0=HF, 1=EXX-LHF (local Hartree Fock) 2=EXX OEP
   LHFCALC =     T    Hartree Fock is set to
   LSYMGRAD=     F    symmetrize gradient (conserves proper symmetry)
   PRECFOCK=fast      Normal, Fast or Accurate (Low or Medium for compatibility)
   LRHFCALC=     F    long range Hartree Fock
   LRSCOR  =     F    long range correlation only (use DFT for short range part)
   LTHOMAS =     F    Thomas Fermi screening in HF
   LMODELHF=     F    short range full HF, long range fraction AEXX
   FOCKCORR=     1    mode to apply convergence corrections
   LFOCKACE=     T    use Adeptively-Compressed-Exchange operator
   ENCUT4O =  -1.0   cutoff for four orbital integrals eV
   LMAXFOCK=     4    L truncation for augmentation on plane wave grid
   LMAXFOCKAE=  -1    L truncation for all-electron charge restoration on plane wave grid
   NMAXFOCKAE=   1    number of basis functions for all-electron charge restoration
   LFOCKAEDFT=     F  apply the AE augmentation even for DFT
   NKREDX  =     1    reduce k-point grid by
   NKREDY  =     1    reduce k-point grid by
   NKREDZ  =     1    reduce k-point grid by
   SHIFTRED=     F    shift reduced grid of Gamma
   HFKIDENT=     F    idential grid for each k-point
   ODDONLY =     F    use only odd q-grid points
   EVENONLY=     F    use only even q-grid points
   HFALPHA =   -1.0000 decay constant for conv. correction
   MCALPHA =    0.0000 extent of test-charge in conv. correction in multipole expansion
   AEXX    =    0.3200 exact exchange contribution
   HFSCREEN=    0.2000 screening length (either q_TF or 0.3 A-1)
   HFSCREENC=   0.2000 screening length for correlation (either q_TF or 0.3 A-1)
   HFRCUT  =    0.0000 spherical cutoff for potential kernel
   ALDAX   =    0.6800 LDA exchange part
   AGGAX   =    0.6800 GGA exchange part
   ALDAC   =    1.0000 LDA correlation
   AGGAC   =    1.0000 GGA correlation
   ENCUTFOCK=  -1.0 apply spherical cutoff to Coloumb kernel
   NBANDSGWLOW=     1    first orbital included in HF term
   NBLOCK_FOCK=    64    blocking factor in FOCK_ACC

 Linear response parameters
   LEPSILON=     F    determine dielectric tensor
   LRPA    =     F    only Hartree local field effects (RPA)
   LNABLA  =     F    use nabla operator in PAW spheres
   LVEL    =     F    velocity operator in full k-point grid
   CSHIFT  =0.1000    complex shift for real part using Kramers Kronig
   OMEGAMAX=  -1.0    maximum frequency
   DEG_THRESHOLD= 0.2000000E-02 threshold for treating states as degnerate
   RTIME   =   -0.100 relaxation time in fs
  (WPLASMAI=    0.000 imaginary part of plasma frequency in eV, 0.658/RTIME)
   DFIELD  = 0.0000000 0.0000000 0.0000000 field for delta impulse in time
 
  Optional k-point grid parameters
   LKPOINTS_OPT  =     F    use optional k-point grid
   KPOINTS_OPT_MODE=     1    mode for optional k-point grid
 
 Orbital magnetization related:
   ORBITALMAG=     F  switch on orbital magnetization
   LCHIMAG   =     F  perturbation theory with respect to B field
   DQ        =  0.001000  dq finite difference perturbation B field
   LLRAUG    =     F  two centre corrections for induced B field
   LBONE     =     F  B-component reconstruction in AE one-centre
   LVGVCALC  =     T  calculate vGv susceptibility
   LVGVAPPL  =     F  apply vGv susceptibility instead of pGv for G=0

 Random number generation:
   RANDOM_GENERATOR = DEFAULT
   PCG_SEED         = not used


--------------------------------------------------------------------------------------------------------


 Static calculation
 charge density and potential will be updated during run
 non-spin polarized calculation
 Conjugate gradient for all bands (Freysoldt, et al. PRB 79, 241103 (2009))
 preconditioned conjugated gradient                                        
 perform sub-space diagonalisation
    before iterative eigenvector-optimisation
 modified Broyden-mixing scheme, WC =      100.0
 initial mixing is a Kerker type mixing with AMIX =  0.4000 and BMIX =      1.0000
 Hartree-type preconditioning will be used
 using additional bands            17
 real space projection scheme for non local part
 use partial core corrections
 no Harris-corrections to forces 
 use gradient corrections 
 use of overlap-Matrix (Vanderbilt PP)
 Gauss-broadening in eV      SIGMA  =   0.05


--------------------------------------------------------------------------------------------------------


  energy-cutoff  :      450.00
  volume of cell :      211.47
      direct lattice vectors                 reciprocal lattice vectors
     0.000000000 12.280473417  0.000000000     0.000000000  0.081430085 -0.019947423
     3.047567351  0.000000000  0.000000000     0.328130566 -0.000000000  0.000000000
     0.000000000 -1.384130887 -5.650348859     0.000000000  0.000000000 -0.176980223

  length of vectors
    12.280473417  3.047567351  5.817410123     0.083837691  0.328130566  0.176980223


 
 k-points in units of 2pi/SCALE and weight: Automatic mesh                          
   0.00000000  0.00000000 -0.00000000       0.125
   0.00000000  0.04071504 -0.00997371       0.125
   0.16406528  0.00000000 -0.00000000       0.125
   0.16406528  0.04071504 -0.00997371       0.125
   0.00000000  0.00000000 -0.08849011       0.125
   0.00000000  0.04071504 -0.09846382       0.125
   0.16406528  0.00000000 -0.08849011       0.125
   0.16406528  0.04071504 -0.09846382       0.125
 
 k-points in reciprocal lattice and weights: Automatic mesh                          
   0.00000000  0.00000000  0.00000000       0.125
   0.50000000  0.00000000  0.00000000       0.125
   0.00000000  0.50000000  0.00000000       0.125
   0.50000000  0.50000000  0.00000000       0.125
   0.00000000  0.00000000  0.50000000       0.125
   0.50000000  0.00000000  0.50000000       0.125
   0.00000000  0.50000000  0.50000000       0.125
   0.50000000  0.50000000  0.50000000       0.125
 
 position of ions in fractional coordinates (direct lattice) 
   0.65905133  0.00000000  0.31260781
   0.84094867  0.50000000  0.68739219
   0.59089363  0.50000000  0.79473793
   0.90910637  0.00000000  0.20526207
   0.15905133  0.50000000  0.31260781
   0.34094867  0.00000000  0.68739219
   0.09089363  0.00000000  0.79473793
   0.40910637  0.50000000  0.20526207
   0.99719829  0.50000000  0.25584514
   0.50280171  0.00000000  0.74415486
   0.67373194  0.50000000  0.56343818
   0.82626806  0.00000000  0.43656182
   0.83317194  0.00000000  0.89262135
   0.66682806  0.50000000  0.10737865
   0.49719829  0.00000000  0.25584514
   0.00280171  0.50000000  0.74415486
   0.17373194  0.00000000  0.56343818
   0.32626806  0.50000000  0.43656182
   0.33317194  0.50000000  0.89262135
   0.16682806  0.00000000  0.10737865
 
 position of ions in cartesian coordinates  (Angst):
   0.00000000  7.66077227 -1.76634320
   1.52378368  9.37580697 -3.88400566
   1.52378368  6.15643224 -4.49054654
   0.00000000 10.88014700 -1.15980232
   1.52378368  1.52053556 -1.76634320
   0.00000000  3.23557027 -3.88400566
   0.00000000  0.01619553 -4.49054654
   1.52378368  4.73991030 -1.15980232
   1.52378368 11.89194389 -1.44561429
   0.00000000  5.14463535 -4.20473457
   1.52378368  7.49387499 -3.18362227
   0.00000000  9.54270425 -2.46672659
   0.00000000  8.99624105 -5.04362203
   1.52378368  8.04033819 -0.60672683
   0.00000000  5.75170718 -1.44561429
   1.52378368 -0.99560136 -4.20473457
   0.00000000  1.35363828 -3.18362227
   1.52378368  3.40246754 -2.46672659
   1.52378368  2.85600434 -5.04362203
   0.00000000  1.90010148 -0.60672683
 


--------------------------------------------------------------------------------------------------------


 k-point   1 :   0.0000 0.0000 0.0000  plane waves:    4593
 k-point   2 :   0.5000 0.0000 0.0000  plane waves:    4614
 k-point   3 :   0.0000 0.5000 0.0000  plane waves:    4598
 k-point   4 :   0.5000 0.5000 0.0000  plane waves:    4572
 k-point   5 :   0.0000 0.0000 0.5000  plane waves:    4588
 k-point   6 :   0.5000 0.0000 0.5000  plane waves:    4592
 k-point   7 :   0.0000 0.5000 0.5000  plane waves:    4600
 k-point   8 :   0.5000 0.5000 0.5000  plane waves:    4588

 maximum and minimum number of plane-waves per node :      4614     4572

 maximum number of plane-waves:      4614
 maximum index in each direction: 
   IXMAX=   21   IYMAX=    5   IZMAX=   10
   IXMIN=  -21   IYMIN=   -5   IZMIN=  -10


 serial   3D FFT for wavefunctions
 parallel 3D FFT for charge:
    minimum data exchange during FFTs selected (reduces bandwidth)


 FFT grid for exact exchange (Hartree Fock) 
  NGX = 48; NGY = 12; NGZ = 24

 
 Radii for the augmentation spheres in the non-local exchange
 for species   1 augmentation radius   1.392 (default was   1.031)
       energy cutoff for augmentation   1800.0
 for species   2 augmentation radius   0.974 (default was   0.722)
       energy cutoff for augmentation   1800.0
 Maximum index for augmentation-charges in exchange           745
  SETUP_FOCK is finished

 total amount of memory used by VASP MPI-rank0   255624. kBytes
=======================================================================

   base      :      30000. kBytes
   nonlr-proj:       5494. kBytes
   fftplans  :       8644. kBytes
   grid      :      15335. kBytes
   one-center:        311. kBytes
   HF        :        129. kBytes
   wavefun   :     195711. kBytes
 
     INWAV:  cpu time      0.0001: real time      0.0001
 Broyden mixing: mesh for mixing (old mesh)
   NGX = 43   NGY = 11   NGZ = 21
  (NGX  =128   NGY  = 32   NGZ  = 60)
  gives a total of   9933 points

 charge density for first step will be calculated from the start-wavefunctions


--------------------------------------------------------------------------------------------------------


 Maximum index for non-local projection operator          1709
 Maximum index for augmentation-charges          5357 (set IRDMAX)


--------------------------------------------------------------------------------------------------------


 initial charge from wavefunction
 First call to EWALD:  gamma=   0.298
 Maximum number of real-space cells 2x 5x 3
 Maximum number of reciprocal cells 5x 2x 3

    FEWALD:  cpu time      0.0034: real time      0.0034


--------------------------------------- Ionic step        1  -------------------------------------------




--------------------------------------- Iteration      1(   1)  ---------------------------------------


    POTLOK:  cpu time      0.0306: real time      0.0306
    SETDIJ:  cpu time      0.0289: real time      0.0289
    TRIAL :  cpu time      0.4624: real time      0.4662
    CORREC:  cpu time      0.0006: real time      0.0005
    --------------------------------------------
      LOOP:  cpu time      0.5571: real time      0.5608

 eigenvalue-minimisations  :  2288
 total energy-change (2. order) :-0.4829297E+04  (-0.1122198E+05)
 number of electron     175.9999887 magnetization 
 augmentation part       20.1458637 magnetization 

 Free energy of the ion-electron system (eV)
  ---------------------------------------------------
  alpha Z        PSCENC =       922.92176676
  Ewald energy   TEWEN  =    -14810.94271550
  -Hartree energ DENC   =      -367.07263865
  -exchange      EXHF   =         0.00000000
  -V(xc)+E(xc)   XCENC  =       469.39689457
  PAW double counting   =      9271.72018109   -14136.28191902
  entropy T*S    EENTRO =        -0.00140018
  eigenvalues    EBANDS =     -8495.93199529
  atomic energy  EATOM  =     22316.89519169
  ---------------------------------------------------
  free energy    TOTEN  =     -4829.29663452 eV

  energy without entropy =    -4829.29523434  energy(sigma->0) =    -4829.29593443
  exchange ACFDT corr.  =         0.00000000  see jH, gK, PRB 81, 115126


--------------------------------------------------------------------------------------------------------




--------------------------------------- Iteration      1(   2)  ---------------------------------------


    TRIAL :  cpu time      0.2931: real time      0.2931
    CORREC:  cpu time      0.0005: real time      0.0005
    --------------------------------------------
      LOOP:  cpu time      0.2939: real time      0.2948

 eigenvalue-minimisations  :  1952
 total energy-change (2. order) :-0.5904377E+04  (-0.5719273E+04)
 number of electron     175.9999887 magnetization 
 augmentation part       20.1458637 magnetization 

 Free energy of the ion-electron system (eV)
  ---------------------------------------------------
  alpha Z        PSCENC =       922.92176676
  Ewald energy   TEWEN  =    -14810.94271550
  -Hartree energ DENC   =      -367.07263865
  -exchange      EXHF   =         0.00000000
  -V(xc)+E(xc)   XCENC  =       469.39689457
  PAW double counting   =      9271.72018109   -14136.28191902
  entropy T*S    EENTRO =        -0.00644048
  eigenvalues    EBANDS =    -14400.30358787
  atomic energy  EATOM  =     22316.89519169
  ---------------------------------------------------
  free energy    TOTEN  =    -10733.67326739 eV

  energy without entropy =   -10733.66682692  energy(sigma->0) =   -10733.67004715
  exchange ACFDT corr.  =         0.00000000  see jH, gK, PRB 81, 115126


--------------------------------------------------------------------------------------------------------




--------------------------------------- Iteration      1(   3)  ---------------------------------------


    TRIAL :  cpu time      0.3448: real time      0.3447
    CORREC:  cpu time      0.0005: real time      0.0005
    --------------------------------------------
      LOOP:  cpu time      0.3454: real time      0.3458

 eigenvalue-minimisations  :  2378
 total energy-change (2. order) :-0.6806690E+03  (-0.6042650E+03)
 number of electron     175.9999887 magnetization 
 augmentation part       20.1458637 magnetization 

 Free energy of the ion-electron system (eV)
  ---------------------------------------------------
  alpha Z        PSCENC =       922.92176676
  Ewald energy   TEWEN  =    -14810.94271550
  -Hartree energ DENC   =      -367.07263865
  -exchange      EXHF   =         0.00000000
  -V(xc)+E(xc)   XCENC  =       469.39689457
  PAW double counting   =      9271.72018109   -14136.28191902
  entropy T*S    EENTRO =        -0.00251336
  eigenvalues    EBANDS =    -15080.97651458
  atomic energy  EATOM  =     22316.89519169
  ---------------------------------------------------
  free energy    TOTEN  =    -11414.34226699 eV

  energy without entropy =   -11414.33975363  energy(sigma->0) =   -11414.34101031
  exchange ACFDT corr.  =         0.00000000  see jH, gK, PRB 81, 115126


--------------------------------------------------------------------------------------------------------




--------------------------------------- Iteration      1(   4)  ---------------------------------------


    TRIAL :  cpu time      0.4015: real time      0.4014
    CORREC:  cpu time      0.0006: real time      0.0006
    --------------------------------------------
      LOOP:  cpu time      0.4023: real time      0.4027

 eigenvalue-minimisations  :  2912
 total energy-change (2. order) :-0.8074133E+02  (-0.7356222E+02)
 number of electron     175.9999887 magnetization 
 augmentation part       20.1458637 magnetization 

 Free energy of the ion-electron system (eV)
  ---------------------------------------------------
  alpha Z        PSCENC =       922.92176676
  Ewald energy   TEWEN  =    -14810.94271550
  -Hartree energ DENC   =      -367.07263865
  -exchange      EXHF   =         0.00000000
  -V(xc)+E(xc)   XCENC  =       469.39689457
  PAW double counting   =      9271.72018109   -14136.28191902
  entropy T*S    EENTRO =        -0.01828882
  eigenvalues    EBANDS =    -15161.70206486
  atomic energy  EATOM  =     22316.89519169
  ---------------------------------------------------
  free energy    TOTEN  =    -11495.08359273 eV

  energy without entropy =   -11495.06530391  energy(sigma->0) =   -11495.07444832
  exchange ACFDT corr.  =         0.00000000  see jH, gK, PRB 81, 115126


--------------------------------------------------------------------------------------------------------




--------------------------------------- Iteration      1(   5)  ---------------------------------------


    POTLOK:  cpu time      0.2471: real time      0.2471
    SETDIJ:  cpu time      0.2494: real time      0.2493
    TRIAL :  cpu time      3.2034: real time      3.2027
    CORREC:  cpu time      0.0002: real time      0.0002
    CHARGE:  cpu time      0.0334: real time      0.0334
    --------------------------------------------
      LOOP:  cpu time      3.7336: real time      3.7333

 eigenvalue-minimisations  :  2632
 total energy-change (2. order) : 0.4994167E+04  (-0.1020541E+02)
 number of electron     175.9999560 magnetization 
 augmentation part       81.1624853 magnetization 

 Free energy of the ion-electron system (eV)
  ---------------------------------------------------
  alpha Z        PSCENC =       922.92176676
  Ewald energy   TEWEN  =    -14810.94271550
  -Hartree energ DENC   =      -367.07263865
  -exchange      EXHF   =       803.47080002
  -V(xc)+E(xc)   XCENC  =       324.52451133
  PAW double counting   =      9372.05855559    -9714.89292845
  entropy T*S    EENTRO =        -0.00000000
  eigenvalues    EBANDS =    -15347.87913312
  atomic energy  EATOM  =     22316.89519169
  ---------------------------------------------------
  free energy    TOTEN  =     -6500.91659032 eV

  energy without entropy =    -6500.91659032  energy(sigma->0) =    -6500.91659032
  exchange ACFDT corr.  =        -0.32929158  see jH, gK, PRB 81, 115126


--------------------------------------------------------------------------------------------------------




--------------------------------------- Iteration      1(   6)  ---------------------------------------


    POTLOK:  cpu time      0.2523: real time      0.2523
    SETDIJ:  cpu time      0.2382: real time      0.2381
    TRIAL :  cpu time      3.1172: real time      3.1165
    CORREC:  cpu time      3.4932: real time      3.4925
    CHARGE:  cpu time      0.0330: real time      0.0330
    --------------------------------------------
      LOOP:  cpu time      7.1341: real time      7.1330

 eigenvalue-minimisations  :     0
 total energy-change (2. order) : 0.1208608E+05  (-0.5791698E+04)
 number of electron     175.9999640 magnetization 
 augmentation part       67.5201208 magnetization 

 Free energy of the ion-electron system (eV)
  ---------------------------------------------------
  alpha Z        PSCENC =       922.92176676
  Ewald energy   TEWEN  =    -14810.94271550
  -Hartree energ DENC   =    -13166.32807694
  -exchange      EXHF   =       822.52198141
  -V(xc)+E(xc)   XCENC  =       632.64162406
  PAW double counting   =     25074.39121701   -29241.69117402
  entropy T*S    EENTRO =        -0.00564102
  eigenvalues    EBANDS =     13034.75666546
  atomic energy  EATOM  =     22316.89519169
  ---------------------------------------------------
  free energy    TOTEN  =      5585.16647994 eV

  energy without entropy =     5585.17212096  energy(sigma->0) =     5585.16930045
  exchange ACFDT corr.  =         0.00000000  see jH, gK, PRB 81, 115126


--------------------------------------------------------------------------------------------------------




--------------------------------------- Iteration      1(   7)  ---------------------------------------


    POTLOK:  cpu time      0.2489: real time      0.2488
    SETDIJ:  cpu time      0.2557: real time      0.2557
    TRIAL :  cpu time      3.1356: real time      3.1349
    CORREC:  cpu time      3.4813: real time      3.4807
    CHARGE:  cpu time      0.0327: real time      0.0327
    --------------------------------------------
      LOOP:  cpu time      7.1544: real time      7.1532

 eigenvalue-minimisations  :     0
 total energy-change (2. order) :-0.3061511E+04  (-0.1299823E+04)
 number of electron     175.9999634 magnetization 
 augmentation part       67.5204487 magnetization 

 Free energy of the ion-electron system (eV)
  ---------------------------------------------------
  alpha Z        PSCENC =       922.92176676
  Ewald energy   TEWEN  =    -14810.94271550
  -Hartree energ DENC   =     -5267.67718484
  -exchange      EXHF   =       534.35929852
  -V(xc)+E(xc)   XCENC  =       433.93061291
  PAW double counting   =     29826.50889729   -32098.44148466
  entropy T*S    EENTRO =        -0.00997669
  eigenvalues    EBANDS =       666.10678676
  atomic energy  EATOM  =     22316.89519169
  ---------------------------------------------------
  free energy    TOTEN  =      2523.65552791 eV

  energy without entropy =     2523.66550459  energy(sigma->0) =     2523.66051625
  exchange ACFDT corr.  =       -24.75851590  see jH, gK, PRB 81, 115126


--------------------------------------------------------------------------------------------------------




--------------------------------------- Iteration      1(   8)  ---------------------------------------


    POTLOK:  cpu time      0.2626: real time      0.2626
    SETDIJ:  cpu time      0.2397: real time      0.2396
    TRIAL :  cpu time      3.1241: real time      3.1235
    CORREC:  cpu time      3.5003: real time      3.4996
    CHARGE:  cpu time      0.0325: real time      0.0325
    --------------------------------------------
      LOOP:  cpu time      7.1595: real time      7.1584

 eigenvalue-minimisations  :     0
 total energy-change (2. order) :-0.6877235E+03  (-0.8021508E+03)
 number of electron     175.9999576 magnetization 
 augmentation part       70.8160238 magnetization 

 Free energy of the ion-electron system (eV)
  ---------------------------------------------------
  alpha Z        PSCENC =       922.92176676
  Ewald energy   TEWEN  =    -14810.94271550
  -Hartree energ DENC   =     -4552.66947322
  -exchange      EXHF   =       523.49251127
  -V(xc)+E(xc)   XCENC  =       426.93845353
  PAW double counting   =     29317.83481692   -31639.22453411
  entropy T*S    EENTRO =        -0.00157385
  eigenvalues    EBANDS =      -669.30403337
  atomic energy  EATOM  =     22316.89519169
  ---------------------------------------------------
  free energy    TOTEN  =      1835.93200729 eV

  energy without entropy =     1835.93358114  energy(sigma->0) =     1835.93279421
  exchange ACFDT corr.  =       -13.64543414  see jH, gK, PRB 81, 115126


--------------------------------------------------------------------------------------------------------




--------------------------------------- Iteration      1(   9)  ---------------------------------------


    POTLOK:  cpu time      0.2676: real time      0.2676
    SETDIJ:  cpu time      0.2401: real time      0.2401
    TRIAL :  cpu time      3.1297: real time      3.1412
    CORREC:  cpu time      3.4893: real time      3.4885
    CHARGE:  cpu time      0.0324: real time      0.0324
    --------------------------------------------
      LOOP:  cpu time      7.1594: real time      7.1715

 eigenvalue-minimisations  :     0
 total energy-change (2. order) :-0.6999265E+03  (-0.4865572E+03)
 number of electron     175.9999609 magnetization 
 augmentation part       74.5319103 magnetization 

 Free energy of the ion-electron system (eV)
  ---------------------------------------------------
  alpha Z        PSCENC =       922.92176676
  Ewald energy   TEWEN  =    -14810.94271550
  -Hartree energ DENC   =     -4744.81276439
  -exchange      EXHF   =       535.34936737
  -V(xc)+E(xc)   XCENC  =       435.12756838
  PAW double counting   =     25781.14195606   -28427.98687041
  entropy T*S    EENTRO =        -0.00745846
  eigenvalues    EBANDS =      -871.68643551
  atomic energy  EATOM  =     22316.89519169
  ---------------------------------------------------
  free energy    TOTEN  =      1136.00549060 eV

  energy without entropy =     1136.01294907  energy(sigma->0) =     1136.00921983
  exchange ACFDT corr.  =        -9.31172407  see jH, gK, PRB 81, 115126


--------------------------------------------------------------------------------------------------------




--------------------------------------- Iteration      1(  10)  ---------------------------------------


    POTLOK:  cpu time      0.2515: real time      0.2515
    SETDIJ:  cpu time      0.2488: real time      0.2487
    TRIAL :  cpu time      3.1147: real time      3.1139
    CORREC:  cpu time      3.4851: real time      3.4843
    CHARGE:  cpu time      0.0327: real time      0.0327
    --------------------------------------------
      LOOP:  cpu time      7.1331: real time      7.1319

 eigenvalue-minimisations  :     0
 total energy-change (2. order) :-0.4413916E+03  (-0.3498296E+03)
 number of electron     175.9999627 magnetization 
 augmentation part       75.7740389 magnetization 

 Free energy of the ion-electron system (eV)
  ---------------------------------------------------
  alpha Z        PSCENC =       922.92176676
  Ewald energy   TEWEN  =    -14810.94271550
  -Hartree energ DENC   =     -5407.14357468
  -exchange      EXHF   =       566.99310839
  -V(xc)+E(xc)   XCENC  =       459.19437188
  PAW double counting   =     23488.92589700   -26313.99248704
  entropy T*S    EENTRO =        -0.00020350
  eigenvalues    EBANDS =      -528.23018486
  atomic energy  EATOM  =     22316.89519169
  ---------------------------------------------------
  free energy    TOTEN  =       694.61391517 eV

  energy without entropy =      694.61411868  energy(sigma->0) =      694.61401692
  exchange ACFDT corr.  =        -8.72801669  see jH, gK, PRB 81, 115126


--------------------------------------------------------------------------------------------------------




--------------------------------------- Iteration      1(  11)  ---------------------------------------


    POTLOK:  cpu time      0.2420: real time      0.2419
    SETDIJ:  cpu time      0.2559: real time      0.2559
    TRIAL :  cpu time      3.1322: real time      3.1316
    CORREC:  cpu time      3.6596: real time      3.6586
    CHARGE:  cpu time      0.0324: real time      0.0324
    --------------------------------------------
      LOOP:  cpu time      7.3224: real time      7.3211

 eigenvalue-minimisations  :     0
 total energy-change (2. order) :-0.3113508E+03  (-0.2029748E+03)
 number of electron     175.9999633 magnetization 
 augmentation part       74.6771031 magnetization 

 Free energy of the ion-electron system (eV)
  ---------------------------------------------------
  alpha Z        PSCENC =       922.92176676
  Ewald energy   TEWEN  =    -14810.94271550
  -Hartree energ DENC   =     -5612.66165587
  -exchange      EXHF   =       592.69846416
  -V(xc)+E(xc)   XCENC  =       475.31207896
  PAW double counting   =     22129.33953003   -24912.67695050
  entropy T*S    EENTRO =        -0.01366817
  eigenvalues    EBANDS =      -717.62240411
  atomic energy  EATOM  =     22316.89519169
  ---------------------------------------------------
  free energy    TOTEN  =       383.26310212 eV

  energy without entropy =      383.27677029  energy(sigma->0) =      383.26993620
  exchange ACFDT corr.  =        -5.68978736  see jH, gK, PRB 81, 115126


--------------------------------------------------------------------------------------------------------




--------------------------------------- Iteration      1(  12)  ---------------------------------------


    POTLOK:  cpu time      0.2722: real time      0.2721
    SETDIJ:  cpu time      0.2380: real time      0.2380
    TRIAL :  cpu time      3.1270: real time      3.1261
    CORREC:  cpu time      3.4830: real time      3.4822
    CHARGE:  cpu time      0.0325: real time      0.0325
    --------------------------------------------
      LOOP:  cpu time      7.1529: real time      7.1534

 eigenvalue-minimisations  :     0
 total energy-change (2. order) :-0.2042521E+03  (-0.9309110E+02)
 number of electron     175.9999665 magnetization 
 augmentation part       75.6293167 magnetization 

 Free energy of the ion-electron system (eV)
  ---------------------------------------------------
  alpha Z        PSCENC =       922.92176676
  Ewald energy   TEWEN  =    -14810.94271550
  -Hartree energ DENC   =     -5542.99787196
  -exchange      EXHF   =       613.82071233
  -V(xc)+E(xc)   XCENC  =       480.81531874
  PAW double counting   =     21058.48779497   -23616.28681703
  entropy T*S    EENTRO =        -0.00002316
  eigenvalues    EBANDS =     -1243.68871606
  atomic energy  EATOM  =     22316.89519169
  ---------------------------------------------------
  free energy    TOTEN  =       179.01099577 eV

  energy without entropy =      179.01101894  energy(sigma->0) =      179.01100735
  exchange ACFDT corr.  =        -4.69421415  see jH, gK, PRB 81, 115126


--------------------------------------------------------------------------------------------------------




--------------------------------------- Iteration      1(  13)  ---------------------------------------


    POTLOK:  cpu time      0.2512: real time      0.2512
    SETDIJ:  cpu time      0.2411: real time      0.2410
    TRIAL :  cpu time      3.1125: real time      3.1117
    CORREC:  cpu time      3.4901: real time      3.4891
    CHARGE:  cpu time      0.0326: real time      0.0326
    --------------------------------------------
      LOOP:  cpu time      7.1277: real time      7.1262

 eigenvalue-minimisations  :     0
 total energy-change (2. order) :-0.9121437E+02  (-0.1172170E+03)
 number of electron     175.9999699 magnetization 
 augmentation part       76.6208822 magnetization 

 Free energy of the ion-electron system (eV)
  ---------------------------------------------------
  alpha Z        PSCENC =       922.92176676
  Ewald energy   TEWEN  =    -14810.94271550
  -Hartree energ DENC   =     -5604.75582719
  -exchange      EXHF   =       629.47668352
  -V(xc)+E(xc)   XCENC  =       485.70009753
  PAW double counting   =     20616.89953547   -23137.46875203
  entropy T*S    EENTRO =        -0.00325386
  eigenvalues    EBANDS =     -1330.92933267
  atomic energy  EATOM  =     22316.89519169
  ---------------------------------------------------
  free energy    TOTEN  =        87.79662442 eV

  energy without entropy =       87.79987828  energy(sigma->0) =       87.79825135
  exchange ACFDT corr.  =        -5.98765995  see jH, gK, PRB 81, 115126


--------------------------------------------------------------------------------------------------------




--------------------------------------- Iteration      1(  14)  ---------------------------------------


    POTLOK:  cpu time      0.2421: real time      0.2421
    SETDIJ:  cpu time      0.2527: real time      0.2529
    TRIAL :  cpu time      3.1182: real time      3.1175
    CORREC:  cpu time      3.4911: real time      3.4902
    CHARGE:  cpu time      0.0324: real time      0.0324
    --------------------------------------------
      LOOP:  cpu time      7.1367: real time      7.1357

 eigenvalue-minimisations  :     0
 total energy-change (2. order) :-0.1159616E+03  (-0.7213376E+02)
 number of electron     175.9999702 magnetization 
 augmentation part       77.1477370 magnetization 

 Free energy of the ion-electron system (eV)
  ---------------------------------------------------
  alpha Z        PSCENC =       922.92176676
  Ewald energy   TEWEN  =    -14810.94271550
  -Hartree energ DENC   =     -5672.64972472
  -exchange      EXHF   =       639.29454233
  -V(xc)+E(xc)   XCENC  =       488.04104240
  PAW double counting   =     20200.43020374   -22781.02305019
  entropy T*S    EENTRO =        -0.00098718
  eigenvalues    EBANDS =     -1331.12899077
  atomic energy  EATOM  =     22316.89519169
  ---------------------------------------------------
  free energy    TOTEN  =       -28.16498810 eV

  energy without entropy =      -28.16400092  energy(sigma->0) =      -28.16449451
  exchange ACFDT corr.  =        -0.07800381  see jH, gK, PRB 81, 115126


--------------------------------------------------------------------------------------------------------




--------------------------------------- Iteration      1(  15)  ---------------------------------------


    POTLOK:  cpu time      0.2549: real time      0.2549
    SETDIJ:  cpu time      0.2471: real time      0.2470
    TRIAL :  cpu time      3.1237: real time      3.1230
    CORREC:  cpu time      3.4817: real time      3.4808
    CHARGE:  cpu time      0.0326: real time      0.0325
    --------------------------------------------
      LOOP:  cpu time      7.1402: real time      7.1387

 eigenvalue-minimisations  :     0
 total energy-change (2. order) :-0.7426029E+02  (-0.3854212E+02)
 number of electron     175.9999706 magnetization 
 augmentation part       76.4103198 magnetization 

 Free energy of the ion-electron system (eV)
  ---------------------------------------------------
  alpha Z        PSCENC =       922.92176676
  Ewald energy   TEWEN  =    -14810.94271550
  -Hartree energ DENC   =     -5691.21614881
  -exchange      EXHF   =       644.26893337
  -V(xc)+E(xc)   XCENC  =       487.90351752
  PAW double counting   =     20200.53208617   -22843.28658062
  entropy T*S    EENTRO =        -0.00000000
  eigenvalues    EBANDS =     -1329.50034256
  atomic energy  EATOM  =     22316.89519169
  ---------------------------------------------------
  free energy    TOTEN  =      -102.42527916 eV

  energy without entropy =     -102.42527916  energy(sigma->0) =     -102.42527916
  exchange ACFDT corr.  =        -0.05657840  see jH, gK, PRB 81, 115126


--------------------------------------------------------------------------------------------------------




--------------------------------------- Iteration      1(  16)  ---------------------------------------


    POTLOK:  cpu time      0.2507: real time      0.2506
    SETDIJ:  cpu time      0.2485: real time      0.2484
    TRIAL :  cpu time      3.1083: real time      3.1201
    CORREC:  cpu time      3.4976: real time      3.5078
    CHARGE:  cpu time      0.0328: real time      0.0327
    --------------------------------------------
      LOOP:  cpu time      7.1380: real time      7.1601

 eigenvalue-minimisations  :     0
 total energy-change (2. order) :-0.3358348E+02  (-0.1666774E+02)
 number of electron     175.9999709 magnetization 
 augmentation part       76.7215769 magnetization 

 Free energy of the ion-electron system (eV)
  ---------------------------------------------------
  alpha Z        PSCENC =       922.92176676
  Ewald energy   TEWEN  =    -14810.94271550
  -Hartree energ DENC   =     -5594.87315493
  -exchange      EXHF   =       646.02868985
  -V(xc)+E(xc)   XCENC  =       485.02796343
  PAW double counting   =     20086.14506907   -22654.08243607
  entropy T*S    EENTRO =        -0.00000000
  eigenvalues    EBANDS =     -1533.12913534
  atomic energy  EATOM  =     22316.89519169
  ---------------------------------------------------
  free energy    TOTEN  =      -136.00876104 eV

  energy without entropy =     -136.00876104  energy(sigma->0) =     -136.00876104
  exchange ACFDT corr.  =        -0.00987261  see jH, gK, PRB 81, 115126


--------------------------------------------------------------------------------------------------------




--------------------------------------- Iteration      1(  17)  ---------------------------------------


    POTLOK:  cpu time      0.2537: real time      0.2537
    SETDIJ:  cpu time      0.2525: real time      0.2524
    TRIAL :  cpu time      3.1161: real time      3.1154
    CORREC:  cpu time      3.4892: real time      3.4883
    CHARGE:  cpu time      0.0321: real time      0.0321
    --------------------------------------------
      LOOP:  cpu time      7.1439: real time      7.1425

 eigenvalue-minimisations  :     0
 total energy-change (2. order) :-0.1258565E+02  (-0.5425733E+01)
 number of electron     175.9999713 magnetization 
 augmentation part       76.7914438 magnetization 

 Free energy of the ion-electron system (eV)
  ---------------------------------------------------
  alpha Z        PSCENC =       922.92176676
  Ewald energy   TEWEN  =    -14810.94271550
  -Hartree energ DENC   =     -5628.29322807
  -exchange      EXHF   =       648.33870048
  -V(xc)+E(xc)   XCENC  =       485.63726952
  PAW double counting   =     20194.15423772   -22787.01113121
  entropy T*S    EENTRO =        -0.00000000
  eigenvalues    EBANDS =     -1490.29450318
  atomic energy  EATOM  =     22316.89519169
  ---------------------------------------------------
  free energy    TOTEN  =      -148.59441180 eV

  energy without entropy =     -148.59441180  energy(sigma->0) =     -148.59441180
  exchange ACFDT corr.  =        -0.00000000  see jH, gK, PRB 81, 115126


--------------------------------------------------------------------------------------------------------




--------------------------------------- Iteration      1(  18)  ---------------------------------------


    POTLOK:  cpu time      0.2667: real time      0.2666
    SETDIJ:  cpu time      0.2391: real time      0.2390
    TRIAL :  cpu time      3.1061: real time      3.1054
    CORREC:  cpu time      3.4858: real time      3.4849
    CHARGE:  cpu time      0.0321: real time      0.0321
    --------------------------------------------
      LOOP:  cpu time      7.1301: real time      7.1287

 eigenvalue-minimisations  :     0
 total energy-change (2. order) :-0.5400059E+01  (-0.2629367E+01)
 number of electron     175.9999717 magnetization 
 augmentation part       76.7565964 magnetization 

 Free energy of the ion-electron system (eV)
  ---------------------------------------------------
  alpha Z        PSCENC =       922.92176676
  Ewald energy   TEWEN  =    -14810.94271550
  -Hartree energ DENC   =     -5641.00342888
  -exchange      EXHF   =       648.58221360
  -V(xc)+E(xc)   XCENC  =       485.79082414
  PAW double counting   =     20285.24375058   -22886.49572208
  entropy T*S    EENTRO =        -0.00000000
  eigenvalues    EBANDS =     -1474.98635100
  atomic energy  EATOM  =     22316.89519169
  ---------------------------------------------------
  free energy    TOTEN  =      -153.99447068 eV

  energy without entropy =     -153.99447068  energy(sigma->0) =     -153.99447068
  exchange ACFDT corr.  =        -0.00000000  see jH, gK, PRB 81, 115126


--------------------------------------------------------------------------------------------------------




--------------------------------------- Iteration      1(  19)  ---------------------------------------


    POTLOK:  cpu time      0.2407: real time      0.2406
    SETDIJ:  cpu time      0.2667: real time      0.2667
    TRIAL :  cpu time      3.1094: real time      3.1175
    CORREC:  cpu time      3.4773: real time      3.4886
    CHARGE:  cpu time      0.0323: real time      0.0322
    --------------------------------------------
      LOOP:  cpu time      7.1267: real time      7.1490

 eigenvalue-minimisations  :     0
 total energy-change (2. order) :-0.2634333E+01  (-0.1024188E+01)
 number of electron     175.9999717 magnetization 
 augmentation part       76.8180223 magnetization 

 Free energy of the ion-electron system (eV)
  ---------------------------------------------------
  alpha Z        PSCENC =       922.92176676
  Ewald energy   TEWEN  =    -14810.94271550
  -Hartree energ DENC   =     -5645.14513890
  -exchange      EXHF   =       649.06706223
  -V(xc)+E(xc)   XCENC  =       486.09593012
  PAW double counting   =     20294.23271208   -22886.60129311
  entropy T*S    EENTRO =        -0.00000000
  eigenvalues    EBANDS =     -1483.15231859
  atomic energy  EATOM  =     22316.89519169
  ---------------------------------------------------
  free energy    TOTEN  =      -156.62880321 eV

  energy without entropy =     -156.62880321  energy(sigma->0) =     -156.62880321
  exchange ACFDT corr.  =        -0.00000000  see jH, gK, PRB 81, 115126


--------------------------------------------------------------------------------------------------------




--------------------------------------- Iteration      1(  20)  ---------------------------------------


    POTLOK:  cpu time      0.2667: real time      0.2666
    SETDIJ:  cpu time      0.2415: real time      0.2414
    TRIAL :  cpu time      3.1073: real time      3.1064
    CORREC:  cpu time      3.4883: real time      3.4875
    CHARGE:  cpu time      0.0327: real time      0.0326
    --------------------------------------------
      LOOP:  cpu time      7.1367: real time      7.1350

 eigenvalue-minimisations  :     0
 total energy-change (2. order) :-0.1027229E+01  (-0.5037086E+00)
 number of electron     175.9999715 magnetization 
 augmentation part       76.8727052 magnetization 

 Free energy of the ion-electron system (eV)
  ---------------------------------------------------
  alpha Z        PSCENC =       922.92176676
  Ewald energy   TEWEN  =    -14810.94271550
  -Hartree energ DENC   =     -5655.15034569
  -exchange      EXHF   =       649.58432314
  -V(xc)+E(xc)   XCENC  =       486.56506558
  PAW double counting   =     20277.16354699   -22870.89748440
  entropy T*S    EENTRO =        -0.00000000
  eigenvalues    EBANDS =     -1473.79538121
  atomic energy  EATOM  =     22316.89519169
  ---------------------------------------------------
  free energy    TOTEN  =      -157.65603265 eV

  energy without entropy =     -157.65603265  energy(sigma->0) =     -157.65603265
  exchange ACFDT corr.  =        -0.00000000  see jH, gK, PRB 81, 115126


--------------------------------------------------------------------------------------------------------




--------------------------------------- Iteration      1(  21)  ---------------------------------------


    POTLOK:  cpu time      0.2466: real time      0.2465
    SETDIJ:  cpu time      0.2434: real time      0.2433
    TRIAL :  cpu time      3.1199: real time      3.1191
    CORREC:  cpu time      3.4821: real time      3.4812
    CHARGE:  cpu time      0.0324: real time      0.0324
    --------------------------------------------
      LOOP:  cpu time      7.1246: real time      7.1231

 eigenvalue-minimisations  :     0
 total energy-change (2. order) :-0.5036908E+00  (-0.2218554E+00)
 number of electron     175.9999714 magnetization 
 augmentation part       76.8701362 magnetization 

 Free energy of the ion-electron system (eV)
  ---------------------------------------------------
  alpha Z        PSCENC =       922.92176676
  Ewald energy   TEWEN  =    -14810.94271550
  -Hartree energ DENC   =     -5656.88098530
  -exchange      EXHF   =       649.74937624
  -V(xc)+E(xc)   XCENC  =       486.67591916
  PAW double counting   =     20265.14491436   -22862.60594029
  entropy T*S    EENTRO =        -0.00000000
  eigenvalues    EBANDS =     -1469.11725061
  atomic energy  EATOM  =     22316.89519169
  ---------------------------------------------------
  free energy    TOTEN  =      -158.15972349 eV

  energy without entropy =     -158.15972349  energy(sigma->0) =     -158.15972349
  exchange ACFDT corr.  =         0.00000000  see jH, gK, PRB 81, 115126


--------------------------------------------------------------------------------------------------------




--------------------------------------- Iteration      1(  22)  ---------------------------------------


    POTLOK:  cpu time      0.2596: real time      0.2596
    SETDIJ:  cpu time      0.2433: real time      0.2432
    TRIAL :  cpu time      3.1053: real time      3.1045
    CORREC:  cpu time      3.4890: real time      3.4880
    CHARGE:  cpu time      0.0324: real time      0.0324
    --------------------------------------------
      LOOP:  cpu time      7.1299: real time      7.1283

 eigenvalue-minimisations  :     0
 total energy-change (2. order) :-0.2213147E+00  (-0.9881553E-01)
 number of electron     175.9999714 magnetization 
 augmentation part       76.8625235 magnetization 

 Free energy of the ion-electron system (eV)
  ---------------------------------------------------
  alpha Z        PSCENC =       922.92176676
  Ewald energy   TEWEN  =    -14810.94271550
  -Hartree energ DENC   =     -5653.23329448
  -exchange      EXHF   =       649.74621060
  -V(xc)+E(xc)   XCENC  =       486.57980122
  PAW double counting   =     20254.35774904   -22850.97478718
  entropy T*S    EENTRO =        -0.00000000
  eigenvalues    EBANDS =     -1473.73096029
  atomic energy  EATOM  =     22316.89519169
  ---------------------------------------------------
  free energy    TOTEN  =      -158.38103814 eV

  energy without entropy =     -158.38103814  energy(sigma->0) =     -158.38103814
  exchange ACFDT corr.  =         0.00000000  see jH, gK, PRB 81, 115126


--------------------------------------------------------------------------------------------------------




--------------------------------------- Iteration      1(  23)  ---------------------------------------


    POTLOK:  cpu time      0.2501: real time      0.2500
    SETDIJ:  cpu time      0.2546: real time      0.2545
    TRIAL :  cpu time      3.1108: real time      3.1101
    CORREC:  cpu time      3.4879: real time      3.4870
    CHARGE:  cpu time      0.0326: real time      0.0326
    --------------------------------------------
      LOOP:  cpu time      7.1362: real time      7.1347

 eigenvalue-minimisations  :     0
 total energy-change (2. order) :-0.9863399E-01  (-0.3768977E-01)
 number of electron     175.9999715 magnetization 
 augmentation part       76.8671742 magnetization 

 Free energy of the ion-electron system (eV)
  ---------------------------------------------------
  alpha Z        PSCENC =       922.92176676
  Ewald energy   TEWEN  =    -14810.94271550
  -Hartree energ DENC   =     -5652.49755698
  -exchange      EXHF   =       649.83411872
  -V(xc)+E(xc)   XCENC  =       486.57133513
  PAW double counting   =     20245.99072812   -22841.06864859
  entropy T*S    EENTRO =        -0.00000000
  eigenvalues    EBANDS =     -1476.18389149
  atomic energy  EATOM  =     22316.89519169
  ---------------------------------------------------
  free energy    TOTEN  =      -158.47967214 eV

  energy without entropy =     -158.47967214  energy(sigma->0) =     -158.47967214
  exchange ACFDT corr.  =        -0.00000000  see jH, gK, PRB 81, 115126


--------------------------------------------------------------------------------------------------------




--------------------------------------- Iteration      1(  24)  ---------------------------------------


    POTLOK:  cpu time      0.2488: real time      0.2487
    SETDIJ:  cpu time      0.2548: real time      0.2548
    TRIAL :  cpu time      3.1120: real time      3.1112
    CORREC:  cpu time      3.4800: real time      3.4791
    CHARGE:  cpu time      0.0325: real time      0.0324
    --------------------------------------------
      LOOP:  cpu time      7.1283: real time      7.1268

 eigenvalue-minimisations  :     0
 total energy-change (2. order) :-0.3768478E-01  (-0.1418223E-01)
 number of electron     175.9999714 magnetization 
 augmentation part       76.8727178 magnetization 

 Free energy of the ion-electron system (eV)
  ---------------------------------------------------
  alpha Z        PSCENC =       922.92176676
  Ewald energy   TEWEN  =    -14810.94271550
  -Hartree energ DENC   =     -5653.27866214
  -exchange      EXHF   =       649.96550823
  -V(xc)+E(xc)   XCENC  =       486.60799738
  PAW double counting   =     20247.67269000   -22842.79779622
  entropy T*S    EENTRO =        -0.00000000
  eigenvalues    EBANDS =     -1475.56133710
  atomic energy  EATOM  =     22316.89519169
  ---------------------------------------------------
  free energy    TOTEN  =      -158.51735691 eV

  energy without entropy =     -158.51735691  energy(sigma->0) =     -158.51735691
  exchange ACFDT corr.  =         0.00000000  see jH, gK, PRB 81, 115126


--------------------------------------------------------------------------------------------------------




--------------------------------------- Iteration      1(  25)  ---------------------------------------


    POTLOK:  cpu time      0.2514: real time      0.2513
    SETDIJ:  cpu time      0.2373: real time      0.2372
    TRIAL :  cpu time      3.1137: real time      3.1130
    CORREC:  cpu time      3.4786: real time      3.4777
    CHARGE:  cpu time      0.0325: real time      0.0325
    --------------------------------------------
      LOOP:  cpu time      7.1138: real time      7.1127

 eigenvalue-minimisations  :     0
 total energy-change (2. order) :-0.1418412E-01  (-0.5718463E-02)
 number of electron     175.9999714 magnetization 
 augmentation part       76.8719249 magnetization 

 Free energy of the ion-electron system (eV)
  ---------------------------------------------------
  alpha Z        PSCENC =       922.92176676
  Ewald energy   TEWEN  =    -14810.94271550
  -Hartree energ DENC   =     -5653.89720798
  -exchange      EXHF   =       650.04290055
  -V(xc)+E(xc)   XCENC  =       486.63192363
  PAW double counting   =     20251.25331065   -22846.97511439
  entropy T*S    EENTRO =        -0.00000000
  eigenvalues    EBANDS =     -1474.46159645
  atomic energy  EATOM  =     22316.89519169
  ---------------------------------------------------
  free energy    TOTEN  =      -158.53154103 eV

  energy without entropy =     -158.53154103  energy(sigma->0) =     -158.53154103
  exchange ACFDT corr.  =        -0.00000000  see jH, gK, PRB 81, 115126


--------------------------------------------------------------------------------------------------------




--------------------------------------- Iteration      1(  26)  ---------------------------------------


    POTLOK:  cpu time      0.2577: real time      0.2576
    SETDIJ:  cpu time      0.2396: real time      0.2396
    TRIAL :  cpu time      3.1093: real time      3.1086
    CORREC:  cpu time      3.4707: real time      3.4699
    CHARGE:  cpu time      0.0323: real time      0.0323
    --------------------------------------------
      LOOP:  cpu time      7.1099: real time      7.1086

 eigenvalue-minimisations  :     0
 total energy-change (2. order) :-0.5716863E-02  (-0.2626124E-02)
 number of electron     175.9999715 magnetization 
 augmentation part       76.8694057 magnetization 

 Free energy of the ion-electron system (eV)
  ---------------------------------------------------
  alpha Z        PSCENC =       922.92176676
  Ewald energy   TEWEN  =    -14810.94271550
  -Hartree energ DENC   =     -5653.95595649
  -exchange      EXHF   =       650.04517940
  -V(xc)+E(xc)   XCENC  =       486.63353294
  PAW double counting   =     20251.03812547   -22846.82207249
  entropy T*S    EENTRO =        -0.00000000
  eigenvalues    EBANDS =     -1474.35030968
  atomic energy  EATOM  =     22316.89519169
  ---------------------------------------------------
  free energy    TOTEN  =      -158.53725790 eV

  energy without entropy =     -158.53725790  energy(sigma->0) =     -158.53725790
  exchange ACFDT corr.  =         0.00000000  see jH, gK, PRB 81, 115126


--------------------------------------------------------------------------------------------------------




--------------------------------------- Iteration      1(  27)  ---------------------------------------


    POTLOK:  cpu time      0.2623: real time      0.2623
    SETDIJ:  cpu time      0.2395: real time      0.2395
    TRIAL :  cpu time      3.1043: real time      3.1037
    CORREC:  cpu time      3.4824: real time      3.4816
    CHARGE:  cpu time      0.0323: real time      0.0323
    --------------------------------------------
      LOOP:  cpu time      7.1211: real time      7.1200

 eigenvalue-minimisations  :     0
 total energy-change (2. order) :-0.2625345E-02  (-0.1113521E-02)
 number of electron     175.9999715 magnetization 
 augmentation part       76.8688587 magnetization 

 Free energy of the ion-electron system (eV)
  ---------------------------------------------------
  alpha Z        PSCENC =       922.92176676
  Ewald energy   TEWEN  =    -14810.94271550
  -Hartree energ DENC   =     -5653.74252260
  -exchange      EXHF   =       650.01496670
  -V(xc)+E(xc)   XCENC  =       486.62528567
  PAW double counting   =     20249.03767709   -22844.61868089
  entropy T*S    EENTRO =        -0.00000000
  eigenvalues    EBANDS =     -1474.73085217
  atomic energy  EATOM  =     22316.89519169
  ---------------------------------------------------
  free energy    TOTEN  =      -158.53988324 eV

  energy without entropy =     -158.53988324  energy(sigma->0) =     -158.53988324
  exchange ACFDT corr.  =        -0.00000000  see jH, gK, PRB 81, 115126


--------------------------------------------------------------------------------------------------------




--------------------------------------- Iteration      1(  28)  ---------------------------------------


    POTLOK:  cpu time      0.2696: real time      0.2696
    SETDIJ:  cpu time      0.2422: real time      0.2422
    TRIAL :  cpu time      3.1186: real time      3.1177
    CORREC:  cpu time      3.4943: real time      3.4933
    CHARGE:  cpu time      0.0324: real time      0.0324
    --------------------------------------------
      LOOP:  cpu time      7.1574: real time      7.1557

[...]
     99      12.3885      0.00000
    100      12.3907      0.00000
    101      14.6793      0.00000
    102      14.7807      0.00000
    103      15.4256      0.00000
    104      17.8652      0.00000
    105      18.1541      0.00000

 k-point     7 :       0.0000    0.5000    0.5000
  band No.  band energies     occupation 
      1     -17.3929      2.00000
      2     -17.3925      2.00000
      3     -17.3557      2.00000
      4     -17.3553      2.00000
      5     -17.1681      2.00000
      6     -17.1681      2.00000
      7     -17.1458      2.00000
      8     -17.1457      2.00000
      9     -16.8721      2.00000
     10     -16.8720      2.00000
     11     -16.8567      2.00000
     12     -16.8566      2.00000
     13     -12.9081      2.00000
     14     -12.9080      2.00000
     15     -12.9046      2.00000
     16     -12.9046      2.00000
     17     -12.8750      2.00000
     18     -12.8750      2.00000
     19     -12.8686      2.00000
     20     -12.8686      2.00000
     21     -12.8062      2.00000
     22     -12.8062      2.00000
     23     -12.7978      2.00000
     24     -12.7978      2.00000
     25     -12.7602      2.00000
     26     -12.7602      2.00000
     27     -12.7293      2.00000
     28     -12.7293      2.00000
     29     -12.7181      2.00000
     30     -12.7180      2.00000
     31     -12.6930      2.00000
     32     -12.6930      2.00000
     33     -12.5892      2.00000
     34     -12.5892      2.00000
     35     -12.5885      2.00000
     36     -12.5885      2.00000
     37     -12.5453      2.00000
     38     -12.5452      2.00000
     39     -12.5390      2.00000
     40     -12.5389      2.00000
     41     -12.5028      2.00000
     42     -12.5028      2.00000
     43     -12.5003      2.00000
     44     -12.5003      2.00000
     45     -12.0949      2.00000
     46     -12.0949      2.00000
     47     -12.0794      2.00000
     48     -12.0793      2.00000
     49     -11.8783      2.00000
     50     -11.8782      2.00000
     51     -11.8414      2.00000
     52     -11.8414      2.00000
     53      -4.4374      2.00000
     54      -4.4372      2.00000
     55      -4.1296      2.00000
     56      -4.1295      2.00000
     57      -3.8109      2.00000
     58      -3.8106      2.00000
     59      -3.7972      2.00000
     60      -3.7971      2.00000
     61      -2.7483      2.00000
     62      -2.7482      2.00000
     63      -2.5715      2.00000
     64      -2.5714      2.00000
     65      -1.6555      2.00000
     66      -1.6554      2.00000
     67      -1.2321      2.00000
     68      -1.2321      2.00000
     69      -1.1302      2.00000
     70      -1.1301      2.00000
     71      -0.7497      2.00000
     72      -0.7495      2.00000
     73      -0.0410      2.00000
     74      -0.0409      2.00000
     75       0.0055      2.00000
     76       0.0056      2.00000
     77       0.6572      2.00000
     78       0.6576      2.00000
     79       0.8776      2.00000
     80       0.8778      2.00000
     81       1.0395      2.00000
     82       1.0398      2.00000
     83       1.1152      2.00000
     84       1.1154      2.00000
     85       1.2887      2.00000
     86       1.2887      2.00000
     87       1.5006      2.00000
     88       1.5007      2.00000
     89      11.5356      0.00000
     90      11.5357      0.00000
     91      11.6177      0.00000
     92      11.6178      0.00000
     93      12.4733      0.00000
     94      12.4802      0.00000
     95      12.9628      0.00000
     96      12.9640      0.00000
     97      13.1854      0.00000
     98      13.2175      0.00000
     99      13.7863      0.00000
    100      13.9675      0.00000
    101      14.2686      0.00000
    102      14.4625      0.00000
    103      14.5795      0.00000
    104      15.7325      0.00000
    105      16.8180      0.00000

 k-point     8 :       0.5000    0.5000    0.5000
  band No.  band energies     occupation 
      1     -17.3906      2.00000
      2     -17.3901      2.00000
      3     -17.3588      2.00000
      4     -17.3585      2.00000
      5     -17.1604      2.00000
      6     -17.1604      2.00000
      7     -17.1525      2.00000
      8     -17.1523      2.00000
      9     -16.8722      2.00000
     10     -16.8721      2.00000
     11     -16.8565      2.00000
     12     -16.8564      2.00000
     13     -12.9163      2.00000
     14     -12.9163      2.00000
     15     -12.9005      2.00000
     16     -12.9004      2.00000
     17     -12.8696      2.00000
     18     -12.8696      2.00000
     19     -12.8689      2.00000
     20     -12.8689      2.00000
     21     -12.8065      2.00000
     22     -12.8065      2.00000
     23     -12.8008      2.00000
     24     -12.8008      2.00000
     25     -12.7570      2.00000
     26     -12.7569      2.00000
     27     -12.7291      2.00000
     28     -12.7291      2.00000
     29     -12.7182      2.00000
     30     -12.7182      2.00000
     31     -12.6902      2.00000
     32     -12.6902      2.00000
     33     -12.5907      2.00000
     34     -12.5907      2.00000
     35     -12.5905      2.00000
     36     -12.5905      2.00000
     37     -12.5420      2.00000
     38     -12.5419      2.00000
     39     -12.5417      2.00000
     40     -12.5416      2.00000
     41     -12.5060      2.00000
     42     -12.5060      2.00000
     43     -12.4978      2.00000
     44     -12.4977      2.00000
     45     -12.1001      2.00000
     46     -12.1000      2.00000
     47     -12.0770      2.00000
     48     -12.0769      2.00000
     49     -11.8646      2.00000
     50     -11.8645      2.00000
     51     -11.8525      2.00000
     52     -11.8524      2.00000
     53      -4.4248      2.00000
     54      -4.4246      2.00000
     55      -4.1598      2.00000
     56      -4.1597      2.00000
     57      -3.8103      2.00000
     58      -3.8100      2.00000
     59      -3.7797      2.00000
     60      -3.7796      2.00000
     61      -2.7453      2.00000
     62      -2.7452      2.00000
     63      -2.5368      2.00000
     64      -2.5367      2.00000
     65      -1.7089      2.00000
     66      -1.7088      2.00000
     67      -1.5223      2.00000
     68      -1.5223      2.00000
     69      -0.7018      2.00000
     70      -0.7015      2.00000
     71      -0.5725      2.00000
     72      -0.5724      2.00000
     73      -0.2851      2.00000
     74      -0.2851      2.00000
     75      -0.1518      2.00000
     76      -0.1516      2.00000
     77       0.7969      2.00000
     78       0.7973      2.00000
     79       0.8935      2.00000
     80       0.8939      2.00000
     81       1.0119      2.00000
     82       1.0120      2.00000
     83       1.0364      2.00000
     84       1.0366      2.00000
     85       1.3950      2.00000
     86       1.3950      2.00000
     87       1.4468      2.00000
     88       1.4470      2.00000
     89      11.5518      0.00000
     90      11.5519      0.00000
     91      11.5939      0.00000
     92      11.5940      0.00000
     93      12.6311      0.00000
     94      12.6353      0.00000
     95      12.7689      0.00000
     96      12.7901      0.00000
     97      13.2391      0.00000
     98      13.2412      0.00000
     99      13.7963      0.00000
    100      13.8496      0.00000
    101      14.1926      0.00000
    102      14.3124      0.00000
    103      14.6445      0.00000
    104      15.7841      0.00000
    105      16.6043      0.00000


--------------------------------------------------------------------------------------------------------


 soft charge-density along one line, spin component            1
         0         1         2         3         4         5         6         7         8         9
 total charge-density along one line
 
 pseudopotential strength for first ion, spin component:            1
 -8.821   0.000   0.000  -0.010   0.000  -1.338  -0.000  -0.000
  0.000  -8.860  -0.006  -0.000   0.008  -0.000  -1.315   0.004
  0.000  -0.006  -8.872  -0.000  -0.001  -0.000   0.004  -1.308
 -0.010  -0.000  -0.000  -8.862   0.000   0.008   0.000   0.000
  0.000   0.008  -0.001   0.000  -8.826  -0.000  -0.002   0.004
 -1.338  -0.000  -0.000   0.008  -0.000   5.920   0.000   0.000
 -0.000  -1.315   0.004   0.000  -0.002   0.000   5.907  -0.003
 -0.000   0.004  -1.308   0.000   0.004   0.000  -0.003   5.905
  0.008   0.000   0.000  -1.307  -0.000  -0.006  -0.000  -0.000
 -0.000  -0.002   0.004  -0.000  -1.330   0.000  -0.001  -0.004
 -0.000  -0.001  -0.002  -0.000  -0.000   0.000   0.001   0.003
  0.000   0.001   0.006   0.000  -0.000  -0.000  -0.001  -0.003
 -0.000  -0.005   0.001   0.000   0.002  -0.000   0.001  -0.000
  0.000   0.000  -0.006  -0.000   0.001  -0.000  -0.001   0.002
  0.001   0.000   0.000  -0.003  -0.000  -0.001  -0.000   0.000
  0.000   0.006  -0.002  -0.000  -0.005   0.000   0.001   0.001
 -0.000  -0.002   0.007   0.000  -0.005  -0.000   0.002   0.001
 -0.004  -0.000  -0.000  -0.004   0.000   0.004  -0.000  -0.000
 total augmentation occupancy for first ion, spin component:            1
  1.992   0.000  -0.000   0.000   0.000  -0.004   0.000   0.000   0.006   0.000   0.000   0.000   0.000   0.000   0.004  -0.000
  0.000   1.992   0.000   0.000   0.002  -0.000  -0.003   0.004   0.000   0.012  -0.001  -0.001  -0.000   0.004  -0.000   0.000
 -0.000   0.000   1.992  -0.000   0.001  -0.000   0.004  -0.004  -0.000   0.010  -0.000  -0.002   0.005  -0.000  -0.000   0.001
  0.000   0.000  -0.000   1.994  -0.000   0.006   0.000  -0.000   0.021   0.000   0.000  -0.000  -0.000   0.000   0.014   0.000
  0.000   0.002   0.001  -0.000   1.996   0.000   0.012   0.010  -0.000   0.020   0.000  -0.000   0.008   0.006  -0.000   0.001
 -0.004  -0.000  -0.000   0.006   0.000   0.053   0.000   0.000   0.036   0.000  -0.000   0.000   0.000  -0.000   0.042   0.000
  0.000  -0.003   0.004   0.000   0.012   0.000   0.069   0.020  -0.000   0.060  -0.020  -0.001  -0.005   0.032  -0.000  -0.000
  0.000   0.004  -0.004  -0.000   0.010   0.000   0.020   0.055  -0.000   0.054  -0.035  -0.002   0.029  -0.008  -0.000   0.001
  0.006   0.000  -0.000   0.021  -0.000   0.036  -0.000  -0.000   0.200  -0.000   0.000  -0.000  -0.000  -0.000   0.094  -0.000
  0.000   0.012   0.010   0.000   0.020   0.000   0.060   0.054  -0.000   0.176  -0.003   0.000   0.055   0.051  -0.000   0.002
  0.000  -0.001  -0.000   0.000   0.000  -0.000  -0.020  -0.035   0.000  -0.003   0.983   0.054  -0.001   0.055  -0.000  -0.000
  0.000  -0.001  -0.002  -0.000  -0.000   0.000  -0.001  -0.002  -0.000   0.000   0.054   0.004  -0.000   0.003  -0.000  -0.000
  0.000  -0.000   0.005  -0.000   0.008   0.000  -0.005   0.029  -0.000   0.055  -0.001  -0.000   0.845  -0.037  -0.000   0.028
  0.000   0.004  -0.000   0.000   0.006  -0.000   0.032  -0.008  -0.000   0.051   0.055   0.003  -0.037   0.717   0.000  -0.001
  0.004  -0.000  -0.000   0.014  -0.000   0.042  -0.000  -0.000   0.094  -0.000  -0.000  -0.000  -0.000   0.000   0.866  -0.000
 -0.000   0.000   0.001   0.000   0.001   0.000  -0.000   0.001  -0.000   0.002  -0.000  -0.000   0.028  -0.001  -0.000   0.001
  0.000   0.001   0.000   0.000   0.001  -0.000   0.001  -0.000  -0.000   0.002   0.002   0.000  -0.001   0.023  -0.000  -0.000
  0.001   0.000  -0.000   0.003  -0.000   0.001  -0.000  -0.000   0.003  -0.000  -0.000  -0.000  -0.000  -0.000   0.028  -0.000


------------------------ aborting loop because EDIFF is reached ----------------------------------------


    FORLOC:  cpu time      0.0012: real time      0.0012
    FORHF :  cpu time      7.2700: real time      7.2682
    FORNL :  cpu time      0.1563: real time      0.1563
    STRESS:  cpu time      0.4786: real time      0.4785
    FORCOR:  cpu time      0.2731: real time      0.2731
    OFIELD:  cpu time      0.0008: real time      0.0008

  FORCE on cell =-STRESS in cart. coord.  units (eV):
  Direction    XX          YY          ZZ          XY          YZ          ZX
  --------------------------------------------------------------------------------------
  Alpha Z   922.92177   922.92177   922.92177
  Ewald   -4228.57873 -5350.08070 -5232.31906    -0.00000  -303.34886     0.00000
  Hartree  2333.73422  1617.91130  1702.03179    -0.00003  -205.37627    -0.00002
  E(xc)    -684.45708  -684.76004  -684.67787    -0.00000    -0.09157    -0.00000
  Local    -938.86914   887.65704   678.76157    -0.00003   502.18513     0.00003
  n-local   993.81607   987.51943   989.13218    -0.00001    -1.77987    -0.00007
  augment   921.47595   922.46490   923.89477     0.00001     1.10886    -0.00000
  Kinetic  2090.68265  2097.84301  2104.17924     0.00006     8.03621    -0.00011
  Fock    -1410.86912 -1410.44824 -1410.21153     0.00001    -0.01346     0.00009
  -------------------------------------------------------------------------------------
  Total      -0.14342    -8.97153    -6.28714     0.00000     0.72018     0.00000
  in kB      -1.08664   -67.97252   -47.63429     0.00000     5.45645     0.00000
  external pressure =      -38.90 kB  Pullay stress =        0.00 kB


 VOLUME and BASIS-vectors are now :
 -----------------------------------------------------------------------------
  energy-cutoff  :      450.00
  volume of cell :      211.47
      direct lattice vectors                 reciprocal lattice vectors
     0.000000000 12.280473417  0.000000000     0.000000000  0.081430085 -0.019947423
     3.047567351  0.000000000  0.000000000     0.328130566 -0.000000000  0.000000000
     0.000000000 -1.384130887 -5.650348859     0.000000000  0.000000000 -0.176980223

  length of vectors
    12.280473417  3.047567351  5.817410123     0.083837691  0.328130566  0.176980223


 FORCES acting on ions:
    Electron-Ion                     Ewald-Force                    Non-Local-Force
 -----------------------------------------------------------------------------------------------
   0.486E-04 0.427E+02 -.807E+02   0.340E-14 -.422E+02 0.850E+02   -.339E-20 -.365E+00 -.410E+01
   -.107E-03 -.427E+02 0.807E+02   0.816E-14 0.422E+02 -.850E+02   0.169E-20 0.365E+00 0.410E+01
   0.168E-03 -.437E+02 0.257E+02   0.757E-13 0.430E+02 -.280E+02   0.000E+00 0.574E+00 0.221E+01
   -.124E-03 0.437E+02 -.257E+02   -.247E-13 -.430E+02 0.280E+02   0.000E+00 -.574E+00 -.221E+01
   -.531E-04 0.427E+02 -.807E+02   0.578E-14 -.422E+02 0.850E+02   -.169E-20 -.365E+00 -.410E+01
   -.228E-04 -.427E+02 0.807E+02   0.105E-13 0.422E+02 -.850E+02   0.000E+00 0.365E+00 0.410E+01
   -.426E-05 -.437E+02 0.257E+02   0.794E-13 0.430E+02 -.280E+02   0.212E-21 0.574E+00 0.221E+01
   0.552E-04 0.437E+02 -.257E+02   -.210E-13 -.430E+02 0.280E+02   0.000E+00 -.574E+00 -.221E+01
   -.338E-04 -.134E+02 0.156E+02   0.537E-13 0.207E+02 -.194E+02   0.847E-21 -.632E+01 0.330E+01
   0.377E-04 0.134E+02 -.156E+02   -.666E-13 -.207E+02 0.194E+02   -.847E-21 0.632E+01 -.330E+01
   -.889E-04 0.668E+02 0.354E+02   -.148E-13 -.647E+02 -.305E+02   -.678E-20 -.179E+01 -.419E+01
   0.212E-04 -.668E+02 -.354E+02   0.217E-13 0.647E+02 0.305E+02   0.339E-20 0.179E+01 0.419E+01
   0.789E-04 0.120E+03 0.611E+02   -.103E-13 -.133E+03 -.577E+02   0.847E-21 0.108E+02 -.292E+01
   0.138E-04 -.120E+03 -.611E+02   -.187E-13 0.133E+03 0.577E+02   0.000E+00 -.108E+02 0.292E+01
   0.121E-03 -.134E+02 0.156E+02   0.579E-13 0.207E+02 -.194E+02   -.847E-21 -.632E+01 0.330E+01
   -.161E-03 0.134E+02 -.156E+02   -.655E-13 -.207E+02 0.194E+02   -.847E-21 0.632E+01 -.330E+01
   -.172E-03 0.668E+02 0.354E+02   -.123E-13 -.647E+02 -.305E+02   -.508E-20 -.179E+01 -.419E+01
   0.181E-03 -.668E+02 -.354E+02   0.204E-13 0.647E+02 0.305E+02   0.339E-20 0.179E+01 0.419E+01
   0.403E-05 0.120E+03 0.611E+02   -.938E-14 -.133E+03 -.577E+02   0.169E-20 0.108E+02 -.292E+01
   0.297E-05 -.120E+03 -.611E+02   -.187E-13 0.133E+03 0.577E+02   0.169E-20 -.108E+02 0.292E+01
 -----------------------------------------------------------------------------------------------
   -.364E-04 0.164E-03 0.655E-03   0.746E-13 0.256E-12 -.107E-12   -.572E-20 -.178E-14 0.222E-14
 
 
 POSITION                                       TOTAL-FORCE (eV/Angst)
 -----------------------------------------------------------------------------------
      0.00000      7.66077     -1.76634        -0.000000      0.089712      0.016906
      1.52378      9.37581     -3.88401        -0.000000     -0.089712     -0.016906
      1.52378      6.15643     -4.49055         0.000000     -0.034580      0.012673
      0.00000     10.88015     -1.15980        -0.000000      0.034580     -0.012673
      1.52378      1.52054     -1.76634        -0.000000      0.089712      0.016906
      0.00000      3.23557     -3.88401        -0.000000     -0.089712     -0.016906
      0.00000      0.01620     -4.49055        -0.000000     -0.034580      0.012673
      1.52378      4.73991     -1.15980         0.000000      0.034580     -0.012673
      1.52378     11.89194     -1.44561        -0.000000     -0.184372      0.114146
      0.00000      5.14464     -4.20473         0.000000      0.184372     -0.114146
      1.52378      7.49387     -3.18362         0.000000     -0.038567     -0.104840
      0.00000      9.54270     -2.46673         0.000000      0.038567      0.104840
      0.00000      8.99624     -5.04362         0.000000      0.386999     -0.064100
      1.52378      8.04034     -0.60673        -0.000000     -0.386999      0.064100
      0.00000      5.75171     -1.44561        -0.000000     -0.184372      0.114146
      1.52378     -0.99560     -4.20473         0.000000      0.184372     -0.114146
      0.00000      1.35364     -3.18362        -0.000000     -0.038567     -0.104840
      1.52378      3.40247     -2.46673        -0.000000      0.038567      0.104840
      1.52378      2.85600     -5.04362        -0.000000      0.386999     -0.064100
      0.00000      1.90010     -0.60673        -0.000000     -0.386999      0.064100
 -----------------------------------------------------------------------------------
    total drift:                               -0.000036      0.000164      0.000655


--------------------------------------------------------------------------------------------------------



  FREE ENERGIE OF THE ION-ELECTRON SYSTEM (eV)
  ---------------------------------------------------
  free  energy   TOTEN  =      -158.54181016 eV

  energy  without entropy=     -158.54181016  energy(sigma->0) =     -158.54181016
 


--------------------------------------------------------------------------------------------------------


    POTLOK:  cpu time      0.5084: real time      0.5108


--------------------------------------------------------------------------------------------------------


 writing wavefunctions
     LOOP+:  cpu time    224.8360: real time    225.3640
    4ORBIT:  cpu time      0.0000: real time      0.0000

 total amount of memory used by VASP MPI-rank0   296234. kBytes
=======================================================================

   base      :      30000. kBytes
   nonlr-proj:       7852. kBytes
   fftplans  :       8644. kBytes
   grid      :      15335. kBytes
   one-center:        311. kBytes
   HF        :        129. kBytes
   wavefun   :     195711. kBytes
   fock_wrk  :      38252. kBytes
 
  
  
 General timing and accounting informations for this job:
 ========================================================
  
                  Total CPU time used (sec):      233.533
                            User time (sec):      231.112
                          System time (sec):        2.420
                         Elapsed time (sec):      236.106
  
                   Maximum memory used (kb):     4123200.
                   Average memory used (kb):          N/A
  
                          Minor page faults:       178857
                          Major page faults:            3
                 Voluntary context switches:        11593
