 running    4 mpi-ranks, on    1 nodes
 distrk:  each k-point on    1 cores,    4 groups
 distr:  one band on    1 cores,    1 groups
 OpenACC runtime initialized ...    4 GPUs detected
 vasp.6.4.2 20Jul23 (build Nov 12 2023 22:16:35) complex                         
 POSCAR found type information on POSCAR GaO N 
 POSCAR found :  3 types and     120 ions
 scaLAPACK will be used selectively (only on CPU)
 LDA part: xc-table for Pade appr. of Perdew
 POSCAR, INCAR and KPOINTS ok, starting setup
 FFT: planning ... GRIDC
 FFT: planning ... GRID_SOFT
 FFT: planning ... GRID
 WAVECAR not read
 initial charge from wavefunction
 entering main loop
       N       E                     dE             d eps       ncg     rms          ort
DAV:   1    -0.213875675435E+05   -0.21388E+05   -0.54369E+05  5064   0.748E+03
DAV:   2    -0.654591292056E+05   -0.44072E+05   -0.42770E+05  5064   0.120E+03
DAV:   3    -0.700085558448E+05   -0.45494E+04   -0.40557E+04  5064   0.350E+02
DAV:   4    -0.705400476868E+05   -0.53149E+03   -0.45428E+03  5064   0.103E+02
DAV:   5    -0.375437231412E+05    0.32996E+05   -0.77049E+02  5064   0.566E+01
 gam= 0.000 g(H,U,f)=  0.687E+05 0.360E+05 0.192E+05 ort(H,U,f) = 0.000E+00 0.000E+00 0.000E+00
SDA:   6     0.191512568898E+05    0.56695E+05   -0.77049E+02  5064   0.124E+06 0.000E+00
 gam= 0.000 trial= 0.400  step= 0.246 mean= 0.400
 gam= 0.245 g(H,U,f)=  0.169E+05 0.837E+04 0.506E+04 ort(H,U,f) = 0.190E+05-0.812E+04-0.674E+04
CGA:   7     0.492645164483E+04   -0.14225E+05   -0.15257E+05  5064   0.303E+05 0.419E+04
 gam= 0.245 trial= 0.392  step= 0.233 mean= 0.392
 gam= 0.179 g(H,U,f)=  0.413E+04 0.124E+04 0.607E+02 ort(H,U,f) = 0.121E+04-0.495E+03-0.256E+02
CGA:   8     0.102091841216E+04   -0.39055E+04   -0.36484E+04  5064   0.543E+04 0.692E+03
 gam= 0.179 trial= 0.384  step= 0.322 mean= 0.384
 gam= 0.610 g(H,U,f)=  0.174E+04 0.142E+04 0.149E+03 ort(H,U,f) =-0.173E+03-0.238E+03-0.770E+02
CGA:   9     0.146668521576E+03   -0.87425E+03   -0.89284E+03  5064   0.331E+04-0.488E+03
 gam= 0.610 trial= 0.381  step= 0.301 mean= 0.381
 gam= 1.188 g(H,U,f)=  0.173E+04 0.181E+04 0.394E+03 ort(H,U,f) =-0.230E+03 0.159E+03 0.552E+02
CGA:  10    -0.294894163603E+03   -0.44156E+03   -0.45273E+03  5064   0.393E+04-0.158E+02
 gam= 1.188 trial= 0.377  step= 0.205 mean= 0.377
 gam= 0.359 g(H,U,f)=  0.120E+04 0.206E+03 0.824E+00 ort(H,U,f) =-0.248E+03 0.293E+03 0.171E+01
CGA:  11    -0.542847365854E+03   -0.24795E+03   -0.40099E+03  5064   0.141E+04 0.473E+02
 gam= 0.359 trial= 0.369  step= 0.330 mean= 0.369
 gam= 0.310 g(H,U,f)=  0.402E+03 0.354E+02 0.200E+00 ort(H,U,f) =-0.472E+02 0.911E+02 0.863E+00
CGA:  12    -0.776543570885E+03   -0.23370E+03   -0.23591E+03  5064   0.437E+03 0.448E+02
 gam= 0.310 trial= 0.367  step= 0.466 mean= 0.367
 gam= 0.538 g(H,U,f)=  0.218E+03 0.168E+02 0.497E+00 ort(H,U,f) =-0.163E+02 0.289E+02 0.133E+01
CGA:  13    -0.882740371414E+03   -0.10620E+03   -0.10519E+03  5064   0.235E+03 0.139E+02
 gam= 0.538 trial= 0.372  step= 0.453 mean= 0.372
 gam= 0.457 g(H,U,f)=  0.100E+03 0.745E+01 0.120E-03 ort(H,U,f) =-0.541E+00 0.869E+01 0.195E-03
CGA:  14    -0.938256099281E+03   -0.55516E+02   -0.54962E+02  5064   0.108E+03 0.815E+01
 gam= 0.457 trial= 0.376  step= 0.448 mean= 0.376
 gam= 0.459 g(H,U,f)=  0.451E+02 0.432E+01 0.116E-03 ort(H,U,f) =-0.833E+01 0.823E+01 0.332E-03
CGA:  15    -0.963216226859E+03   -0.24960E+02   -0.24947E+02  5064   0.494E+02-0.994E-01
 gam= 0.459 trial= 0.379  step= 0.529 mean= 0.379
 gam= 0.491 g(H,U,f)=  0.223E+02 0.197E+01 0.340E-02 ort(H,U,f) =-0.937E+01 0.372E+01 0.187E-01
CGA:  16    -0.975737473551E+03   -0.12521E+02   -0.13056E+02  5064   0.243E+02-0.564E+01
 gam= 0.491 trial= 0.387  step= 0.499 mean= 0.387
 gam= 0.492 g(H,U,f)=  0.110E+02 0.923E+00 0.250E-05 ort(H,U,f) =-0.277E+01 0.103E+01-0.381E-05
CGA:  17    -0.980945529764E+03   -0.52081E+01   -0.53668E+01  5064   0.119E+02-0.174E+01
 gam= 0.492 trial= 0.392  step= 0.472 mean= 0.392
 gam= 0.490 g(H,U,f)=  0.540E+01 0.458E+00 0.881E-05 ort(H,U,f) =-0.354E+00 0.179E+00 0.710E-05
CGA:  18    -0.983554261159E+03   -0.26087E+01   -0.26173E+01  5064   0.586E+01-0.176E+00
 gam= 0.490 trial= 0.396  step= 0.490 mean= 0.396
 gam= 0.518 g(H,U,f)=  0.273E+01 0.305E+00 0.164E-03 ort(H,U,f) =-0.111E+00 0.515E-01 0.296E-03
CGA:  19    -0.984964947503E+03   -0.14107E+01   -0.14145E+01  5064   0.303E+01-0.594E-01
 gam= 0.518 trial= 0.401  step= 0.474 mean= 0.401
 gam= 0.530 g(H,U,f)=  0.148E+01 0.123E+00 0.140E-02 ort(H,U,f) =-0.849E-01 0.811E-01 0.384E-02
CGA:  20    -0.985677041660E+03   -0.71209E+00   -0.71208E+00  5064   0.161E+01 0.100E-03
 gam= 0.530 trial= 0.405  step= 0.466 mean= 0.405
 gam= 0.505 g(H,U,f)=  0.742E+00 0.667E-01 0.328E-02 ort(H,U,f) =-0.507E-01 0.311E-01 0.178E-01
CGA:  21    -0.986051390911E+03   -0.37435E+00   -0.37443E+00  5064   0.812E+00-0.188E-02
 gam= 0.505 trial= 0.408  step= 0.465 mean= 0.408
 gam= 0.484 g(H,U,f)=  0.342E+00 0.493E-01 0.241E-02 ort(H,U,f) =-0.582E-01 0.354E-01 0.215E-01
CGA:  22    -0.986239766389E+03   -0.18838E+00   -0.18847E+00  5064   0.393E+00-0.139E-02
 gam= 0.484 trial= 0.411  step= 0.495 mean= 0.411
 gam= 0.522 g(H,U,f)=  0.185E+00 0.193E-01 0.111E-02 ort(H,U,f) =-0.428E-01 0.292E-01 0.298E-02
CGA:  23    -0.986336334637E+03   -0.96568E-01   -0.97237E-01  5064   0.205E+00-0.106E-01
 gam= 0.522 trial= 0.415  step= 0.474 mean= 0.415
 gam= 0.567 g(H,U,f)=  0.104E+00 0.111E-01 0.170E-02 ort(H,U,f) =-0.471E-02 0.104E-01-0.539E-02
CGA:  24    -0.986383698981E+03   -0.47364E-01   -0.47355E-01  5064   0.116E+00 0.312E-03
 gam= 0.567 trial= 0.418  step= 0.449 mean= 0.418
 gam= 0.566 g(H,U,f)=  0.571E-01 0.683E-02 0.202E-02 ort(H,U,f) =-0.245E-02 0.524E-02-0.250E-02
CGA:  25    -0.986409899398E+03   -0.26200E-01   -0.26194E-01  5064   0.660E-01 0.281E-03
 gam= 0.566 trial= 0.419  step= 0.434 mean= 0.419
 gam= 0.552 g(H,U,f)=  0.315E-01 0.327E-02 0.172E-02 ort(H,U,f) =-0.224E-02 0.214E-02 0.151E-03
CGA:  26    -0.986424262552E+03   -0.14363E-01   -0.14363E-01  5064   0.364E-01 0.503E-04
 gam= 0.552 trial= 0.420  step= 0.422 mean= 0.420
 gam= 0.525 g(H,U,f)=  0.157E-01 0.212E-02 0.131E-02 ort(H,U,f) =-0.211E-02 0.654E-03 0.142E-02
CGA:  27    -0.986431962398E+03   -0.76998E-02   -0.76999E-02  5064   0.191E-01-0.420E-04
 gam= 0.525 trial= 0.420  step= 0.469 mean= 0.420
 gam= 0.565 g(H,U,f)=  0.891E-02 0.105E-02 0.846E-03 ort(H,U,f) =-0.232E-02 0.578E-03 0.166E-02
CGA:  28    -0.986436436539E+03   -0.44741E-02   -0.44765E-02  5064   0.108E-01-0.824E-04
 gam= 0.565 trial= 0.423  step= 0.489 mean= 0.423
 gam= 0.552 g(H,U,f)=  0.509E-02 0.473E-03 0.408E-03 ort(H,U,f) =-0.155E-02 0.217E-03 0.126E-02
CGA:  29    -0.986439064863E+03   -0.26283E-02   -0.26311E-02  5064   0.597E-02-0.684E-04
 gam= 0.552 trial= 0.426  step= 0.521 mean= 0.426
 gam= 0.626 g(H,U,f)=  0.328E-02 0.334E-03 0.128E-03 ort(H,U,f) =-0.748E-03 0.120E-03 0.600E-03
CGA:  30    -0.986440610452E+03   -0.15456E-02   -0.15474E-02  5064   0.374E-02-0.283E-04
 gam= 0.626 trial= 0.431  step= 0.504 mean= 0.431
 gam= 0.600 g(H,U,f)=  0.205E-02 0.166E-03 0.253E-04 ort(H,U,f) =-0.280E-03 0.128E-03 0.148E-03
CGA:  31    -0.986441549098E+03   -0.93865E-03   -0.93889E-03  5064   0.224E-02-0.390E-05
 gam= 0.600 trial= 0.434  step= 0.456 mean= 0.434
 gam= 0.542 g(H,U,f)=  0.112E-02 0.830E-04 0.162E-04 ort(H,U,f) =-0.797E-05 0.388E-04-0.312E-04
CGA:  32    -0.986442060773E+03   -0.51167E-03   -0.51168E-03  5064   0.122E-02-0.346E-06
 gam= 0.542 trial= 0.436  step= 0.446 mean= 0.436
 gam= 0.543 g(H,U,f)=  0.567E-03 0.708E-04 0.224E-04 ort(H,U,f) = 0.264E-04 0.154E-04-0.394E-04
CGA:  33    -0.986442332163E+03   -0.27139E-03   -0.27138E-03  5064   0.661E-03 0.237E-05
 gam= 0.543 trial= 0.436  step= 0.472 mean= 0.436
 gam= 0.552 g(H,U,f)=  0.294E-03 0.474E-04 0.226E-04 ort(H,U,f) =-0.161E-04 0.341E-04-0.913E-05
CGA:  34    -0.986442488409E+03   -0.15625E-03   -0.15609E-03  5064   0.364E-03 0.887E-05
 gam= 0.552 trial= 0.438  step= 0.479 mean= 0.438
 gam= 0.537 g(H,U,f)=  0.158E-03 0.208E-04 0.172E-04 ort(H,U,f) =-0.253E-04 0.254E-04 0.113E-04
CGA:  35    -0.986442577043E+03   -0.88633E-04   -0.88400E-04  5064   0.196E-03 0.114E-04
 gam= 0.537 trial= 0.440  step= 0.504 mean= 0.440
 gam= 0.605 g(H,U,f)=  0.982E-04 0.975E-05 0.102E-04 ort(H,U,f) =-0.151E-04 0.734E-05 0.160E-04
CGA:  36    -0.986442628124E+03   -0.51081E-04   -0.50820E-04  5064   0.118E-03 0.816E-05
 gam= 0.605 trial= 0.443  step= 0.512 mean= 0.443
 gam= 0.000 g(H,U,f)=  0.649E-04 0.600E-05 0.472E-05 ort(H,U,f) =-0.942E-05 0.143E-06 0.120E-04
SDA:  37    -0.986442659739E+03   -0.31616E-04   -0.31523E-04  5064   0.756E-04 0.272E-05
 gam= 0.000 trial= 0.447  step= 0.812 mean= 0.447
 gam= 0.324 g(H,U,f)=  0.201E-04 0.186E-05 0.255E-05 ort(H,U,f) =-0.859E-05 0.353E-06 0.347E-05
CGA:  38    -0.986442689569E+03   -0.29830E-04   -0.30700E-04  5064   0.245E-04-0.477E-05
 gam= 0.324 trial= 0.465  step= 0.855 mean= 0.465
 gam= 0.468 g(H,U,f)=  0.998E-05 0.512E-06 0.961E-06 ort(H,U,f) =-0.451E-05 0.103E-05 0.225E-05
CGA:  39    -0.986442699131E+03   -0.95614E-05   -0.97992E-05  5064   0.115E-04-0.122E-05
 gam= 0.468 trial= 0.484  step= 0.610 mean= 0.484
 final diagonalization
   1 F= -.98644270E+03 E0= -.98643099E+03  d E =-.234136E-01
 writing wavefunctions
