       N       E                     dE             d eps       ncg     rms          ort
DAV:   1    -0.213875675435E+05   -0.21388E+05   -0.54369E+05  5064   0.748E+03
DAV:   2    -0.654591292056E+05   -0.44072E+05   -0.42770E+05  5064   0.120E+03
DAV:   3    -0.700085558448E+05   -0.45494E+04   -0.40557E+04  5064   0.350E+02
DAV:   4    -0.705400476868E+05   -0.53149E+03   -0.45428E+03  5064   0.103E+02
DAV:   5    -0.375437231412E+05    0.32996E+05   -0.77049E+02  5064   0.566E+01
SDA:   6     0.191512568898E+05    0.56695E+05   -0.77049E+02  5064   0.124E+06 0.000E+00
CGA:   7     0.492645164483E+04   -0.14225E+05   -0.15257E+05  5064   0.303E+05 0.419E+04
CGA:   8     0.102091841216E+04   -0.39055E+04   -0.36484E+04  5064   0.543E+04 0.692E+03
CGA:   9     0.146668521576E+03   -0.87425E+03   -0.89284E+03  5064   0.331E+04-0.488E+03
CGA:  10    -0.294894163603E+03   -0.44156E+03   -0.45273E+03  5064   0.393E+04-0.158E+02
CGA:  11    -0.542847365854E+03   -0.24795E+03   -0.40099E+03  5064   0.141E+04 0.473E+02
CGA:  12    -0.776543570885E+03   -0.23370E+03   -0.23591E+03  5064   0.437E+03 0.448E+02
CGA:  13    -0.882740371414E+03   -0.10620E+03   -0.10519E+03  5064   0.235E+03 0.139E+02
CGA:  14    -0.938256099281E+03   -0.55516E+02   -0.54962E+02  5064   0.108E+03 0.815E+01
CGA:  15    -0.963216226859E+03   -0.24960E+02   -0.24947E+02  5064   0.494E+02-0.994E-01
CGA:  16    -0.975737473551E+03   -0.12521E+02   -0.13056E+02  5064   0.243E+02-0.564E+01
CGA:  17    -0.980945529764E+03   -0.52081E+01   -0.53668E+01  5064   0.119E+02-0.174E+01
CGA:  18    -0.983554261159E+03   -0.26087E+01   -0.26173E+01  5064   0.586E+01-0.176E+00
CGA:  19    -0.984964947503E+03   -0.14107E+01   -0.14145E+01  5064   0.303E+01-0.594E-01
CGA:  20    -0.985677041660E+03   -0.71209E+00   -0.71208E+00  5064   0.161E+01 0.100E-03
CGA:  21    -0.986051390911E+03   -0.37435E+00   -0.37443E+00  5064   0.812E+00-0.188E-02
CGA:  22    -0.986239766389E+03   -0.18838E+00   -0.18847E+00  5064   0.393E+00-0.139E-02
CGA:  23    -0.986336334637E+03   -0.96568E-01   -0.97237E-01  5064   0.205E+00-0.106E-01
CGA:  24    -0.986383698981E+03   -0.47364E-01   -0.47355E-01  5064   0.116E+00 0.312E-03
CGA:  25    -0.986409899398E+03   -0.26200E-01   -0.26194E-01  5064   0.660E-01 0.281E-03
CGA:  26    -0.986424262552E+03   -0.14363E-01   -0.14363E-01  5064   0.364E-01 0.503E-04
CGA:  27    -0.986431962398E+03   -0.76998E-02   -0.76999E-02  5064   0.191E-01-0.420E-04
CGA:  28    -0.986436436539E+03   -0.44741E-02   -0.44765E-02  5064   0.108E-01-0.824E-04
CGA:  29    -0.986439064863E+03   -0.26283E-02   -0.26311E-02  5064   0.597E-02-0.684E-04
CGA:  30    -0.986440610452E+03   -0.15456E-02   -0.15474E-02  5064   0.374E-02-0.283E-04
CGA:  31    -0.986441549098E+03   -0.93865E-03   -0.93889E-03  5064   0.224E-02-0.390E-05
CGA:  32    -0.986442060773E+03   -0.51167E-03   -0.51168E-03  5064   0.122E-02-0.346E-06
CGA:  33    -0.986442332163E+03   -0.27139E-03   -0.27138E-03  5064   0.661E-03 0.237E-05
CGA:  34    -0.986442488409E+03   -0.15625E-03   -0.15609E-03  5064   0.364E-03 0.887E-05
CGA:  35    -0.986442577043E+03   -0.88633E-04   -0.88400E-04  5064   0.196E-03 0.114E-04
CGA:  36    -0.986442628124E+03   -0.51081E-04   -0.50820E-04  5064   0.118E-03 0.816E-05
SDA:  37    -0.986442659739E+03   -0.31616E-04   -0.31523E-04  5064   0.756E-04 0.272E-05
CGA:  38    -0.986442689569E+03   -0.29830E-04   -0.30700E-04  5064   0.245E-04-0.477E-05
CGA:  39    -0.986442699131E+03   -0.95614E-05   -0.97992E-05  5064   0.115E-04-0.122E-05
   1 F= -.98644270E+03 E0= -.98643099E+03  d E =-.234136E-01
