 vasp.6.4.2 20Jul23 (build Nov 12 2023 22:16:35) complex                         
 executed on              LinuxNV date 2025.03.07  20:57:32
 running    4 mpi-ranks, on    1 nodes
 distrk:  each k-point on    1 cores,    4 groups
 distr:  one band on NCORE=   1 cores,    1 groups
 OpenACC runtime initialized ...    4 GPUs detected


--------------------------------------------------------------------------------------------------------


 INCAR:
   PREC = Normal
   ENCUT = 450
   IBRION = -1
   ISPIN = 1
   NSW = 0
   ISIF = 2
   EDIFF = 1E-5
   EDIFFG = -5E-3
   ISTART = 0
   ICHARG = 0
   ISMEAR = 0
   SIGMA = 0.05
   LWAVE = .T.
   LCHARG = .T.
   LREAL = Auto
   NPAR = 1
   KPAR = 4
   NCORE = 1
   ALGO = All
   LHFCALC = .TRUE.
   HSE06 = .TRUE.
   HFSCREEN = 0.18
   TIME = 0.4
   AEXX = 0.35
   LMAXFOCK = 4
   PRECFOCK = Fast

 POTCAR:    PAW_PBE Ga_d 06Jul2010                
 POTCAR:    PAW_PBE O 08Apr2002                   
 POTCAR:    PAW_PBE N 08Apr2002                   
 POTCAR:    PAW_PBE Ga_d 06Jul2010                
   SHA256 =  a60ddf36e14f00ea098d9e3914b3745f1b7105e68786148f49ae384e44b4226c Ga_d/POTCAR           
   COPYR  = (c) Copyright 06Jul2010 Georg Kresse                                                    
   COPYR  = This file is part of the software VASP. Any use, copying, and all other rights are regul
   COPYR  = If you do not have a valid VASP license, you may not use, copy or distribute this file. 
   VRHFIN =Ga: s2p1                                                                                 
   LEXCH  = PE                                                                                      
   EATOM  =  2148.8298 eV,  157.9345 Ry                                                             
                                                                                                    
   TITEL  = PAW_PBE Ga_d 06Jul2010                                                                  
   LULTRA =        F    use ultrasoft PP ?                                                          
   IUNSCR =        1    unscreen: 0-lin 1-nonlin 2-no                                               
   RPACOR =    1.700    partial core radius                                                         
   POMASS =   69.723; ZVAL   =   13.000    mass and valenz                                          
   RCORE  =    2.300    outmost cutoff radius                                                       
   RWIGS  =    2.300; RWIGS  =    1.217    wigner-seitz radius (au A)                               
   ENMAX  =  282.691; ENMIN  =  212.018 eV                                                          
   ICORE  =        3    local potential                                                             
   LCOR   =        T    correct aug charges                                                         
   LPAW   =        T    paw PP                                                                      
   EAUG   =  490.690                                                                                
   DEXC   =    0.000                                                                                
   RMAX   =    2.341    core radius for proj-oper                                                   
   RAUG   =    1.300    factor for augmentation sphere                                              
   RDEP   =    2.413    radius for radial grids                                                     
   RDEPT  =    1.856    core radius for aug-charge                                                  
                                                                                                    
   Atomic configuration                                                                             
    9 entries                                                                                       
     n  l   j            E        occ.                                                              
     1  0  0.50    -10228.7831   2.0000                                                             
     2  0  0.50     -1262.1604   2.0000                                                             
     2  1  1.50     -1098.6333   6.0000                                                             
     3  0  0.50      -148.1110   2.0000                                                             
     3  1  1.50       -98.8436   6.0000                                                             
     3  2  2.50       -19.1549  10.0000                                                             
     4  0  0.50        -8.9483   2.0000                                                             
     4  1  0.50        -2.5791   1.0000                                                             
     4  3  2.50        -2.7416   0.0000                                                             
   Description                                                                                      
     l       E           TYP  RCUT    TYP  RCUT                                                     
     2    -19.1549037     23  2.300                                                                 
     2     -5.4423304     23  2.300                                                                 
     0     -8.9483111     23  2.300                                                                 
     0     68.0291300     23  2.300                                                                 
     1     -2.5790802     23  2.100                                                                 
     1     81.6349560     23  2.300                                                                 
     3      6.8029130     23  2.300                                                                 
  local pseudopotential read in
  partial core-charges read in
  partial kinetic energy density read in
  atomic valenz-charges read in
  non local Contribution for L=            2  read in
    real space projection operators read in
  non local Contribution for L=            2  read in
    real space projection operators read in
  non local Contribution for L=            0  read in
    real space projection operators read in
  non local Contribution for L=            0  read in
    real space projection operators read in
  non local Contribution for L=            1  read in
    real space projection operators read in
  non local Contribution for L=            1  read in
    real space projection operators read in
    PAW grid and wavefunctions read in
 
   number of l-projection  operators is LMAX  =            6
   number of lm-projection operators is LMMAX =           18
 
 POTCAR:    PAW_PBE O 08Apr2002                   
   SHA256 =  818f92134a0a090dccd8ba1447fa70422a3b330e708bb4f08108d8ae51209ddf O/POTCAR              
   COPYR  = (c) Copyright 08Apr2002 Georg Kresse                                                    
   COPYR  = This file is part of the software VASP. Any use, copying, and all other rights are regul
   COPYR  = If you do not have a valid VASP license, you may not use, copy or distribute this file. 
   VRHFIN =O: s2p4                                                                                  
   LEXCH  = PE                                                                                      
   EATOM  =   432.3788 eV,   31.7789 Ry                                                             
                                                                                                    
   TITEL  = PAW_PBE O 08Apr2002                                                                     
   LULTRA =        F    use ultrasoft PP ?                                                          
   IUNSCR =        1    unscreen: 0-lin 1-nonlin 2-no                                               
   RPACOR =    1.200    partial core radius                                                         
   POMASS =   16.000; ZVAL   =    6.000    mass and valenz                                          
   RCORE  =    1.520    outmost cutoff radius                                                       
   RWIGS  =    1.550; RWIGS  =    0.820    wigner-seitz radius (au A)                               
   ENMAX  =  400.000; ENMIN  =  300.000 eV                                                          
   ICORE  =        2    local potential                                                             
   LCOR   =        T    correct aug charges                                                         
   LPAW   =        T    paw PP                                                                      
   EAUG   =  605.392                                                                                
   DEXC   =    0.000                                                                                
   RMAX   =    1.553    core radius for proj-oper                                                   
   RAUG   =    1.300    factor for augmentation sphere                                              
   RDEP   =    1.550    radius for radial grids                                                     
   RDEPT  =    1.329    core radius for aug-charge                                                  
                                                                                                    
   Atomic configuration                                                                             
    4 entries                                                                                       
     n  l   j            E        occ.                                                              
     1  0  0.50      -514.6923   2.0000                                                             
     2  0  0.50       -23.9615   2.0000                                                             
     2  1  0.50        -9.0305   4.0000                                                             
     3  2  1.50        -9.5241   0.0000                                                             
   Description                                                                                      
     l       E           TYP  RCUT    TYP  RCUT                                                     
     0    -23.9615318     23  1.200                                                                 
     0     -9.5240782     23  1.200                                                                 
     1     -9.0304911     23  1.520                                                                 
     1      8.1634956     23  1.520                                                                 
     2     -9.5240782      7  1.500                                                                 
  local pseudopotential read in
  partial core-charges read in
  partial kinetic energy density read in
  kinetic energy density of atom read in
  atomic valenz-charges read in
  non local Contribution for L=            0  read in
    real space projection operators read in
  non local Contribution for L=            0  read in
    real space projection operators read in
  non local Contribution for L=            1  read in
    real space projection operators read in
  non local Contribution for L=            1  read in
    real space projection operators read in
    PAW grid and wavefunctions read in
 
   number of l-projection  operators is LMAX  =            4
   number of lm-projection operators is LMMAX =            8
 
 POTCAR:    PAW_PBE N 08Apr2002                   
   SHA256 =  e053789ff3a61a86a1b75d8a110fcc91f86041011e7b0817c7c99e4e8a6349d7 N/POTCAR              
   COPYR  = (c) Copyright 08Apr2002 Georg Kresse                                                    
   COPYR  = This file is part of the software VASP. Any use, copying, and all other rights are regul
   COPYR  = If you do not have a valid VASP license, you may not use, copy or distribute this file. 
   VRHFIN =N: s2p3                                                                                  
   LEXCH  = PE                                                                                      
   EATOM  =   264.5486 eV,   19.4438 Ry                                                             
                                                                                                    
   TITEL  = PAW_PBE N 08Apr2002                                                                     
   LULTRA =        F    use ultrasoft PP ?                                                          
   IUNSCR =        1    unscreen: 0-lin 1-nonlin 2-no                                               
   RPACOR =    1.200    partial core radius                                                         
   POMASS =   14.001; ZVAL   =    5.000    mass and valenz                                          
   RCORE  =    1.500    outmost cutoff radius                                                       
   RWIGS  =    1.400; RWIGS  =    0.741    wigner-seitz radius (au A)                               
   ENMAX  =  400.000; ENMIN  =  300.000 eV                                                          
   ICORE  =        2    local potential                                                             
   LCOR   =        T    correct aug charges                                                         
   LPAW   =        T    paw PP                                                                      
   EAUG   =  627.112                                                                                
   DEXC   =    0.000                                                                                
   RMAX   =    1.529    core radius for proj-oper                                                   
   RAUG   =    1.300    factor for augmentation sphere                                              
   RDEP   =    1.514    radius for radial grids                                                     
   RDEPT  =    1.338    core radius for aug-charge                                                  
                                                                                                    
   Atomic configuration                                                                             
    4 entries                                                                                       
     n  l   j            E        occ.                                                              
     1  0  0.50      -384.7179   2.0000                                                             
     2  0  0.50       -18.5828   2.0000                                                             
     2  1  0.50        -7.0898   3.0000                                                             
     3  2  1.50        -6.8029   0.0000                                                             
   Description                                                                                      
     l       E           TYP  RCUT    TYP  RCUT                                                     
     0    -18.5828119     23  1.200                                                                 
     0    -13.5018863     23  1.200                                                                 
     1     -7.0897853     23  1.500                                                                 
     1      9.5240782     23  1.500                                                                 
     2     -6.8029130      7  1.500                                                                 
  local pseudopotential read in
  partial core-charges read in
  partial kinetic energy density read in
  atomic valenz-charges read in
  non local Contribution for L=            0  read in
    real space projection operators read in
  non local Contribution for L=            0  read in
    real space projection operators read in
  non local Contribution for L=            1  read in
    real space projection operators read in
  non local Contribution for L=            1  read in
    real space projection operators read in
    PAW grid and wavefunctions read in
 
   number of l-projection  operators is LMAX  =            4
   number of lm-projection operators is LMMAX =            8
 
 Optimization of the real space projectors (new method)

 maximal supplied QI-value         = 16.25
 optimisation between [QCUT,QGAM] = [ 10.73, 21.61] = [ 32.22,130.83] Ry 
 Optimized for a Real-space Cutoff    1.42 Angstroem

   l    n(q)    QCUT    max X(q) W(low)/X(q) W(high)/X(q)  e(spline) 
   2      8    10.726     7.143    0.22E-03    0.16E-03    0.73E-07
   2      8    10.726     5.586    0.40E-03    0.26E-03    0.10E-06
   0      9    10.726    12.382    0.25E-04    0.21E-05    0.37E-07
   0      9    10.726     6.622    0.42E-04    0.48E-05    0.77E-07
   1      9    10.726     7.935    0.27E-03    0.13E-04    0.16E-06
   1      9    10.726     2.425    0.23E-03    0.15E-04    0.14E-06
 Optimization of the real space projectors (new method)

 maximal supplied QI-value         = 24.76
 optimisation between [QCUT,QGAM] = [ 10.64, 21.54] = [ 31.73,129.89] Ry 
 Optimized for a Real-space Cutoff    1.23 Angstroem

   l    n(q)    QCUT    max X(q) W(low)/X(q) W(high)/X(q)  e(spline) 
   0      8    10.645    20.381    0.38E-03    0.60E-03    0.15E-06
   0      8    10.645    15.268    0.40E-03    0.65E-03    0.17E-06
   1      7    10.645     5.964    0.30E-03    0.63E-03    0.18E-06
   1      7    10.645     5.382    0.24E-03    0.53E-03    0.16E-06
 Optimization of the real space projectors (new method)

 maximal supplied QI-value         = 25.13
 optimisation between [QCUT,QGAM] = [ 10.81, 21.61] = [ 32.71,130.83] Ry 
 Optimized for a Real-space Cutoff    1.23 Angstroem

   l    n(q)    QCUT    max X(q) W(low)/X(q) W(high)/X(q)  e(spline) 
   0      8    10.807    79.467    0.34E-03    0.68E-03    0.21E-06
   0      8    10.807    66.151    0.34E-03    0.67E-03    0.21E-06
   1      7    10.807    14.030    0.45E-03    0.13E-02    0.11E-05
   1      7    10.807     9.831    0.48E-03    0.13E-02    0.11E-05
  PAW_PBE Ga_d 06Jul2010                :
 energy of atom  1       EATOM=-2148.8298
 kinetic energy error for atom=    0.0038 (will be added to EATOM!!)
  PAW_PBE O 08Apr2002                   :
 energy of atom  2       EATOM= -432.3788
 kinetic energy error for atom=    0.0389 (will be added to EATOM!!)
  PAW_PBE N 08Apr2002                   :
 energy of atom  3       EATOM= -264.5486
 kinetic energy error for atom=    0.0253 (will be added to EATOM!!)
 
 
 POSCAR: Ga48 O72
  positions in direct lattice
  velocities in cartesian coordinates
 exchange correlation table for  LEXCH =        8
   RHO(1)=    0.500       N(1)  =     2000
   RHO(2)=  100.500       N(2)  =     4000
 


--------------------------------------------------------------------------------------------------------


 ion  position               nearest neighbor table
   1  0.658  0.999  0.156-  85 1.94  83 1.95  79 1.96  67 2.00  65 2.08  61 2.08
   2  0.659  1.000  0.657-  86 1.94  84 1.95  80 1.95  68 2.03  66 2.08  62 2.08
   3  0.658  0.334  0.156-  87 1.94  81 1.95  79 1.96  69 2.00  63 2.08  61 2.08
   4  0.659  0.333  0.657-  88 1.94  82 1.95  80 1.95  70 2.03  64 2.08  62 2.08
   5  0.659  0.667  0.156-  89 1.94  81 1.95  83 1.95  71 2.02  63 2.07  65 2.07
   6  0.659  0.667  0.657-  90 1.94  82 1.95  84 1.95  72 2.02  64 2.08  66 2.08
   7  0.839  0.167  0.344- 120 1.93  73 1.97  75 1.97  61 2.01  67 2.11  69 2.11
   8  0.841  0.167  0.843-  91 1.95  74 1.95  76 1.95  62 2.02  68 2.07  70 2.07
   9  0.841  0.500  0.343-  92 1.94  77 1.95  75 1.96  63 2.03  69 2.06  71 2.07
  10  0.842  0.500  0.844-  93 1.94  78 1.95  76 1.96  64 2.02  72 2.08  70 2.08
  11  0.841  0.833  0.343-  94 1.94  77 1.95  73 1.96  65 2.03  67 2.06  71 2.07
  12  0.842  0.833  0.844-  95 1.94  78 1.95  74 1.96  66 2.02  72 2.08  68 2.08
  13  0.592  0.167  0.398-  80 1.84  55 1.85  57 1.85  61 1.87
  14  0.591  0.167  0.898-  79 1.84  56 1.85  58 1.85  62 1.87
  15  0.592  0.500  0.398-  82 1.84  59 1.85  57 1.85  63 1.87
  16  0.590  0.500  0.897-  81 1.84  60 1.85  58 1.85  64 1.87
  17  0.592  0.833  0.398-  84 1.84  59 1.85  55 1.85  65 1.87
  18  0.590  0.833  0.897-  83 1.84  60 1.85  56 1.85  66 1.87
  19  0.909  0.999  0.104-  74 1.84  53 1.84  67 1.86  49 1.86
  20  0.908  0.999  0.601-  73 1.84  54 1.85  50 1.86  68 1.87
  21  0.909  0.335  0.104-  76 1.84  51 1.84  69 1.86  49 1.86
  22  0.908  0.334  0.601-  75 1.84  52 1.85  50 1.86  70 1.87
  23  0.909  0.667  0.103-  78 1.84  51 1.85  53 1.85  71 1.87
  24  0.909  0.667  0.602-  77 1.84  52 1.85  54 1.85  72 1.88
  25  0.161  0.167  0.159- 114 1.95 116 1.95  49 1.97 102 2.01  96 2.07  98 2.07
  26  0.160  0.167  0.655- 115 1.95 117 1.95  50 1.96 103 2.02  97 2.08  99 2.08
  27  0.160  0.500  0.157-  51 1.95 118 1.95 116 1.96 104 2.02  98 2.06 100 2.07
  28  0.159  0.500  0.656-  52 1.95 117 1.95 119 1.95 105 2.03 101 2.08  99 2.08
  29  0.160  0.833  0.157-  53 1.95 118 1.95 114 1.96 106 2.02  96 2.06 100 2.07
  30  0.159  0.833  0.656-  54 1.95 115 1.95 119 1.95 107 2.03 101 2.08  97 2.08
  31  0.342  1.000  0.344-  55 1.94 112 1.95 108 1.95  96 2.01 106 2.08 102 2.08
  32  0.341  0.000  0.843-  56 1.94 113 1.95 109 1.95  97 2.03 107 2.07 103 2.07
  33  0.342  0.334  0.344-  57 1.94 110 1.95 108 1.95  98 2.01 104 2.08 102 2.08
  34  0.341  0.333  0.843-  58 1.94 111 1.95 109 1.95  99 2.03 105 2.07 103 2.07
  35  0.342  0.667  0.344-  59 1.94 110 1.95 112 1.95 100 2.02 104 2.08 106 2.08
  36  0.340  0.667  0.843-  60 1.94 111 1.96 113 1.96 101 2.02 105 2.07 107 2.07
  37  0.090  1.000  0.397-  94 1.85 115 1.85 120 1.87  96 1.89
  38  0.091  1.000  0.897- 114 1.84  95 1.85  91 1.85  97 1.87
  39  0.090  0.333  0.397-  92 1.85 117 1.85 120 1.87  98 1.89
  40  0.091  0.334  0.897- 116 1.84  93 1.85  91 1.85  99 1.87
  41  0.092  0.667  0.398-  92 1.84  94 1.84 119 1.84 100 1.87
  42  0.091  0.667  0.898- 118 1.84  93 1.85  95 1.85 101 1.87
  43  0.409  0.167  0.102- 109 1.84  85 1.85  87 1.85 102 1.87
  44  0.410  0.167  0.603- 108 1.84  86 1.85  88 1.85 103 1.87
  45  0.409  0.500  0.102- 111 1.84  89 1.84  87 1.85 104 1.87
  46  0.409  0.500  0.603- 110 1.84  90 1.85  88 1.85 105 1.87
  47  0.409  0.833  0.102- 113 1.84  89 1.84  85 1.85 106 1.87
  48  0.409  0.833  0.603- 112 1.84  90 1.85  86 1.85 107 1.87
  49  0.997  0.167  0.138-  19 1.86  21 1.86  25 1.97
  50  0.996  0.167  0.620-  20 1.86  22 1.86  26 1.96
  51  0.997  0.500  0.128-  21 1.84  23 1.85  27 1.95
  52  0.996  0.500  0.627-  22 1.85  24 1.85  28 1.95
  53  0.997  0.833  0.128-  19 1.84  23 1.85  29 1.95
  54  0.996  0.833  0.627-  20 1.85  24 1.85  30 1.95
  55  0.504  1.000  0.373-  13 1.85  17 1.85  31 1.94
  56  0.503  0.000  0.873-  14 1.85  18 1.85  32 1.94
  57  0.504  0.333  0.373-  13 1.85  15 1.85  33 1.94
  58  0.503  0.333  0.873-  14 1.85  16 1.85  34 1.94
  59  0.504  0.667  0.373-  15 1.85  17 1.85  35 1.94
  60  0.503  0.667  0.872-  16 1.85  18 1.85  36 1.94
  61  0.672  0.167  0.280-  13 1.87   7 2.01   1 2.08   3 2.08
  62  0.673  0.167  0.781-  14 1.87   8 2.02   2 2.08   4 2.08
  63  0.672  0.501  0.280-  15 1.87   9 2.03   5 2.07   3 2.08
  64  0.673  0.500  0.781-  16 1.87  10 2.02   4 2.08   6 2.08
  65  0.672  0.833  0.280-  17 1.87  11 2.03   5 2.07   1 2.08
  66  0.673  0.834  0.781-  18 1.87  12 2.02   2 2.08   6 2.08
  67  0.825  0.997  0.218-  19 1.86   1 2.00  11 2.06   7 2.11
  68  0.828  0.000  0.720-  20 1.87   2 2.03   8 2.07  12 2.08
  69  0.825  0.336  0.218-  21 1.86   3 2.00   9 2.06   7 2.11
  70  0.828  0.333  0.720-  22 1.87   4 2.03   8 2.07  10 2.08
  71  0.827  0.667  0.219-  23 1.87   5 2.02   9 2.07  11 2.07
  72  0.828  0.667  0.720-  24 1.88   6 2.02  10 2.08  12 2.08
  73  0.828  0.998  0.446-  20 1.84  11 1.96   7 1.97
  74  0.834  0.001  0.947-  19 1.84   8 1.95  12 1.96
  75  0.828  0.335  0.446-  22 1.84   9 1.96   7 1.97
  76  0.834  0.333  0.947-  21 1.84   8 1.95  10 1.96
  77  0.831  0.667  0.446-  24 1.84   9 1.95  11 1.95
  78  0.833  0.667  0.946-  23 1.84  10 1.95  12 1.95
  79  0.668  0.167  0.054-  14 1.84   1 1.96   3 1.96
  80  0.668  0.167  0.555-  13 1.84   2 1.95   4 1.95
  81  0.667  0.500  0.053-  16 1.84   3 1.95   5 1.95
  82  0.668  0.500  0.555-  15 1.84   6 1.95   4 1.95
  83  0.667  0.833  0.053-  18 1.84   1 1.95   5 1.95
  84  0.668  0.833  0.555-  17 1.84   6 1.95   2 1.95
  85  0.496  0.000  0.127-  43 1.85  47 1.85   1 1.94
  86  0.497  1.000  0.628-  44 1.85  48 1.85   2 1.94
  87  0.496  0.333  0.127-  43 1.85  45 1.85   3 1.94
  88  0.497  0.333  0.628-  44 1.85  46 1.85   4 1.94
  89  0.496  0.667  0.126-  45 1.84  47 1.84   5 1.94
  90  0.497  0.667  0.628-  46 1.85  48 1.85   6 1.94
  91  0.004  0.167  0.872-  38 1.85  40 1.85   8 1.95
  92  0.003  0.501  0.373-  41 1.84  39 1.85   9 1.94
  93  0.004  0.500  0.873-  40 1.85  42 1.85  10 1.94
  94  0.003  0.832  0.373-  41 1.84  37 1.85  11 1.94
  95  0.004  0.833  0.873-  38 1.85  42 1.85  12 1.94
  96  0.174  0.998  0.281-  37 1.89  31 2.01  29 2.06  25 2.07
  97  0.172  0.001  0.780-  38 1.87  32 2.03  30 2.08  26 2.08
  98  0.174  0.335  0.281-  39 1.89  33 2.01  27 2.06  25 2.07
  99  0.172  0.333  0.780-  40 1.87  34 2.03  28 2.08  26 2.08
 100  0.173  0.667  0.281-  41 1.87  35 2.02  27 2.07  29 2.07
 101  0.172  0.667  0.780-  42 1.87  36 2.02  28 2.08  30 2.08
 102  0.328  0.167  0.220-  43 1.87  25 2.01  31 2.08  33 2.08
 103  0.328  0.167  0.719-  44 1.87  26 2.02  32 2.07  34 2.07
 104  0.328  0.500  0.220-  45 1.87  27 2.02  35 2.08  33 2.08
 105  0.328  0.500  0.720-  46 1.87  28 2.03  34 2.07  36 2.07
 106  0.328  0.833  0.220-  47 1.87  29 2.02  35 2.08  31 2.08
 107  0.328  0.833  0.720-  48 1.87  30 2.03  32 2.07  36 2.07
 108  0.333  0.167  0.446-  44 1.84  31 1.95  33 1.95
 109  0.332  0.167  0.946-  43 1.84  32 1.95  34 1.95
 110  0.333  0.500  0.446-  46 1.84  33 1.95  35 1.95
 111  0.331  0.500  0.946-  45 1.84  34 1.95  36 1.96
 112  0.333  0.833  0.446-  48 1.84  31 1.95  35 1.95
 113  0.331  0.834  0.946-  47 1.84  32 1.95  36 1.96
 114  0.166  0.001  0.055-  38 1.84  25 1.95  29 1.96
 115  0.169  0.999  0.554-  37 1.85  30 1.95  26 1.95
 116  0.166  0.332  0.055-  40 1.84  25 1.95  27 1.96
 117  0.169  0.334  0.554-  39 1.85  28 1.95  26 1.95
 118  0.168  0.667  0.054-  42 1.84  27 1.95  29 1.95
 119  0.168  0.667  0.554-  41 1.84  28 1.95  30 1.95
 120  0.000  0.167  0.369-  37 1.87  39 1.87   7 1.93
 
  LATTYP: Found a simple monoclinic cell.
 ALAT       =    11.6348202465
 B/A-ratio  =     0.7858051831
 C/A-ratio  =     1.0554931797
 COS(beta)  =    -0.2379290539
  
  Lattice vectors:
  
 A1 = (   0.0000000000,  -2.7682617730, -11.3006977184)
 A2 = (  -9.1427020537,   0.0000000000,   0.0000000000)
 A3 = (   0.0000000000,  12.2804734172,   0.0000000000)


Analysis of symmetry for initial positions (statically):
=====================================================================
 Subroutine PRICEL returns:
 Original cell was already a primitive cell.
 

 Routine SETGRP: Setting up the symmetry group for a 
 simple monoclinic supercell.


 Subroutine GETGRP returns: Found  2 space group operations
 (whereof  1 operations were pure point group operations)
 out of a pool of  4 trial point group operations.


The static configuration has the point symmetry C_1 .
 The point group associated with its full space group is C_1h.


Analysis of symmetry for dynamics (positions and initial velocities):
=====================================================================
 Subroutine PRICEL returns:
 Original cell was already a primitive cell.
 

 Routine SETGRP: Setting up the symmetry group for a 
 simple monoclinic supercell.


 Subroutine GETGRP returns: Found  2 space group operations
 (whereof  1 operations were pure point group operations)
 out of a pool of  4 trial point group operations.


The dynamic configuration has the point symmetry C_1 .
 The point group associated with its full space group is C_1h.


 Subroutine INISYM returns: Found  2 space group operations
 (whereof  1 operations are pure point group operations),
 and found     1 'primitive' translations


----------------------------------------------------------------------------------------

                                     Primitive cell                                     

  volume of cell :    1268.8052

  direct lattice vectors                    reciprocal lattice vectors
     0.000000000 12.280473417  0.000000000     0.000000000  0.081430085 -0.019947423
     9.142702054  0.000000000  0.000000000     0.109376855 -0.000000000  0.000000000
     0.000000000 -2.768261773-11.300697718     0.000000000  0.000000000 -0.088490111

  length of vectors
    12.280473417  9.142702054 11.634820246     0.083837691  0.109376855  0.088490111

  position of ions in fractional coordinates (direct lattice)
     0.658411526  0.999368393  0.155947260
     0.659240521  0.999882455  0.656850370
     0.658411526  0.333964940  0.155947260
     0.659240521  0.333450879  0.656850370
     0.658672115  0.666666667  0.156272035
     0.659421541  0.666666667  0.656966991
     0.839158206  0.166666667  0.343584098
     0.841099253  0.166666667  0.843198462
     0.840694200  0.500492321  0.342871427
     0.841632944  0.500126396  0.843811297
     0.840694200  0.832841012  0.342871427
     0.841632944  0.833206937  0.843811297
     0.591543066  0.166666667  0.397879367
     0.590777455  0.166666667  0.897520854
     0.591732535  0.500138867  0.397801981
     0.590499251  0.500136749  0.897080378
     0.591732535  0.833194466  0.397801981
     0.590499251  0.833196585  0.897080378
     0.908558745  0.998799704  0.103737896
     0.907744549  0.999070333  0.601114796
     0.908558745  0.334533630  0.103737896
     0.907744549  0.334263001  0.601114796
     0.909436295  0.666666667  0.102978311
     0.908765436  0.666666667  0.601876099
     0.160831219  0.166666667  0.158745077
     0.159927014  0.166666667  0.655148817
     0.159721280  0.500060660  0.157317769
     0.158981335  0.500050075  0.656216858
     0.159721280  0.833272674  0.157317769
     0.158981335  0.833283258  0.656216858
     0.341885423  0.999587150  0.344017281
     0.340682308  0.000026271  0.843046715
     0.341885423  0.333746183  0.344017281
     0.340682308  0.333307062  0.843046715
     0.341780951  0.666666667  0.343541442
     0.340485154  0.666666667  0.843285944
     0.090092217  0.999949895  0.396852237
     0.091438299  0.999822632  0.897486888
     0.090092217  0.333383438  0.396852237
     0.091438299  0.333510701  0.897486888
     0.091543347  0.666666667  0.397778265
     0.091444605  0.666666667  0.897884781
     0.408937998  0.166666667  0.102036667
     0.409557475  0.166666667  0.602505340
     0.408901294  0.500079933  0.102045123
     0.409228247  0.500134466  0.602796521
     0.408901294  0.833253401  0.102045123
     0.409228247  0.833198868  0.602796521
     0.996611131  0.166666667  0.137595349
     0.995674630  0.166666667  0.620382283
     0.996935148  0.500098250  0.127787570
     0.996215428  0.499865479  0.626970366
     0.996935148  0.833235084  0.127787570
     0.996215428  0.833467855  0.626970366
     0.504315309  0.999943455  0.373060405
     0.503299777  0.000075662  0.872592840
     0.504315309  0.333389879  0.373060405
     0.503299777  0.333257671  0.872592840
     0.504172988  0.666666667  0.373211751
     0.502991457  0.666666667  0.872156671
     0.672273872  0.166666667  0.279977422
     0.673032301  0.166666667  0.780990022
     0.671638226  0.500818106  0.279643339
     0.673317335  0.499648020  0.781090638
     0.671638226  0.832515227  0.279643339
     0.673317335  0.833685313  0.781090638
     0.825182167  0.996956008  0.218203922
     0.828094483  0.000305522  0.719836354
     0.825182167  0.336377325  0.218203922
     0.828094483  0.333027811  0.719836354
     0.827105450  0.666666667  0.219148855
     0.827889161  0.666666667  0.719797681
     0.828042880  0.997937361  0.445706474
     0.834365990  0.000672847  0.946589771
     0.828042880  0.335395972  0.445706474
     0.834365990  0.332660486  0.946589771
     0.831009627  0.666666667  0.445633686
     0.832949073  0.666666667  0.946216045
     0.667649101  0.166666667  0.053919164
     0.668012231  0.166666667  0.554714766
     0.667250283  0.500369797  0.053342888
     0.667920785  0.500094618  0.554733298
     0.667250283  0.832963536  0.053342888
     0.667920785  0.833238715  0.554733298
     0.496141940  0.000020536  0.126774239
     0.496768150  0.999868222  0.627979274
     0.496141940  0.333312797  0.126774239
     0.496768150  0.333465112  0.627979274
     0.496028084  0.666666667  0.126265306
     0.496863256  0.666666667  0.628273119
     0.003884074  0.166666667  0.872387716
     0.003426495  0.501494422  0.373141468
     0.004062899  0.500064000  0.872677213
     0.003426495  0.831838911  0.373141468
     0.004062899  0.833269333  0.872677213
     0.174318054  0.998429540  0.280834150
     0.172000146  0.000629160  0.779659966
     0.174318054  0.334903793  0.280834150
     0.172000146  0.332704173  0.779659966
     0.173380558  0.666666667  0.280826276
     0.172272662  0.666666667  0.780183277
     0.328372923  0.166666667  0.219822226
     0.327759311  0.166666667  0.719460643
     0.328176045  0.500159343  0.219551620
     0.327534890  0.499912622  0.719830577
     0.328176045  0.833173991  0.219551620
     0.327534890  0.833420712  0.719830577
     0.333340117  0.166666667  0.445949354
     0.331555802  0.166666667  0.945567596
     0.333236977  0.500357965  0.446160780
     0.331252420  0.499684823  0.945615055
     0.333236977  0.832975369  0.446160780
     0.331252420  0.833648510  0.945615055
     0.166388526  0.000934844  0.054588004
     0.169182290  0.998951617  0.553920149
     0.166388526  0.332398489  0.054588004
     0.169182290  0.334381716  0.553920149
     0.168136468  0.666666667  0.054479946
     0.168485978  0.666666667  0.554433655
     0.000145985  0.166666667  0.368834324

  ion indices of the primitive-cell ions
   primitive index   ion index
                 1           1
                 2           2
                 3           3
                 4           4
                 5           5
                 6           6
                 7           7
                 8           8
                 9           9
                10          10
                11          11
                12          12
                13          13
                14          14
                15          15
                16          16
                17          17
                18          18
                19          19
                20          20
                21          21
                22          22
                23          23
                24          24
                25          25
                26          26
                27          27
                28          28
                29          29
                30          30
                31          31
                32          32
                33          33
                34          34
                35          35
                36          36
                37          37
                38          38
                39          39
                40          40
                41          41
                42          42
                43          43
                44          44
                45          45
                46          46
                47          47
                48          48
                49          49
                50          50
                51          51
                52          52
                53          53
                54          54
                55          55
                56          56
                57          57
                58          58
                59          59
                60          60
                61          61
                62          62
                63          63
                64          64
                65          65
                66          66
                67          67
                68          68
                69          69
                70          70
                71          71
                72          72
                73          73
                74          74
                75          75
                76          76
                77          77
                78          78
                79          79
                80          80
                81          81
                82          82
                83          83
                84          84
                85          85
                86          86
                87          87
                88          88
                89          89
                90          90
                91          91
                92          92
                93          93
                94          94
                95          95
                96          96
                97          97
                98          98
                99          99
               100         100
               101         101
               102         102
               103         103
               104         104
               105         105
               106         106
               107         107
               108         108
               109         109
               110         110
               111         111
               112         112
               113         113
               114         114
               115         115
               116         116
               117         117
               118         118
               119         119
               120         120

----------------------------------------------------------------------------------------

 
 
 KPOINTS: Automatic mesh                          

Automatic generation of k-mesh.
 Grid dimensions read from file:
 generate k-points for:    2    2    2

 Generating k-lattice:

  Cartesian coordinates                     Fractional coordinates (reciprocal lattice)
     0.000000000  0.040715043 -0.009973711     0.500000000  0.000000000  0.000000000
     0.054688428 -0.000000000  0.000000000     0.000000000  0.500000000  0.000000000
     0.000000000  0.000000000 -0.044245056     0.000000000  0.000000000  0.500000000

  Length of vectors
     0.041918846  0.054688428  0.044245056

  Shift w.r.t. Gamma in fractional coordinates (k-lattice)
     0.000000000  0.000000000  0.000000000

 
 Subroutine IBZKPT returns following result:
 ===========================================
 
 Found      8 irreducible k-points:
 
 Following reciprocal coordinates:
            Coordinates               Weight
  0.000000  0.000000  0.000000      1.000000
  0.500000  0.000000  0.000000      1.000000
  0.000000  0.500000  0.000000      1.000000
  0.500000  0.500000  0.000000      1.000000
  0.000000  0.000000  0.500000      1.000000
  0.500000  0.000000  0.500000      1.000000
  0.000000  0.500000  0.500000      1.000000
  0.500000  0.500000  0.500000      1.000000
 
 Following cartesian coordinates:
            Coordinates               Weight
  0.000000  0.000000 -0.000000      1.000000
  0.000000  0.040715 -0.009974      1.000000
  0.054688  0.000000 -0.000000      1.000000
  0.054688  0.040715 -0.009974      1.000000
  0.000000  0.000000 -0.044245      1.000000
  0.000000  0.040715 -0.054219      1.000000
  0.054688  0.000000 -0.044245      1.000000
  0.054688  0.040715 -0.054219      1.000000
 
 
 Subroutine IBZKPT_HF returns following result:
 ==============================================
 
 Found      8 k-points in 1st BZ
 the following      8 k-points will be used (e.g. in the exchange kernel)
 Following reciprocal coordinates:   # in IRBZ
  0.000000  0.000000  0.000000    0.12500000   1 t-inv F
  0.500000  0.000000  0.000000    0.12500000   2 t-inv F
  0.000000  0.500000  0.000000    0.12500000   3 t-inv F
  0.500000  0.500000  0.000000    0.12500000   4 t-inv F
  0.000000  0.000000  0.500000    0.12500000   5 t-inv F
  0.500000  0.000000  0.500000    0.12500000   6 t-inv F
  0.000000  0.500000  0.500000    0.12500000   7 t-inv F
  0.500000  0.500000  0.500000    0.12500000   8 t-inv F


--------------------------------------------------------------------------------------------------------




 Dimension of arrays:
   k-points           NKPTS =      8   k-points in BZ     NKDIM =      8   number of bands    NBANDS=    633
   number of dos      NEDOS =    301   number of ions     NIONS =    120
   non local maximal  LDIM  =      6   non local SUM 2l+1 LMDIM =     18
   total plane-waves  NPLWV = 184320
   max r-space proj   IRMAX =   1800   max aug-charges    IRDMAX=   5704
   dimension x,y,z NGX =    64 NGY =   48 NGZ =   60
   dimension x,y,z NGXF=   128 NGYF=   96 NGZF=  120
   support grid    NGXF=   128 NGYF=   96 NGZF=  120
   ions per type =              48  71   1
   NGX,Y,Z   is equivalent  to a cutoff of   8.66,  8.73,  8.57 a.u.
   NGXF,Y,Z  is equivalent  to a cutoff of  17.33, 17.46, 17.15 a.u.

 SYSTEM =  unknown system                          
 POSCAR =  Ga48 O72                                

 Startparameter for this run:
   NWRITE =      2    write-flag & timer
   PREC   = normal    normal or accurate (medium, high low for compatibility)
   ISTART =      0    job   : 0-new  1-cont  2-samecut
   ICHARG =      0    charge: 1-file 2-atom 10-const
   ISPIN  =      1    spin polarized calculation?
   LNONCOLLINEAR =      F non collinear calculations
   LSORBIT =      F    spin-orbit coupling
   INIWAV =      1    electr: 0-lowe 1-rand  2-diag
   LASPH  =      F    aspherical Exc in radial PAW
 Electronic Relaxation 1
   ENCUT  =  450.0 eV  33.07 Ry    5.75 a.u.  21.24 15.81 20.12*2*pi/ulx,y,z
   ENINI  =  450.0     initial cutoff
   ENAUG  =  627.1 eV  augmentation charge cutoff
   NELM   =     60;   NELMIN=  2; NELMDL= -5     # of ELM steps 
   EDIFF  = 0.1E-04   stopping-criterion for ELM
   LREAL  =      T    real-space projection
   NLSPLINE    = F    spline interpolate recip. space projectors
   LCOMPAT=      F    compatible to vasp.4.4
   GGA_COMPAT  = T    GGA compatible to vasp.4.4-vasp.4.6
   LMAXPAW     = -100 max onsite density
   LMAXMIX     =    2 max onsite mixed and CHGCAR
   VOSKOWN=      0    Vosko Wilk Nusair interpolation
   ROPT   =   -0.00050  -0.00050  -0.00050
 Ionic relaxation
   EDIFFG = -.5E-02   stopping-criterion for IOM
   NSW    =      0    number of steps for IOM
   NBLOCK =      1;   KBLOCK =      1    inner block; outer block 
   IBRION =     -1    ionic relax: 0-MD 1-quasi-New 2-CG
   NFREE  =      0    steps in history (QN), initial steepest desc. (CG)
   ISIF   =      2    stress and relaxation
   IWAVPR =     10    prediction:  0-non 1-charg 2-wave 3-comb
   ISYM   =      3    0-nonsym 1-usesym 2-fastsym
   LCORR  =      T    Harris-Foulkes like correction to forces

   POTIM  = 0.5000    time-step for ionic-motion
   TEIN   =    0.0    initial temperature
   TEBEG  =    0.0;   TEEND  =   0.0 temperature during run
   SMASS  =  -3.00    Nose mass-parameter (am)
   estimated Nose-frequenzy (Omega)   =  0.10E-29 period in steps = 0.13E+47 mass=  -0.345E-26a.u.
   SCALEE = 1.0000    scale energy and forces
   NPACO  =    256;   APACO  = 10.0  distance and # of slots for P.C.
   PSTRESS=    0.0 pullay stress

  Mass of Ions in am
   POMASS =  69.72 16.00 14.00
  Ionic Valenz
   ZVAL   =  13.00  6.00  5.00
  Atomic Wigner-Seitz radii
   RWIGS  =  -1.00 -1.00 -1.00
  virtual crystal weights 
   VCA    =   1.00  1.00  1.00
   NELECT =    1055.0000    total number of electrons
   NUPDOWN=      -1.0000    fix difference up-down

 DOS related values:
   EMIN   =  10.00;   EMAX   =-10.00  energy-range for DOS
   EFERMI =   0.00;   METHOD = LEGACY      
   ISMEAR =     0;   SIGMA  =   0.05  broadening in eV -4-tet -1-fermi 0-gaus

 Electronic relaxation 2 (details)
   IALGO  =     58    algorithm
   LDIAG  =      T    sub-space diagonalisation (order eigenvalues)
   LSUBROT=      F    optimize rotation matrix (better conditioning)
   TURBO    =      0    0=normal 1=particle mesh
   IRESTART =      0    0=no restart 2=restart with 2 vectors
   NREBOOT  =      0    no. of reboots
   NMIN     =      0    reboot dimension
   EREF     =   0.00    reference energy to select bands
   IMIX   =      4    mixing-type and parameters
     AMIX     =   0.40;   BMIX     =  1.00
     AMIX_MAG =   1.60;   BMIX_MAG =  1.00
     AMIN     =   0.10
     WC   =   100.;   INIMIX=   1;  MIXPRE=   1;  MAXMIX= -45

 Intra band minimization:
   WEIMIN = 0.0000     energy-eigenvalue tresh-hold
   EBREAK =  0.39E-08  absolut break condition
   DEPER  =   0.30     relativ break condition  

   TIME   =   0.40     timestep for ELM

  volume/ion in A,a.u.               =      10.57        71.35
  Fermi-wavevector in a.u.,A,eV,Ry     =   1.539433  2.909106 32.243803  2.369853
  Thomas-Fermi vector in A             =   2.645661
 
 Write flags
   LWAVE        =      T    write WAVECAR
   LDOWNSAMPLE  =      F    k-point downsampling of WAVECAR
   LCHARG       =      T    write CHGCAR
   LVTOT        =      F    write LOCPOT, total local potential
   LVHAR        =      F    write LOCPOT, Hartree potential only
   LELF         =      F    write electronic localiz. function (ELF)
   LORBIT       =      0    0 simple, 1 ext, 2 COOP (PROOUT), +10 PAW based schemes


 Dipole corrections
   LMONO  =      F    monopole corrections only (constant potential shift)
   LDIPOL =      F    correct potential (dipole corrections)
   IDIPOL =      0    1-x, 2-y, 3-z, 4-all directions 
   EPSILON=  1.0000000 bulk dielectric constant

 Exchange correlation treatment:
   GGA     =    --    GGA type
   LEXCH   =     8    internal setting for exchange type
   LIBXC   =     F    Libxc                    
   VOSKOWN =     0    Vosko Wilk Nusair interpolation
   EXXOEP  =     0    0=HF, 1=EXX-LHF (local Hartree Fock) 2=EXX OEP
   LHFCALC =     T    Hartree Fock is set to
   LSYMGRAD=     F    symmetrize gradient (conserves proper symmetry)
   PRECFOCK=fast      Normal, Fast or Accurate (Low or Medium for compatibility)
   LRHFCALC=     F    long range Hartree Fock
   LRSCOR  =     F    long range correlation only (use DFT for short range part)
   LTHOMAS =     F    Thomas Fermi screening in HF
   LMODELHF=     F    short range full HF, long range fraction AEXX
   FOCKCORR=     1    mode to apply convergence corrections
   LFOCKACE=     T    use Adeptively-Compressed-Exchange operator
   ENCUT4O =  -1.0   cutoff for four orbital integrals eV
   LMAXFOCK=     4    L truncation for augmentation on plane wave grid
   LMAXFOCKAE=  -1    L truncation for all-electron charge restoration on plane wave grid
   NMAXFOCKAE=   1    number of basis functions for all-electron charge restoration
   LFOCKAEDFT=     F  apply the AE augmentation even for DFT
   NKREDX  =     1    reduce k-point grid by
   NKREDY  =     1    reduce k-point grid by
   NKREDZ  =     1    reduce k-point grid by
   SHIFTRED=     F    shift reduced grid of Gamma
   HFKIDENT=     F    idential grid for each k-point
   ODDONLY =     F    use only odd q-grid points
   EVENONLY=     F    use only even q-grid points
   HFALPHA =   -1.0000 decay constant for conv. correction
   MCALPHA =    0.0000 extent of test-charge in conv. correction in multipole expansion
   AEXX    =    0.3500 exact exchange contribution
   HFSCREEN=    0.1800 screening length (either q_TF or 0.3 A-1)
   HFSCREENC=   0.1800 screening length for correlation (either q_TF or 0.3 A-1)
   HFRCUT  =    0.0000 spherical cutoff for potential kernel
   ALDAX   =    0.6500 LDA exchange part
   AGGAX   =    0.6500 GGA exchange part
   ALDAC   =    1.0000 LDA correlation
   AGGAC   =    1.0000 GGA correlation
   ENCUTFOCK=  -1.0 apply spherical cutoff to Coloumb kernel
   NBANDSGWLOW=     1    first orbital included in HF term
   NBLOCK_FOCK=    64    blocking factor in FOCK_ACC

 Linear response parameters
   LEPSILON=     F    determine dielectric tensor
   LRPA    =     F    only Hartree local field effects (RPA)
   LNABLA  =     F    use nabla operator in PAW spheres
   LVEL    =     F    velocity operator in full k-point grid
   CSHIFT  =0.1000    complex shift for real part using Kramers Kronig
   OMEGAMAX=  -1.0    maximum frequency
   DEG_THRESHOLD= 0.2000000E-02 threshold for treating states as degnerate
   RTIME   =   -0.100 relaxation time in fs
  (WPLASMAI=    0.000 imaginary part of plasma frequency in eV, 0.658/RTIME)
   DFIELD  = 0.0000000 0.0000000 0.0000000 field for delta impulse in time
 
  Optional k-point grid parameters
   LKPOINTS_OPT  =     F    use optional k-point grid
   KPOINTS_OPT_MODE=     1    mode for optional k-point grid
 
 Orbital magnetization related:
   ORBITALMAG=     F  switch on orbital magnetization
   LCHIMAG   =     F  perturbation theory with respect to B field
   DQ        =  0.001000  dq finite difference perturbation B field
   LLRAUG    =     F  two centre corrections for induced B field
   LBONE     =     F  B-component reconstruction in AE one-centre
   LVGVCALC  =     T  calculate vGv susceptibility
   LVGVAPPL  =     F  apply vGv susceptibility instead of pGv for G=0

 Random number generation:
   RANDOM_GENERATOR = DEFAULT
   PCG_SEED         = not used


--------------------------------------------------------------------------------------------------------


 Static calculation
 charge density and potential will be updated during run
 non-spin polarized calculation
 Conjugate gradient for all bands (Freysoldt, et al. PRB 79, 241103 (2009))
 preconditioned conjugated gradient                                        
 perform sub-space diagonalisation
    before iterative eigenvector-optimisation
 modified Broyden-mixing scheme, WC =      100.0
 initial mixing is a Kerker type mixing with AMIX =  0.4000 and BMIX =      1.0000
 Hartree-type preconditioning will be used
 using additional bands           105
 real space projection scheme for non local part
 use partial core corrections
 no Harris-corrections to forces 
 use gradient corrections 
 use of overlap-Matrix (Vanderbilt PP)
 Gauss-broadening in eV      SIGMA  =   0.05


--------------------------------------------------------------------------------------------------------


  energy-cutoff  :      450.00
  volume of cell :     1268.81
      direct lattice vectors                 reciprocal lattice vectors
     0.000000000 12.280473417  0.000000000     0.000000000  0.081430085 -0.019947423
     9.142702054  0.000000000  0.000000000     0.109376855 -0.000000000  0.000000000
     0.000000000 -2.768261773-11.300697718     0.000000000  0.000000000 -0.088490111

  length of vectors
    12.280473417  9.142702054 11.634820246     0.083837691  0.109376855  0.088490111


 
 k-points in units of 2pi/SCALE and weight: Automatic mesh                          
   0.00000000  0.00000000 -0.00000000       0.125
   0.00000000  0.04071504 -0.00997371       0.125
   0.05468843  0.00000000 -0.00000000       0.125
   0.05468843  0.04071504 -0.00997371       0.125
   0.00000000  0.00000000 -0.04424506       0.125
   0.00000000  0.04071504 -0.05421877       0.125
   0.05468843  0.00000000 -0.04424506       0.125
   0.05468843  0.04071504 -0.05421877       0.125
 
 k-points in reciprocal lattice and weights: Automatic mesh                          
   0.00000000  0.00000000  0.00000000       0.125
   0.50000000  0.00000000  0.00000000       0.125
   0.00000000  0.50000000  0.00000000       0.125
   0.50000000  0.50000000  0.00000000       0.125
   0.00000000  0.00000000  0.50000000       0.125
   0.50000000  0.00000000  0.50000000       0.125
   0.00000000  0.50000000  0.50000000       0.125
   0.50000000  0.50000000  0.50000000       0.125
 
 position of ions in fractional coordinates (direct lattice) 
   0.65841153  0.99936839  0.15594726
   0.65924052  0.99988245  0.65685037
   0.65841153  0.33396494  0.15594726
   0.65924052  0.33345088  0.65685037
   0.65867212  0.66666667  0.15627204
   0.65942154  0.66666667  0.65696699
   0.83915821  0.16666667  0.34358410
   0.84109925  0.16666667  0.84319846
   0.84069420  0.50049232  0.34287143
   0.84163294  0.50012640  0.84381130
   0.84069420  0.83284101  0.34287143
   0.84163294  0.83320694  0.84381130
   0.59154307  0.16666667  0.39787937
   0.59077746  0.16666667  0.89752085
   0.59173254  0.50013887  0.39780198
   0.59049925  0.50013675  0.89708038
   0.59173254  0.83319447  0.39780198
   0.59049925  0.83319658  0.89708038
   0.90855874  0.99879970  0.10373790
   0.90774455  0.99907033  0.60111480
   0.90855874  0.33453363  0.10373790
   0.90774455  0.33426300  0.60111480
   0.90943629  0.66666667  0.10297831
   0.90876544  0.66666667  0.60187610
   0.16083122  0.16666667  0.15874508
   0.15992701  0.16666667  0.65514882
   0.15972128  0.50006066  0.15731777
   0.15898134  0.50005007  0.65621686
   0.15972128  0.83327267  0.15731777
   0.15898134  0.83328326  0.65621686
   0.34188542  0.99958715  0.34401728
   0.34068231  0.00002627  0.84304672
   0.34188542  0.33374618  0.34401728
   0.34068231  0.33330706  0.84304672
   0.34178095  0.66666667  0.34354144
   0.34048515  0.66666667  0.84328594
   0.09009222  0.99994989  0.39685224
   0.09143830  0.99982263  0.89748689
   0.09009222  0.33338344  0.39685224
   0.09143830  0.33351070  0.89748689
   0.09154335  0.66666667  0.39777827
   0.09144461  0.66666667  0.89788478
   0.40893800  0.16666667  0.10203667
   0.40955747  0.16666667  0.60250534
   0.40890129  0.50007993  0.10204512
   0.40922825  0.50013447  0.60279652
   0.40890129  0.83325340  0.10204512
   0.40922825  0.83319887  0.60279652
   0.99661113  0.16666667  0.13759535
   0.99567463  0.16666667  0.62038228
   0.99693515  0.50009825  0.12778757
   0.99621543  0.49986548  0.62697037
   0.99693515  0.83323508  0.12778757
   0.99621543  0.83346785  0.62697037
   0.50431531  0.99994345  0.37306041
   0.50329978  0.00007566  0.87259284
   0.50431531  0.33338988  0.37306041
   0.50329978  0.33325767  0.87259284
   0.50417299  0.66666667  0.37321175
   0.50299146  0.66666667  0.87215667
   0.67227387  0.16666667  0.27997742
   0.67303230  0.16666667  0.78099002
   0.67163823  0.50081811  0.27964334
   0.67331733  0.49964802  0.78109064
   0.67163823  0.83251523  0.27964334
   0.67331733  0.83368531  0.78109064
   0.82518217  0.99695601  0.21820392
   0.82809448  0.00030552  0.71983635
   0.82518217  0.33637733  0.21820392
   0.82809448  0.33302781  0.71983635
   0.82710545  0.66666667  0.21914886
   0.82788916  0.66666667  0.71979768
   0.82804288  0.99793736  0.44570647
   0.83436599  0.00067285  0.94658977
   0.82804288  0.33539597  0.44570647
   0.83436599  0.33266049  0.94658977
   0.83100963  0.66666667  0.44563369
   0.83294907  0.66666667  0.94621605
   0.66764910  0.16666667  0.05391916
   0.66801223  0.16666667  0.55471477
   0.66725028  0.50036980  0.05334289
   0.66792078  0.50009462  0.55473330
   0.66725028  0.83296354  0.05334289
   0.66792078  0.83323872  0.55473330
   0.49614194  0.00002054  0.12677424
   0.49676815  0.99986822  0.62797927
   0.49614194  0.33331280  0.12677424
   0.49676815  0.33346511  0.62797927
   0.49602808  0.66666667  0.12626531
   0.49686326  0.66666667  0.62827312
   0.00388407  0.16666667  0.87238772
   0.00342649  0.50149442  0.37314147
   0.00406290  0.50006400  0.87267721
   0.00342649  0.83183891  0.37314147
   0.00406290  0.83326933  0.87267721
   0.17431805  0.99842954  0.28083415
   0.17200015  0.00062916  0.77965997
   0.17431805  0.33490379  0.28083415
   0.17200015  0.33270417  0.77965997
   0.17338056  0.66666667  0.28082628
   0.17227266  0.66666667  0.78018328
   0.32837292  0.16666667  0.21982223
   0.32775931  0.16666667  0.71946064
   0.32817604  0.50015934  0.21955162
   0.32753489  0.49991262  0.71983058
   0.32817604  0.83317399  0.21955162
   0.32753489  0.83342071  0.71983058
   0.33334012  0.16666667  0.44594935
   0.33155580  0.16666667  0.94556760
   0.33323698  0.50035796  0.44616078
   0.33125242  0.49968482  0.94561506
   0.33323698  0.83297537  0.44616078
   0.33125242  0.83364851  0.94561506
   0.16638853  0.00093484  0.05458800
   0.16918229  0.99895162  0.55392015
   0.16638853  0.33239849  0.05458800
   0.16918229  0.33438172  0.55392015
   0.16813647  0.66666667  0.05447995
   0.16848598  0.66666667  0.55443366
   0.00014599  0.16666667  0.36883432
 
 position of ions in cartesian coordinates  (Angst):
   9.13692746  7.65390240 -1.76231284
   9.14162737  6.27745193 -7.42286748
   3.05334194  7.65390240 -1.76231284
   3.04864203  6.27745193 -7.42286748
   6.09513470  7.65620350 -1.76598303
   6.09513470  6.27935210 -7.42418538
   1.52378368  9.35412932 -3.88274003
   1.52378368  7.99490295 -9.52873093
   4.57585217  9.37496491 -3.87468635
   4.57250663  7.99976044 -9.53565640
   7.61441723  9.37496491 -3.87468635
   7.61776278  7.99976044 -9.53565640
   1.52378368  6.16299465 -4.49631446
   1.52378368  4.77045416-10.14261187
   4.57262065  6.16553565 -4.49543994
   4.57260128  4.76825704-10.13763419
   7.61764876  6.16553565 -4.49543994
   7.61766813  4.76825704-10.13763419
   9.13172810 10.87035786 -1.17231061
   9.13420238  9.48348969 -6.79301661
   3.05854130 10.87035786 -1.17231061
   3.05606702  9.48348969 -6.79301661
   6.09513470 10.88323732 -1.16372676
   6.09513470  9.49391918 -6.80161986
   1.52378368  1.53563558 -1.79393013
   1.52378368  0.15035602 -7.40363874
   4.57190562  1.52595616 -1.77780056
   4.57180885  0.13578602 -7.41570835
   7.61836379  1.52595616 -1.77780056
   7.61846056  0.13578602 -7.41570835
   9.13892749  3.24618496 -3.88763530
   0.00024019  1.84996603 -9.52701609
   3.05134191  3.24618496 -3.88763530
   3.04732716  1.84996603 -9.52701609
   6.09513470  3.24621925 -3.88225799
   6.09513470  1.84688264 -9.52971954
   9.14224396  0.00778421 -4.48470716
   9.14108043 -1.36157304-10.14222802
   3.04802545  0.00778421 -4.48470716
   3.04918897 -1.36157304-10.14222802
   6.09513470  0.02304127 -4.49517193
   6.09513470 -1.36259707-10.14672449
   1.52378368  4.73948801 -1.15308553
   1.52378368  3.36166718 -6.80873073
   4.57208183  4.73901386 -1.15318108
   4.57258041  3.35681804 -6.81202126
   7.61818758  4.73901386 -1.15318108
   7.61768900  3.35681804 -6.81202126
   1.52378368 11.85795655 -1.55492345
   1.52378368 10.50997527 -7.01075264
   4.57224929 11.88908613 -1.44408870
   4.57012114 10.49837898 -7.08520258
   7.61802011 11.88908613 -1.44408870
   7.62014827 10.49837898 -7.08520258
   9.14218508  5.16050189 -4.21584287
   0.00069176  3.76519413 -9.86090792
   3.04808433  5.16050189 -4.21584287
   3.04687560  3.76519413 -9.86090792
   6.09513470  5.15833516 -4.21755318
   6.09513470  3.76261525 -9.85597890
   1.52378368  7.48079062 -3.16394022
   1.52378368  6.10317045 -8.82573217
   4.57883073  7.47390941 -3.16016485
   4.56813298  6.10639227 -8.82686919
   7.61143868  7.47390941 -3.16016485
   7.62213643  6.10639227 -8.82686919
   9.11487174  9.52958209 -2.46585656
   0.00279330  8.17669682 -8.13465304
   3.07539766  9.52958209 -2.46585656
   3.04477405  8.17669682 -8.13465304
   6.09513470  9.55058510 -2.47653497
   6.09513470  8.17428243 -8.13421601
   9.12384396  8.93492638 -5.03679414
   0.00615164  7.62600108-10.69712487
   3.06642544  8.93492638 -5.03679414
   3.04141571  7.62600108-10.69712487
   6.09513470  8.97156093 -5.03597158
   6.09513470  7.60963524-10.69290150
   1.52378368  8.04978468 -0.60932417
   1.52378368  6.66791076 -6.26866389
   4.57473197  8.04648229 -0.60281185
   4.57221609  6.66673646 -6.26887332
   7.61553743  8.04648229 -0.60281185
   7.61805331  6.66673646 -6.26887332
   0.00018776  5.74191363 -1.43263735
   9.14149724  4.36213704 -7.09660395
   3.04737959  5.74191363 -1.43263735
   3.04877216  4.36213704 -7.09660395
   6.09513470  5.74192428 -1.42688605
   6.09513470  4.36249155 -7.09992460
   1.52378368 -2.36729930 -9.85858987
   4.58501408 -0.99087429 -4.21675894
   4.57193616 -2.36590465 -9.86186139
   7.60525532 -0.99087429 -4.21675894
   7.61833325 -2.36590465 -9.86186139
   9.12834381  1.36328579 -3.17362183
   0.00575222 -0.04605966 -8.81070160
   3.06192560  1.36328579 -3.17362183
   3.04181513 -0.04605966 -8.81070160
   6.09513470  1.35179468 -3.17353286
   6.09513470 -0.04416170 -8.81661538
   1.52378368  3.42404949 -2.48414453
   1.52378368  2.03338411 -8.13040725
   4.57280785  3.42238084 -2.48108649
   4.57055215  2.02960404 -8.13458776
   7.61746156  3.42238084 -2.48108649
   7.61971725  2.02960404 -8.13458776
   1.52378368  2.85906990 -5.03953885
   1.52378368  1.45408358-10.68557357
   4.57462379  2.85721801 -5.04192811
   4.56846946  1.45022652-10.68610990
   7.61564561  2.85721801 -5.04192811
   7.62179995  1.45022652-10.68610990
   0.00854700  1.89221599 -0.61688253
   9.13311700  0.54424264 -6.25968417
   3.03902035  1.89221599 -0.61688253
   3.05715240  0.54424264 -6.25968417
   6.09513470  1.91398067 -0.61566141
   6.09513470  0.53427008 -6.26548714
   1.52378368 -1.01923719 -4.16808520
 


--------------------------------------------------------------------------------------------------------


 k-point   1 :   0.0000 0.0000 0.0000  plane waves:   27533
 k-point   2 :   0.5000 0.0000 0.0000  plane waves:   27522
 k-point   3 :   0.0000 0.5000 0.0000  plane waves:   27488
 k-point   4 :   0.5000 0.5000 0.0000  plane waves:   27488
 k-point   5 :   0.0000 0.0000 0.5000  plane waves:   27482
 k-point   6 :   0.5000 0.0000 0.5000  plane waves:   27476
 k-point   7 :   0.0000 0.5000 0.5000  plane waves:   27468
 k-point   8 :   0.5000 0.5000 0.5000  plane waves:   27564

 maximum and minimum number of plane-waves per node :     27564    27468

 maximum number of plane-waves:     27564
 maximum index in each direction: 
   IXMAX=   21   IYMAX=   15   IZMAX=   20
   IXMIN=  -21   IYMIN=  -16   IZMIN=  -20


 serial   3D FFT for wavefunctions
 parallel 3D FFT for charge:
    minimum data exchange during FFTs selected (reduces bandwidth)


 FFT grid for exact exchange (Hartree Fock) 
  NGX = 48; NGY = 36; NGZ = 48

 
 Radii for the augmentation spheres in the non-local exchange
 for species   1 augmentation radius   1.392 (default was   1.031)
       energy cutoff for augmentation   1800.0
 for species   2 augmentation radius   0.974 (default was   0.722)
       energy cutoff for augmentation   1800.0
 for species   3 augmentation radius   0.957 (default was   0.709)
       energy cutoff for augmentation   1800.0
 Maximum index for augmentation-charges in exchange           747
  SETUP_FOCK is finished

 total amount of memory used by VASP MPI-rank0  7269079. kBytes
=======================================================================

   base      :      30000. kBytes
   nonlr-proj:      32974. kBytes
   fftplans  :      51012. kBytes
   grid      :     102973. kBytes
   one-center:       1866. kBytes
   HF        :        194. kBytes
   wavefun   :    7050060. kBytes
 
     INWAV:  cpu time      0.0001: real time      0.0001
 Broyden mixing: mesh for mixing (old mesh)
   NGX = 43   NGY = 31   NGZ = 41
  (NGX  =128   NGY  = 96   NGZ  =120)
  gives a total of  54653 points

 charge density for first step will be calculated from the start-wavefunctions


--------------------------------------------------------------------------------------------------------


 Maximum index for non-local projection operator          1715
 Maximum index for augmentation-charges          5355 (set IRDMAX)


--------------------------------------------------------------------------------------------------------


 initial charge from wavefunction
 First call to EWALD:  gamma=   0.164
 Maximum number of real-space cells 3x 3x 3
 Maximum number of reciprocal cells 3x 2x 3

    FEWALD:  cpu time      0.0743: real time      0.0743


--------------------------------------- Ionic step        1  -------------------------------------------




--------------------------------------- Iteration      1(   1)  ---------------------------------------


    POTLOK:  cpu time      0.0535: real time      0.0535
    SETDIJ:  cpu time      0.1331: real time      0.1331
    TRIAL :  cpu time      2.9307: real time      2.9374
    CORREC:  cpu time      0.0015: real time      0.0015
    --------------------------------------------
      LOOP:  cpu time      4.0697: real time      4.0806

 eigenvalue-minimisations  : 10616
 total energy-change (2. order) :-0.2138757E+05  (-0.5436944E+05)
 number of electron    1054.9999383 magnetization 
 augmentation part      122.1051520 magnetization 

 Free energy of the ion-electron system (eV)
  ---------------------------------------------------
  alpha Z        PSCENC =      5530.94812622
  Ewald energy   TEWEN  =    -88767.74176337
  -Hartree energ DENC   =     -2110.47737191
  -exchange      EXHF   =         0.00000000
  -V(xc)+E(xc)   XCENC  =      2801.99420178
  PAW double counting   =     59853.63315401   -91655.36873912
  entropy T*S    EENTRO =        -0.00709698
  eigenvalues    EBANDS =    -40733.27809578
  atomic energy  EATOM  =    133692.73004162
  ---------------------------------------------------
  free energy    TOTEN  =    -21387.56754352 eV

  energy without entropy =   -21387.56044654  energy(sigma->0) =   -21387.56399503
  exchange ACFDT corr.  =         0.00000000  see jH, gK, PRB 81, 115126


--------------------------------------------------------------------------------------------------------




--------------------------------------- Iteration      1(   2)  ---------------------------------------


    TRIAL :  cpu time      3.1985: real time      3.1978
    CORREC:  cpu time      0.0016: real time      0.0015
    --------------------------------------------
      LOOP:  cpu time      3.2003: real time      3.2003

 eigenvalue-minimisations  : 13624
 total energy-change (2. order) :-0.4407156E+05  (-0.4277026E+05)
 number of electron    1054.9999383 magnetization 
 augmentation part      122.1051520 magnetization 

 Free energy of the ion-electron system (eV)
  ---------------------------------------------------
  alpha Z        PSCENC =      5530.94812622
  Ewald energy   TEWEN  =    -88767.74176337
  -Hartree energ DENC   =     -2110.47737191
  -exchange      EXHF   =         0.00000000
  -V(xc)+E(xc)   XCENC  =      2801.99420178
  PAW double counting   =     59853.63315401   -91655.36873912
  entropy T*S    EENTRO =        -0.01494506
  eigenvalues    EBANDS =    -84804.83190977
  atomic energy  EATOM  =    133692.73004162
  ---------------------------------------------------
  free energy    TOTEN  =    -65459.12920560 eV

  energy without entropy =   -65459.11426054  energy(sigma->0) =   -65459.12173307
  exchange ACFDT corr.  =         0.00000000  see jH, gK, PRB 81, 115126


--------------------------------------------------------------------------------------------------------




--------------------------------------- Iteration      1(   3)  ---------------------------------------


    TRIAL :  cpu time      3.3361: real time      3.3354
    CORREC:  cpu time      0.0016: real time      0.0016
    --------------------------------------------
      LOOP:  cpu time      3.3379: real time      3.3375

 eigenvalue-minimisations  : 14464
 total energy-change (2. order) :-0.4549427E+04  (-0.4055657E+04)
 number of electron    1054.9999383 magnetization 
 augmentation part      122.1051520 magnetization 

 Free energy of the ion-electron system (eV)
  ---------------------------------------------------
  alpha Z        PSCENC =      5530.94812622
  Ewald energy   TEWEN  =    -88767.74176337
  -Hartree energ DENC   =     -2110.47737191
  -exchange      EXHF   =         0.00000000
  -V(xc)+E(xc)   XCENC  =      2801.99420178
  PAW double counting   =     59853.63315401   -91655.36873912
  entropy T*S    EENTRO =        -0.04110108
  eigenvalues    EBANDS =    -89354.23239293
  atomic energy  EATOM  =    133692.73004162
  ---------------------------------------------------
  free energy    TOTEN  =    -70008.55584477 eV

  energy without entropy =   -70008.51474369  energy(sigma->0) =   -70008.53529423
  exchange ACFDT corr.  =         0.00000000  see jH, gK, PRB 81, 115126


--------------------------------------------------------------------------------------------------------




--------------------------------------- Iteration      1(   4)  ---------------------------------------


    TRIAL :  cpu time      3.6734: real time      3.6725
    CORREC:  cpu time      0.0017: real time      0.0017
    --------------------------------------------
      LOOP:  cpu time      3.6753: real time      3.6747

 eigenvalue-minimisations  : 16880
 total energy-change (2. order) :-0.5314918E+03  (-0.4542750E+03)
 number of electron    1054.9999383 magnetization 
 augmentation part      122.1051520 magnetization 

 Free energy of the ion-electron system (eV)
  ---------------------------------------------------
  alpha Z        PSCENC =      5530.94812622
  Ewald energy   TEWEN  =    -88767.74176337
  -Hartree energ DENC   =     -2110.47737191
  -exchange      EXHF   =         0.00000000
  -V(xc)+E(xc)   XCENC  =      2801.99420178
  PAW double counting   =     59853.63315401   -91655.36873912
  entropy T*S    EENTRO =        -0.05391387
  eigenvalues    EBANDS =    -89885.71142215
  atomic energy  EATOM  =    133692.73004162
  ---------------------------------------------------
  free energy    TOTEN  =    -70540.04768678 eV

  energy without entropy =   -70539.99377292  energy(sigma->0) =   -70540.02072985
  exchange ACFDT corr.  =         0.00000000  see jH, gK, PRB 81, 115126


--------------------------------------------------------------------------------------------------------




--------------------------------------- Iteration      1(   5)  ---------------------------------------


    POTLOK:  cpu time      1.3592: real time      1.3590
    SETDIJ:  cpu time      0.4668: real time      0.4667
    TRIAL :  cpu time    234.2599: real time    234.2382
    CORREC:  cpu time      0.0016: real time      0.0016
    CHARGE:  cpu time      0.2080: real time      0.2079
    --------------------------------------------
      LOOP:  cpu time    236.2957: real time    236.2740

 eigenvalue-minimisations  : 19008
 total energy-change (2. order) : 0.3299632E+05  (-0.7704869E+02)
 number of electron    1054.9998361 magnetization 
 augmentation part      494.1162312 magnetization 

 Free energy of the ion-electron system (eV)
  ---------------------------------------------------
  alpha Z        PSCENC =      5530.94812622
  Ewald energy   TEWEN  =    -88767.74176337
  -Hartree energ DENC   =     -2110.47737191
  -exchange      EXHF   =      5143.71526120
  -V(xc)+E(xc)   XCENC  =      1857.55111797
  PAW double counting   =     60554.89050696   -62632.87316170
  entropy T*S    EENTRO =        -0.02748358
  eigenvalues    EBANDS =    -90812.43841460
  atomic energy  EATOM  =    133692.73004162
  ---------------------------------------------------
  free energy    TOTEN  =    -37543.72314119 eV

  energy without entropy =   -37543.69565761  energy(sigma->0) =   -37543.70939940
  exchange ACFDT corr.  =        -0.08846257  see jH, gK, PRB 81, 115126


--------------------------------------------------------------------------------------------------------




--------------------------------------- Iteration      1(   6)  ---------------------------------------


    POTLOK:  cpu time      1.3920: real time      1.3917
    SETDIJ:  cpu time      0.4687: real time      0.4686
    TRIAL :  cpu time    232.8315: real time    232.8187
    CORREC:  cpu time    235.0579: real time    235.0537
    CHARGE:  cpu time      0.2262: real time      0.2315
    --------------------------------------------
      LOOP:  cpu time    469.9767: real time    469.9651

 eigenvalue-minimisations  :     0
 total energy-change (2. order) : 0.5669498E+05  (-0.1525708E+05)
 number of electron    1054.9998546 magnetization 
 augmentation part      494.0170040 magnetization 

 Free energy of the ion-electron system (eV)
  ---------------------------------------------------
  alpha Z        PSCENC =      5530.94812622
  Ewald energy   TEWEN  =    -88767.74176337
  -Hartree energ DENC   =    -65653.73123703
  -exchange      EXHF   =      5272.14654996
  -V(xc)+E(xc)   XCENC  =      3575.12890675
  PAW double counting   =    144623.92376289  -168990.38278759
  entropy T*S    EENTRO =        -0.02565396
  eigenvalues    EBANDS =     49868.26277397
  atomic energy  EATOM  =    133692.73004162
  ---------------------------------------------------
  free energy    TOTEN  =     19151.25688985 eV

  energy without entropy =    19151.28254381  energy(sigma->0) =    19151.26971683
  exchange ACFDT corr.  =        -0.20317505  see jH, gK, PRB 81, 115126


--------------------------------------------------------------------------------------------------------




--------------------------------------- Iteration      1(   7)  ---------------------------------------


    POTLOK:  cpu time      1.4936: real time      1.5041
    SETDIJ:  cpu time      0.4694: real time      0.4694
    TRIAL :  cpu time    233.3663: real time    233.4595
    CORREC:  cpu time    235.8695: real time    235.8628
    CHARGE:  cpu time      0.2157: real time      0.2156
    --------------------------------------------
      LOOP:  cpu time    471.4147: real time    471.5120

 eigenvalue-minimisations  :     0
 total energy-change (2. order) :-0.1422481E+05  (-0.3648417E+04)
 number of electron    1054.9998516 magnetization 
 augmentation part      463.5561748 magnetization 

 Free energy of the ion-electron system (eV)
  ---------------------------------------------------
  alpha Z        PSCENC =      5530.94812622
  Ewald energy   TEWEN  =    -88767.74176337
  -Hartree energ DENC   =    -46051.36804200
  -exchange      EXHF   =      4697.27170737
  -V(xc)+E(xc)   XCENC  =      3115.45917927
  PAW double counting   =    126889.57959618  -146950.28233314
  entropy T*S    EENTRO =        -0.02281539
  eigenvalues    EBANDS =     12769.88078665
  atomic energy  EATOM  =    133692.73004162
  ---------------------------------------------------
  free energy    TOTEN  =      4926.45164483 eV

  energy without entropy =     4926.47446022  energy(sigma->0) =     4926.46305253
  exchange ACFDT corr.  =      -210.83344048  see jH, gK, PRB 81, 115126


--------------------------------------------------------------------------------------------------------




--------------------------------------- Iteration      1(   8)  ---------------------------------------


    POTLOK:  cpu time      1.4995: real time      1.4992
    SETDIJ:  cpu time      0.4682: real time      0.4681
    TRIAL :  cpu time    233.1418: real time    233.1341
    CORREC:  cpu time    236.4013: real time    236.4026
    CHARGE:  cpu time      0.2222: real time      0.2222
    --------------------------------------------
      LOOP:  cpu time    471.7332: real time    471.7286

 eigenvalue-minimisations  :     0
 total energy-change (2. order) :-0.3905533E+04  (-0.8928445E+03)
 number of electron    1054.9998394 magnetization 
 augmentation part      443.3930903 magnetization 

 Free energy of the ion-electron system (eV)
  ---------------------------------------------------
  alpha Z        PSCENC =      5530.94812622
  Ewald energy   TEWEN  =    -88767.74176337
  -Hartree energ DENC   =    -36176.93091183
  -exchange      EXHF   =      4310.40146981
  -V(xc)+E(xc)   XCENC  =      2839.96423334
  PAW double counting   =    124231.69202917  -141200.55481170
  entropy T*S    EENTRO =        -0.02732372
  eigenvalues    EBANDS =     -3439.56718571
  atomic energy  EATOM  =    133692.73004162
  ---------------------------------------------------
  free energy    TOTEN  =      1020.91841216 eV

  energy without entropy =     1020.94573587  energy(sigma->0) =     1020.93207402
  exchange ACFDT corr.  =      -115.69682392  see jH, gK, PRB 81, 115126


--------------------------------------------------------------------------------------------------------




--------------------------------------- Iteration      1(   9)  ---------------------------------------


    POTLOK:  cpu time      1.4890: real time      1.4888
    SETDIJ:  cpu time      0.4680: real time      0.4680
    TRIAL :  cpu time    232.8274: real time    232.8388
    CORREC:  cpu time    234.6634: real time    234.6592
    CHARGE:  cpu time      0.2215: real time      0.2215
    --------------------------------------------
      LOOP:  cpu time    469.6707: real time    469.6781

 eigenvalue-minimisations  :     0
 total energy-change (2. order) :-0.8742499E+03  (-0.4527321E+03)
 number of electron    1054.9998636 magnetization 
 augmentation part      444.1666043 magnetization 

 Free energy of the ion-electron system (eV)
  ---------------------------------------------------
  alpha Z        PSCENC =      5530.94812622
  Ewald energy   TEWEN  =    -88767.74176337
  -Hartree energ DENC   =    -33134.74717403
  -exchange      EXHF   =      4170.88158013
  -V(xc)+E(xc)   XCENC  =      2742.19566248
  PAW double counting   =    121662.02252439  -136939.46970297
  entropy T*S    EENTRO =        -0.03721926
  eigenvalues    EBANDS =     -8810.12344918
  atomic energy  EATOM  =    133692.73004162
  ---------------------------------------------------
  free energy    TOTEN  =       146.66852158 eV

  energy without entropy =      146.70574084  energy(sigma->0) =      146.68713121
  exchange ACFDT corr.  =       -26.84567211  see jH, gK, PRB 81, 115126


--------------------------------------------------------------------------------------------------------




--------------------------------------- Iteration      1(  10)  ---------------------------------------


    POTLOK:  cpu time      1.4889: real time      1.4887
    SETDIJ:  cpu time      0.4809: real time      0.4808
    TRIAL :  cpu time    233.4824: real time    233.4683
    CORREC:  cpu time    234.2143: real time    234.2005
    CHARGE:  cpu time      0.2204: real time      0.2203
    --------------------------------------------
      LOOP:  cpu time    469.8878: real time    469.8600

 eigenvalue-minimisations  :     0
 total energy-change (2. order) :-0.4415627E+03  (-0.4009898E+03)
 number of electron    1054.9998439 magnetization 
 augmentation part      448.1076395 magnetization 

 Free energy of the ion-electron system (eV)
  ---------------------------------------------------
  alpha Z        PSCENC =      5530.94812622
  Ewald energy   TEWEN  =    -88767.74176337
  -Hartree energ DENC   =    -32378.23922594
  -exchange      EXHF   =      4144.53340780
  -V(xc)+E(xc)   XCENC  =      2729.92911164
  PAW double counting   =    120699.89979108  -135548.95010719
  entropy T*S    EENTRO =        -0.01136939
  eigenvalues    EBANDS =    -10397.96632621
  atomic energy  EATOM  =    133692.73004162
  ---------------------------------------------------
  free energy    TOTEN  =      -294.89416360 eV

  energy without entropy =     -294.88279421  energy(sigma->0) =     -294.88847891
  exchange ACFDT corr.  =        -5.45310825  see jH, gK, PRB 81, 115126


--------------------------------------------------------------------------------------------------------




--------------------------------------- Iteration      1(  11)  ---------------------------------------


    POTLOK:  cpu time      1.4916: real time      1.4916
    SETDIJ:  cpu time      0.4670: real time      0.4669
    TRIAL :  cpu time    232.4126: real time    232.4047
    CORREC:  cpu time    234.4271: real time    234.4285
    CHARGE:  cpu time      0.2294: real time      0.2293
    --------------------------------------------
      LOOP:  cpu time    469.0280: real time    469.0215

[...]
   0.404E+01 0.529E+02 -.323E+02   -.390E+01 -.509E+02 0.338E+02   -.122E+00 -.182E+01 -.138E+01
   0.220E+01 0.522E+02 -.316E+02   -.216E+01 -.500E+02 0.334E+02   -.401E-01 -.195E+01 -.173E+01
   -.404E+01 0.529E+02 -.323E+02   0.390E+01 -.509E+02 0.338E+02   0.122E+00 -.182E+01 -.138E+01
   -.220E+01 0.522E+02 -.316E+02   0.216E+01 -.500E+02 0.334E+02   0.401E-01 -.195E+01 -.173E+01
   0.133E-03 -.156E+02 0.289E+02   0.302E-10 0.224E+02 -.355E+02   0.000E+00 -.576E+01 0.564E+01
   0.609E-04 -.252E+02 0.597E+00   0.529E-11 0.331E+02 -.219E+01   0.000E+00 -.671E+01 0.137E+01
   0.509E+01 -.214E+02 0.133E+02   -.507E+01 0.291E+02 -.170E+02   -.146E-01 -.650E+01 0.307E+01
   0.566E+01 -.213E+02 0.159E+02   -.565E+01 0.288E+02 -.199E+02   -.384E-02 -.630E+01 0.343E+01
   -.509E+01 -.214E+02 0.133E+02   0.507E+01 0.291E+02 -.170E+02   0.146E-01 -.650E+01 0.307E+01
   -.566E+01 -.213E+02 0.159E+02   0.565E+01 0.288E+02 -.199E+02   0.384E-02 -.630E+01 0.343E+01
   -.750E+00 0.190E+02 -.157E+02   0.678E+00 -.262E+02 0.195E+02   0.595E-01 0.611E+01 -.322E+01
   -.113E+01 0.169E+02 -.138E+02   0.114E+01 -.242E+02 0.176E+02   -.170E-01 0.618E+01 -.316E+01
   0.750E+00 0.190E+02 -.157E+02   -.678E+00 -.262E+02 0.195E+02   -.595E-01 0.611E+01 -.322E+01
   0.113E+01 0.169E+02 -.138E+02   -.114E+01 -.242E+02 0.176E+02   0.170E-01 0.618E+01 -.316E+01
   0.295E-04 0.193E+02 -.141E+02   0.351E-10 -.265E+02 0.178E+02   0.000E+00 0.613E+01 -.311E+01
   -.309E-04 0.171E+02 -.146E+02   -.525E-12 -.244E+02 0.185E+02   0.000E+00 0.619E+01 -.326E+01
   0.166E-04 0.633E+02 0.318E+02   0.670E-11 -.619E+02 -.266E+02   0.000E+00 -.114E+01 -.446E+01
   0.386E-04 0.621E+02 0.414E+02   0.140E-10 -.603E+02 -.366E+02   0.000E+00 -.161E+01 -.401E+01
   0.223E+01 0.641E+02 0.363E+02   -.237E+01 -.619E+02 -.317E+02   0.125E+00 -.187E+01 -.396E+01
   0.124E+01 0.614E+02 0.413E+02   -.122E+01 -.593E+02 -.367E+02   -.187E-01 -.179E+01 -.392E+01
   -.223E+01 0.641E+02 0.363E+02   0.237E+01 -.619E+02 -.317E+02   -.125E+00 -.187E+01 -.396E+01
   -.124E+01 0.614E+02 0.413E+02   0.122E+01 -.593E+02 -.367E+02   0.187E-01 -.179E+01 -.392E+01
   -.119E+02 -.736E+02 -.292E+02   0.125E+02 0.715E+02 0.239E+02   -.520E+00 0.181E+01 0.444E+01
   -.283E+01 -.726E+02 -.334E+02   0.273E+01 0.707E+02 0.286E+02   0.753E-01 0.167E+01 0.408E+01
   0.119E+02 -.736E+02 -.292E+02   -.125E+02 0.715E+02 0.239E+02   0.520E+00 0.181E+01 0.444E+01
   0.283E+01 -.726E+02 -.334E+02   -.273E+01 0.707E+02 0.286E+02   -.753E-01 0.167E+01 0.408E+01
   -.120E-03 -.691E+02 -.393E+02   0.580E-11 0.669E+02 0.348E+02   0.000E+00 0.187E+01 0.382E+01
   -.338E-04 -.692E+02 -.350E+02   0.394E-11 0.674E+02 0.304E+02   0.000E+00 0.157E+01 0.395E+01
   -.852E+01 0.111E+03 0.584E+02   0.877E+01 -.124E+03 -.545E+02   -.190E+00 0.114E+02 -.330E+01
   -.506E+01 0.112E+03 0.639E+02   0.505E+01 -.124E+03 -.601E+02   -.103E-01 0.102E+02 -.319E+01
   0.852E+01 0.111E+03 0.584E+02   -.877E+01 -.124E+03 -.545E+02   0.190E+00 0.114E+02 -.330E+01
   0.506E+01 0.112E+03 0.639E+02   -.505E+01 -.124E+03 -.601E+02   0.103E-01 0.102E+02 -.319E+01
   -.830E-04 0.117E+03 0.649E+02   0.214E-11 -.130E+03 -.613E+02   0.000E+00 0.109E+02 -.298E+01
   -.120E-03 0.119E+03 0.631E+02   0.534E-11 -.132E+03 -.598E+02   0.000E+00 0.107E+02 -.287E+01
   0.571E-04 -.128E+03 -.612E+02   0.687E-11 0.140E+03 0.574E+02   0.000E+00 -.107E+02 0.321E+01
   0.173E-04 -.122E+03 -.607E+02   0.243E-10 0.134E+03 0.574E+02   0.000E+00 -.106E+02 0.286E+01
   0.950E+00 -.125E+03 -.646E+02   -.912E+00 0.138E+03 0.609E+02   -.331E-01 -.107E+02 0.310E+01
   0.155E+00 -.120E+03 -.612E+02   -.156E+00 0.132E+03 0.580E+02   0.210E-02 -.106E+02 0.278E+01
   -.950E+00 -.125E+03 -.646E+02   0.912E+00 0.138E+03 0.609E+02   0.331E-01 -.107E+02 0.310E+01
   -.155E+00 -.120E+03 -.612E+02   0.156E+00 0.132E+03 0.580E+02   -.210E-02 -.106E+02 0.278E+01
   -.164E+01 -.153E+02 0.143E+02   0.161E+01 0.225E+02 -.182E+02   0.195E-01 -.609E+01 0.323E+01
   -.218E+00 -.159E+02 0.153E+02   0.135E+00 0.231E+02 -.193E+02   0.687E-01 -.610E+01 0.332E+01
   0.164E+01 -.153E+02 0.143E+02   -.161E+01 0.225E+02 -.182E+02   -.195E-01 -.609E+01 0.323E+01
   0.218E+00 -.159E+02 0.153E+02   -.135E+00 0.231E+02 -.193E+02   -.687E-01 -.610E+01 0.332E+01
   -.282E-04 -.165E+02 0.130E+02   0.267E-10 0.241E+02 -.167E+02   0.000E+00 -.638E+01 0.312E+01
   -.132E-05 -.170E+02 0.154E+02   0.309E-10 0.243E+02 -.193E+02   0.000E+00 -.616E+01 0.333E+01
   0.743E-04 0.167E+02 -.136E+02   0.720E-11 -.241E+02 0.174E+02   0.000E+00 0.621E+01 -.319E+01
   0.121E+02 0.170E+02 -.112E+02   -.125E+02 -.243E+02 0.147E+02   0.280E+00 0.615E+01 -.296E+01
   0.367E+01 0.170E+02 -.149E+02   -.367E+01 -.243E+02 0.188E+02   0.219E-02 0.618E+01 -.329E+01
   -.121E+02 0.170E+02 -.112E+02   0.125E+02 -.243E+02 0.147E+02   -.280E+00 0.615E+01 -.296E+01
   -.367E+01 0.170E+02 -.149E+02   0.367E+01 -.243E+02 0.188E+02   -.219E-02 0.618E+01 -.329E+01
   -.529E+01 0.767E+02 0.458E+02   0.522E+01 -.752E+02 -.419E+02   0.729E-01 -.129E+01 -.333E+01
   -.550E+01 0.731E+02 0.328E+02   0.562E+01 -.712E+02 -.280E+02   -.105E+00 -.164E+01 -.410E+01
   0.529E+01 0.767E+02 0.458E+02   -.522E+01 -.752E+02 -.419E+02   -.729E-01 -.129E+01 -.333E+01
   0.550E+01 0.731E+02 0.328E+02   -.562E+01 -.712E+02 -.280E+02   0.105E+00 -.164E+01 -.410E+01
   -.444E-04 0.688E+02 0.392E+02   0.269E-10 -.669E+02 -.347E+02   0.000E+00 -.169E+01 -.383E+01
   -.375E-04 0.702E+02 0.351E+02   0.115E-10 -.684E+02 -.303E+02   0.000E+00 -.153E+01 -.408E+01
   -.174E-04 -.636E+02 -.364E+02   0.288E-10 0.622E+02 0.313E+02   0.000E+00 0.123E+01 0.435E+01
   0.165E-05 -.617E+02 -.387E+02   0.103E-10 0.599E+02 0.339E+02   0.000E+00 0.149E+01 0.404E+01
   0.223E+01 -.628E+02 -.380E+02   -.231E+01 0.608E+02 0.332E+02   0.600E-01 0.169E+01 0.411E+01
   0.106E+01 -.621E+02 -.393E+02   -.997E+00 0.601E+02 0.348E+02   -.538E-01 0.170E+01 0.387E+01
   -.223E+01 -.628E+02 -.380E+02   0.231E+01 0.608E+02 0.332E+02   -.600E-01 0.169E+01 0.411E+01
   -.106E+01 -.621E+02 -.393E+02   0.997E+00 0.601E+02 0.348E+02   0.538E-01 0.170E+01 0.387E+01
   -.505E-04 0.129E+03 0.602E+02   0.322E-10 -.142E+03 -.566E+02   0.000E+00 0.106E+02 -.309E+01
   0.162E-04 0.127E+03 0.627E+02   0.857E-11 -.139E+03 -.592E+02   0.000E+00 0.108E+02 -.294E+01
   0.138E+01 0.125E+03 0.623E+02   -.132E+01 -.138E+03 -.587E+02   -.537E-01 0.107E+02 -.301E+01
   0.197E+01 0.125E+03 0.628E+02   -.195E+01 -.138E+03 -.594E+02   -.107E-01 0.108E+02 -.292E+01
   -.138E+01 0.125E+03 0.623E+02   0.132E+01 -.138E+03 -.587E+02   0.537E-01 0.107E+02 -.301E+01
   -.197E+01 0.125E+03 0.628E+02   0.195E+01 -.138E+03 -.594E+02   0.107E-01 0.108E+02 -.292E+01
   -.501E+01 -.109E+03 -.643E+02   0.496E+01 0.121E+03 0.607E+02   0.273E-01 -.100E+02 0.298E+01
   -.633E+01 -.115E+03 -.743E+02   0.624E+01 0.127E+03 0.716E+02   0.105E+00 -.109E+02 0.229E+01
   0.501E+01 -.109E+03 -.643E+02   -.496E+01 0.121E+03 0.607E+02   -.273E-01 -.100E+02 0.298E+01
   0.633E+01 -.115E+03 -.743E+02   -.624E+01 0.127E+03 0.716E+02   -.105E+00 -.109E+02 0.229E+01
   -.847E-04 -.117E+03 -.637E+02   0.202E-10 0.129E+03 0.602E+02   0.000E+00 -.106E+02 0.299E+01
   -.245E-04 -.119E+03 -.653E+02   0.282E-10 0.132E+03 0.619E+02   0.000E+00 -.108E+02 0.283E+01
   0.112E-03 0.603E+01 -.105E+02   0.218E-10 -.112E+02 0.131E+02   0.000E+00 0.466E+01 -.244E+01
 -----------------------------------------------------------------------------------------------
   0.415E-04 -.174E+01 -.760E+00   0.329E-13 0.437E-12 0.568E-13   0.278E-16 0.202E+01 0.142E+00
 
 
 POSITION                                       TOTAL-FORCE (eV/Angst)
 -----------------------------------------------------------------------------------
      9.13693      7.65390     -1.76231        -0.009058      0.076227      0.015258
      9.14163      6.27745     -7.42287         0.001204      0.084992      0.003218
      3.05334      7.65390     -1.76231         0.009058      0.076227      0.015258
      3.04864      6.27745     -7.42287        -0.001204      0.084992      0.003218
      6.09513      7.65620     -1.76598         0.000000      0.062591      0.008362
      6.09513      6.27935     -7.42419         0.000000      0.083662      0.012508
      1.52378      9.35413     -3.88274         0.000000     -0.452097      0.052327
      1.52378      7.99490     -9.52873         0.000000     -0.028639     -0.027949
      4.57585      9.37496     -3.87469         0.009262     -0.126053      0.009022
      4.57251      7.99976     -9.53566        -0.010830     -0.066368     -0.014766
      7.61442      9.37496     -3.87469        -0.009262     -0.126053      0.009022
      7.61776      7.99976     -9.53566         0.010830     -0.066368     -0.014766
      1.52378      6.16299     -4.49631         0.000000     -0.027642      0.008245
      1.52378      4.77045    -10.14261         0.000000     -0.017128      0.011942
      4.57262      6.16554     -4.49544         0.000668     -0.026240      0.015090
      4.57260      4.76826    -10.13763        -0.001965     -0.014993      0.005867
      7.61765      6.16554     -4.49544        -0.000668     -0.026240      0.015090
      7.61767      4.76826    -10.13763         0.001965     -0.014993      0.005867
      9.13173     10.87036     -1.17231         0.039493      0.055541     -0.000707
      9.13420      9.48349     -6.79302         0.027774      0.024268     -0.037382
      3.05854     10.87036     -1.17231        -0.039493      0.055541     -0.000707
      3.05607      9.48349     -6.79302        -0.027774      0.024268     -0.037382
      6.09513     10.88324     -1.16373         0.000000      0.028076      0.000455
      6.09513      9.49392     -6.80162         0.000000      0.015539     -0.033032
      1.52378      1.53564     -1.79393         0.000000      0.048441      0.064911
      1.52378      0.15036     -7.40364         0.000000      0.049739     -0.037449
      4.57191      1.52596     -1.77780        -0.004867      0.073555      0.028022
      4.57181      0.13579     -7.41571         0.008874      0.070652     -0.014020
      7.61836      1.52596     -1.77780         0.004867      0.073555      0.028022
      7.61846      0.13579     -7.41571        -0.008874      0.070652     -0.014020
      9.13893      3.24618     -3.88764        -0.008034     -0.056797     -0.014212
      0.00024      1.84997     -9.52702        -0.000567     -0.076911     -0.008861
      3.05134      3.24618     -3.88764         0.008034     -0.056797     -0.014212
      3.04733      1.84997     -9.52702         0.000567     -0.076911     -0.008861
      6.09513      3.24622     -3.88226         0.000000     -0.062194     -0.012702
      6.09513      1.84688     -9.52972         0.000000     -0.078452     -0.003632
      9.14224      0.00778     -4.48471        -0.369514      0.235713     -0.041041
      9.14108     -1.36157    -10.14223         0.039711     -0.063933      0.012095
      3.04803      0.00778     -4.48471         0.369514      0.235713     -0.041041
      3.04919     -1.36157    -10.14223        -0.039711     -0.063933      0.012095
      6.09513      0.02304     -4.49517         0.000000     -0.007633      0.008311
      6.09513     -1.36260    -10.14672         0.000000     -0.035655      0.018261
      1.52378      4.73949     -1.15309         0.000000      0.023870     -0.010602
      1.52378      3.36167     -6.80873         0.000000      0.034990     -0.025323
      4.57208      4.73901     -1.15318         0.000135      0.020527     -0.013347
      4.57258      3.35682     -6.81202         0.001084      0.034268     -0.017225
      7.61819      4.73901     -1.15318        -0.000135      0.020527     -0.013347
      7.61769      3.35682     -6.81202        -0.001084      0.034268     -0.017225
      1.52378     11.85796     -1.55492         0.000000     -0.194221      0.169840
      1.52378     10.50998     -7.01075         0.000000     -0.196588      0.091759
      4.57225     11.88909     -1.44409         0.009859     -0.198210      0.108782
      4.57012     10.49838     -7.08520         0.006770     -0.183367      0.145871
      7.61802     11.88909     -1.44409        -0.009859     -0.198210      0.108782
      7.62015     10.49838     -7.08520        -0.006770     -0.183367      0.145871
      9.14219      5.16050     -4.21584        -0.000301      0.180615     -0.125382
      0.00069      3.76519     -9.86091        -0.003781      0.179341     -0.123370
      3.04808      5.16050     -4.21584         0.000301      0.180615     -0.125382
      3.04688      3.76519     -9.86091         0.003781      0.179341     -0.123370
      6.09513      5.15834     -4.21755         0.000000      0.181948     -0.119644
      6.09513      3.76262     -9.85598         0.000000      0.179403     -0.125895
      1.52378      7.48079     -3.16394         0.000000     -0.018350     -0.143387
      1.52378      6.10317     -8.82573         0.000000     -0.044413     -0.122610
      4.57883      7.47391     -3.16016         0.003948     -0.042565     -0.122316
      4.56813      6.10639     -8.82687         0.003391     -0.049041     -0.119568
      7.61144      7.47391     -3.16016        -0.003948     -0.042565     -0.122316
      7.62214      6.10639     -8.82687        -0.003391     -0.049041     -0.119568
      9.11487      9.52958     -2.46586         0.010688      0.056094      0.090894
      0.00279      8.17670     -8.13465        -0.004894      0.033642      0.139125
      3.07540      9.52958     -2.46586        -0.010688      0.056094      0.090894
      3.04477      8.17670     -8.13465         0.004894      0.033642      0.139125
      6.09513      9.55059     -2.47653         0.000000      0.052493      0.105988
      6.09513      8.17428     -8.13422         0.000000      0.038738      0.127372
      9.12384      8.93493     -5.03679         0.031634      0.507259     -0.058565
      0.00615      7.62600    -10.69712        -0.020568      0.400741     -0.083519
      3.06643      8.93493     -5.03679        -0.031634      0.507259     -0.058565
      3.04142      7.62600    -10.69712         0.020568      0.400741     -0.083519
      6.09513      8.97156     -5.03597         0.000000      0.454849     -0.073864
      6.09513      7.60964    -10.69290         0.000000      0.436323     -0.082095
      1.52378      8.04978     -0.60932         0.000000     -0.435859      0.083896
      1.52378      6.66791     -6.26866         0.000000     -0.434603      0.080368
      4.57473      8.04648     -0.60281        -0.001649     -0.435806      0.078322
      4.57222      6.66674     -6.26887         0.002285     -0.429298      0.076672
      7.61554      8.04648     -0.60281         0.001649     -0.435806      0.078322
      7.61805      6.66674     -6.26887        -0.002285     -0.429298      0.076672
      0.00019      5.74191     -1.43264        -0.003176     -0.184987      0.128988
      9.14150      4.36214     -7.09660         0.001283     -0.186746      0.130857
      3.04738      5.74191     -1.43264         0.003176     -0.184987      0.128988
      3.04877      4.36214     -7.09660        -0.001283     -0.186746      0.130857
      6.09513      5.74192     -1.42689         0.000000     -0.194467      0.119965
      6.09513      4.36249     -7.09992         0.000000     -0.187700      0.130421
      1.52378     -2.36730     -9.85859         0.000000      0.200514     -0.125843
      4.58501     -0.99087     -4.21676        -0.047081      0.176736     -0.116634
      4.57194     -2.36590     -9.86186         0.010177      0.190888     -0.128339
      7.60526     -0.99087     -4.21676         0.047081      0.176736     -0.116634
      7.61833     -2.36590     -9.86186        -0.010177      0.190888     -0.128339
      9.12834      1.36329     -3.17362         0.026925     -0.079447     -0.148441
      0.00575     -0.04606     -8.81070        -0.010693     -0.018623     -0.110286
      3.06193      1.36329     -3.17362        -0.026925     -0.079447     -0.148441
      3.04182     -0.04606     -8.81070         0.010693     -0.018623     -0.110286
      6.09513      1.35179     -3.17353         0.000000     -0.049935     -0.130487
      6.09513     -0.04416     -8.81662         0.000000     -0.026711     -0.120813
      1.52378      3.42405     -2.48414         0.000000      0.011284      0.125998
      1.52378      2.03338     -8.13041         0.000000      0.027716      0.137633
      4.57281      3.42238     -2.48109        -0.001858      0.030134      0.119935
      4.57055      2.02960     -8.13459        -0.003838      0.032172      0.133066
      7.61746      3.42238     -2.48109         0.001858      0.030134      0.119935
      7.61972      2.02960     -8.13459         0.003838      0.032172      0.133066
      1.52378      2.85907     -5.03954         0.000000      0.420196     -0.082789
      1.52378      1.45408    -10.68557         0.000000      0.437239     -0.075913
      4.57462      2.85722     -5.04193        -0.005693      0.428507     -0.080713
      4.56847      1.45023    -10.68611         0.004210      0.439269     -0.075813
      7.61565      2.85722     -5.04193         0.005693      0.428507     -0.080713
      7.62180      1.45023    -10.68611        -0.004210      0.439269     -0.075813
      0.00855      1.89222     -0.61688        -0.016447     -0.393626      0.060900
      9.13312      0.54424     -6.25968         0.040550     -0.469244      0.123325
      3.03902      1.89222     -0.61688         0.016447     -0.393626      0.060900
      3.05715      0.54424     -6.25968        -0.040550     -0.469244      0.123325
      6.09513      1.91398     -0.61566         0.000000     -0.426400      0.072379
      6.09513      0.53427     -6.26549         0.000000     -0.440001      0.088253
      1.52378     -1.01924     -4.16809         0.000000      0.113306     -0.106769
 -----------------------------------------------------------------------------------
    total drift:                                0.000042      0.064811     -0.054919


--------------------------------------------------------------------------------------------------------



  FREE ENERGIE OF THE ION-ELECTRON SYSTEM (eV)
  ---------------------------------------------------
  free  energy   TOTEN  =      -986.44269913 eV

  energy  without entropy=     -986.41928553  energy(sigma->0) =     -986.43099233
 


--------------------------------------------------------------------------------------------------------


    POTLOK:  cpu time      1.9946: real time      2.0041


--------------------------------------------------------------------------------------------------------


 writing wavefunctions
     LOOP+:  cpu time  17011.1615: real time  17011.1506
    4ORBIT:  cpu time      0.0000: real time      0.0000

 total amount of memory used by VASP MPI-rank0  7512533. kBytes
=======================================================================

   base      :      30000. kBytes
   nonlr-proj:      47158. kBytes
   fftplans  :      51012. kBytes
   grid      :     102973. kBytes
   one-center:       1866. kBytes
   HF        :        194. kBytes
   wavefun   :    7050060. kBytes
   fock_wrk  :     229270. kBytes
 
  
  
 General timing and accounting informations for this job:
 ========================================================
  
                  Total CPU time used (sec):    17042.607
                            User time (sec):    17028.486
                          System time (sec):       14.120
                         Elapsed time (sec):    17044.795
  
                   Maximum memory used (kb):    13303360.
                   Average memory used (kb):          N/A
  
                          Minor page faults:      8601431
                          Major page faults:            6
                 Voluntary context switches:       329253
