 vasp.6.4.2 20Jul23 (build Nov 12 2023 22:16:35) complex                         
 executed on              LinuxNV date 2025.03.11  11:17:19
 running    4 mpi-ranks, on    1 nodes
 distrk:  each k-point on    1 cores,    4 groups
 distr:  one band on NCORE=   1 cores,    1 groups
 OpenACC runtime initialized ...    4 GPUs detected


--------------------------------------------------------------------------------------------------------


 INCAR:
   PREC = Normal
   ENCUT = 450
   NELM = 500
   IBRION = -1
   ISPIN = 1
   NSW = 0
   ISIF = 2
   EDIFF = 1E-5
   EDIFFG = -5E-3
   ISTART = 0
   ICHARG = 0
   ISMEAR = 0
   SIGMA = 0.05
   LWAVE = .T.
   LCHARG = .T.
   LREAL = Auto
   LPLANE = .TRUE.
   NPAR = 1
   KPAR = 4
   NCORE = 1
   ALGO = All
   LHFCALC = .TRUE.
   HSE06 = .TRUE.
   HFSCREEN = 0.18
   TIME = 0.4
   AEXX = 0.35
   LMAXFOCK = 4
   PRECFOCK = Fast

 POTCAR:    PAW_PBE Ga_d 06Jul2010                
 POTCAR:     PAW_PBE O 08Apr2002                  
 POTCAR:    PAW_PBE P 06Sep2000                   
 POTCAR:    PAW_PBE Ga_d 06Jul2010                
   SHA256 =  a60ddf36e14f00ea098d9e3914b3745f1b7105e68786148f49ae384e44b4226c Ga_d/POTCAR           
   COPYR  = (c) Copyright 06Jul2010 Georg Kresse                                                    
   COPYR  = This file is part of the software VASP. Any use, copying, and all other rights are regul
   COPYR  = If you do not have a valid VASP license, you may not use, copy or distribute this file. 
   VRHFIN =Ga: s2p1                                                                                 
   LEXCH  = PE                                                                                      
   EATOM  =  2148.8298 eV,  157.9345 Ry                                                             
                                                                                                    
   TITEL  = PAW_PBE Ga_d 06Jul2010                                                                  
   LULTRA =        F    use ultrasoft PP ?                                                          
   IUNSCR =        1    unscreen: 0-lin 1-nonlin 2-no                                               
   RPACOR =    1.700    partial core radius                                                         
   POMASS =   69.723; ZVAL   =   13.000    mass and valenz                                          
   RCORE  =    2.300    outmost cutoff radius                                                       
   RWIGS  =    2.300; RWIGS  =    1.217    wigner-seitz radius (au A)                               
   ENMAX  =  282.691; ENMIN  =  212.018 eV                                                          
   ICORE  =        3    local potential                                                             
   LCOR   =        T    correct aug charges                                                         
   LPAW   =        T    paw PP                                                                      
   EAUG   =  490.690                                                                                
   DEXC   =    0.000                                                                                
   RMAX   =    2.341    core radius for proj-oper                                                   
   RAUG   =    1.300    factor for augmentation sphere                                              
   RDEP   =    2.413    radius for radial grids                                                     
   RDEPT  =    1.856    core radius for aug-charge                                                  
                                                                                                    
   Atomic configuration                                                                             
    9 entries                                                                                       
     n  l   j            E        occ.                                                              
     1  0  0.50    -10228.7831   2.0000                                                             
     2  0  0.50     -1262.1604   2.0000                                                             
     2  1  1.50     -1098.6333   6.0000                                                             
     3  0  0.50      -148.1110   2.0000                                                             
     3  1  1.50       -98.8436   6.0000                                                             
     3  2  2.50       -19.1549  10.0000                                                             
     4  0  0.50        -8.9483   2.0000                                                             
     4  1  0.50        -2.5791   1.0000                                                             
     4  3  2.50        -2.7416   0.0000                                                             
   Description                                                                                      
     l       E           TYP  RCUT    TYP  RCUT                                                     
     2    -19.1549037     23  2.300                                                                 
     2     -5.4423304     23  2.300                                                                 
     0     -8.9483111     23  2.300                                                                 
     0     68.0291300     23  2.300                                                                 
     1     -2.5790802     23  2.100                                                                 
     1     81.6349560     23  2.300                                                                 
     3      6.8029130     23  2.300                                                                 
  local pseudopotential read in
  partial core-charges read in
  partial kinetic energy density read in
  atomic valenz-charges read in
  non local Contribution for L=            2  read in
    real space projection operators read in
  non local Contribution for L=            2  read in
    real space projection operators read in
  non local Contribution for L=            0  read in
    real space projection operators read in
  non local Contribution for L=            0  read in
    real space projection operators read in
  non local Contribution for L=            1  read in
    real space projection operators read in
  non local Contribution for L=            1  read in
    real space projection operators read in
    PAW grid and wavefunctions read in
 
   number of l-projection  operators is LMAX  =            6
   number of lm-projection operators is LMMAX =           18
 
 POTCAR:     PAW_PBE O 08Apr2002                  
   SHA256 =  818f92134a0a090dccd8ba1447fa70422a3b330e708bb4f08108d8ae51209ddf O/POTCAR              
   COPYR  = (c) Copyright 08Apr2002 Georg Kresse                                                    
   COPYR  = This file is part of the software VASP. Any use, copying, and all other rights are regul
   COPYR  = If you do not have a valid VASP license, you may not use, copy or distribute this file. 
   VRHFIN =O: s2p4                                                                                  
   LEXCH  = PE                                                                                      
   EATOM  =   432.3788 eV,   31.7789 Ry                                                             
                                                                                                    
   TITEL  = PAW_PBE O 08Apr2002                                                                     
   LULTRA =        F    use ultrasoft PP ?                                                          
   IUNSCR =        1    unscreen: 0-lin 1-nonlin 2-no                                               
   RPACOR =    1.200    partial core radius                                                         
   POMASS =   16.000; ZVAL   =    6.000    mass and valenz                                          
   RCORE  =    1.520    outmost cutoff radius                                                       
   RWIGS  =    1.550; RWIGS  =    0.820    wigner-seitz radius (au A)                               
   ENMAX  =  400.000; ENMIN  =  300.000 eV                                                          
   ICORE  =        2    local potential                                                             
   LCOR   =        T    correct aug charges                                                         
   LPAW   =        T    paw PP                                                                      
   EAUG   =  605.392                                                                                
   DEXC   =    0.000                                                                                
   RMAX   =    1.553    core radius for proj-oper                                                   
   RAUG   =    1.300    factor for augmentation sphere                                              
   RDEP   =    1.550    radius for radial grids                                                     
   RDEPT  =    1.329    core radius for aug-charge                                                  
                                                                                                    
   Atomic configuration                                                                             
    4 entries                                                                                       
     n  l   j            E        occ.                                                              
     1  0  0.50      -514.6923   2.0000                                                             
     2  0  0.50       -23.9615   2.0000                                                             
     2  1  0.50        -9.0305   4.0000                                                             
     3  2  1.50        -9.5241   0.0000                                                             
   Description                                                                                      
     l       E           TYP  RCUT    TYP  RCUT                                                     
     0    -23.9615318     23  1.200                                                                 
     0     -9.5240782     23  1.200                                                                 
     1     -9.0304911     23  1.520                                                                 
     1      8.1634956     23  1.520                                                                 
     2     -9.5240782      7  1.500                                                                 
  local pseudopotential read in
  partial core-charges read in
  partial kinetic energy density read in
  kinetic energy density of atom read in
  atomic valenz-charges read in
  non local Contribution for L=            0  read in
    real space projection operators read in
  non local Contribution for L=            0  read in
    real space projection operators read in
  non local Contribution for L=            1  read in
    real space projection operators read in
  non local Contribution for L=            1  read in
    real space projection operators read in
    PAW grid and wavefunctions read in
 
   number of l-projection  operators is LMAX  =            4
   number of lm-projection operators is LMMAX =            8
 
 POTCAR:    PAW_PBE P 06Sep2000                   
   SHA256 =  df60c54a93efe35c9e85ae94c010c75e9f6960a95d5595d7cdba4096d109af88 P/POTCAR              
   COPYR  = (c) Copyright 06Sep2000 Georg Kresse                                                    
   COPYR  = This file is part of the software VASP. Any use, copying, and all other rights are regul
   COPYR  = If you do not have a valid VASP license, you may not use, copy or distribute this file. 
   VRHFIN =P : s2p3                                                                                 
   LEXCH  = PE                                                                                      
   EATOM  =   176.0430 eV,   12.9388 Ry                                                             
                                                                                                    
   TITEL  = PAW_PBE P 06Sep2000                                                                     
   LULTRA =        F    use ultrasoft PP ?                                                          
   IUNSCR =        1    unscreen: 0-lin 1-nonlin 2-no                                               
   RPACOR =    1.500    partial core radius                                                         
   POMASS =   30.974; ZVAL   =    5.000    mass and valenz                                          
   RCORE  =    1.900    outmost cutoff radius                                                       
   RWIGS  =    2.330; RWIGS  =    1.233    wigner-seitz radius (au A)                               
   ENMAX  =  255.040; ENMIN  =  191.280 eV                                                          
   ICORE  =        2    local potential                                                             
   LCOR   =        T    correct aug charges                                                         
   LPAW   =        T    paw PP                                                                      
   EAUG   =  342.924                                                                                
   DEXC   =    0.000                                                                                
   RMAX   =    1.935    core radius for proj-oper                                                   
   RAUG   =    1.300    factor for augmentation sphere                                              
   RDEP   =    1.931    radius for radial grids                                                     
   RDEPT  =    1.794    core radius for aug-charge                                                  
                                                                                                    
   Atomic configuration                                                                             
    6 entries                                                                                       
     n  l   j            E        occ.                                                              
     1  0  0.50     -2084.0982   2.0000                                                             
     2  0  0.50      -173.9859   2.0000                                                             
     2  1  1.50      -124.4865   6.0000                                                             
     3  0  0.50       -13.9692   2.0000                                                             
     3  1  0.50        -5.5067   3.0000                                                             
     3  2  1.50        -5.4423   0.0000                                                             
   Description                                                                                      
     l       E           TYP  RCUT    TYP  RCUT                                                     
     0    -13.9691527     23  1.900                                                                 
     0    -11.7794650     23  1.900                                                                 
     1     -5.5066937     23  1.900                                                                 
     1     -0.2556953     23  1.900                                                                 
     2     -5.4423304     23  1.900                                                                 
  local pseudopotential read in
  partial core-charges read in
  partial kinetic energy density read in
  atomic valenz-charges read in
  non local Contribution for L=            0  read in
    real space projection operators read in
  non local Contribution for L=            0  read in
    real space projection operators read in
  non local Contribution for L=            1  read in
    real space projection operators read in
  non local Contribution for L=            1  read in
    real space projection operators read in
    PAW grid and wavefunctions read in
 
   number of l-projection  operators is LMAX  =            4
   number of lm-projection operators is LMMAX =            8
 
 Optimization of the real space projectors (new method)

 maximal supplied QI-value         = 16.25
 optimisation between [QCUT,QGAM] = [ 10.73, 21.61] = [ 32.22,130.83] Ry 
 Optimized for a Real-space Cutoff    1.42 Angstroem

   l    n(q)    QCUT    max X(q) W(low)/X(q) W(high)/X(q)  e(spline) 
   2      8    10.726     7.143    0.22E-03    0.16E-03    0.73E-07
   2      8    10.726     5.586    0.40E-03    0.26E-03    0.10E-06
   0      9    10.726    12.382    0.25E-04    0.21E-05    0.37E-07
   0      9    10.726     6.622    0.42E-04    0.48E-05    0.77E-07
   1      9    10.726     7.935    0.27E-03    0.13E-04    0.16E-06
   1      9    10.726     2.425    0.23E-03    0.15E-04    0.14E-06
 Optimization of the real space projectors (new method)

 maximal supplied QI-value         = 24.76
 optimisation between [QCUT,QGAM] = [ 10.64, 21.54] = [ 31.73,129.89] Ry 
 Optimized for a Real-space Cutoff    1.23 Angstroem

   l    n(q)    QCUT    max X(q) W(low)/X(q) W(high)/X(q)  e(spline) 
   0      8    10.645    20.381    0.38E-03    0.60E-03    0.15E-06
   0      8    10.645    15.268    0.40E-03    0.65E-03    0.17E-06
   1      7    10.645     5.964    0.30E-03    0.63E-03    0.18E-06
   1      7    10.645     5.382    0.24E-03    0.53E-03    0.16E-06
 Optimization of the real space projectors (new method)

 maximal supplied QI-value         = 19.84
 optimisation between [QCUT,QGAM] = [ 10.71, 21.63] = [ 32.15,130.99] Ry 
 Optimized for a Real-space Cutoff    1.19 Angstroem

   l    n(q)    QCUT    max X(q) W(low)/X(q) W(high)/X(q)  e(spline) 
   0      8    10.715   160.924    0.37E-03    0.37E-04    0.63E-07
   0      8    10.715   130.086    0.37E-03    0.36E-04    0.63E-07
   1      7    10.715    74.434    0.19E-03    0.56E-03    0.65E-07
   1      7    10.715    49.120    0.19E-03    0.55E-03    0.63E-07
  PAW_PBE Ga_d 06Jul2010                :
 energy of atom  1       EATOM=-2148.8298
 kinetic energy error for atom=    0.0038 (will be added to EATOM!!)
   PAW_PBE O 08Apr2002                  :
 energy of atom  2       EATOM= -432.3788
 kinetic energy error for atom=    0.0389 (will be added to EATOM!!)
  PAW_PBE P 06Sep2000                   :
 energy of atom  3       EATOM= -176.0430
 kinetic energy error for atom=    0.0019 (will be added to EATOM!!)
 
 
 POSCAR: Ga48 O72
  positions in direct lattice
  velocities in cartesian coordinates
 exchange correlation table for  LEXCH =        8
   RHO(1)=    0.500       N(1)  =     2000
   RHO(2)=  100.500       N(2)  =     4000
 


--------------------------------------------------------------------------------------------------------


 ion  position               nearest neighbor table
   1  0.658  0.997  0.153-  85 1.93  83 1.94  79 1.96  67 1.96  65 2.08  61 2.13
   2  0.659  1.000  0.657-  84 1.94  86 1.95  80 1.96  68 2.03  66 2.07  62 2.08
   3  0.658  0.337  0.153-  87 1.93  81 1.94  79 1.96  69 1.96  63 2.08  61 2.13
   4  0.659  0.334  0.657-  82 1.94  88 1.95  80 1.96  70 2.03  64 2.07  62 2.08
   5  0.659  0.667  0.156-  89 1.94  81 1.95  83 1.95  71 2.03  63 2.06  65 2.06
   6  0.658  0.667  0.657-  82 1.94  84 1.94  90 1.95  72 2.04  64 2.07  66 2.07
   7  0.817  0.167  0.361-  61 1.88  73 1.92  75 1.92 120 2.19  67 2.38  69 2.38
   8  0.841  0.167  0.844-  91 1.95  74 1.95  76 1.95  62 2.02  68 2.07  70 2.07
   9  0.841  0.501  0.341-  92 1.95  77 1.96  75 1.98  69 2.01  63 2.05  71 2.06
  10  0.841  0.500  0.844-  93 1.94  78 1.95  76 1.96  64 2.02  72 2.08  70 2.08
  11  0.841  0.832  0.341-  94 1.95  77 1.96  73 1.98  67 2.01  65 2.05  71 2.06
  12  0.841  0.833  0.844-  95 1.94  78 1.95  74 1.96  66 2.02  72 2.08  68 2.08
  13  0.584  0.167  0.400-  55 1.83  57 1.83  80 1.84  61 1.89
  14  0.591  0.167  0.898-  79 1.84  56 1.84  58 1.84  62 1.87
  15  0.594  0.502  0.398-  82 1.84  59 1.85  57 1.85  63 1.86
  16  0.590  0.500  0.896-  81 1.83  60 1.84  58 1.84  64 1.87
  17  0.594  0.832  0.398-  84 1.84  59 1.85  55 1.85  65 1.86
  18  0.590  0.833  0.896-  83 1.83  60 1.84  56 1.84  66 1.87
  19  0.907  0.997  0.104-  74 1.84  53 1.85  67 1.85  49 1.89
  20  0.909  0.998  0.603-  54 1.84  73 1.85  50 1.86  68 1.87
  21  0.907  0.337  0.104-  76 1.84  51 1.85  69 1.85  49 1.89
  22  0.909  0.336  0.603-  52 1.84  75 1.85  50 1.86  70 1.87
  23  0.911  0.667  0.104-  78 1.85  51 1.85  53 1.85  71 1.87
  24  0.908  0.667  0.601-  77 1.84  52 1.85  54 1.85  72 1.88
  25  0.163  0.167  0.157- 114 1.94 116 1.94  49 2.00 102 2.01  96 2.09  98 2.09
  26  0.161  0.167  0.656- 115 1.96 117 1.96  50 1.97 103 2.02  97 2.07  99 2.07
  27  0.161  0.501  0.156- 118 1.95  51 1.95 116 1.96 104 2.03  98 2.03 100 2.08
  28  0.161  0.501  0.660- 117 1.94  52 1.95 119 1.95 105 2.02 101 2.06  99 2.07
  29  0.161  0.833  0.156- 118 1.95  53 1.95 114 1.96 106 2.03  96 2.03 100 2.08
  30  0.161  0.832  0.660- 115 1.94  54 1.95 119 1.95 107 2.02 101 2.06  97 2.07
  31  0.343  0.998  0.343-  55 1.92 112 1.96 108 1.96  96 1.97 106 2.08 102 2.09
  32  0.341  0.000  0.843-  56 1.94 109 1.95 113 1.95  97 2.04 107 2.06 103 2.07
  33  0.343  0.335  0.343-  57 1.92 110 1.96 108 1.96  98 1.97 104 2.08 102 2.09
  34  0.341  0.333  0.843-  58 1.94 109 1.95 111 1.95  99 2.04 105 2.06 103 2.07
  35  0.343  0.667  0.343-  59 1.93 110 1.96 112 1.96 100 2.02 104 2.06 106 2.06
  36  0.341  0.667  0.845-  60 1.93 111 1.95 113 1.95 101 2.03 105 2.06 107 2.06
  37  0.103  0.985  0.402- 115 1.84  94 1.86  96 1.89 120 2.17  41 2.91
  38  0.091  0.000  0.898- 114 1.84  95 1.84  91 1.85  97 1.87
  39  0.103  0.348  0.402- 117 1.84  92 1.86  98 1.89 120 2.17  41 2.91
  40  0.091  0.333  0.898- 116 1.84  93 1.84  91 1.85  99 1.87
  41  0.095  0.667  0.400-  92 1.82  94 1.82 119 1.85 100 1.88  39 2.91  37 2.91
  42  0.090  0.667  0.898- 118 1.84  93 1.84  95 1.84 101 1.87
  43  0.410  0.167  0.101- 109 1.84  85 1.84  87 1.84 102 1.87
  44  0.409  0.167  0.602- 108 1.84  86 1.85  88 1.85 103 1.87
  45  0.410  0.501  0.102-  89 1.84 111 1.84  87 1.84 104 1.86
  46  0.408  0.500  0.603- 110 1.84  90 1.85  88 1.85 105 1.88
  47  0.410  0.833  0.102-  89 1.84 113 1.84  85 1.84 106 1.86
  48  0.408  0.833  0.603- 112 1.84  90 1.85  86 1.85 107 1.88
  49  0.996  0.167  0.131-  19 1.89  21 1.89  25 2.00
  50  0.996  0.167  0.615-  20 1.86  22 1.86  26 1.97
  51  0.998  0.500  0.128-  23 1.85  21 1.85  27 1.95
  52  0.997  0.501  0.627-  22 1.84  24 1.85  28 1.95
  53  0.998  0.834  0.128-  23 1.85  19 1.85  29 1.95
  54  0.997  0.833  0.627-  20 1.84  24 1.85  30 1.95
  55  0.504  0.997  0.373-  13 1.83  17 1.85  31 1.92
  56  0.504  0.001  0.873-  18 1.84  14 1.84  32 1.94
  57  0.504  0.337  0.373-  13 1.83  15 1.85  33 1.92
  58  0.504  0.333  0.873-  16 1.84  14 1.84  34 1.94
  59  0.504  0.667  0.374-  15 1.85  17 1.85  35 1.93
  60  0.503  0.667  0.871-  16 1.84  18 1.84  36 1.93
  61  0.665  0.167  0.281-   7 1.88  13 1.89   1 2.13   3 2.13
  62  0.673  0.167  0.781-  14 1.87   8 2.02   2 2.08   4 2.08
  63  0.670  0.502  0.279-  15 1.86   9 2.05   5 2.06   3 2.08
  64  0.673  0.500  0.781-  16 1.87  10 2.02   4 2.07   6 2.07
  65  0.670  0.831  0.279-  17 1.86  11 2.05   5 2.06   1 2.08
  66  0.673  0.833  0.781-  18 1.87  12 2.02   2 2.07   6 2.07
  67  0.821  0.987  0.215-  19 1.85   1 1.96  11 2.01   7 2.38
  68  0.828  0.001  0.720-  20 1.87   2 2.03   8 2.07  12 2.08
  69  0.821  0.346  0.215-  21 1.85   3 1.96   9 2.01   7 2.38
  70  0.828  0.333  0.720-  22 1.87   4 2.03   8 2.07  10 2.08
  71  0.828  0.667  0.219-  23 1.87   5 2.03   9 2.06  11 2.06
  72  0.828  0.667  0.719-  24 1.88   6 2.04  10 2.08  12 2.08
  73  0.819  0.989  0.451-  20 1.85   7 1.92  11 1.98
  74  0.834  0.000  0.946-  19 1.84   8 1.95  12 1.96
  75  0.819  0.344  0.451-  22 1.85   7 1.92   9 1.98
  76  0.834  0.333  0.946-  21 1.84   8 1.95  10 1.96
  77  0.830  0.667  0.445-  24 1.84   9 1.96  11 1.96
  78  0.835  0.667  0.947-  23 1.85  10 1.95  12 1.95
  79  0.668  0.167  0.055-  14 1.84   1 1.96   3 1.96
  80  0.666  0.167  0.554-  13 1.84   2 1.96   4 1.96
  81  0.666  0.502  0.051-  16 1.83   3 1.94   5 1.95
  82  0.666  0.501  0.556-  15 1.84   6 1.94   4 1.94
  83  0.666  0.831  0.051-  18 1.83   1 1.94   5 1.95
  84  0.666  0.833  0.556-  17 1.84   6 1.94   2 1.94
  85  0.497  1.000  0.126-  43 1.84  47 1.84   1 1.93
  86  0.496  1.000  0.628-  44 1.85  48 1.85   2 1.95
  87  0.497  0.333  0.126-  43 1.84  45 1.84   3 1.93
  88  0.496  0.334  0.628-  44 1.85  46 1.85   4 1.95
  89  0.497  0.667  0.125-  45 1.84  47 1.84   5 1.94
  90  0.496  0.667  0.628-  46 1.85  48 1.85   6 1.95
  91  0.003  0.167  0.870-  38 1.85  40 1.85   8 1.95
  92  0.005  0.506  0.377-  41 1.82  39 1.86   9 1.95
  93  0.004  0.500  0.872-  42 1.84  40 1.84  10 1.94
  94  0.005  0.828  0.377-  41 1.82  37 1.86  11 1.95
  95  0.004  0.834  0.872-  42 1.84  38 1.84  12 1.94
  96  0.179  0.995  0.279-  37 1.89  31 1.97  29 2.03  25 2.09
  97  0.172  0.001  0.780-  38 1.87  32 2.04  30 2.07  26 2.07
  98  0.179  0.339  0.279-  39 1.89  33 1.97  27 2.03  25 2.09
  99  0.172  0.332  0.780-  40 1.87  34 2.04  28 2.07  26 2.07
 100  0.174  0.667  0.281-  41 1.88  35 2.02  27 2.08  29 2.08
 101  0.173  0.667  0.782-  42 1.87  36 2.03  28 2.06  30 2.06
 102  0.330  0.167  0.219-  43 1.87  25 2.01  31 2.09  33 2.09
 103  0.328  0.167  0.721-  44 1.87  26 2.02  32 2.07  34 2.07
 104  0.330  0.502  0.219-  45 1.86  27 2.03  35 2.06  33 2.08
 105  0.329  0.501  0.722-  46 1.88  28 2.02  34 2.06  36 2.06
 106  0.330  0.831  0.219-  47 1.86  29 2.03  35 2.06  31 2.08
 107  0.329  0.833  0.722-  48 1.88  30 2.02  32 2.06  36 2.06
 108  0.335  0.167  0.445-  44 1.84  31 1.96  33 1.96
 109  0.331  0.167  0.945-  43 1.84  32 1.95  34 1.95
 110  0.331  0.500  0.446-  46 1.84  33 1.96  35 1.96
 111  0.331  0.499  0.946-  45 1.84  34 1.95  36 1.95
 112  0.331  0.833  0.446-  48 1.84  31 1.96  35 1.96
 113  0.331  0.834  0.946-  47 1.84  32 1.95  36 1.95
 114  0.168  0.001  0.054-  38 1.84  25 1.94  29 1.96
 115  0.177  0.996  0.559-  37 1.84  30 1.94  26 1.96
 116  0.168  0.332  0.054-  40 1.84  25 1.94  27 1.96
 117  0.177  0.337  0.559-  39 1.84  28 1.94  26 1.96
 118  0.168  0.667  0.054-  42 1.84  27 1.95  29 1.95
 119  0.172  0.667  0.557-  41 1.85  28 1.95  30 1.95
 120  0.990  0.167  0.342-  37 2.17  39 2.17   7 2.19
 
  LATTYP: Found a simple monoclinic cell.
 ALAT       =    11.6348202465
 B/A-ratio  =     0.7858051831
 C/A-ratio  =     1.0554931797
 COS(beta)  =    -0.2379290539
  
  Lattice vectors:
  
 A1 = (   0.0000000000,  -2.7682617730, -11.3006977184)
 A2 = (  -9.1427020537,   0.0000000000,   0.0000000000)
 A3 = (   0.0000000000,  12.2804734172,   0.0000000000)


Analysis of symmetry for initial positions (statically):
=====================================================================
 Subroutine PRICEL returns:
 Original cell was already a primitive cell.
 

 Routine SETGRP: Setting up the symmetry group for a 
 simple monoclinic supercell.


 Subroutine GETGRP returns: Found  2 space group operations
 (whereof  1 operations were pure point group operations)
 out of a pool of  4 trial point group operations.


The static configuration has the point symmetry C_1 .
 The point group associated with its full space group is C_1h.


Analysis of symmetry for dynamics (positions and initial velocities):
=====================================================================
 Subroutine PRICEL returns:
 Original cell was already a primitive cell.
 

 Routine SETGRP: Setting up the symmetry group for a 
 simple monoclinic supercell.


 Subroutine GETGRP returns: Found  2 space group operations
 (whereof  1 operations were pure point group operations)
 out of a pool of  4 trial point group operations.


The dynamic configuration has the point symmetry C_1 .
 The point group associated with its full space group is C_1h.


 Subroutine INISYM returns: Found  2 space group operations
 (whereof  1 operations are pure point group operations),
 and found     1 'primitive' translations


----------------------------------------------------------------------------------------

                                     Primitive cell                                     

  volume of cell :    1268.8052

  direct lattice vectors                    reciprocal lattice vectors
     0.000000000 12.280473417  0.000000000     0.000000000  0.081430085 -0.019947423
     9.142702054  0.000000000  0.000000000     0.109376855 -0.000000000  0.000000000
     0.000000000 -2.768261773-11.300697718     0.000000000  0.000000000 -0.088490111

  length of vectors
    12.280473417  9.142702054 11.634820246     0.083837691  0.109376855  0.088490111

  position of ions in fractional coordinates (direct lattice)
     0.657806462  0.996542277  0.153463907
     0.658646179  0.999589861  0.657045707
     0.657806462  0.336791056  0.153463907
     0.658646179  0.333743472  0.657045707
     0.658926563  0.666666667  0.155604377
     0.658356400  0.666666667  0.657359268
     0.817017404  0.166666667  0.361289873
     0.840943863  0.166666667  0.843799361
     0.841197618  0.501192371  0.341040580
     0.841309927  0.500305122  0.843740806
     0.841197618  0.832140962  0.341040580
     0.841309927  0.833028212  0.843740806
     0.583665104  0.166666667  0.399576537
     0.591335287  0.166666667  0.897926216
     0.593681830  0.501617421  0.398326673
     0.589561493  0.500456481  0.895748745
     0.593681830  0.831715912  0.398326673
     0.589561493  0.832876852  0.895748745
     0.906658246  0.996688939  0.103796878
     0.908854670  0.997712440  0.603119189
     0.906658246  0.336644395  0.103796878
     0.908854670  0.335620893  0.603119189
     0.911179821  0.666666667  0.103587276
     0.908276460  0.666666667  0.600576480
     0.163110238  0.166666667  0.157201738
     0.160739889  0.166666667  0.655890883
     0.161193796  0.500546410  0.156352054
     0.160545206  0.501294918  0.659762847
     0.161193796  0.832786923  0.156352054
     0.160545206  0.832038415  0.659762847
     0.343329368  0.998233124  0.342527912
     0.341150551  0.000029351  0.843330186
     0.343329368  0.335100210  0.342527912
     0.341150551  0.333303983  0.843330186
     0.342666448  0.666666667  0.343033993
     0.341331147  0.666666667  0.844589669
     0.103309203  0.985068629  0.402059207
     0.091107597  0.000237276  0.897626437
     0.103309203  0.348264705  0.402059207
     0.091107597  0.333096057  0.897626437
     0.094926251  0.666666667  0.400118694
     0.090193575  0.666666667  0.897997187
     0.409937746  0.166666667  0.100814467
     0.408528161  0.166666667  0.602362626
     0.409901140  0.500570296  0.101639377
     0.408032420  0.500175808  0.602615974
     0.409901140  0.832763037  0.101639377
     0.408032420  0.833157526  0.602615974
     0.995996369  0.166666667  0.131089260
     0.995537285  0.166666667  0.615174151
     0.998324324  0.499628429  0.128432009
     0.997383478  0.500558319  0.627020127
     0.998324324  0.833704904  0.128432009
     0.997383478  0.832775015  0.627020127
     0.503644094  0.996544379  0.372830255
     0.503566536  0.000545999  0.872813853
     0.503644094  0.336788955  0.372830255
     0.503566536  0.332787334  0.872813853
     0.504470743  0.666666667  0.374339898
     0.502501092  0.666666667  0.870987613
     0.665188743  0.166666667  0.280531276
     0.672740316  0.166666667  0.780738713
     0.670422945  0.502485037  0.278652517
     0.673243917  0.499966498  0.780988482
     0.670422945  0.830848297  0.278652517
     0.673243917  0.833366835  0.780988482
     0.820690543  0.986982976  0.214773942
     0.827875778  0.000796266  0.720171847
     0.820690543  0.346350357  0.214773942
     0.827875778  0.332537068  0.720171847
     0.827741761  0.666666667  0.218627437
     0.828016903  0.666666667  0.719366357
     0.819435696  0.989310073  0.450808537
     0.833724771  0.000305458  0.946253917
     0.819435696  0.344023260  0.450808537
     0.833724771  0.333027876  0.946253917
     0.829836925  0.666666667  0.444717196
     0.834516280  0.666666667  0.946580949
     0.667915505  0.166666667  0.054720368
     0.666144890  0.166666667  0.554055669
     0.665951479  0.502299550  0.051212926
     0.666335740  0.500712755  0.555837213
     0.665951479  0.831033783  0.051212926
     0.666335740  0.832620578  0.555837213
     0.496529267  0.999854009  0.126059216
     0.495924152  0.999808051  0.627633939
     0.496529267  0.333479325  0.126059216
     0.495924152  0.333525282  0.627633939
     0.496632841  0.666666667  0.125079748
     0.495615970  0.666666667  0.628005560
     0.003478702  0.166666667  0.870386455
     0.004984470  0.505749694  0.377132691
     0.003825364  0.499583584  0.872449494
     0.004984470  0.827583639  0.377132691
     0.003825364  0.833749749  0.872449494
     0.179328490  0.994741297  0.278875824
     0.171739877  0.001082601  0.780021231
     0.179328490  0.338592036  0.278875824
     0.171739877  0.332250732  0.780021231
     0.174258900  0.666666667  0.280851122
     0.172615135  0.666666667  0.781855654
     0.330284569  0.166666667  0.218952797
     0.328312869  0.166666667  0.720510397
     0.329894133  0.502401496  0.218849025
     0.328864820  0.500530323  0.721961372
     0.329894133  0.830931838  0.218849025
     0.328864820  0.832803010  0.721961372
     0.335007563  0.166666667  0.444621964
     0.331377601  0.166666667  0.945269373
     0.331345719  0.500493922  0.445867485
     0.331120754  0.499347355  0.945895801
     0.331345719  0.832839412  0.445867485
     0.331120754  0.833985978  0.945895801
     0.167728041  0.000947504  0.053804127
     0.176874054  0.996157874  0.558842109
     0.167728041  0.332385829  0.053804127
     0.176874054  0.337175459  0.558842109
     0.168224947  0.666666667  0.053821283
     0.172076806  0.666666667  0.556988590
     0.990284632  0.166666667  0.342230691

  ion indices of the primitive-cell ions
   primitive index   ion index
                 1           1
                 2           2
                 3           3
                 4           4
                 5           5
                 6           6
                 7           7
                 8           8
                 9           9
                10          10
                11          11
                12          12
                13          13
                14          14
                15          15
                16          16
                17          17
                18          18
                19          19
                20          20
                21          21
                22          22
                23          23
                24          24
                25          25
                26          26
                27          27
                28          28
                29          29
                30          30
                31          31
                32          32
                33          33
                34          34
                35          35
                36          36
                37          37
                38          38
                39          39
                40          40
                41          41
                42          42
                43          43
                44          44
                45          45
                46          46
                47          47
                48          48
                49          49
                50          50
                51          51
                52          52
                53          53
                54          54
                55          55
                56          56
                57          57
                58          58
                59          59
                60          60
                61          61
                62          62
                63          63
                64          64
                65          65
                66          66
                67          67
                68          68
                69          69
                70          70
                71          71
                72          72
                73          73
                74          74
                75          75
                76          76
                77          77
                78          78
                79          79
                80          80
                81          81
                82          82
                83          83
                84          84
                85          85
                86          86
                87          87
                88          88
                89          89
                90          90
                91          91
                92          92
                93          93
                94          94
                95          95
                96          96
                97          97
                98          98
                99          99
               100         100
               101         101
               102         102
               103         103
               104         104
               105         105
               106         106
               107         107
               108         108
               109         109
               110         110
               111         111
               112         112
               113         113
               114         114
               115         115
               116         116
               117         117
               118         118
               119         119
               120         120

----------------------------------------------------------------------------------------

 
 
 KPOINTS: Automatic mesh                          

Automatic generation of k-mesh.
 Grid dimensions read from file:
 generate k-points for:    2    2    2

 Generating k-lattice:

  Cartesian coordinates                     Fractional coordinates (reciprocal lattice)
     0.000000000  0.040715043 -0.009973711     0.500000000  0.000000000  0.000000000
     0.054688428 -0.000000000  0.000000000     0.000000000  0.500000000  0.000000000
     0.000000000  0.000000000 -0.044245056     0.000000000  0.000000000  0.500000000

  Length of vectors
     0.041918846  0.054688428  0.044245056

  Shift w.r.t. Gamma in fractional coordinates (k-lattice)
     0.000000000  0.000000000  0.000000000

 
 Subroutine IBZKPT returns following result:
 ===========================================
 
 Found      8 irreducible k-points:
 
 Following reciprocal coordinates:
            Coordinates               Weight
  0.000000  0.000000  0.000000      1.000000
  0.500000  0.000000  0.000000      1.000000
  0.000000  0.500000  0.000000      1.000000
  0.500000  0.500000  0.000000      1.000000
  0.000000  0.000000  0.500000      1.000000
  0.500000  0.000000  0.500000      1.000000
  0.000000  0.500000  0.500000      1.000000
  0.500000  0.500000  0.500000      1.000000
 
 Following cartesian coordinates:
            Coordinates               Weight
  0.000000  0.000000 -0.000000      1.000000
  0.000000  0.040715 -0.009974      1.000000
  0.054688  0.000000 -0.000000      1.000000
  0.054688  0.040715 -0.009974      1.000000
  0.000000  0.000000 -0.044245      1.000000
  0.000000  0.040715 -0.054219      1.000000
  0.054688  0.000000 -0.044245      1.000000
  0.054688  0.040715 -0.054219      1.000000
 
 
 Subroutine IBZKPT_HF returns following result:
 ==============================================
 
 Found      8 k-points in 1st BZ
 the following      8 k-points will be used (e.g. in the exchange kernel)
 Following reciprocal coordinates:   # in IRBZ
  0.000000  0.000000  0.000000    0.12500000   1 t-inv F
  0.500000  0.000000  0.000000    0.12500000   2 t-inv F
  0.000000  0.500000  0.000000    0.12500000   3 t-inv F
  0.500000  0.500000  0.000000    0.12500000   4 t-inv F
  0.000000  0.000000  0.500000    0.12500000   5 t-inv F
  0.500000  0.000000  0.500000    0.12500000   6 t-inv F
  0.000000  0.500000  0.500000    0.12500000   7 t-inv F
  0.500000  0.500000  0.500000    0.12500000   8 t-inv F


--------------------------------------------------------------------------------------------------------




 Dimension of arrays:
   k-points           NKPTS =      8   k-points in BZ     NKDIM =      8   number of bands    NBANDS=    633
   number of dos      NEDOS =    301   number of ions     NIONS =    120
   non local maximal  LDIM  =      6   non local SUM 2l+1 LMDIM =     18
   total plane-waves  NPLWV = 184320
   max r-space proj   IRMAX =   1800   max aug-charges    IRDMAX=   5704
   dimension x,y,z NGX =    64 NGY =   48 NGZ =   60
   dimension x,y,z NGXF=   128 NGYF=   96 NGZF=  120
   support grid    NGXF=   128 NGYF=   96 NGZF=  120
   ions per type =              48  71   1
   NGX,Y,Z   is equivalent  to a cutoff of   8.66,  8.73,  8.57 a.u.
   NGXF,Y,Z  is equivalent  to a cutoff of  17.33, 17.46, 17.15 a.u.

 SYSTEM =  unknown system                          
 POSCAR =  Ga48 O72                                

 Startparameter for this run:
   NWRITE =      2    write-flag & timer
   PREC   = normal    normal or accurate (medium, high low for compatibility)
   ISTART =      0    job   : 0-new  1-cont  2-samecut
   ICHARG =      0    charge: 1-file 2-atom 10-const
   ISPIN  =      1    spin polarized calculation?
   LNONCOLLINEAR =      F non collinear calculations
   LSORBIT =      F    spin-orbit coupling
   INIWAV =      1    electr: 0-lowe 1-rand  2-diag
   LASPH  =      F    aspherical Exc in radial PAW
 Electronic Relaxation 1
   ENCUT  =  450.0 eV  33.07 Ry    5.75 a.u.  21.24 15.81 20.12*2*pi/ulx,y,z
   ENINI  =  450.0     initial cutoff
   ENAUG  =  605.4 eV  augmentation charge cutoff
   NELM   =    500;   NELMIN=  2; NELMDL= -5     # of ELM steps 
   EDIFF  = 0.1E-04   stopping-criterion for ELM
   LREAL  =      T    real-space projection
   NLSPLINE    = F    spline interpolate recip. space projectors
   LCOMPAT=      F    compatible to vasp.4.4
   GGA_COMPAT  = T    GGA compatible to vasp.4.4-vasp.4.6
   LMAXPAW     = -100 max onsite density
   LMAXMIX     =    2 max onsite mixed and CHGCAR
   VOSKOWN=      0    Vosko Wilk Nusair interpolation
   ROPT   =   -0.00050  -0.00050  -0.00050
 Ionic relaxation
   EDIFFG = -.5E-02   stopping-criterion for IOM
   NSW    =      0    number of steps for IOM
   NBLOCK =      1;   KBLOCK =      1    inner block; outer block 
   IBRION =     -1    ionic relax: 0-MD 1-quasi-New 2-CG
   NFREE  =      0    steps in history (QN), initial steepest desc. (CG)
   ISIF   =      2    stress and relaxation
   IWAVPR =     10    prediction:  0-non 1-charg 2-wave 3-comb
   ISYM   =      3    0-nonsym 1-usesym 2-fastsym
   LCORR  =      T    Harris-Foulkes like correction to forces

   POTIM  = 0.5000    time-step for ionic-motion
   TEIN   =    0.0    initial temperature
   TEBEG  =    0.0;   TEEND  =   0.0 temperature during run
   SMASS  =  -3.00    Nose mass-parameter (am)
   estimated Nose-frequenzy (Omega)   =  0.10E-29 period in steps = 0.13E+47 mass=  -0.345E-26a.u.
   SCALEE = 1.0000    scale energy and forces
   NPACO  =    256;   APACO  = 10.0  distance and # of slots for P.C.
   PSTRESS=    0.0 pullay stress

  Mass of Ions in am
   POMASS =  69.72 16.00 30.97
  Ionic Valenz
   ZVAL   =  13.00  6.00  5.00
  Atomic Wigner-Seitz radii
   RWIGS  =  -1.00 -1.00 -1.00
  virtual crystal weights 
   VCA    =   1.00  1.00  1.00
   NELECT =    1055.0000    total number of electrons
   NUPDOWN=      -1.0000    fix difference up-down

 DOS related values:
   EMIN   =  10.00;   EMAX   =-10.00  energy-range for DOS
   EFERMI =   0.00;   METHOD = LEGACY      
   ISMEAR =     0;   SIGMA  =   0.05  broadening in eV -4-tet -1-fermi 0-gaus

 Electronic relaxation 2 (details)
   IALGO  =     58    algorithm
   LDIAG  =      T    sub-space diagonalisation (order eigenvalues)
   LSUBROT=      F    optimize rotation matrix (better conditioning)
   TURBO    =      0    0=normal 1=particle mesh
   IRESTART =      0    0=no restart 2=restart with 2 vectors
   NREBOOT  =      0    no. of reboots
   NMIN     =      0    reboot dimension
   EREF     =   0.00    reference energy to select bands
   IMIX   =      4    mixing-type and parameters
     AMIX     =   0.40;   BMIX     =  1.00
     AMIX_MAG =   1.60;   BMIX_MAG =  1.00
     AMIN     =   0.10
     WC   =   100.;   INIMIX=   1;  MIXPRE=   1;  MAXMIX= -45

 Intra band minimization:
   WEIMIN = 0.0000     energy-eigenvalue tresh-hold
   EBREAK =  0.39E-08  absolut break condition
   DEPER  =   0.30     relativ break condition  

   TIME   =   0.40     timestep for ELM

  volume/ion in A,a.u.               =      10.57        71.35
  Fermi-wavevector in a.u.,A,eV,Ry     =   1.539433  2.909106 32.243803  2.369853
  Thomas-Fermi vector in A             =   2.645661
 
 Write flags
   LWAVE        =      T    write WAVECAR
   LDOWNSAMPLE  =      F    k-point downsampling of WAVECAR
   LCHARG       =      T    write CHGCAR
   LVTOT        =      F    write LOCPOT, total local potential
   LVHAR        =      F    write LOCPOT, Hartree potential only
   LELF         =      F    write electronic localiz. function (ELF)
   LORBIT       =      0    0 simple, 1 ext, 2 COOP (PROOUT), +10 PAW based schemes


 Dipole corrections
   LMONO  =      F    monopole corrections only (constant potential shift)
   LDIPOL =      F    correct potential (dipole corrections)
   IDIPOL =      0    1-x, 2-y, 3-z, 4-all directions 
   EPSILON=  1.0000000 bulk dielectric constant

 Exchange correlation treatment:
   GGA     =    --    GGA type
   LEXCH   =     8    internal setting for exchange type
   LIBXC   =     F    Libxc                    
   VOSKOWN =     0    Vosko Wilk Nusair interpolation
   EXXOEP  =     0    0=HF, 1=EXX-LHF (local Hartree Fock) 2=EXX OEP
   LHFCALC =     T    Hartree Fock is set to
   LSYMGRAD=     F    symmetrize gradient (conserves proper symmetry)
   PRECFOCK=fast      Normal, Fast or Accurate (Low or Medium for compatibility)
   LRHFCALC=     F    long range Hartree Fock
   LRSCOR  =     F    long range correlation only (use DFT for short range part)
   LTHOMAS =     F    Thomas Fermi screening in HF
   LMODELHF=     F    short range full HF, long range fraction AEXX
   FOCKCORR=     1    mode to apply convergence corrections
   LFOCKACE=     T    use Adeptively-Compressed-Exchange operator
   ENCUT4O =  -1.0   cutoff for four orbital integrals eV
   LMAXFOCK=     4    L truncation for augmentation on plane wave grid
   LMAXFOCKAE=  -1    L truncation for all-electron charge restoration on plane wave grid
   NMAXFOCKAE=   1    number of basis functions for all-electron charge restoration
   LFOCKAEDFT=     F  apply the AE augmentation even for DFT
   NKREDX  =     1    reduce k-point grid by
   NKREDY  =     1    reduce k-point grid by
   NKREDZ  =     1    reduce k-point grid by
   SHIFTRED=     F    shift reduced grid of Gamma
   HFKIDENT=     F    idential grid for each k-point
   ODDONLY =     F    use only odd q-grid points
   EVENONLY=     F    use only even q-grid points
   HFALPHA =   -1.0000 decay constant for conv. correction
   MCALPHA =    0.0000 extent of test-charge in conv. correction in multipole expansion
   AEXX    =    0.3500 exact exchange contribution
   HFSCREEN=    0.1800 screening length (either q_TF or 0.3 A-1)
   HFSCREENC=   0.1800 screening length for correlation (either q_TF or 0.3 A-1)
   HFRCUT  =    0.0000 spherical cutoff for potential kernel
   ALDAX   =    0.6500 LDA exchange part
   AGGAX   =    0.6500 GGA exchange part
   ALDAC   =    1.0000 LDA correlation
   AGGAC   =    1.0000 GGA correlation
   ENCUTFOCK=  -1.0 apply spherical cutoff to Coloumb kernel
   NBANDSGWLOW=     1    first orbital included in HF term
   NBLOCK_FOCK=    64    blocking factor in FOCK_ACC

 Linear response parameters
   LEPSILON=     F    determine dielectric tensor
   LRPA    =     F    only Hartree local field effects (RPA)
   LNABLA  =     F    use nabla operator in PAW spheres
   LVEL    =     F    velocity operator in full k-point grid
   CSHIFT  =0.1000    complex shift for real part using Kramers Kronig
   OMEGAMAX=  -1.0    maximum frequency
   DEG_THRESHOLD= 0.2000000E-02 threshold for treating states as degnerate
   RTIME   =   -0.100 relaxation time in fs
  (WPLASMAI=    0.000 imaginary part of plasma frequency in eV, 0.658/RTIME)
   DFIELD  = 0.0000000 0.0000000 0.0000000 field for delta impulse in time
 
  Optional k-point grid parameters
   LKPOINTS_OPT  =     F    use optional k-point grid
   KPOINTS_OPT_MODE=     1    mode for optional k-point grid
 
 Orbital magnetization related:
   ORBITALMAG=     F  switch on orbital magnetization
   LCHIMAG   =     F  perturbation theory with respect to B field
   DQ        =  0.001000  dq finite difference perturbation B field
   LLRAUG    =     F  two centre corrections for induced B field
   LBONE     =     F  B-component reconstruction in AE one-centre
   LVGVCALC  =     T  calculate vGv susceptibility
   LVGVAPPL  =     F  apply vGv susceptibility instead of pGv for G=0

 Random number generation:
   RANDOM_GENERATOR = DEFAULT
   PCG_SEED         = not used


--------------------------------------------------------------------------------------------------------


 Static calculation
 charge density and potential will be updated during run
 non-spin polarized calculation
 Conjugate gradient for all bands (Freysoldt, et al. PRB 79, 241103 (2009))
 preconditioned conjugated gradient                                        
 perform sub-space diagonalisation
    before iterative eigenvector-optimisation
 modified Broyden-mixing scheme, WC =      100.0
 initial mixing is a Kerker type mixing with AMIX =  0.4000 and BMIX =      1.0000
 Hartree-type preconditioning will be used
 using additional bands           105
 real space projection scheme for non local part
 use partial core corrections
 no Harris-corrections to forces 
 use gradient corrections 
 use of overlap-Matrix (Vanderbilt PP)
 Gauss-broadening in eV      SIGMA  =   0.05


--------------------------------------------------------------------------------------------------------


  energy-cutoff  :      450.00
  volume of cell :     1268.81
      direct lattice vectors                 reciprocal lattice vectors
     0.000000000 12.280473417  0.000000000     0.000000000  0.081430085 -0.019947423
     9.142702054  0.000000000  0.000000000     0.109376855 -0.000000000  0.000000000
     0.000000000 -2.768261773-11.300697718     0.000000000  0.000000000 -0.088490111

  length of vectors
    12.280473417  9.142702054 11.634820246     0.083837691  0.109376855  0.088490111


 
 k-points in units of 2pi/SCALE and weight: Automatic mesh                          
   0.00000000  0.00000000 -0.00000000       0.125
   0.00000000  0.04071504 -0.00997371       0.125
   0.05468843  0.00000000 -0.00000000       0.125
   0.05468843  0.04071504 -0.00997371       0.125
   0.00000000  0.00000000 -0.04424506       0.125
   0.00000000  0.04071504 -0.05421877       0.125
   0.05468843  0.00000000 -0.04424506       0.125
   0.05468843  0.04071504 -0.05421877       0.125
 
 k-points in reciprocal lattice and weights: Automatic mesh                          
   0.00000000  0.00000000  0.00000000       0.125
   0.50000000  0.00000000  0.00000000       0.125
   0.00000000  0.50000000  0.00000000       0.125
   0.50000000  0.50000000  0.00000000       0.125
   0.00000000  0.00000000  0.50000000       0.125
   0.50000000  0.00000000  0.50000000       0.125
   0.00000000  0.50000000  0.50000000       0.125
   0.50000000  0.50000000  0.50000000       0.125
 
 position of ions in fractional coordinates (direct lattice) 
   0.65780646  0.99654228  0.15346391
   0.65864618  0.99958986  0.65704571
   0.65780646  0.33679106  0.15346391
   0.65864618  0.33374347  0.65704571
   0.65892656  0.66666667  0.15560438
   0.65835640  0.66666667  0.65735927
   0.81701740  0.16666667  0.36128987
   0.84094386  0.16666667  0.84379936
   0.84119762  0.50119237  0.34104058
   0.84130993  0.50030512  0.84374081
   0.84119762  0.83214096  0.34104058
   0.84130993  0.83302821  0.84374081
   0.58366510  0.16666667  0.39957654
   0.59133529  0.16666667  0.89792622
   0.59368183  0.50161742  0.39832667
   0.58956149  0.50045648  0.89574874
   0.59368183  0.83171591  0.39832667
   0.58956149  0.83287685  0.89574874
   0.90665825  0.99668894  0.10379688
   0.90885467  0.99771244  0.60311919
   0.90665825  0.33664439  0.10379688
   0.90885467  0.33562089  0.60311919
   0.91117982  0.66666667  0.10358728
   0.90827646  0.66666667  0.60057648
   0.16311024  0.16666667  0.15720174
   0.16073989  0.16666667  0.65589088
   0.16119380  0.50054641  0.15635205
   0.16054521  0.50129492  0.65976285
   0.16119380  0.83278692  0.15635205
   0.16054521  0.83203842  0.65976285
   0.34332937  0.99823312  0.34252791
   0.34115055  0.00002935  0.84333019
   0.34332937  0.33510021  0.34252791
   0.34115055  0.33330398  0.84333019
   0.34266645  0.66666667  0.34303399
   0.34133115  0.66666667  0.84458967
   0.10330920  0.98506863  0.40205921
   0.09110760  0.00023728  0.89762644
   0.10330920  0.34826470  0.40205921
   0.09110760  0.33309606  0.89762644
   0.09492625  0.66666667  0.40011869
   0.09019358  0.66666667  0.89799719
   0.40993775  0.16666667  0.10081447
   0.40852816  0.16666667  0.60236263
   0.40990114  0.50057030  0.10163938
   0.40803242  0.50017581  0.60261597
   0.40990114  0.83276304  0.10163938
   0.40803242  0.83315753  0.60261597
   0.99599637  0.16666667  0.13108926
   0.99553729  0.16666667  0.61517415
   0.99832432  0.49962843  0.12843201
   0.99738348  0.50055832  0.62702013
   0.99832432  0.83370490  0.12843201
   0.99738348  0.83277501  0.62702013
   0.50364409  0.99654438  0.37283025
   0.50356654  0.00054600  0.87281385
   0.50364409  0.33678895  0.37283025
   0.50356654  0.33278733  0.87281385
   0.50447074  0.66666667  0.37433990
   0.50250109  0.66666667  0.87098761
   0.66518874  0.16666667  0.28053128
   0.67274032  0.16666667  0.78073871
   0.67042295  0.50248504  0.27865252
   0.67324392  0.49996650  0.78098848
   0.67042295  0.83084830  0.27865252
   0.67324392  0.83336684  0.78098848
   0.82069054  0.98698298  0.21477394
   0.82787578  0.00079627  0.72017185
   0.82069054  0.34635036  0.21477394
   0.82787578  0.33253707  0.72017185
   0.82774176  0.66666667  0.21862744
   0.82801690  0.66666667  0.71936636
   0.81943570  0.98931007  0.45080854
   0.83372477  0.00030546  0.94625392
   0.81943570  0.34402326  0.45080854
   0.83372477  0.33302788  0.94625392
   0.82983692  0.66666667  0.44471720
   0.83451628  0.66666667  0.94658095
   0.66791551  0.16666667  0.05472037
   0.66614489  0.16666667  0.55405567
   0.66595148  0.50229955  0.05121293
   0.66633574  0.50071276  0.55583721
   0.66595148  0.83103378  0.05121293
   0.66633574  0.83262058  0.55583721
   0.49652927  0.99985401  0.12605922
   0.49592415  0.99980805  0.62763394
   0.49652927  0.33347932  0.12605922
   0.49592415  0.33352528  0.62763394
   0.49663284  0.66666667  0.12507975
   0.49561597  0.66666667  0.62800556
   0.00347870  0.16666667  0.87038646
   0.00498447  0.50574969  0.37713269
   0.00382536  0.49958358  0.87244949
   0.00498447  0.82758364  0.37713269
   0.00382536  0.83374975  0.87244949
   0.17932849  0.99474130  0.27887582
   0.17173988  0.00108260  0.78002123
   0.17932849  0.33859204  0.27887582
   0.17173988  0.33225073  0.78002123
   0.17425890  0.66666667  0.28085112
   0.17261514  0.66666667  0.78185565
   0.33028457  0.16666667  0.21895280
   0.32831287  0.16666667  0.72051040
   0.32989413  0.50240150  0.21884902
   0.32886482  0.50053032  0.72196137
   0.32989413  0.83093184  0.21884902
   0.32886482  0.83280301  0.72196137
   0.33500756  0.16666667  0.44462196
   0.33137760  0.16666667  0.94526937
   0.33134572  0.50049392  0.44586749
   0.33112075  0.49934736  0.94589580
   0.33134572  0.83283941  0.44586749
   0.33112075  0.83398598  0.94589580
   0.16772804  0.00094750  0.05380413
   0.17687405  0.99615787  0.55884211
   0.16772804  0.33238583  0.05380413
   0.17687405  0.33717546  0.55884211
   0.16822495  0.66666667  0.05382128
   0.17207681  0.66666667  0.55698859
   0.99028463  0.16666667  0.34223069
 
 position of ions in cartesian coordinates  (Angst):
   9.11108913  7.65334650 -1.73424922
   9.13895228  6.26961238 -7.42507492
   3.07918028  7.65334650 -1.73424922
   3.05131713  6.26961238 -7.42507492
   6.09513470  7.66117649 -1.75843803
   6.09513470  6.26518573 -7.42861838
   1.52378368  9.03321556 -4.08282765
   1.52378368  7.99133124 -9.53552151
   4.58225252  9.38621539 -3.85399650
   4.57414066  7.99598877 -9.53485980
   7.60801688  9.38621539 -3.85399650
   7.61612874  7.99598877 -9.53485980
   1.52378368  6.06155135 -4.51549366
   1.52378368  4.77618245-10.14719275
   4.58613863  6.18802143 -4.50136932
   4.57552450  4.76042723-10.12258580
   7.60413078  6.18802143 -4.50136932
   7.61474491  4.76042723-10.12258580
   9.11243001 10.84685555 -1.17297714
   9.12178758  9.49157382 -6.81566764
   3.07783940 10.84685555 -1.17297714
   3.06848183  9.49157382 -6.81566764
   6.09513470 10.90296287 -1.17060849
   6.09513470  9.49151201 -6.78693325
   1.52378368  1.56789538 -1.77648932
   1.52378368  0.15828428 -7.41202460
   4.57634669  1.54671271 -1.76688730
   4.58319008  0.14517487 -7.45578050
   7.61392272  1.54671271 -1.76688730
   7.60707933  0.14517487 -7.45578050
   9.12654803  3.26804025 -3.87080439
   0.00026834  1.85493155 -9.53021951
   3.06372137  3.26804025 -3.87080439
   3.04729901  1.85493155 -9.53021951
   6.09513470  3.25849831 -3.87652346
   6.09513470  1.85366278 -9.54445254
   9.00618897  0.15568079 -4.54354957
   0.00216934 -1.36602053-10.14380503
   3.18408043  0.15568079 -4.54354957
   3.04539801 -1.36602053-10.14380503
   6.09513470  0.05810602 -4.52162042
   6.09513470 -1.37827148-10.14799477
   1.52378368  4.75514876 -1.13927382
   1.52378368  3.34942179 -6.80711795
   4.57656507  4.75241566 -1.14859588
   4.57295839  3.34263252 -6.80998097
   7.61370433  4.75241566 -1.14859588
   7.61731102  3.34263252 -6.80998097
   1.52378368 11.86841755 -1.48140010
   1.52378368 10.52270608 -6.95189712
   4.56795386 11.90436190 -1.45137131
   4.57645557 10.51258544 -7.08576492
   7.62231554 11.90436190 -1.45137131
   7.61381384 10.51258544 -7.08576492
   9.11110834  5.15289616 -4.21324201
   0.00499191  3.76785824 -9.86340552
   3.07916107  5.15289616 -4.21324201
   3.04257544  3.76785824 -9.86340552
   6.09513470  5.15886872 -4.23030203
   6.09513470  3.75982959 -9.84276773
   1.52378368  7.39224866 -3.17019915
   1.52378368  6.10028043 -8.82289219
   4.59407098  7.46172805 -3.14896787
   4.57104473  6.10577346 -8.82571475
   7.59619843  7.46172805 -3.14896787
   7.61922468  6.10577346 -8.82571475
   9.02369128  9.48391791 -2.42709540
   0.00728002  8.17308229 -8.13844435
   3.16657812  9.48391791 -2.42709540
   3.04028733  8.17308229 -8.13844435
   6.09513470  9.55984272 -2.47064258
   6.09513470  8.17704518 -8.12934174
   9.04496724  8.81510224 -5.09445101
   0.00279271  7.61905635-10.69332948
   3.14530217  8.81510224 -5.09445101
   3.04477464  7.61905635-10.69332948
   6.09513470  8.95969669 -5.02561460
   6.09513470  7.62787114-10.69702517
   1.52378368  8.05083831 -0.61837834
   1.52378368  6.64680349 -6.26121563
   4.59237513  8.03642865 -0.57874180
   4.57786754  6.64421543 -6.28134833
   7.59789428  8.03642865 -0.57874180
   7.61240187  6.64421543 -6.28134833
   9.14136730  5.74864955 -1.42455710
   9.14094712  4.35272833 -7.09270143
   3.04890211  5.74864955 -1.42455710
   3.04932228  4.35272833 -7.09270143
   6.09513470  5.75263292 -1.41348842
   6.09513470  4.34791496 -7.09690100
   1.52378368 -2.36673744 -9.83597423
   4.62391877 -0.98279035 -4.26186254
   4.56754386 -2.36819130 -9.85928801
   7.56635064 -0.98279035 -4.26186254
   7.62272554 -2.36819130 -9.85928801
   9.09462330  1.43023747 -3.15149139
   0.00989790 -0.05025596 -8.81478414
   3.09564611  1.43023747 -3.15149139
   3.03766945 -0.05025596 -8.81478414
   6.09513470  1.36251236 -3.17381363
   6.09513470 -0.04458554 -8.83551440
   1.52378368  3.44993221 -2.47431937
   1.52378368  2.03727606 -8.14227020
   4.59330719  3.44542474 -2.47314667
   4.57619961  2.04003761 -8.15866723
   7.59696222  3.44542474 -2.47314667
   7.61406979  2.04003761 -8.15866723
   1.52378368  2.88322149 -5.02453841
   1.52378368  1.45272075-10.68220345
   4.57586681  2.83480438 -5.03861367
   4.56538409  1.44783243-10.68928252
   7.61440260  2.83480438 -5.03861367
   7.62488531  1.44783243-10.68928252
   0.00866275  1.91083584 -0.60802417
   9.10757464  0.62507587 -6.31530575
   3.03890460  1.91083584 -0.60802417
   3.08269476  0.62507587 -6.31530575
   6.09513470  1.91689059 -0.60821805
   6.09513470  0.57129442 -6.29435969
   1.52378368 11.21377995 -3.86744559
 


--------------------------------------------------------------------------------------------------------


 k-point   1 :   0.0000 0.0000 0.0000  plane waves:   27533
 k-point   2 :   0.5000 0.0000 0.0000  plane waves:   27522
 k-point   3 :   0.0000 0.5000 0.0000  plane waves:   27488
 k-point   4 :   0.5000 0.5000 0.0000  plane waves:   27488
 k-point   5 :   0.0000 0.0000 0.5000  plane waves:   27482
 k-point   6 :   0.5000 0.0000 0.5000  plane waves:   27476
 k-point   7 :   0.0000 0.5000 0.5000  plane waves:   27468
 k-point   8 :   0.5000 0.5000 0.5000  plane waves:   27564

 maximum and minimum number of plane-waves per node :     27564    27468

 maximum number of plane-waves:     27564
 maximum index in each direction: 
   IXMAX=   21   IYMAX=   15   IZMAX=   20
   IXMIN=  -21   IYMIN=  -16   IZMIN=  -20


 serial   3D FFT for wavefunctions
 parallel 3D FFT for charge:
    minimum data exchange during FFTs selected (reduces bandwidth)


 FFT grid for exact exchange (Hartree Fock) 
  NGX = 48; NGY = 36; NGZ = 48

 
 Radii for the augmentation spheres in the non-local exchange
 for species   1 augmentation radius   1.392 (default was   1.031)
       energy cutoff for augmentation   1800.0
 for species   2 augmentation radius   0.974 (default was   0.722)
       energy cutoff for augmentation   1800.0
 for species   3 augmentation radius   1.294 (default was   0.959)
       energy cutoff for augmentation   1800.0
 Maximum index for augmentation-charges in exchange           748
  SETUP_FOCK is finished

 total amount of memory used by VASP MPI-rank0  7269075. kBytes
=======================================================================

   base      :      30000. kBytes
   nonlr-proj:      32970. kBytes
   fftplans  :      51012. kBytes
   grid      :     102973. kBytes
   one-center:       1866. kBytes
   HF        :        194. kBytes
   wavefun   :    7050060. kBytes
 
     INWAV:  cpu time      0.0001: real time      0.0001
 Broyden mixing: mesh for mixing (old mesh)
   NGX = 43   NGY = 31   NGZ = 41
  (NGX  =128   NGY  = 96   NGZ  =120)
  gives a total of  54653 points

 charge density for first step will be calculated from the start-wavefunctions


--------------------------------------------------------------------------------------------------------


 Maximum index for non-local projection operator          1715
 Maximum index for augmentation-charges          5360 (set IRDMAX)


--------------------------------------------------------------------------------------------------------


 initial charge from wavefunction
 First call to EWALD:  gamma=   0.164
 Maximum number of real-space cells 3x 3x 3
 Maximum number of reciprocal cells 3x 2x 3

    FEWALD:  cpu time      0.0730: real time      0.0730


--------------------------------------- Ionic step        1  -------------------------------------------




--------------------------------------- Iteration      1(   1)  ---------------------------------------


    POTLOK:  cpu time      0.0501: real time      0.0500
    SETDIJ:  cpu time      0.1315: real time      0.1315
    TRIAL :  cpu time      2.9499: real time      2.9609
    CORREC:  cpu time      0.0015: real time      0.0015
    --------------------------------------------
      LOOP:  cpu time      4.0538: real time      4.0644

 eigenvalue-minimisations  : 10616
 total energy-change (2. order) :-0.2169019E+05  (-0.5448591E+05)
 number of electron    1054.9999567 magnetization 
 augmentation part      121.7748080 magnetization 

 Free energy of the ion-electron system (eV)
  ---------------------------------------------------
  alpha Z        PSCENC =      5529.70323211
  Ewald energy   TEWEN  =    -88666.59958538
  -Hartree energ DENC   =     -2115.67934224
  -exchange      EXHF   =         0.00000000
  -V(xc)+E(xc)   XCENC  =      2791.99929965
  PAW double counting   =    343588.08822887  -375536.31273558
  entropy T*S    EENTRO =        -0.01215435
  eigenvalues    EBANDS =    -40887.18623333
  atomic energy  EATOM  =    133605.80973787
  ---------------------------------------------------
  free energy    TOTEN  =    -21690.18955237 eV

  energy without entropy =   -21690.17739803  energy(sigma->0) =   -21690.18347520
  exchange ACFDT corr.  =         0.00000000  see jH, gK, PRB 81, 115126


--------------------------------------------------------------------------------------------------------




--------------------------------------- Iteration      1(   2)  ---------------------------------------


    TRIAL :  cpu time      3.2446: real time      3.2441
    CORREC:  cpu time      0.0016: real time      0.0016
    --------------------------------------------
      LOOP:  cpu time      3.2464: real time      3.2464

 eigenvalue-minimisations  : 13272
 total energy-change (2. order) :-0.4443725E+05  (-0.4300508E+05)
 number of electron    1054.9999567 magnetization 
 augmentation part      121.7748080 magnetization 

 Free energy of the ion-electron system (eV)
  ---------------------------------------------------
  alpha Z        PSCENC =      5529.70323211
  Ewald energy   TEWEN  =    -88666.59958538
  -Hartree energ DENC   =     -2115.67934224
  -exchange      EXHF   =         0.00000000
  -V(xc)+E(xc)   XCENC  =      2791.99929965
  PAW double counting   =    343588.08822887  -375536.31273558
  entropy T*S    EENTRO =        -0.01941053
  eigenvalues    EBANDS =    -85324.42902801
  atomic energy  EATOM  =    133605.80973787
  ---------------------------------------------------
  free energy    TOTEN  =    -66127.43960324 eV

  energy without entropy =   -66127.42019271  energy(sigma->0) =   -66127.42989798
  exchange ACFDT corr.  =         0.00000000  see jH, gK, PRB 81, 115126


--------------------------------------------------------------------------------------------------------




--------------------------------------- Iteration      1(   3)  ---------------------------------------


    TRIAL :  cpu time      3.3722: real time      3.3716
    CORREC:  cpu time      0.0017: real time      0.0017
    --------------------------------------------
      LOOP:  cpu time      3.3741: real time      3.3739

 eigenvalue-minimisations  : 14457
 total energy-change (2. order) :-0.4903804E+04  (-0.4385049E+04)
 number of electron    1054.9999567 magnetization 
 augmentation part      121.7748080 magnetization 

 Free energy of the ion-electron system (eV)
  ---------------------------------------------------
  alpha Z        PSCENC =      5529.70323211
  Ewald energy   TEWEN  =    -88666.59958538
  -Hartree energ DENC   =     -2115.67934224
  -exchange      EXHF   =         0.00000000
  -V(xc)+E(xc)   XCENC  =      2791.99929965
  PAW double counting   =    343588.08822887  -375536.31273558
  entropy T*S    EENTRO =        -0.03358618
  eigenvalues    EBANDS =    -90228.21863678
  atomic energy  EATOM  =    133605.80973787
  ---------------------------------------------------
  free energy    TOTEN  =    -71031.24338766 eV

  energy without entropy =   -71031.20980148  energy(sigma->0) =   -71031.22659457
  exchange ACFDT corr.  =         0.00000000  see jH, gK, PRB 81, 115126


--------------------------------------------------------------------------------------------------------




--------------------------------------- Iteration      1(   4)  ---------------------------------------


    TRIAL :  cpu time      3.7819: real time      3.7825
    CORREC:  cpu time      0.0016: real time      0.0016
    --------------------------------------------
      LOOP:  cpu time      3.7837: real time      3.7846

 eigenvalue-minimisations  : 17360
 total energy-change (2. order) :-0.6617120E+03  (-0.5828458E+03)
 number of electron    1054.9999567 magnetization 
 augmentation part      121.7748080 magnetization 

 Free energy of the ion-electron system (eV)
  ---------------------------------------------------
  alpha Z        PSCENC =      5529.70323211
  Ewald energy   TEWEN  =    -88666.59958538
  -Hartree energ DENC   =     -2115.67934224
  -exchange      EXHF   =         0.00000000
  -V(xc)+E(xc)   XCENC  =      2791.99929965
  PAW double counting   =    343588.08822887  -375536.31273558
  entropy T*S    EENTRO =        -0.04019828
  eigenvalues    EBANDS =    -90889.92402375
  atomic energy  EATOM  =    133605.80973787
  ---------------------------------------------------
  free energy    TOTEN  =    -71692.95538673 eV

  energy without entropy =   -71692.91518845  energy(sigma->0) =   -71692.93528759
  exchange ACFDT corr.  =         0.00000000  see jH, gK, PRB 81, 115126


--------------------------------------------------------------------------------------------------------




--------------------------------------- Iteration      1(   5)  ---------------------------------------


    POTLOK:  cpu time      1.3656: real time      1.3655
    SETDIJ:  cpu time      0.4648: real time      0.4647
    TRIAL :  cpu time    234.1441: real time    234.1140
    CORREC:  cpu time      0.0016: real time      0.0016
    CHARGE:  cpu time      0.2069: real time      0.2068
    --------------------------------------------
      LOOP:  cpu time    236.1832: real time    236.1530

 eigenvalue-minimisations  : 19256
 total energy-change (2. order) : 0.3306492E+05  (-0.9696278E+02)
 number of electron    1054.9998613 magnetization 
 augmentation part      481.9700697 magnetization 

 Free energy of the ion-electron system (eV)
  ---------------------------------------------------
  alpha Z        PSCENC =      5529.70323211
  Ewald energy   TEWEN  =    -88666.59958538
  -Hartree energ DENC   =     -2115.67934224
  -exchange      EXHF   =      5243.40711529
  -V(xc)+E(xc)   XCENC  =      1850.40601257
  PAW double counting   =    344942.60347754  -347014.90513463
  entropy T*S    EENTRO =        -0.00570612
  eigenvalues    EBANDS =    -92002.77819991
  atomic energy  EATOM  =    133605.80973787
  ---------------------------------------------------
  free energy    TOTEN  =    -38628.03839289 eV

  energy without entropy =   -38628.03268677  energy(sigma->0) =   -38628.03553983
  exchange ACFDT corr.  =        -0.64109317  see jH, gK, PRB 81, 115126


--------------------------------------------------------------------------------------------------------




--------------------------------------- Iteration      1(   6)  ---------------------------------------


    POTLOK:  cpu time      1.3861: real time      1.3859
    SETDIJ:  cpu time      0.4665: real time      0.4665
    TRIAL :  cpu time    232.6778: real time    232.6561
    CORREC:  cpu time    235.5151: real time    235.4810
    CHARGE:  cpu time      0.2196: real time      0.2196
    --------------------------------------------
      LOOP:  cpu time    470.2654: real time    470.2096

 eigenvalue-minimisations  :     0
 total energy-change (2. order) : 0.6767908E+05  (-0.2054526E+05)
 number of electron    1054.9998683 magnetization 
 augmentation part      475.5308305 magnetization 

 Free energy of the ion-electron system (eV)
  ---------------------------------------------------
  alpha Z        PSCENC =      5529.70323211
  Ewald energy   TEWEN  =    -88666.59958538
  -Hartree energ DENC   =    -76637.36537995
  -exchange      EXHF   =      5352.89488020
  -V(xc)+E(xc)   XCENC  =      3596.33615412
  PAW double counting   =    150679.17047812  -175726.70527477
  entropy T*S    EENTRO =        -0.03876926
  eigenvalues    EBANDS =     71317.80063219
  atomic energy  EATOM  =    133605.80973787
  ---------------------------------------------------
  free energy    TOTEN  =     29051.03916839 eV

  energy without entropy =    29051.07793764  energy(sigma->0) =    29051.05855301
  exchange ACFDT corr.  =        -0.02774883  see jH, gK, PRB 81, 115126


--------------------------------------------------------------------------------------------------------




--------------------------------------- Iteration      1(   7)  ---------------------------------------


    POTLOK:  cpu time      1.5105: real time      1.5104
    SETDIJ:  cpu time      0.4659: real time      0.4658
    TRIAL :  cpu time    233.4500: real time    233.4148
    CORREC:  cpu time    236.0181: real time    235.9818
    CHARGE:  cpu time      0.2069: real time      0.2069
    --------------------------------------------
      LOOP:  cpu time    471.6517: real time    471.5853

 eigenvalue-minimisations  :     0
 total energy-change (2. order) :-0.2166690E+05  (-0.5496885E+04)
 number of electron    1054.9998761 magnetization 
 augmentation part      450.2536322 magnetization 

 Free energy of the ion-electron system (eV)
  ---------------------------------------------------
  alpha Z        PSCENC =      5529.70323211
  Ewald energy   TEWEN  =    -88666.59958538
  -Hartree energ DENC   =    -43529.63733015
  -exchange      EXHF   =      4410.22293727
  -V(xc)+E(xc)   XCENC  =      2942.54095034
  PAW double counting   =    138194.99653652  -157260.45119405
  entropy T*S    EENTRO =        -0.05097074
  eigenvalues    EBANDS =     12157.59713523
  atomic energy  EATOM  =    133605.80973787
  ---------------------------------------------------
  free energy    TOTEN  =      7384.14365052 eV

  energy without entropy =     7384.19462125  energy(sigma->0) =     7384.16913588
  exchange ACFDT corr.  =      -215.61764855  see jH, gK, PRB 81, 115126


--------------------------------------------------------------------------------------------------------




--------------------------------------- Iteration      1(   8)  ---------------------------------------


    POTLOK:  cpu time      1.4543: real time      1.4541
    SETDIJ:  cpu time      0.4646: real time      0.4646
    TRIAL :  cpu time    233.5989: real time    233.5613
    CORREC:  cpu time    235.3936: real time    235.3595
    CHARGE:  cpu time      0.2220: real time      0.2219
    --------------------------------------------
      LOOP:  cpu time    471.1336: real time    471.0619

 eigenvalue-minimisations  :     0
 total energy-change (2. order) :-0.4568281E+04  (-0.1499864E+04)
 number of electron    1054.9998917 magnetization 
 augmentation part      448.0970461 magnetization 

 Free energy of the ion-electron system (eV)
  ---------------------------------------------------
  alpha Z        PSCENC =      5529.70323211
  Ewald energy   TEWEN  =    -88666.59958538
  -Hartree energ DENC   =    -33194.02153715
  -exchange      EXHF   =      4044.68454004
  -V(xc)+E(xc)   XCENC  =      2712.90501621
  PAW double counting   =    133950.04467458  -149599.03867536
  entropy T*S    EENTRO =        -0.02567452
  eigenvalues    EBANDS =     -5567.57328786
  atomic energy  EATOM  =    133605.80973787
  ---------------------------------------------------
  free energy    TOTEN  =      2815.86314433 eV

  energy without entropy =     2815.88881886  energy(sigma->0) =     2815.87598159
  exchange ACFDT corr.  =      -125.46790910  see jH, gK, PRB 81, 115126


--------------------------------------------------------------------------------------------------------




--------------------------------------- Iteration      1(   9)  ---------------------------------------


    POTLOK:  cpu time      1.5010: real time      1.5008
    SETDIJ:  cpu time      0.4638: real time      0.4637
    TRIAL :  cpu time    233.3552: real time    233.3267
    CORREC:  cpu time    236.0728: real time    236.0421
    CHARGE:  cpu time      0.2255: real time      0.2255
    --------------------------------------------
      LOOP:  cpu time    471.6187: real time    471.5593

 eigenvalue-minimisations  :     0
 total energy-change (2. order) :-0.1196796E+04  (-0.9410747E+03)
 number of electron    1054.9998814 magnetization 
 augmentation part      453.8031418 magnetization 

 Free energy of the ion-electron system (eV)
  ---------------------------------------------------
  alpha Z        PSCENC =      5529.70323211
  Ewald energy   TEWEN  =    -88666.59958538
  -Hartree energ DENC   =    -32324.35991417
  -exchange      EXHF   =      4007.80981910
  -V(xc)+E(xc)   XCENC  =      2687.32282986
  PAW double counting   =    130657.67011912  -145923.75408962
  entropy T*S    EENTRO =        -0.04718326
  eigenvalues    EBANDS =     -7954.50934120
  atomic energy  EATOM  =    133605.80973787
  ---------------------------------------------------
  free energy    TOTEN  =      1619.06713317 eV

  energy without entropy =     1619.11431643  energy(sigma->0) =     1619.09072480
  exchange ACFDT corr.  =       -73.12227395  see jH, gK, PRB 81, 115126


--------------------------------------------------------------------------------------------------------




--------------------------------------- Iteration      1(  10)  ---------------------------------------


    POTLOK:  cpu time      1.4648: real time      1.4645
    SETDIJ:  cpu time      0.4649: real time      0.4648
    TRIAL :  cpu time    233.8927: real time    233.8629
    CORREC:  cpu time    235.0571: real time    235.0255
    CHARGE:  cpu time      0.2202: real time      0.2202
    --------------------------------------------
      LOOP:  cpu time    471.1000: real time    471.0385

 eigenvalue-minimisations  :     0
 total energy-change (2. order) :-0.8387237E+03  (-0.7223166E+03)
 number of electron    1054.9998743 magnetization 
 augmentation part      458.1751542 magnetization 

 Free energy of the ion-electron system (eV)
  ---------------------------------------------------
  alpha Z        PSCENC =      5529.70323211
  Ewald energy   TEWEN  =    -88666.59958538
  -Hartree energ DENC   =    -33239.14072087
  -exchange      EXHF   =      4066.80777762
  -V(xc)+E(xc)   XCENC  =      2721.71455427
  PAW double counting   =    133758.40947152  -149242.39794912
  entropy T*S    EENTRO =        -0.01571804
  eigenvalues    EBANDS =     -7753.91590234
  atomic energy  EATOM  =    133605.80973787
  ---------------------------------------------------
  free energy    TOTEN  =       780.34343242 eV

  energy without entropy =      780.35915046  energy(sigma->0) =      780.35129144
  exchange ACFDT corr.  =       -39.74940374  see jH, gK, PRB 81, 115126


--------------------------------------------------------------------------------------------------------




--------------------------------------- Iteration      1(  11)  ---------------------------------------


    POTLOK:  cpu time      1.5071: real time      1.5069
    SETDIJ:  cpu time      0.4647: real time      0.4648
[...]
   0.136E+02 0.553E+02 -.310E+02   -.130E+02 -.536E+02 0.321E+02   -.520E+00 -.150E+01 -.111E+01
   0.101E+02 0.464E+02 -.375E+02   -.975E+01 -.439E+02 0.391E+02   -.291E+00 -.222E+01 -.151E+01
   -.136E+02 0.553E+02 -.310E+02   0.130E+02 -.536E+02 0.321E+02   0.520E+00 -.150E+01 -.111E+01
   -.101E+02 0.464E+02 -.375E+02   0.975E+01 -.439E+02 0.391E+02   0.291E+00 -.222E+01 -.151E+01
   0.553E-04 -.265E+01 0.576E+02   0.326E-10 0.100E+02 -.603E+02   0.000E+00 -.620E+01 0.245E+01
   -.276E-04 -.414E+02 -.583E+02   0.294E-10 0.497E+02 0.591E+02   0.000E+00 -.705E+01 -.720E+00
   0.259E+02 -.159E+02 0.286E+02   -.264E+02 0.237E+02 -.326E+02   0.402E+00 -.661E+01 0.338E+01
   0.154E+02 -.217E+02 -.811E+00   -.147E+02 0.295E+02 -.270E+01   -.584E+00 -.655E+01 0.297E+01
   -.259E+02 -.159E+02 0.286E+02   0.264E+02 0.237E+02 -.326E+02   -.402E+00 -.661E+01 0.338E+01
   -.154E+02 -.217E+02 -.811E+00   0.147E+02 0.295E+02 -.270E+01   0.584E+00 -.655E+01 0.297E+01
   0.126E+02 0.687E+01 -.180E+02   -.148E+02 -.129E+02 0.221E+02   0.187E+01 0.507E+01 -.348E+01
   -.641E+01 0.114E+02 -.122E+02   0.659E+01 -.187E+02 0.158E+02   -.151E+00 0.619E+01 -.308E+01
   -.126E+02 0.687E+01 -.180E+02   0.148E+02 -.129E+02 0.221E+02   -.187E+01 0.507E+01 -.348E+01
   0.641E+01 0.114E+02 -.122E+02   -.659E+01 -.187E+02 0.158E+02   0.151E+00 0.619E+01 -.308E+01
   0.114E-04 0.190E+02 -.108E+02   0.313E-10 -.262E+02 0.142E+02   0.000E+00 0.609E+01 -.285E+01
   0.105E-04 0.957E+01 -.143E+02   0.325E-10 -.166E+02 0.184E+02   0.000E+00 0.594E+01 -.345E+01
   -.285E-05 0.501E+02 -.184E+02   0.211E-10 -.547E+02 0.293E+02   0.000E+00 0.388E+01 -.922E+01
   0.691E-05 0.533E+02 0.440E+02   0.207E-10 -.514E+02 -.392E+02   0.000E+00 -.168E+01 -.404E+01
   0.114E+02 0.474E+02 0.365E+02   -.119E+02 -.444E+02 -.317E+02   0.429E+00 -.249E+01 -.409E+01
   0.414E+01 0.502E+02 0.452E+02   -.418E+01 -.479E+02 -.407E+02   0.374E-01 -.197E+01 -.385E+01
   -.114E+02 0.474E+02 0.365E+02   0.119E+02 -.444E+02 -.317E+02   -.429E+00 -.249E+01 -.409E+01
   -.414E+01 0.502E+02 0.452E+02   0.418E+01 -.479E+02 -.407E+02   -.374E-01 -.197E+01 -.385E+01
   -.804E+02 -.112E+03 0.176E+02   0.847E+02 0.110E+03 -.250E+02   -.363E+01 0.119E+01 0.629E+01
   -.824E+01 -.789E+02 -.344E+02   0.831E+01 0.764E+02 0.296E+02   -.596E-01 0.212E+01 0.410E+01
   0.804E+02 -.112E+03 0.176E+02   -.847E+02 0.110E+03 -.250E+02   0.363E+01 0.119E+01 0.629E+01
   0.824E+01 -.789E+02 -.344E+02   -.831E+01 0.764E+02 0.296E+02   0.596E-01 0.212E+01 0.410E+01
   0.203E-04 -.815E+02 -.365E+02   0.261E-10 0.791E+02 0.325E+02   0.000E+00 0.208E+01 0.338E+01
   -.180E-04 -.752E+02 -.368E+02   0.284E-10 0.732E+02 0.324E+02   0.000E+00 0.176E+01 0.373E+01
   0.465E+01 0.618E+02 0.400E+02   -.960E+01 -.757E+02 -.376E+02   0.420E+01 0.118E+02 -.201E+01
   -.123E+02 0.104E+03 0.770E+02   0.124E+02 -.115E+03 -.734E+02   -.655E-01 0.101E+02 -.308E+01
   -.465E+01 0.618E+02 0.400E+02   0.960E+01 -.757E+02 -.376E+02   -.420E+01 0.118E+02 -.201E+01
   0.123E+02 0.104E+03 0.770E+02   -.124E+02 -.115E+03 -.734E+02   0.655E-01 0.101E+02 -.308E+01
   0.638E-05 0.104E+03 0.628E+02   0.231E-10 -.117E+03 -.589E+02   0.000E+00 0.112E+02 -.334E+01
   0.276E-04 0.112E+03 0.700E+02   0.428E-10 -.125E+03 -.670E+02   0.000E+00 0.105E+02 -.250E+01
   -.159E-05 -.149E+03 -.377E+02   0.283E-10 0.162E+03 0.336E+02   0.000E+00 -.108E+02 0.347E+01
   0.900E-05 -.133E+03 -.504E+02   0.153E-10 0.146E+03 0.468E+02   0.000E+00 -.110E+02 0.307E+01
   0.314E+01 -.138E+03 -.602E+02   -.281E+01 0.151E+03 0.565E+02   -.282E+00 -.110E+02 0.315E+01
   0.150E+01 -.124E+03 -.578E+02   -.166E+01 0.136E+03 0.545E+02   0.134E+00 -.103E+02 0.280E+01
   -.314E+01 -.138E+03 -.602E+02   0.281E+01 0.151E+03 0.565E+02   0.282E+00 -.110E+02 0.315E+01
   -.150E+01 -.124E+03 -.578E+02   0.166E+01 0.136E+03 0.545E+02   -.134E+00 -.103E+02 0.280E+01
   -.698E+01 -.182E+02 0.181E+02   0.703E+01 0.250E+02 -.222E+02   -.423E-01 -.570E+01 0.344E+01
   -.162E+01 -.182E+02 0.168E+02   0.148E+01 0.254E+02 -.206E+02   0.121E+00 -.611E+01 0.322E+01
   0.698E+01 -.182E+02 0.181E+02   -.703E+01 0.250E+02 -.222E+02   0.423E-01 -.570E+01 0.344E+01
   0.162E+01 -.182E+02 0.168E+02   -.148E+01 0.254E+02 -.206E+02   -.121E+00 -.611E+01 0.322E+01
   0.297E-05 -.195E+02 0.149E+02   0.116E-10 0.274E+02 -.185E+02   0.000E+00 -.668E+01 0.310E+01
   -.723E-05 -.219E+02 0.135E+02   0.317E-10 0.294E+02 -.172E+02   0.000E+00 -.630E+01 0.319E+01
   -.886E-05 0.207E+02 -.175E+02   0.347E-10 -.280E+02 0.221E+02   0.000E+00 0.618E+01 -.388E+01
   0.646E+02 0.540E+02 -.180E+02   -.667E+02 -.635E+02 0.211E+02   0.180E+01 0.808E+01 -.259E+01
   0.913E+01 0.213E+02 -.144E+02   -.932E+01 -.287E+02 0.184E+02   0.160E+00 0.627E+01 -.340E+01
   -.646E+02 0.540E+02 -.180E+02   0.667E+02 -.635E+02 0.211E+02   -.180E+01 0.808E+01 -.259E+01
   -.913E+01 0.213E+02 -.144E+02   0.932E+01 -.287E+02 0.184E+02   -.160E+00 0.627E+01 -.340E+01
   -.474E+02 0.131E+03 0.362E+02   0.490E+02 -.132E+03 -.317E+02   -.142E+01 0.503E+00 -.381E+01
   -.144E+02 0.853E+02 0.257E+02   0.148E+02 -.832E+02 -.211E+02   -.297E+00 -.183E+01 -.387E+01
   0.474E+02 0.131E+03 0.362E+02   -.490E+02 -.132E+03 -.317E+02   0.142E+01 0.503E+00 -.381E+01
   0.144E+02 0.853E+02 0.257E+02   -.148E+02 -.832E+02 -.211E+02   0.297E+00 -.183E+01 -.387E+01
   0.140E-04 0.885E+02 0.268E+02   0.740E-11 -.868E+02 -.219E+02   0.000E+00 -.142E+01 -.415E+01
   -.477E-05 0.812E+02 0.403E+02   0.113E-10 -.791E+02 -.365E+02   0.000E+00 -.173E+01 -.317E+01
   0.260E-05 -.470E+02 -.330E+02   0.132E-10 0.455E+02 0.273E+02   0.000E+00 0.122E+01 0.479E+01
   0.691E-05 -.556E+02 -.414E+02   0.187E-10 0.540E+02 0.366E+02   0.000E+00 0.137E+01 0.407E+01
   0.430E+01 -.555E+02 -.402E+02   -.438E+01 0.532E+02 0.353E+02   0.753E-01 0.198E+01 0.416E+01
   0.492E+01 -.624E+02 -.389E+02   -.477E+01 0.609E+02 0.346E+02   -.131E+00 0.124E+01 0.370E+01
   -.430E+01 -.555E+02 -.402E+02   0.438E+01 0.532E+02 0.353E+02   -.753E-01 0.198E+01 0.416E+01
   -.492E+01 -.624E+02 -.389E+02   0.477E+01 0.609E+02 0.346E+02   0.131E+00 0.124E+01 0.370E+01
   -.147E-04 0.148E+03 0.508E+02   0.242E-10 -.160E+03 -.467E+02   0.000E+00 0.996E+01 -.349E+01
   0.667E-05 0.135E+03 0.614E+02   0.234E-10 -.148E+03 -.578E+02   0.000E+00 0.111E+02 -.306E+01
   0.439E+01 0.124E+03 0.600E+02   -.432E+01 -.136E+03 -.563E+02   -.620E-01 0.106E+02 -.311E+01
   0.644E+01 0.134E+03 0.630E+02   -.658E+01 -.148E+03 -.596E+02   0.124E+00 0.111E+02 -.292E+01
   -.439E+01 0.124E+03 0.600E+02   0.432E+01 -.136E+03 -.563E+02   0.620E-01 0.106E+02 -.311E+01
   -.644E+01 0.134E+03 0.630E+02   0.658E+01 -.148E+03 -.596E+02   -.124E+00 0.111E+02 -.292E+01
   -.836E+01 -.917E+02 -.578E+02   0.785E+01 0.104E+03 0.542E+02   0.433E+00 -.102E+02 0.303E+01
   -.448E+02 -.791E+02 -.921E+02   0.460E+02 0.923E+02 0.877E+02   -.103E+01 -.112E+02 0.369E+01
   0.836E+01 -.917E+02 -.578E+02   -.785E+01 0.104E+03 0.542E+02   -.433E+00 -.102E+02 0.303E+01
   0.448E+02 -.791E+02 -.921E+02   -.460E+02 0.923E+02 0.877E+02   0.103E+01 -.112E+02 0.369E+01
   -.226E-05 -.106E+03 -.650E+02   0.131E-10 0.118E+03 0.618E+02   0.000E+00 -.108E+02 0.268E+01
   0.185E-04 -.103E+03 -.691E+02   0.838E-11 0.116E+03 0.658E+02   0.000E+00 -.110E+02 0.286E+01
   -.201E-04 0.510E+00 -.147E+02   0.914E-11 -.142E+01 0.116E+02   0.000E+00 0.841E+00 0.275E+01
 -----------------------------------------------------------------------------------------------
   0.779E-05 -.116E+02 0.599E+01   0.387E-13 0.137E-11 -.956E-12   0.444E-15 0.107E+02 -.596E+01
 
 
 POSITION                                       TOTAL-FORCE (eV/Angst)
 -----------------------------------------------------------------------------------
      9.11109      7.65335     -1.73425        -0.069827      0.136621      0.018594
      9.13895      6.26961     -7.42507        -0.018915      0.074718      0.017569
      3.07918      7.65335     -1.73425         0.069827      0.136621      0.018594
      3.05132      6.26961     -7.42507         0.018915      0.074718      0.017569
      6.09513      7.66118     -1.75844         0.000000      0.054387     -0.007298
      6.09513      6.26519     -7.42862         0.000000      0.075073      0.038578
      1.52378      9.03322     -4.08283         0.000000     -0.428323     -0.004196
      1.52378      7.99133     -9.53552         0.000000     -0.054797     -0.020579
      4.58225      9.38622     -3.85400         0.036117     -0.129854      0.048210
      4.57414      7.99599     -9.53486        -0.000994     -0.074090     -0.020013
      7.60802      9.38622     -3.85400        -0.036117     -0.129854      0.048210
      7.61613      7.99599     -9.53486         0.000994     -0.074090     -0.020013
      1.52378      6.06155     -4.51549         0.000000     -0.003566      0.040602
      1.52378      4.77618    -10.14719         0.000000     -0.026720      0.011801
      4.58614      6.18802     -4.50137         0.005643     -0.040856      0.038114
      4.57552      4.76043    -10.12259         0.007184     -0.007190     -0.019326
      7.60413      6.18802     -4.50137        -0.005643     -0.040856      0.038114
      7.61474      4.76043    -10.12259        -0.007184     -0.007190     -0.019326
      9.11243     10.84686     -1.17298         0.001320      0.028008     -0.008025
      9.12179      9.49157     -6.81567        -0.034496     -0.024183     -0.005664
      3.07784     10.84686     -1.17298        -0.001320      0.028008     -0.008025
      3.06848      9.49157     -6.81567         0.034496     -0.024183     -0.005664
      6.09513     10.90296     -1.17061         0.000000      0.009031     -0.025520
      6.09513      9.49151     -6.78693         0.000000      0.013381      0.002166
      1.52378      1.56790     -1.77649         0.000000      0.093209      0.061625
      1.52378      0.15828     -7.41202         0.000000      0.122991     -0.031597
      4.57635      1.54671     -1.76689        -0.022994      0.071460     -0.015254
      4.58319      0.14517     -7.45578        -0.005415      0.105405      0.009131
      7.61392      1.54671     -1.76689         0.022994      0.071460     -0.015254
      7.60708      0.14517     -7.45578         0.005415      0.105405      0.009131
      9.12655      3.26804     -3.87080        -0.022968     -0.096158      0.008113
      0.00027      1.85493     -9.53022        -0.000641     -0.064529     -0.005870
      3.06372      3.26804     -3.87080         0.022968     -0.096158      0.008113
      3.04730      1.85493     -9.53022         0.000641     -0.064529     -0.005870
      6.09513      3.25850     -3.87652         0.000000     -0.055711      0.010411
      6.09513      1.85366     -9.54445         0.000000     -0.054996      0.007411
      9.00619      0.15568     -4.54355        -0.264763      0.145558     -0.010982
      0.00217     -1.36602    -10.14381         0.013649     -0.034374      0.009485
      3.18408      0.15568     -4.54355         0.264763      0.145558     -0.010982
      3.04540     -1.36602    -10.14381        -0.013649     -0.034374      0.009485
      6.09513      0.05811     -4.52162         0.000000     -0.119462      0.026700
      6.09513     -1.37827    -10.14799         0.000000     -0.013314      0.012552
      1.52378      4.75515     -1.13927         0.000000      0.024517     -0.028652
      1.52378      3.34942     -6.80712         0.000000      0.032992     -0.030785
      4.57657      4.75242     -1.14860         0.008485      0.022493     -0.034316
      4.57296      3.34263     -6.80998         0.007597      0.036054     -0.016527
      7.61370      4.75242     -1.14860        -0.008485      0.022493     -0.034316
      7.61731      3.34263     -6.80998        -0.007597      0.036054     -0.016527
      1.52378     11.86842     -1.48140         0.000000     -0.217254      0.107421
      1.52378     10.52271     -6.95190         0.000000     -0.241468     -0.046872
      4.56795     11.90436     -1.45137         0.025790     -0.207290      0.137351
      4.57646     10.51259     -7.08576        -0.016379     -0.196075      0.115297
      7.62232     11.90436     -1.45137        -0.025790     -0.207290      0.137351
      7.61381     10.51259     -7.08576         0.016379     -0.196075      0.115297
      9.11111      5.15290     -4.21324         0.081380      0.136573     -0.140252
      0.00499      3.76786     -9.86341        -0.007809      0.181465     -0.119725
      3.07916      5.15290     -4.21324        -0.081380      0.136573     -0.140252
      3.04258      3.76786     -9.86341         0.007809      0.181465     -0.119725
      6.09513      5.15887     -4.23030         0.000000      0.186556     -0.118183
      6.09513      3.75983     -9.84277         0.000000      0.173935     -0.133771
      1.52378      7.39225     -3.17020         0.000000      0.175711     -0.357307
      1.52378      6.10028     -8.82289         0.000000     -0.043681     -0.122548
      4.59407      7.46173     -3.14897         0.014337     -0.075365     -0.127521
      4.57104      6.10577     -8.82571         0.003756     -0.054894     -0.113567
      7.59620      7.46173     -3.14897        -0.014337     -0.075365     -0.127521
      7.61922      6.10577     -8.82571        -0.003756     -0.054894     -0.113567
      9.02369      9.48392     -2.42710        -0.160096     -0.004796      0.210485
      0.00728      8.17308     -8.13844        -0.008453      0.058132      0.133461
      3.16658      9.48392     -2.42710         0.160096     -0.004796      0.210485
      3.04029      8.17308     -8.13844         0.008453      0.058132      0.133461
      6.09513      9.55984     -2.47064         0.000000      0.063434      0.101009
      6.09513      8.17705     -8.12934         0.000000      0.045517      0.114055
      9.04497      8.81510     -5.09445         0.200555      0.476529     -0.048554
      0.00279      7.61906    -10.69333        -0.018530      0.399271     -0.072052
      3.14530      8.81510     -5.09445        -0.200555      0.476529     -0.048554
      3.04477      7.61906    -10.69333         0.018530      0.399271     -0.072052
      6.09513      8.95970     -5.02561         0.000000      0.457075     -0.097068
      6.09513      7.62787    -10.69703         0.000000      0.421616     -0.061435
      1.52378      8.05084     -0.61838         0.000000     -0.446621      0.119333
      1.52378      6.64680     -6.26122         0.000000     -0.442480      0.089728
      4.59238      8.03643     -0.57874        -0.020157     -0.442739      0.091125
      4.57787      6.64422     -6.28135         0.001879     -0.411849      0.066844
      7.59789      8.03643     -0.57874         0.020157     -0.442739      0.091125
      7.61240      6.64422     -6.28135        -0.001879     -0.411849      0.066844
      9.14137      5.74865     -1.42456        -0.003375     -0.173144      0.138206
      9.14095      4.35273     -7.09270         0.008313     -0.187466      0.130044
      3.04890      5.74865     -1.42456         0.003375     -0.173144      0.138206
      3.04932      4.35273     -7.09270        -0.008313     -0.187466      0.130044
      6.09513      5.75263     -1.41349         0.000000     -0.211503      0.124827
      6.09513      4.34791     -7.09690         0.000000     -0.192300      0.118422
      1.52378     -2.36674     -9.83597         0.000000      0.198581     -0.140594
      4.62392     -0.98279     -4.26186         0.045744      0.302436     -0.113376
      4.56754     -2.36819     -9.85929         0.011446      0.186595     -0.129598
      7.56635     -0.98279     -4.26186        -0.045744      0.302436     -0.113376
      7.62273     -2.36819     -9.85929        -0.011446      0.186595     -0.129598
      9.09462      1.43024     -3.15149        -0.046104      0.034988     -0.149807
      0.00990     -0.05026     -8.81478        -0.015768     -0.041154     -0.108137
      3.09565      1.43024     -3.15149         0.046104      0.034988     -0.149807
      3.03767     -0.05026     -8.81478         0.015768     -0.041154     -0.108137
      6.09513      1.36251     -3.17381         0.000000     -0.038431     -0.145651
      6.09513     -0.04459     -8.83551         0.000000     -0.037937     -0.084134
      1.52378      3.44993     -2.47432         0.000000      0.020599      0.149469
      1.52378      2.03728     -8.14227         0.000000      0.031262      0.129366
      4.59331      3.44542     -2.47315        -0.005907      0.039457      0.123076
      4.57620      2.04004     -8.15867        -0.008180      0.017592      0.116394
      7.59696      3.44542     -2.47315         0.005907      0.039457      0.123076
      7.61407      2.04004     -8.15867         0.008180      0.017592      0.116394
      1.52378      2.88322     -5.02454         0.000000      0.397635     -0.103312
      1.52378      1.45272    -10.68220         0.000000      0.452018     -0.078344
      4.57587      2.83480     -5.03861        -0.002965      0.431035     -0.089530
      4.56538      1.44783    -10.68928         0.010456      0.456686     -0.073228
      7.61440      2.83480     -5.03861         0.002965      0.431035     -0.089530
      7.62489      1.44783    -10.68928        -0.010456      0.456686     -0.073228
      0.00866      1.91084     -0.60802         0.006355     -0.403720      0.080464
      9.10757      0.62508     -6.31531        -0.035805     -0.464119      0.129992
      3.03890      1.91084     -0.60802        -0.006355     -0.403720      0.080464
      3.08269      0.62508     -6.31531         0.035805     -0.464119      0.129992
      6.09513      1.91689     -0.60822         0.000000     -0.433511      0.068735
      6.09513      0.57129     -6.29436         0.000000     -0.454680      0.091965
      1.52378     11.21378     -3.86745         0.000000      0.052772     -0.189591
 -----------------------------------------------------------------------------------
    total drift:                                0.000008      0.137294      0.016775


--------------------------------------------------------------------------------------------------------



  FREE ENERGIE OF THE ION-ELECTRON SYSTEM (eV)
  ---------------------------------------------------
  free  energy   TOTEN  =      -980.60818362 eV

  energy  without entropy=     -980.58805127  energy(sigma->0) =     -980.59811744
 


--------------------------------------------------------------------------------------------------------


    POTLOK:  cpu time      1.9368: real time      1.9446


--------------------------------------------------------------------------------------------------------


 writing wavefunctions
     LOOP+:  cpu time  18466.6018: real time  18464.4690
    4ORBIT:  cpu time      0.0000: real time      0.0000

 total amount of memory used by VASP MPI-rank0  7512547. kBytes
=======================================================================

   base      :      30000. kBytes
   nonlr-proj:      47172. kBytes
   fftplans  :      51012. kBytes
   grid      :     102973. kBytes
   one-center:       1866. kBytes
   HF        :        194. kBytes
   wavefun   :    7050060. kBytes
   fock_wrk  :     229270. kBytes
 
  
  
 General timing and accounting informations for this job:
 ========================================================
  
                  Total CPU time used (sec):    18498.338
                            User time (sec):    18479.828
                          System time (sec):       18.510
                         Elapsed time (sec):    18497.921
  
                   Maximum memory used (kb):    13314496.
                   Average memory used (kb):          N/A
  
                          Minor page faults:      7391068
                          Major page faults:            5
                 Voluntary context switches:       339166
