<?xml version="1.0" encoding="ISO-8859-1"?>
<modeling>
 <generator>
  <i name="program" type="string">vasp </i>
  <i name="version" type="string">6.4.2  </i>
  <i name="subversion" type="string">20Jul23 (build Nov 12 2023 22:16:35) complex                          parallel </i>
  <i name="platform" type="string">LinuxNV </i>
  <i name="date" type="string">2025 03 11 </i>
  <i name="time" type="string">11:17:19 </i>
 </generator>
 <incar>
  <i type="int" name="ISTART">     0</i>
  <i type="string" name="PREC">Normal</i>
  <i type="string" name="ALGO">All</i>
  <i type="int" name="ISPIN">     1</i>
  <i type="int" name="ICHARG">     0</i>
  <i type="int" name="NELM">   500</i>
  <i type="int" name="IBRION">    -1</i>
  <i name="EDIFF">      0.00001000</i>
  <i name="EDIFFG">     -0.00500000</i>
  <i type="int" name="NSW">     0</i>
  <i type="int" name="ISIF">     2</i>
  <i name="ENCUT">    450.00000000</i>
  <i type="string" name="LREAL">Auto</i>
  <i type="logical" name="LPLANE"> T  </i>
  <i name="TIME">      0.40000000</i>
  <i type="int" name="ISMEAR">     0</i>
  <i name="SIGMA">      0.05000000</i>
  <i type="logical" name="LWAVE"> T  </i>
  <i type="logical" name="LCHARG"> T  </i>
  <i name="HFSCREEN">      0.18000000</i>
  <i type="logical" name="LHFCALC"> T  </i>
  <i type="int" name="LMAXFOCK">     4</i>
  <i name="AEXX">      0.35000000</i>
  <i type="string" name="PRECFOCK">Fast</i>
 </incar>
 <primitive_cell>
  <structure name="primitive_cell" >
   <crystal>
    <varray name="basis" >
     <v>       0.00000000      12.28047342       0.00000000 </v>
     <v>       9.14270205       0.00000000       0.00000000 </v>
     <v>       0.00000000      -2.76826177     -11.30069772 </v>
    </varray>
    <i name="volume">   1268.80515525 </i>
    <varray name="rec_basis" >
     <v>       0.00000000       0.08143009      -0.01994742 </v>
     <v>       0.10937686      -0.00000000       0.00000000 </v>
     <v>       0.00000000       0.00000000      -0.08849011 </v>
    </varray>
   </crystal>
   <varray name="positions" >
    <v>       0.65780646       0.99654228       0.15346391 </v>
    <v>       0.65864618       0.99958986       0.65704571 </v>
    <v>       0.65780646       0.33679106       0.15346391 </v>
    <v>       0.65864618       0.33374347       0.65704571 </v>
    <v>       0.65892656       0.66666667       0.15560438 </v>
    <v>       0.65835640       0.66666667       0.65735927 </v>
    <v>       0.81701740       0.16666667       0.36128987 </v>
    <v>       0.84094386       0.16666667       0.84379936 </v>
    <v>       0.84119762       0.50119237       0.34104058 </v>
    <v>       0.84130993       0.50030512       0.84374081 </v>
    <v>       0.84119762       0.83214096       0.34104058 </v>
    <v>       0.84130993       0.83302821       0.84374081 </v>
    <v>       0.58366510       0.16666667       0.39957654 </v>
    <v>       0.59133529       0.16666667       0.89792622 </v>
    <v>       0.59368183       0.50161742       0.39832667 </v>
    <v>       0.58956149       0.50045648       0.89574874 </v>
    <v>       0.59368183       0.83171591       0.39832667 </v>
    <v>       0.58956149       0.83287685       0.89574874 </v>
    <v>       0.90665825       0.99668894       0.10379688 </v>
    <v>       0.90885467       0.99771244       0.60311919 </v>
    <v>       0.90665825       0.33664439       0.10379688 </v>
    <v>       0.90885467       0.33562089       0.60311919 </v>
    <v>       0.91117982       0.66666667       0.10358728 </v>
    <v>       0.90827646       0.66666667       0.60057648 </v>
    <v>       0.16311024       0.16666667       0.15720174 </v>
    <v>       0.16073989       0.16666667       0.65589088 </v>
    <v>       0.16119380       0.50054641       0.15635205 </v>
    <v>       0.16054521       0.50129492       0.65976285 </v>
    <v>       0.16119380       0.83278692       0.15635205 </v>
    <v>       0.16054521       0.83203842       0.65976285 </v>
    <v>       0.34332937       0.99823312       0.34252791 </v>
    <v>       0.34115055       0.00002935       0.84333019 </v>
    <v>       0.34332937       0.33510021       0.34252791 </v>
    <v>       0.34115055       0.33330398       0.84333019 </v>
    <v>       0.34266645       0.66666667       0.34303399 </v>
    <v>       0.34133115       0.66666667       0.84458967 </v>
    <v>       0.10330920       0.98506863       0.40205921 </v>
    <v>       0.09110760       0.00023728       0.89762644 </v>
    <v>       0.10330920       0.34826470       0.40205921 </v>
    <v>       0.09110760       0.33309606       0.89762644 </v>
    <v>       0.09492625       0.66666667       0.40011869 </v>
    <v>       0.09019358       0.66666667       0.89799719 </v>
    <v>       0.40993775       0.16666667       0.10081447 </v>
    <v>       0.40852816       0.16666667       0.60236263 </v>
    <v>       0.40990114       0.50057030       0.10163938 </v>
    <v>       0.40803242       0.50017581       0.60261597 </v>
    <v>       0.40990114       0.83276304       0.10163938 </v>
    <v>       0.40803242       0.83315753       0.60261597 </v>
    <v>       0.99599637       0.16666667       0.13108926 </v>
    <v>       0.99553729       0.16666667       0.61517415 </v>
    <v>       0.99832432       0.49962843       0.12843201 </v>
    <v>       0.99738348       0.50055832       0.62702013 </v>
    <v>       0.99832432       0.83370490       0.12843201 </v>
    <v>       0.99738348       0.83277501       0.62702013 </v>
    <v>       0.50364409       0.99654438       0.37283025 </v>
    <v>       0.50356654       0.00054600       0.87281385 </v>
    <v>       0.50364409       0.33678895       0.37283025 </v>
    <v>       0.50356654       0.33278733       0.87281385 </v>
    <v>       0.50447074       0.66666667       0.37433990 </v>
    <v>       0.50250109       0.66666667       0.87098761 </v>
    <v>       0.66518874       0.16666667       0.28053128 </v>
    <v>       0.67274032       0.16666667       0.78073871 </v>
    <v>       0.67042295       0.50248504       0.27865252 </v>
    <v>       0.67324392       0.49996650       0.78098848 </v>
    <v>       0.67042295       0.83084830       0.27865252 </v>
    <v>       0.67324392       0.83336684       0.78098848 </v>
    <v>       0.82069054       0.98698298       0.21477394 </v>
    <v>       0.82787578       0.00079627       0.72017185 </v>
    <v>       0.82069054       0.34635036       0.21477394 </v>
    <v>       0.82787578       0.33253707       0.72017185 </v>
    <v>       0.82774176       0.66666667       0.21862744 </v>
    <v>       0.82801690       0.66666667       0.71936636 </v>
    <v>       0.81943570       0.98931007       0.45080854 </v>
    <v>       0.83372477       0.00030546       0.94625392 </v>
    <v>       0.81943570       0.34402326       0.45080854 </v>
    <v>       0.83372477       0.33302788       0.94625392 </v>
    <v>       0.82983692       0.66666667       0.44471720 </v>
    <v>       0.83451628       0.66666667       0.94658095 </v>
    <v>       0.66791551       0.16666667       0.05472037 </v>
    <v>       0.66614489       0.16666667       0.55405567 </v>
    <v>       0.66595148       0.50229955       0.05121293 </v>
    <v>       0.66633574       0.50071276       0.55583721 </v>
    <v>       0.66595148       0.83103378       0.05121293 </v>
    <v>       0.66633574       0.83262058       0.55583721 </v>
    <v>       0.49652927       0.99985401       0.12605922 </v>
    <v>       0.49592415       0.99980805       0.62763394 </v>
    <v>       0.49652927       0.33347932       0.12605922 </v>
    <v>       0.49592415       0.33352528       0.62763394 </v>
    <v>       0.49663284       0.66666667       0.12507975 </v>
    <v>       0.49561597       0.66666667       0.62800556 </v>
    <v>       0.00347870       0.16666667       0.87038646 </v>
    <v>       0.00498447       0.50574969       0.37713269 </v>
    <v>       0.00382536       0.49958358       0.87244949 </v>
    <v>       0.00498447       0.82758364       0.37713269 </v>
    <v>       0.00382536       0.83374975       0.87244949 </v>
    <v>       0.17932849       0.99474130       0.27887582 </v>
    <v>       0.17173988       0.00108260       0.78002123 </v>
    <v>       0.17932849       0.33859204       0.27887582 </v>
    <v>       0.17173988       0.33225073       0.78002123 </v>
    <v>       0.17425890       0.66666667       0.28085112 </v>
    <v>       0.17261514       0.66666667       0.78185565 </v>
    <v>       0.33028457       0.16666667       0.21895280 </v>
    <v>       0.32831287       0.16666667       0.72051040 </v>
    <v>       0.32989413       0.50240150       0.21884902 </v>
    <v>       0.32886482       0.50053032       0.72196137 </v>
    <v>       0.32989413       0.83093184       0.21884902 </v>
    <v>       0.32886482       0.83280301       0.72196137 </v>
    <v>       0.33500756       0.16666667       0.44462196 </v>
    <v>       0.33137760       0.16666667       0.94526937 </v>
    <v>       0.33134572       0.50049392       0.44586749 </v>
    <v>       0.33112075       0.49934736       0.94589580 </v>
    <v>       0.33134572       0.83283941       0.44586749 </v>
    <v>       0.33112075       0.83398598       0.94589580 </v>
    <v>       0.16772804       0.00094750       0.05380413 </v>
    <v>       0.17687405       0.99615787       0.55884211 </v>
    <v>       0.16772804       0.33238583       0.05380413 </v>
    <v>       0.17687405       0.33717546       0.55884211 </v>
    <v>       0.16822495       0.66666667       0.05382128 </v>
    <v>       0.17207681       0.66666667       0.55698859 </v>
    <v>       0.99028463       0.16666667       0.34223069 </v>
   </varray>
  </structure>
  <varray name="primitive_index" >
   <v type="int" >        1 </v>
   <v type="int" >        2 </v>
   <v type="int" >        3 </v>
   <v type="int" >        4 </v>
   <v type="int" >        5 </v>
   <v type="int" >        6 </v>
   <v type="int" >        7 </v>
   <v type="int" >        8 </v>
   <v type="int" >        9 </v>
   <v type="int" >       10 </v>
   <v type="int" >       11 </v>
   <v type="int" >       12 </v>
   <v type="int" >       13 </v>
   <v type="int" >       14 </v>
   <v type="int" >       15 </v>
   <v type="int" >       16 </v>
   <v type="int" >       17 </v>
   <v type="int" >       18 </v>
   <v type="int" >       19 </v>
   <v type="int" >       20 </v>
   <v type="int" >       21 </v>
   <v type="int" >       22 </v>
   <v type="int" >       23 </v>
   <v type="int" >       24 </v>
   <v type="int" >       25 </v>
   <v type="int" >       26 </v>
   <v type="int" >       27 </v>
   <v type="int" >       28 </v>
   <v type="int" >       29 </v>
   <v type="int" >       30 </v>
   <v type="int" >       31 </v>
   <v type="int" >       32 </v>
   <v type="int" >       33 </v>
   <v type="int" >       34 </v>
   <v type="int" >       35 </v>
   <v type="int" >       36 </v>
   <v type="int" >       37 </v>
   <v type="int" >       38 </v>
   <v type="int" >       39 </v>
   <v type="int" >       40 </v>
   <v type="int" >       41 </v>
   <v type="int" >       42 </v>
   <v type="int" >       43 </v>
   <v type="int" >       44 </v>
   <v type="int" >       45 </v>
   <v type="int" >       46 </v>
   <v type="int" >       47 </v>
   <v type="int" >       48 </v>
   <v type="int" >       49 </v>
   <v type="int" >       50 </v>
   <v type="int" >       51 </v>
   <v type="int" >       52 </v>
   <v type="int" >       53 </v>
   <v type="int" >       54 </v>
   <v type="int" >       55 </v>
   <v type="int" >       56 </v>
   <v type="int" >       57 </v>
   <v type="int" >       58 </v>
   <v type="int" >       59 </v>
   <v type="int" >       60 </v>
   <v type="int" >       61 </v>
   <v type="int" >       62 </v>
   <v type="int" >       63 </v>
   <v type="int" >       64 </v>
   <v type="int" >       65 </v>
   <v type="int" >       66 </v>
   <v type="int" >       67 </v>
   <v type="int" >       68 </v>
   <v type="int" >       69 </v>
   <v type="int" >       70 </v>
   <v type="int" >       71 </v>
   <v type="int" >       72 </v>
   <v type="int" >       73 </v>
   <v type="int" >       74 </v>
   <v type="int" >       75 </v>
   <v type="int" >       76 </v>
   <v type="int" >       77 </v>
   <v type="int" >       78 </v>
   <v type="int" >       79 </v>
   <v type="int" >       80 </v>
   <v type="int" >       81 </v>
   <v type="int" >       82 </v>
   <v type="int" >       83 </v>
   <v type="int" >       84 </v>
   <v type="int" >       85 </v>
   <v type="int" >       86 </v>
   <v type="int" >       87 </v>
   <v type="int" >       88 </v>
   <v type="int" >       89 </v>
   <v type="int" >       90 </v>
   <v type="int" >       91 </v>
   <v type="int" >       92 </v>
   <v type="int" >       93 </v>
   <v type="int" >       94 </v>
   <v type="int" >       95 </v>
   <v type="int" >       96 </v>
   <v type="int" >       97 </v>
   <v type="int" >       98 </v>
   <v type="int" >       99 </v>
   <v type="int" >      100 </v>
   <v type="int" >      101 </v>
   <v type="int" >      102 </v>
   <v type="int" >      103 </v>
   <v type="int" >      104 </v>
   <v type="int" >      105 </v>
   <v type="int" >      106 </v>
   <v type="int" >      107 </v>
   <v type="int" >      108 </v>
   <v type="int" >      109 </v>
   <v type="int" >      110 </v>
   <v type="int" >      111 </v>
   <v type="int" >      112 </v>
   <v type="int" >      113 </v>
   <v type="int" >      114 </v>
   <v type="int" >      115 </v>
   <v type="int" >      116 </v>
   <v type="int" >      117 </v>
   <v type="int" >      118 </v>
   <v type="int" >      119 </v>
   <v type="int" >      120 </v>
  </varray>
 </primitive_cell>
 <kpoints>
  <generation param="Gamma">
   <v type="int" name="divisions">       2        2        2 </v>
   <v name="usershift">      0.00000000       0.00000000       0.00000000 </v>
   <v name="genvec1">      0.50000000       0.00000000       0.00000000 </v>
   <v name="genvec2">      0.00000000       0.50000000       0.00000000 </v>
   <v name="genvec3">      0.00000000       0.00000000       0.50000000 </v>
   <v name="shift">      0.00000000       0.00000000       0.00000000 </v>
  </generation>
  <varray name="kpointlist" >
   <v>       0.00000000       0.00000000       0.00000000 </v>
   <v>       0.50000000       0.00000000       0.00000000 </v>
   <v>       0.00000000       0.50000000       0.00000000 </v>
   <v>       0.50000000       0.50000000       0.00000000 </v>
   <v>       0.00000000       0.00000000       0.50000000 </v>
   <v>       0.50000000       0.00000000       0.50000000 </v>
   <v>       0.00000000       0.50000000       0.50000000 </v>
   <v>       0.50000000       0.50000000       0.50000000 </v>
  </varray>
  <varray name="weights" >
   <v>       0.12500000 </v>
   <v>       0.12500000 </v>
   <v>       0.12500000 </v>
   <v>       0.12500000 </v>
   <v>       0.12500000 </v>
   <v>       0.12500000 </v>
   <v>       0.12500000 </v>
   <v>       0.12500000 </v>
  </varray>
 </kpoints>
 <parameters>
  <separator name="general" >
   <i type="string" name="SYSTEM">unknown system</i>
   <i type="logical" name="LCOMPAT"> F  </i>
  </separator>
  <separator name="electronic" >
   <i type="string" name="PREC">normal</i>
   <i name="ENMAX">    450.00000000</i>
   <i name="ENAUG">    605.39200000</i>
   <i name="EDIFF">      0.00001000</i>
   <i type="int" name="IALGO">    58</i>
   <i type="int" name="IWAVPR">    10</i>
   <i type="int" name="NBANDS">   633</i>
   <i type="int" name="NBANDSLOW">    -1</i>
   <i type="int" name="NBANDSHIGH">    -1</i>
   <i name="NELECT">   1055.00000000</i>
   <i type="int" name="TURBO">     0</i>
   <i type="int" name="IRESTART">     0</i>
   <i type="int" name="NREBOOT">     0</i>
   <i type="int" name="NMIN">     0</i>
   <i name="EREF">      0.00000000</i>
   <separator name="electronic smearing" >
    <i type="int" name="ISMEAR">     0</i>
    <i name="SIGMA">      0.05000000</i>
    <i name="KSPACING">      0.50000000</i>
    <i type="logical" name="KGAMMA"> T  </i>
    <i type="logical" name="KBLOWUP"> T  </i>
   </separator>
   <separator name="electronic projectors" >
    <i type="logical" name="LREAL"> T  </i>
    <v name="ROPT">     -0.00050000     -0.00050000     -0.00050000</v>
    <i type="int" name="LMAXPAW">  -100</i>
    <i type="int" name="LMAXMIX">     2</i>
    <i type="logical" name="NLSPLINE"> F  </i>
   </separator>
   <separator name="electronic startup" >
    <i type="int" name="ISTART">     0</i>
    <i type="int" name="ICHARG">     0</i>
    <i type="int" name="INIWAV">     1</i>
   </separator>
   <separator name="electronic spin" >
    <i type="int" name="ISPIN">     1</i>
    <i type="logical" name="LNONCOLLINEAR"> F  </i>
    <v name="MAGMOM">      1.00000000      1.00000000      1.00000000      1.00000000      1.00000000      1.00000000      1.00000000      1.00000000      1.00000000      1.00000000      1.00000000      1.00000000      1.00000000      1.00000000      1.00000000      1.00000000      1.00000000      1.00000000      1.00000000      1.00000000
      1.00000000      1.00000000      1.00000000      1.00000000      1.00000000      1.00000000      1.00000000      1.00000000      1.00000000      1.00000000      1.00000000      1.00000000      1.00000000      1.00000000      1.00000000      1.00000000      1.00000000      1.00000000      1.00000000      1.00000000
      1.00000000      1.00000000      1.00000000      1.00000000      1.00000000      1.00000000      1.00000000      1.00000000      1.00000000      1.00000000      1.00000000      1.00000000      1.00000000      1.00000000      1.00000000      1.00000000      1.00000000      1.00000000      1.00000000      1.00000000
      1.00000000      1.00000000      1.00000000      1.00000000      1.00000000      1.00000000      1.00000000      1.00000000      1.00000000      1.00000000      1.00000000      1.00000000      1.00000000      1.00000000      1.00000000      1.00000000      1.00000000      1.00000000      1.00000000      1.00000000
      1.00000000      1.00000000      1.00000000      1.00000000      1.00000000      1.00000000      1.00000000      1.00000000      1.00000000      1.00000000      1.00000000      1.00000000      1.00000000      1.00000000      1.00000000      1.00000000      1.00000000      1.00000000      1.00000000      1.00000000
      1.00000000      1.00000000      1.00000000      1.00000000      1.00000000      1.00000000      1.00000000      1.00000000      1.00000000      1.00000000      1.00000000      1.00000000      1.00000000      1.00000000      1.00000000      1.00000000      1.00000000      1.00000000      1.00000000      1.00000000
</v>
    <i name="NUPDOWN">     -1.00000000</i>
    <i type="logical" name="LSORBIT"> F  </i>
    <v name="SAXIS">      0.00000000      0.00000000      1.00000000</v>
    <i type="logical" name="LSPIRAL"> F  </i>
    <v name="QSPIRAL">      0.00000000      0.00000000      0.00000000</v>
    <i type="logical" name="LZEROZ"> F  </i>
   </separator>
   <separator name="electronic exchange-correlation" >
    <i type="logical" name="LASPH"> F  </i>
    <i type="logical" name="LMETAGGA"> F  </i>
   </separator>
   <separator name="electronic convergence" >
    <i type="int" name="NELM">   500</i>
    <i type="int" name="NELMDL">    -5</i>
    <i type="int" name="NELMIN">     2</i>
    <i name="ENINI">    450.00000000</i>
    <separator name="electronic convergence detail" >
     <i type="logical" name="LDIAG"> T  </i>
     <i type="logical" name="LSUBROT"> F  </i>
     <i name="WEIMIN">      0.00000000</i>
     <i name="EBREAK">      0.00000000</i>
     <i name="DEPER">      0.30000000</i>
     <i type="int" name="NRMM">     4</i>
     <i name="TIME">      0.40000000</i>
    </separator>
   </separator>
   <separator name="electronic mixer" >
    <i name="AMIX">      0.40000000</i>
    <i name="BMIX">      1.00000000</i>
    <i name="AMIN">      0.10000000</i>
    <i name="AMIX_MAG">      1.60000000</i>
    <i name="BMIX_MAG">      1.00000000</i>
    <separator name="electronic mixer details" >
     <i type="int" name="IMIX">     4</i>
     <i type="logical" name="MIXFIRST"> F  </i>
     <i type="int" name="MAXMIX">   -45</i>
     <i name="WC">    100.00000000</i>
     <i type="int" name="INIMIX">     1</i>
     <i type="int" name="MIXPRE">     1</i>
     <i type="int" name="MREMOVE">     5</i>
    </separator>
   </separator>
   <separator name="electronic dipolcorrection" >
    <i type="logical" name="LDIPOL"> F  </i>
    <i type="logical" name="LMONO"> F  </i>
    <i type="int" name="IDIPOL">     0</i>
    <i name="EPSILON">      1.00000000</i>
    <v name="DIPOL">   -100.00000000   -100.00000000   -100.00000000</v>
    <i name="EFIELD">      0.00000000</i>
   </separator>
  </separator>
  <separator name="grids" >
   <i type="int" name="NGX">    64</i>
   <i type="int" name="NGY">    48</i>
   <i type="int" name="NGZ">    60</i>
   <i type="int" name="NGXF">   128</i>
   <i type="int" name="NGYF">    96</i>
   <i type="int" name="NGZF">   120</i>
   <i type="logical" name="ADDGRID"> F  </i>
  </separator>
  <separator name="ionic" >
   <i type="int" name="NSW">     0</i>
   <i type="int" name="IBRION">    -1</i>
   <i type="int" name="MDALGO">     0</i>
   <i type="int" name="ISIF">     2</i>
   <i name="PSTRESS">      0.00000000</i>
   <i name="EDIFFG">     -0.00500000</i>
   <i type="int" name="NFREE">     0</i>
   <i name="POTIM">      0.50000000</i>
   <i name="SMASS">     -3.00000000</i>
   <i name="SCALEE">      1.00000000</i>
  </separator>
  <separator name="ionic md" >
   <i name="TEBEG">      0.00010000</i>
   <i name="TEEND">      0.00010000</i>
   <i type="int" name="NBLOCK">     1</i>
   <i type="int" name="KBLOCK">     1</i>
   <i type="int" name="NPACO">   256</i>
   <i name="APACO">     10.00000000</i>
  </separator>
  <separator name="symmetry" >
   <i type="int" name="ISYM">     3</i>
   <i name="SYMPREC">      0.00001000</i>
  </separator>
  <separator name="dos" >
   <i type="int" name="LORBIT">     0</i>
   <v name="RWIGS">     -1.00000000     -1.00000000     -1.00000000</v>
   <i type="int" name="NEDOS">   301</i>
   <i name="EMIN">     10.00000000</i>
   <i name="EMAX">    -10.00000000</i>
   <i name="EFERMI">      0.00000000</i>
  </separator>
  <separator name="writing" >
   <i type="int" name="NWRITE">     2</i>
   <i type="logical" name="LWAVE"> T  </i>
   <i type="logical" name="LDOWNSAMPLE"> F  </i>
   <i type="logical" name="LCHARG"> T  </i>
   <i type="logical" name="LPARD"> F  </i>
   <i type="logical" name="LVTOT"> F  </i>
   <i type="logical" name="LVHAR"> F  </i>
   <i type="logical" name="LELF"> F  </i>
   <i type="logical" name="LOPTICS"> F  </i>
   <v name="STM">      0.00000000      0.00000000      0.00000000      0.00000000      0.00000000      0.00000000      0.00000000</v>
  </separator>
  <separator name="performance" >
   <i type="int" name="NPAR">     1</i>
   <i type="int" name="NSIM">     4</i>
   <i type="int" name="NBLK">    -1</i>
   <i type="logical" name="LPLANE"> T  </i>
   <i type="logical" name="LSCALAPACK"> T  </i>
   <i type="logical" name="LSCAAWARE"> F  </i>
   <i type="logical" name="LSCALU"> F  </i>
   <i type="logical" name="LASYNC"> F  </i>
   <i type="logical" name="LORBITALREAL"> F  </i>
  </separator>
  <separator name="miscellaneous" >
   <i type="int" name="IDIOT">     3</i>
   <i type="int" name="PHON_NSTRUCT">    -1</i>
   <i type="logical" name="LMUSIC"> F  </i>
   <v name="POMASS">     69.72300000     16.00000000     30.97400000</v>
   <v name="DARWINR">      0.00000000      0.00000000      0.00000000</v>
   <v name="DARWINV">      1.00000000      1.00000000      1.00000000</v>
   <i type="logical" name="LCORR"> T  </i>
  </separator>
  <i type="logical" name="GGA_COMPAT"> T  </i>
  <i type="logical" name="LBERRY"> F  </i>
  <i type="int" name="ICORELEVEL">     0</i>
  <i type="logical" name="LDAU"> F  </i>
  <i type="int" name="I_CONSTRAINED_M">     0</i>
  <separator name="electronic exchange-correlation" >
   <i type="string" name="GGA">--</i>
   <i type="int" name="VOSKOWN">     0</i>
   <i type="logical" name="LHFCALC"> T  </i>
   <i type="string" name="PRECFOCK">fast</i>
   <i type="logical" name="LSYMGRAD"> F  </i>
   <i type="logical" name="LHFONE"> F  </i>
   <i type="logical" name="LRHFCALC"> F  </i>
   <i type="logical" name="LTHOMAS"> F  </i>
   <i type="logical" name="LMODELHF"> F  </i>
   <i type="logical" name="LFOCKACE"> T  </i>
   <i name="ENCUT4O">     -1.00000000</i>
   <i type="int" name="EXXOEP">     0</i>
   <i type="int" name="FOURORBIT">     0</i>
   <i name="AEXX">      0.35000000</i>
   <i name="HFALPHA">     -1.00000000</i>
   <i name="MCALPHA">      0.00000000</i>
   <i name="ALDAX">      0.65000000</i>
   <i name="AGGAX">      0.65000000</i>
   <i name="ALDAC">      1.00000000</i>
   <i name="AGGAC">      1.00000000</i>
   <i type="int" name="NKREDX">     1</i>
   <i type="int" name="NKREDY">     1</i>
   <i type="int" name="NKREDZ">     1</i>
   <i type="logical" name="SHIFTRED"> F  </i>
   <i type="logical" name="ODDONLY"> F  </i>
   <i type="logical" name="EVENONLY"> F  </i>
   <i type="int" name="LMAXFOCK">     4</i>
   <i type="int" name="NMAXFOCKAE">     1</i>
   <i type="logical" name="LFOCKAEDFT"> F  </i>
   <i name="HFSCREEN">      0.18000000</i>
   <i name="HFSCREENC">      0.18000000</i>
   <i type="int" name="NBANDSGWLOW">     1</i>
  </separator>
  <separator name="vdW DFT" >
   <i type="logical" name="LUSE_VDW"> F  </i>
   <i type="int" name="IVDW_NL">     1</i>
   <i type="logical" name="LSPIN_VDW"> F  </i>
   <i name="Zab_VDW">     -0.84910000</i>
   <i name="PARAM1">      0.12340000</i>
   <i name="PARAM2">      1.00000000</i>
   <i name="PARAM3">      0.00000000</i>
  </separator>
  <separator name="model GW" >
   <i type="int" name="MODEL_GW">     0</i>
   <i name="MODEL_EPS0">      6.34402578</i>
   <i name="MODEL_ALPHA">      1.00000000</i>
  </separator>
  <separator name="linear response parameters" >
   <i type="logical" name="LEPSILON"> F  </i>
   <i type="logical" name="LRPA"> F  </i>
   <i type="logical" name="LNABLA"> F  </i>
   <i type="logical" name="LVEL"> F  </i>
   <i name="CSHIFT">      0.10000000</i>
   <i name="OMEGAMAX">     -1.00000000</i>
   <i name="DEG_THRESHOLD">      0.00200000</i>
   <i name="RTIME">     -0.10000000</i>
   <i name="WPLASMAI">      0.00000000</i>
   <v name="DFIELD">      0.00000000      0.00000000      0.00000000</v>
   <v name="WPLASMA">      0.00000000      0.00000000      0.00000000      0.00000000      0.00000000      0.00000000      0.00000000      0.00000000      0.00000000</v>
  </separator>
  <separator name="orbital magnetization" >
   <i type="logical" name="NUCIND"> F  </i>
   <v name="MAGPOS">      0.00000000      0.00000000      0.00000000</v>
   <i type="logical" name="LNICSALL"> T  </i>
   <i type="logical" name="ORBITALMAG"> F  </i>
   <i type="logical" name="LMAGBLOCH"> F  </i>
   <i type="logical" name="LCHIMAG"> F  </i>
   <i type="logical" name="LGAUGE"> T  </i>
   <i type="int" name="MAGATOM">     0</i>
   <v name="MAGDIPOL">      0.00000000      0.00000000      0.00000000</v>
   <v name="AVECCONST">      0.00000000      0.00000000      0.00000000</v>
  </separator>
  <separator name="response functions" >
   <i type="logical" name="LALL_IN_ONE"> F  </i>
   <i type="int" name="IALL_IN_ONE">    -1</i>
   <i type="int" name="NBANDS_WAVE">    -1</i>
   <i type="logical" name="LFINITE_TEMPERATURE"> F  </i>
   <i type="logical" name="LADDER"> F  </i>
   <i type="logical" name="LRPAFORCE"> F  </i>
   <i type="logical" name="LFXC"> F  </i>
   <i type="logical" name="LHARTREE"> T  </i>
   <i type="int" name="IBSE">     0</i>
   <v type="int" name="KPOINT">    -1     0     0     0</v>
   <i type="logical" name="LTCTC"> F  </i>
   <i type="logical" name="LTCTE"> F  </i>
   <i type="logical" name="LTETE"> F  </i>
   <i type="logical" name="LTRIPLET"> F  </i>
   <i type="logical" name="LFXCEPS"> F  </i>
   <i type="logical" name="LFXHEG"> F  </i>
   <i type="int" name="NATURALO">     2</i>
   <i type="logical" name="LHOLEGF"> F  </i>
   <i type="logical" name="L2ORDER"> F  </i>
   <i type="logical" name="LDMP1"> F  </i>
   <i type="logical" name="LMP2LT"> F  </i>
   <i type="logical" name="LSMP2LT"> F  </i>
   <i type="logical" name="LGWLF"> F  </i>
   <i name="ENCUTGW">     -1.60000002</i>
   <i name="ENCUTGWSOFT">     -1.60000002</i>
   <i name="ENCUTLF">     -1.00000000</i>
   <i type="logical" name="LESF_SPLINES"> F  </i>
   <i type="int" name="LMAXMP2">    -1</i>
   <i name="SCISSOR">      0.00000000</i>
   <i type="int" name="NOMEGA">     0</i>
   <i type="int" name="NOMEGAR">     0</i>
   <i type="int" name="NBANDSGW">    -1</i>
   <i type="int" name="NBANDSO">    -1</i>
   <i type="int" name="NBANDSV">    -1</i>
   <i type="int" name="NELMGW">     1</i>
   <i type="int" name="NELMHF">     1</i>
   <i type="int" name="DIM">     3</i>
   <i type="int" name="IESPILON">     4</i>
   <i type="int" name="ANTIRES">     0</i>
   <i name="OMEGAMAX">    -30.00000000</i>
   <i name="OMEGAMIN">    -30.00000000</i>
   <i name="OMEGATL">   -200.00000000</i>
   <i type="int" name="OMEGAGRID">     0</i>
   <i name="CSHIFT">     -0.10000000</i>
   <i type="logical" name="LSELFENERGY"> F  </i>
   <i type="logical" name="LSPECTRAL"> F  </i>
   <i type="logical" name="LSPECTRALGW"> F  </i>
   <i type="logical" name="LSINGLES"> F  </i>
   <i type="logical" name="LFERMIGW"> F  </i>
   <i type="logical" name="ODDONLYGW"> F  </i>
   <i type="logical" name="EVENONLYGW"> F  </i>
   <i type="int" name="NKREDLFX">     1</i>
   <i type="int" name="NKREDLFY">     1</i>
   <i type="int" name="NKREDLFZ">     1</i>
   <i type="int" name="MAXMEM">  2800</i>
   <i type="int" name="TELESCOPE">     0</i>
   <i type="int" name="NTAUPAR">    -1</i>
   <i type="int" name="NOMEGAPAR">    -1</i>
   <i name="DAMP_NEWTON">      0.80000001</i>
   <i name="LAMBDA">      1.00000000</i>
  </separator>
  <separator name="External order field" >
   <i name="OFIELD_KAPPA">      0.00000000</i>
   <v name="OFIELD_K">      0.00000000      0.00000000      0.00000000</v>
   <i name="OFIELD_Q6_NEAR">      0.00000000</i>
   <i name="OFIELD_Q6_FAR">      0.00000000</i>
   <i name="OFIELD_A">      0.00000000</i>
  </separator>
  <separator name="optional k-points parameters" >
   <i type="int" name="KPOINTS_OPT_MODE">     1</i>
   <i type="logical" name="LKPOINTS_OPT"> F  </i>
  </separator>
 </parameters>
 <atominfo>
  <atoms>     120 </atoms>
  <types>       3 </types>
  <array name="atoms" >
   <dimension dim="1">ion</dimension>
   <field type="string">element</field>
   <field type="int">atomtype</field>
   <set>
    <rc><c>Ga</c><c>   1</c></rc>
    <rc><c>Ga</c><c>   1</c></rc>
    <rc><c>Ga</c><c>   1</c></rc>
    <rc><c>Ga</c><c>   1</c></rc>
    <rc><c>Ga</c><c>   1</c></rc>
    <rc><c>Ga</c><c>   1</c></rc>
    <rc><c>Ga</c><c>   1</c></rc>
    <rc><c>Ga</c><c>   1</c></rc>
    <rc><c>Ga</c><c>   1</c></rc>
    <rc><c>Ga</c><c>   1</c></rc>
    <rc><c>Ga</c><c>   1</c></rc>
    <rc><c>Ga</c><c>   1</c></rc>
    <rc><c>Ga</c><c>   1</c></rc>
    <rc><c>Ga</c><c>   1</c></rc>
    <rc><c>Ga</c><c>   1</c></rc>
    <rc><c>Ga</c><c>   1</c></rc>
    <rc><c>Ga</c><c>   1</c></rc>
    <rc><c>Ga</c><c>   1</c></rc>
    <rc><c>Ga</c><c>   1</c></rc>
    <rc><c>Ga</c><c>   1</c></rc>
    <rc><c>Ga</c><c>   1</c></rc>
    <rc><c>Ga</c><c>   1</c></rc>
    <rc><c>Ga</c><c>   1</c></rc>
    <rc><c>Ga</c><c>   1</c></rc>
    <rc><c>Ga</c><c>   1</c></rc>
    <rc><c>Ga</c><c>   1</c></rc>
    <rc><c>Ga</c><c>   1</c></rc>
    <rc><c>Ga</c><c>   1</c></rc>
    <rc><c>Ga</c><c>   1</c></rc>
    <rc><c>Ga</c><c>   1</c></rc>
    <rc><c>Ga</c><c>   1</c></rc>
    <rc><c>Ga</c><c>   1</c></rc>
    <rc><c>Ga</c><c>   1</c></rc>
    <rc><c>Ga</c><c>   1</c></rc>
    <rc><c>Ga</c><c>   1</c></rc>
    <rc><c>Ga</c><c>   1</c></rc>
    <rc><c>Ga</c><c>   1</c></rc>
    <rc><c>Ga</c><c>   1</c></rc>
    <rc><c>Ga</c><c>   1</c></rc>
    <rc><c>Ga</c><c>   1</c></rc>
    <rc><c>Ga</c><c>   1</c></rc>
    <rc><c>Ga</c><c>   1</c></rc>
    <rc><c>Ga</c><c>   1</c></rc>
    <rc><c>Ga</c><c>   1</c></rc>
    <rc><c>Ga</c><c>   1</c></rc>
    <rc><c>Ga</c><c>   1</c></rc>
    <rc><c>Ga</c><c>   1</c></rc>
    <rc><c>Ga</c><c>   1</c></rc>
    <rc><c>O </c><c>   2</c></rc>
    <rc><c>O </c><c>   2</c></rc>
    <rc><c>O </c><c>   2</c></rc>
    <rc><c>O </c><c>   2</c></rc>
    <rc><c>O </c><c>   2</c></rc>
    <rc><c>O </c><c>   2</c></rc>
    <rc><c>O </c><c>   2</c></rc>
    <rc><c>O </c><c>   2</c></rc>
    <rc><c>O </c><c>   2</c></rc>
    <rc><c>O </c><c>   2</c></rc>
    <rc><c>O </c><c>   2</c></rc>
    <rc><c>O </c><c>   2</c></rc>
    <rc><c>O </c><c>   2</c></rc>
    <rc><c>O </c><c>   2</c></rc>
    <rc><c>O </c><c>   2</c></rc>
    <rc><c>O </c><c>   2</c></rc>
    <rc><c>O </c><c>   2</c></rc>
    <rc><c>O </c><c>   2</c></rc>
    <rc><c>O </c><c>   2</c></rc>
    <rc><c>O </c><c>   2</c></rc>
    <rc><c>O </c><c>   2</c></rc>
    <rc><c>O </c><c>   2</c></rc>
    <rc><c>O </c><c>   2</c></rc>
    <rc><c>O </c><c>   2</c></rc>
    <rc><c>O </c><c>   2</c></rc>
    <rc><c>O </c><c>   2</c></rc>
    <rc><c>O </c><c>   2</c></rc>
    <rc><c>O </c><c>   2</c></rc>
    <rc><c>O </c><c>   2</c></rc>
    <rc><c>O </c><c>   2</c></rc>
    <rc><c>O </c><c>   2</c></rc>
    <rc><c>O </c><c>   2</c></rc>
    <rc><c>O </c><c>   2</c></rc>
    <rc><c>O </c><c>   2</c></rc>
    <rc><c>O </c><c>   2</c></rc>
    <rc><c>O </c><c>   2</c></rc>
    <rc><c>O </c><c>   2</c></rc>
    <rc><c>O </c><c>   2</c></rc>
    <rc><c>O </c><c>   2</c></rc>
    <rc><c>O </c><c>   2</c></rc>
    <rc><c>O </c><c>   2</c></rc>
    <rc><c>O </c><c>   2</c></rc>
    <rc><c>O </c><c>   2</c></rc>
    <rc><c>O </c><c>   2</c></rc>
    <rc><c>O </c><c>   2</c></rc>
    <rc><c>O </c><c>   2</c></rc>
    <rc><c>O </c><c>   2</c></rc>
    <rc><c>O </c><c>   2</c></rc>
    <rc><c>O </c><c>   2</c></rc>
    <rc><c>O </c><c>   2</c></rc>
    <rc><c>O </c><c>   2</c></rc>
    <rc><c>O </c><c>   2</c></rc>
    <rc><c>O </c><c>   2</c></rc>
    <rc><c>O </c><c>   2</c></rc>
    <rc><c>O </c><c>   2</c></rc>
    <rc><c>O </c><c>   2</c></rc>
    <rc><c>O </c><c>   2</c></rc>
    <rc><c>O </c><c>   2</c></rc>
    <rc><c>O </c><c>   2</c></rc>
    <rc><c>O </c><c>   2</c></rc>
    <rc><c>O </c><c>   2</c></rc>
    <rc><c>O </c><c>   2</c></rc>
    <rc><c>O </c><c>   2</c></rc>
    <rc><c>O </c><c>   2</c></rc>
    <rc><c>O </c><c>   2</c></rc>
    <rc><c>O </c><c>   2</c></rc>
    <rc><c>O </c><c>   2</c></rc>
    <rc><c>O </c><c>   2</c></rc>
    <rc><c>O </c><c>   2</c></rc>
    <rc><c>O </c><c>   2</c></rc>
    <rc><c>O </c><c>   2</c></rc>
    <rc><c>P </c><c>   3</c></rc>
   </set>
  </array>
  <array name="atomtypes" >
   <dimension dim="1">type</dimension>
   <field type="int">atomspertype</field>
   <field type="string">element</field>
   <field>mass</field>
   <field>valence</field>
   <field type="string">pseudopotential</field>
   <set>
    <rc><c>  48</c><c>Ga</c><c>     69.72300000</c><c>     13.00000000</c><c>  PAW_PBE Ga_d 06Jul2010                </c></rc>
    <rc><c>  71</c><c>O </c><c>     16.00000000</c><c>      6.00000000</c><c>   PAW_PBE O 08Apr2002                  </c></rc>
    <rc><c>   1</c><c>P </c><c>     30.97400000</c><c>      5.00000000</c><c>  PAW_PBE P 06Sep2000                   </c></rc>
   </set>
  </array>
 </atominfo>
 <structure name="initialpos" >
  <crystal>
   <varray name="basis" >
    <v>       0.00000000      12.28047342       0.00000000 </v>
    <v>       9.14270205       0.00000000       0.00000000 </v>
    <v>       0.00000000      -2.76826177     -11.30069772 </v>
   </varray>
   <i name="volume">   1268.80515525 </i>
   <varray name="rec_basis" >
    <v>       0.00000000       0.08143009      -0.01994742 </v>
    <v>       0.10937686      -0.00000000       0.00000000 </v>
    <v>       0.00000000       0.00000000      -0.08849011 </v>
   </varray>
  </crystal>
  <varray name="positions" >
   <v>       0.65780646       0.99654228       0.15346391 </v>
   <v>       0.65864618       0.99958986       0.65704571 </v>
   <v>       0.65780646       0.33679106       0.15346391 </v>
   <v>       0.65864618       0.33374347       0.65704571 </v>
   <v>       0.65892656       0.66666667       0.15560438 </v>
   <v>       0.65835640       0.66666667       0.65735927 </v>
   <v>       0.81701740       0.16666667       0.36128987 </v>
   <v>       0.84094386       0.16666667       0.84379936 </v>
   <v>       0.84119762       0.50119237       0.34104058 </v>
   <v>       0.84130993       0.50030512       0.84374081 </v>
   <v>       0.84119762       0.83214096       0.34104058 </v>
   <v>       0.84130993       0.83302821       0.84374081 </v>
   <v>       0.58366510       0.16666667       0.39957654 </v>
   <v>       0.59133529       0.16666667       0.89792622 </v>
   <v>       0.59368183       0.50161742       0.39832667 </v>
   <v>       0.58956149       0.50045648       0.89574874 </v>
   <v>       0.59368183       0.83171591       0.39832667 </v>
   <v>       0.58956149       0.83287685       0.89574874 </v>
   <v>       0.90665825       0.99668894       0.10379688 </v>
   <v>       0.90885467       0.99771244       0.60311919 </v>
   <v>       0.90665825       0.33664439       0.10379688 </v>
   <v>       0.90885467       0.33562089       0.60311919 </v>
   <v>       0.91117982       0.66666667       0.10358728 </v>
   <v>       0.90827646       0.66666667       0.60057648 </v>
   <v>       0.16311024       0.16666667       0.15720174 </v>
   <v>       0.16073989       0.16666667       0.65589088 </v>
   <v>       0.16119380       0.50054641       0.15635205 </v>
   <v>       0.16054521       0.50129492       0.65976285 </v>
   <v>       0.16119380       0.83278692       0.15635205 </v>
   <v>       0.16054521       0.83203842       0.65976285 </v>
   <v>       0.34332937       0.99823312       0.34252791 </v>
   <v>       0.34115055       0.00002935       0.84333019 </v>
   <v>       0.34332937       0.33510021       0.34252791 </v>
   <v>       0.34115055       0.33330398       0.84333019 </v>
   <v>       0.34266645       0.66666667       0.34303399 </v>
   <v>       0.34133115       0.66666667       0.84458967 </v>
   <v>       0.10330920       0.98506863       0.40205921 </v>
   <v>       0.09110760       0.00023728       0.89762644 </v>
   <v>       0.10330920       0.34826470       0.40205921 </v>
   <v>       0.09110760       0.33309606       0.89762644 </v>
   <v>       0.09492625       0.66666667       0.40011869 </v>
   <v>       0.09019358       0.66666667       0.89799719 </v>
   <v>       0.40993775       0.16666667       0.10081447 </v>
   <v>       0.40852816       0.16666667       0.60236263 </v>
   <v>       0.40990114       0.50057030       0.10163938 </v>
   <v>       0.40803242       0.50017581       0.60261597 </v>
   <v>       0.40990114       0.83276304       0.10163938 </v>
   <v>       0.40803242       0.83315753       0.60261597 </v>
   <v>       0.99599637       0.16666667       0.13108926 </v>
   <v>       0.99553729       0.16666667       0.61517415 </v>
   <v>       0.99832432       0.49962843       0.12843201 </v>
   <v>       0.99738348       0.50055832       0.62702013 </v>
   <v>       0.99832432       0.83370490       0.12843201 </v>
   <v>       0.99738348       0.83277501       0.62702013 </v>
   <v>       0.50364409       0.99654438       0.37283025 </v>
   <v>       0.50356654       0.00054600       0.87281385 </v>
   <v>       0.50364409       0.33678895       0.37283025 </v>
   <v>       0.50356654       0.33278733       0.87281385 </v>
   <v>       0.50447074       0.66666667       0.37433990 </v>
   <v>       0.50250109       0.66666667       0.87098761 </v>
   <v>       0.66518874       0.16666667       0.28053128 </v>
   <v>       0.67274032       0.16666667       0.78073871 </v>
   <v>       0.67042295       0.50248504       0.27865252 </v>
   <v>       0.67324392       0.49996650       0.78098848 </v>
   <v>       0.67042295       0.83084830       0.27865252 </v>
   <v>       0.67324392       0.83336684       0.78098848 </v>
   <v>       0.82069054       0.98698298       0.21477394 </v>
   <v>       0.82787578       0.00079627       0.72017185 </v>
   <v>       0.82069054       0.34635036       0.21477394 </v>
   <v>       0.82787578       0.33253707       0.72017185 </v>
   <v>       0.82774176       0.66666667       0.21862744 </v>
   <v>       0.82801690       0.66666667       0.71936636 </v>
   <v>       0.81943570       0.98931007       0.45080854 </v>
   <v>       0.83372477       0.00030546       0.94625392 </v>
   <v>       0.81943570       0.34402326       0.45080854 </v>
   <v>       0.83372477       0.33302788       0.94625392 </v>
   <v>       0.82983692       0.66666667       0.44471720 </v>
   <v>       0.83451628       0.66666667       0.94658095 </v>
   <v>       0.66791551       0.16666667       0.05472037 </v>
   <v>       0.66614489       0.16666667       0.55405567 </v>
   <v>       0.66595148       0.50229955       0.05121293 </v>
   <v>       0.66633574       0.50071276       0.55583721 </v>
   <v>       0.66595148       0.83103378       0.05121293 </v>
   <v>       0.66633574       0.83262058       0.55583721 </v>
   <v>       0.49652927       0.99985401       0.12605922 </v>
   <v>       0.49592415       0.99980805       0.62763394 </v>
   <v>       0.49652927       0.33347932       0.12605922 </v>
   <v>       0.49592415       0.33352528       0.62763394 </v>
   <v>       0.49663284       0.66666667       0.12507975 </v>
   <v>       0.49561597       0.66666667       0.62800556 </v>
   <v>       0.00347870       0.16666667       0.87038646 </v>
   <v>       0.00498447       0.50574969       0.37713269 </v>
   <v>       0.00382536       0.49958358       0.87244949 </v>
   <v>       0.00498447       0.82758364       0.37713269 </v>
   <v>       0.00382536       0.83374975       0.87244949 </v>
   <v>       0.17932849       0.99474130       0.27887582 </v>
   <v>       0.17173988       0.00108260       0.78002123 </v>
   <v>       0.17932849       0.33859204       0.27887582 </v>
   <v>       0.17173988       0.33225073       0.78002123 </v>
   <v>       0.17425890       0.66666667       0.28085112 </v>
   <v>       0.17261514       0.66666667       0.78185565 </v>
   <v>       0.33028457       0.16666667       0.21895280 </v>
   <v>       0.32831287       0.16666667       0.72051040 </v>
   <v>       0.32989413       0.50240150       0.21884902 </v>
   <v>       0.32886482       0.50053032       0.72196137 </v>
   <v>       0.32989413       0.83093184       0.21884902 </v>
   <v>       0.32886482       0.83280301       0.72196137 </v>
   <v>       0.33500756       0.16666667       0.44462196 </v>
   <v>       0.33137760       0.16666667       0.94526937 </v>
   <v>       0.33134572       0.50049392       0.44586749 </v>
   <v>       0.33112075       0.49934736       0.94589580 </v>
   <v>       0.33134572       0.83283941       0.44586749 </v>
   <v>       0.33112075       0.83398598       0.94589580 </v>
   <v>       0.16772804       0.00094750       0.05380413 </v>
   <v>       0.17687405       0.99615787       0.55884211 </v>
   <v>       0.16772804       0.33238583       0.05380413 </v>
   <v>       0.17687405       0.33717546       0.55884211 </v>
   <v>       0.16822495       0.66666667       0.05382128 </v>
   <v>       0.17207681       0.66666667       0.55698859 </v>
   <v>       0.99028463       0.16666667       0.34223069 </v>
  </varray>
 </structure>
 <calculation>
  <scstep>
   <time name="total">    4.05    4.06</time>
   <energy>
    <i name="alphaZ">   5529.70323211 </i>
    <i name="ewald"> -88666.59958538 </i>
    <i name="hartreedc">  -2115.67934224 </i>
    <i name="XCdc">   2791.99929965 </i>
    <i name="pawpsdc"> 343588.08822887 </i>
    <i name="pawaedc">-375536.31273558 </i>
    <i name="eentropy">     -0.01215435 </i>
    <i name="bandstr"> -40887.18623333 </i>
    <i name="atom"> 133605.80973787 </i>
    <i name="e_fr_energy"> -21690.18955237 </i>
    <i name="e_wo_entrp"> -21690.17739803 </i>
    <i name="e_0_energy"> -21690.18347520 </i>
   </energy>
  </scstep>
  <scstep>
   <time name="total">    3.25    3.25</time>
   <energy>
    <i name="e_fr_energy"> -66127.43960324 </i>
    <i name="e_wo_entrp"> -66127.42019271 </i>
    <i name="e_0_energy"> -66127.42989798 </i>
   </energy>
  </scstep>
  <scstep>
   <time name="total">    3.37    3.37</time>
   <energy>
    <i name="e_fr_energy"> -71031.24338766 </i>
    <i name="e_wo_entrp"> -71031.20980148 </i>
    <i name="e_0_energy"> -71031.22659457 </i>
   </energy>
  </scstep>
  <scstep>
   <time name="total">    3.78    3.78</time>
   <energy>
    <i name="e_fr_energy"> -71692.95538673 </i>
    <i name="e_wo_entrp"> -71692.91518845 </i>
    <i name="e_0_energy"> -71692.93528759 </i>
   </energy>
  </scstep>
  <scstep>
   <time name="total">  236.18  236.15</time>
   <energy>
    <i name="e_fr_energy"> -38628.03839289 </i>
    <i name="e_wo_entrp"> -38628.03268677 </i>
    <i name="e_0_energy"> -38628.03553983 </i>
   </energy>
  </scstep>
  <scstep>
   <time name="total">  470.27  470.21</time>
   <energy>
    <i name="e_fr_energy">  29051.03916839 </i>
    <i name="e_wo_entrp">  29051.07793764 </i>
    <i name="e_0_energy">  29051.05855301 </i>
   </energy>
  </scstep>
  <scstep>
   <time name="total">  471.65  471.59</time>
   <energy>
    <i name="e_fr_energy">   7384.14365052 </i>
    <i name="e_wo_entrp">   7384.19462125 </i>
    <i name="e_0_energy">   7384.16913588 </i>
   </energy>
  </scstep>
  <scstep>
   <time name="total">  471.13  471.06</time>
   <energy>
    <i name="e_fr_energy">   2815.86314433 </i>
    <i name="e_wo_entrp">   2815.88881886 </i>
    <i name="e_0_energy">   2815.87598159 </i>
   </energy>
  </scstep>
  <scstep>
   <time name="total">  471.62  471.56</time>
   <energy>
    <i name="e_fr_energy">   1619.06713317 </i>
    <i name="e_wo_entrp">   1619.11431643 </i>
    <i name="e_0_energy">   1619.09072480 </i>
   </energy>
  </scstep>
  <scstep>
   <time name="total">  471.10  471.04</time>
   <energy>
    <i name="e_fr_energy">    780.34343242 </i>
    <i name="e_wo_entrp">    780.35915046 </i>
    <i name="e_0_energy">    780.35129144 </i>
   </energy>
  </scstep>
  <scstep>
   <time name="total">  470.50  470.43</time>
   <energy>
    <i name="e_fr_energy">    313.95962895 </i>
    <i name="e_wo_entrp">    313.97021655 </i>
    <i name="e_0_energy">    313.96492275 </i>
   </energy>
  </scstep>
  <scstep>
   <time name="total">  470.46  470.39</time>
   <energy>
    <i name="e_fr_energy">   -395.14909916 </i>
    <i name="e_wo_entrp">   -395.13729680 </i>
    <i name="e_0_energy">   -395.14319798 </i>
   </energy>
  </scstep>
  <scstep>
   <time name="total">  470.17  470.10</time>
   <energy>
    <i name="e_fr_energy">   -640.73824852 </i>
    <i name="e_wo_entrp">   -640.72786299 </i>
    <i name="e_0_energy">   -640.73305575 </i>
   </energy>
  </scstep>
  <scstep>
   <time name="total">  470.03  469.97</time>
   <energy>
    <i name="e_fr_energy">   -822.38682608 </i>
    <i name="e_wo_entrp">   -822.38074074 </i>
    <i name="e_0_energy">   -822.38378341 </i>
   </energy>
  </scstep>
  <scstep>
   <time name="total">  469.78  469.73</time>
   <energy>
    <i name="e_fr_energy">   -905.23762322 </i>
    <i name="e_wo_entrp">   -905.23487594 </i>
    <i name="e_0_energy">   -905.23624958 </i>
   </energy>
  </scstep>
  <scstep>
   <time name="total">  469.83  469.77</time>
   <energy>
    <i name="e_fr_energy">   -943.24855498 </i>
    <i name="e_wo_entrp">   -943.24144259 </i>
    <i name="e_0_energy">   -943.24499878 </i>
   </energy>
  </scstep>
  <scstep>
   <time name="total">  469.91  469.85</time>
   <energy>
    <i name="e_fr_energy">   -959.97423566 </i>
    <i name="e_wo_entrp">   -959.97269583 </i>
    <i name="e_0_energy">   -959.97346575 </i>
   </energy>
  </scstep>
  <scstep>
   <time name="total">  469.87  469.80</time>
   <energy>
    <i name="e_fr_energy">   -969.64054609 </i>
    <i name="e_wo_entrp">   -969.63306730 </i>
    <i name="e_0_energy">   -969.63680670 </i>
   </energy>
  </scstep>
  <scstep>
   <time name="total">  469.74  469.68</time>
   <energy>
    <i name="e_fr_energy">   -974.67480560 </i>
    <i name="e_wo_entrp">   -974.67480417 </i>
    <i name="e_0_energy">   -974.67480488 </i>
   </energy>
  </scstep>
  <scstep>
   <time name="total">  469.53  469.46</time>
   <energy>
    <i name="e_fr_energy">   -977.15035849 </i>
    <i name="e_wo_entrp">   -977.14963395 </i>
    <i name="e_0_energy">   -977.14999622 </i>
   </energy>
  </scstep>
  <scstep>
   <time name="total">  469.55  469.49</time>
   <energy>
    <i name="e_fr_energy">   -978.70844556 </i>
    <i name="e_wo_entrp">   -978.70199508 </i>
    <i name="e_0_energy">   -978.70522032 </i>
   </energy>
  </scstep>
  <scstep>
   <time name="total">  469.84  469.78</time>
   <energy>
    <i name="e_fr_energy">   -979.57200850 </i>
    <i name="e_wo_entrp">   -979.55610764 </i>
    <i name="e_0_energy">   -979.56405807 </i>
   </energy>
  </scstep>
  <scstep>
   <time name="total">  470.33  470.27</time>
   <energy>
    <i name="e_fr_energy">   -980.03640191 </i>
    <i name="e_wo_entrp">   -980.01421936 </i>
    <i name="e_0_energy">   -980.02531064 </i>
   </energy>
  </scstep>
  <scstep>
   <time name="total">  469.92  469.85</time>
   <energy>
    <i name="e_fr_energy">   -980.28209556 </i>
    <i name="e_wo_entrp">   -980.26002000 </i>
    <i name="e_0_energy">   -980.27105778 </i>
   </energy>
  </scstep>
  <scstep>
   <time name="total">  469.72  469.66</time>
   <energy>
    <i name="e_fr_energy">   -980.41348737 </i>
    <i name="e_wo_entrp">   -980.39271420 </i>
    <i name="e_0_energy">   -980.40310078 </i>
   </energy>
  </scstep>
  <scstep>
   <time name="total">  469.97  469.91</time>
   <energy>
    <i name="e_fr_energy">   -980.48995429 </i>
    <i name="e_wo_entrp">   -980.46814544 </i>
    <i name="e_0_energy">   -980.47904987 </i>
   </energy>
  </scstep>
  <scstep>
   <time name="total">  470.07  470.03</time>
   <energy>
    <i name="e_fr_energy">   -980.53681683 </i>
    <i name="e_wo_entrp">   -980.51414148 </i>
    <i name="e_0_energy">   -980.52547916 </i>
   </energy>
  </scstep>
  <scstep>
   <time name="total">  470.29  470.23</time>
   <energy>
    <i name="e_fr_energy">   -980.56646383 </i>
    <i name="e_wo_entrp">   -980.54442966 </i>
    <i name="e_0_energy">   -980.55544675 </i>
   </energy>
  </scstep>
  <scstep>
   <time name="total">  470.32  470.26</time>
   <energy>
    <i name="e_fr_energy">   -980.58366907 </i>
    <i name="e_wo_entrp">   -980.56271348 </i>
    <i name="e_0_energy">   -980.57319127 </i>
   </energy>
  </scstep>
  <scstep>
   <time name="total">  469.93  469.86</time>
   <energy>
    <i name="e_fr_energy">   -980.59332927 </i>
    <i name="e_wo_entrp">   -980.57332063 </i>
    <i name="e_0_energy">   -980.58332495 </i>
   </energy>
  </scstep>
  <scstep>
   <time name="total">  470.08  470.02</time>
   <energy>
    <i name="e_fr_energy">   -980.59911631 </i>
    <i name="e_wo_entrp">   -980.57975476 </i>
    <i name="e_0_energy">   -980.58943554 </i>
   </energy>
  </scstep>
  <scstep>
   <time name="total">  469.79  469.75</time>
   <energy>
    <i name="e_fr_energy">   -980.60265696 </i>
    <i name="e_wo_entrp">   -980.58358681 </i>
    <i name="e_0_energy">   -980.59312189 </i>
   </energy>
  </scstep>
  <scstep>
   <time name="total">  470.09  470.04</time>
   <energy>
    <i name="e_fr_energy">   -980.60484006 </i>
    <i name="e_wo_entrp">   -980.58575769 </i>
    <i name="e_0_energy">   -980.59529888 </i>
   </energy>
  </scstep>
  <scstep>
   <time name="total">  470.02  469.96</time>
   <energy>
    <i name="e_fr_energy">   -980.60618436 </i>
    <i name="e_wo_entrp">   -980.58689666 </i>
    <i name="e_0_energy">   -980.59654051 </i>
   </energy>
  </scstep>
  <scstep>
   <time name="total">  470.07  470.01</time>
   <energy>
    <i name="e_fr_energy">   -980.60700445 </i>
    <i name="e_wo_entrp">   -980.58743737 </i>
    <i name="e_0_energy">   -980.59722091 </i>
   </energy>
  </scstep>
  <scstep>
   <time name="total">  470.10  470.05</time>
   <energy>
    <i name="e_fr_energy">   -980.60747654 </i>
    <i name="e_wo_entrp">   -980.58763581 </i>
    <i name="e_0_energy">   -980.59755618 </i>
   </energy>
  </scstep>
  <scstep>
   <time name="total">  470.05  469.99</time>
   <energy>
    <i name="e_fr_energy">   -980.60774989 </i>
    <i name="e_wo_entrp">   -980.58780532 </i>
    <i name="e_0_energy">   -980.59777760 </i>
   </energy>
  </scstep>
  <scstep>
   <time name="total">  469.75  469.71</time>
   <energy>
    <i name="e_fr_energy">   -980.60803944 </i>
    <i name="e_wo_entrp">   -980.58800584 </i>
    <i name="e_0_energy">   -980.59802264 </i>
   </energy>
  </scstep>
  <scstep>
   <time name="total">  469.88  469.82</time>
   <energy>
    <i name="e_fr_energy">   -980.60813542 </i>
    <i name="e_wo_entrp">   -980.58804844 </i>
    <i name="e_0_energy">   -980.59809193 </i>
   </energy>
  </scstep>
  <scstep>
   <time name="total">  469.89  469.84</time>
   <energy>
    <i name="e_fr_energy">   -980.60816867 </i>
    <i name="e_wo_entrp">   -980.58805252 </i>
    <i name="e_0_energy">   -980.59811059 </i>
   </energy>
  </scstep>
  <scstep>
   <time name="total">  469.90  469.85</time>
   <energy>
    <i name="e_fr_energy">   -980.60818008 </i>
    <i name="e_wo_entrp">   -980.58805203 </i>
    <i name="e_0_energy">   -980.59811606 </i>
   </energy>
  </scstep>
  <scstep>
   <time name="total">  700.55  700.45</time>
   <energy>
    <i name="alphaZ">   5529.70323211 </i>
    <i name="ewald"> -88666.59958538 </i>
    <i name="hartreedc"> -33952.01814796 </i>
    <i name="XCdc">   2784.01869445 </i>
    <i name="pawpsdc"> 122256.33399921 </i>
    <i name="pawaedc">-137748.28531124 </i>
    <i name="eentropy">     -0.02013235 </i>
    <i name="bandstr">  -9094.35859582 </i>
    <i name="atom"> 133605.80973787 </i>
    <i name="e_fr_energy">   -980.60818362 </i>
    <i name="e_wo_entrp">   -980.58805127 </i>
    <i name="e_0_energy">   -980.59811744 </i>
   </energy>
  </scstep>
  <structure>
   <crystal>
    <varray name="basis" >
     <v>       0.00000000      12.28047342       0.00000000 </v>
     <v>       9.14270205       0.00000000       0.00000000 </v>
     <v>       0.00000000      -2.76826177     -11.30069772 </v>
    </varray>
    <i name="volume">   1268.80515525 </i>
    <varray name="rec_basis" >
     <v>       0.00000000       0.08143009      -0.01994742 </v>
     <v>       0.10937686      -0.00000000       0.00000000 </v>
     <v>       0.00000000       0.00000000      -0.08849011 </v>
    </varray>
   </crystal>
   <varray name="positions" >
    <v>       0.65780646       0.99654228       0.15346391 </v>
    <v>       0.65864618       0.99958986       0.65704571 </v>
    <v>       0.65780646       0.33679106       0.15346391 </v>
    <v>       0.65864618       0.33374347       0.65704571 </v>
    <v>       0.65892656       0.66666667       0.15560438 </v>
    <v>       0.65835640       0.66666667       0.65735927 </v>
    <v>       0.81701740       0.16666667       0.36128987 </v>
    <v>       0.84094386       0.16666667       0.84379936 </v>
    <v>       0.84119762       0.50119237       0.34104058 </v>
    <v>       0.84130993       0.50030512       0.84374081 </v>
    <v>       0.84119762       0.83214096       0.34104058 </v>
    <v>       0.84130993       0.83302821       0.84374081 </v>
    <v>       0.58366510       0.16666667       0.39957654 </v>
    <v>       0.59133529       0.16666667       0.89792622 </v>
    <v>       0.59368183       0.50161742       0.39832667 </v>
    <v>       0.58956149       0.50045648       0.89574874 </v>
    <v>       0.59368183       0.83171591       0.39832667 </v>
    <v>       0.58956149       0.83287685       0.89574874 </v>
    <v>       0.90665825       0.99668894       0.10379688 </v>
    <v>       0.90885467       0.99771244       0.60311919 </v>
    <v>       0.90665825       0.33664439       0.10379688 </v>
    <v>       0.90885467       0.33562089       0.60311919 </v>
    <v>       0.91117982       0.66666667       0.10358728 </v>
    <v>       0.90827646       0.66666667       0.60057648 </v>
    <v>       0.16311024       0.16666667       0.15720174 </v>
    <v>       0.16073989       0.16666667       0.65589088 </v>
    <v>       0.16119380       0.50054641       0.15635205 </v>
    <v>       0.16054521       0.50129492       0.65976285 </v>
    <v>       0.16119380       0.83278692       0.15635205 </v>
    <v>       0.16054521       0.83203842       0.65976285 </v>
    <v>       0.34332937       0.99823312       0.34252791 </v>
    <v>       0.34115055       0.00002935       0.84333019 </v>
    <v>       0.34332937       0.33510021       0.34252791 </v>
    <v>       0.34115055       0.33330398       0.84333019 </v>
    <v>       0.34266645       0.66666667       0.34303399 </v>
    <v>       0.34133115       0.66666667       0.84458967 </v>
    <v>       0.10330920       0.98506863       0.40205921 </v>
    <v>       0.09110760       0.00023728       0.89762644 </v>
    <v>       0.10330920       0.34826470       0.40205921 </v>
    <v>       0.09110760       0.33309606       0.89762644 </v>
    <v>       0.09492625       0.66666667       0.40011869 </v>
    <v>       0.09019358       0.66666667       0.89799719 </v>
    <v>       0.40993775       0.16666667       0.10081447 </v>
    <v>       0.40852816       0.16666667       0.60236263 </v>
    <v>       0.40990114       0.50057030       0.10163938 </v>
    <v>       0.40803242       0.50017581       0.60261597 </v>
    <v>       0.40990114       0.83276304       0.10163938 </v>
    <v>       0.40803242       0.83315753       0.60261597 </v>
    <v>       0.99599637       0.16666667       0.13108926 </v>
    <v>       0.99553729       0.16666667       0.61517415 </v>
    <v>       0.99832432       0.49962843       0.12843201 </v>
    <v>       0.99738348       0.50055832       0.62702013 </v>
    <v>       0.99832432       0.83370490       0.12843201 </v>
    <v>       0.99738348       0.83277501       0.62702013 </v>
    <v>       0.50364409       0.99654438       0.37283025 </v>
    <v>       0.50356654       0.00054600       0.87281385 </v>
    <v>       0.50364409       0.33678895       0.37283025 </v>
    <v>       0.50356654       0.33278733       0.87281385 </v>
    <v>       0.50447074       0.66666667       0.37433990 </v>
    <v>       0.50250109       0.66666667       0.87098761 </v>
    <v>       0.66518874       0.16666667       0.28053128 </v>
    <v>       0.67274032       0.16666667       0.78073871 </v>
    <v>       0.67042295       0.50248504       0.27865252 </v>
    <v>       0.67324392       0.49996650       0.78098848 </v>
    <v>       0.67042295       0.83084830       0.27865252 </v>
    <v>       0.67324392       0.83336684       0.78098848 </v>
    <v>       0.82069054       0.98698298       0.21477394 </v>
    <v>       0.82787578       0.00079627       0.72017185 </v>
    <v>       0.82069054       0.34635036       0.21477394 </v>
    <v>       0.82787578       0.33253707       0.72017185 </v>
    <v>       0.82774176       0.66666667       0.21862744 </v>
    <v>       0.82801690       0.66666667       0.71936636 </v>
    <v>       0.81943570       0.98931007       0.45080854 </v>
    <v>       0.83372477       0.00030546       0.94625392 </v>
    <v>       0.81943570       0.34402326       0.45080854 </v>
    <v>       0.83372477       0.33302788       0.94625392 </v>
    <v>       0.82983692       0.66666667       0.44471720 </v>
    <v>       0.83451628       0.66666667       0.94658095 </v>
    <v>       0.66791551       0.16666667       0.05472037 </v>
    <v>       0.66614489       0.16666667       0.55405567 </v>
    <v>       0.66595148       0.50229955       0.05121293 </v>
    <v>       0.66633574       0.50071276       0.55583721 </v>
    <v>       0.66595148       0.83103378       0.05121293 </v>
    <v>       0.66633574       0.83262058       0.55583721 </v>
    <v>       0.49652927       0.99985401       0.12605922 </v>
    <v>       0.49592415       0.99980805       0.62763394 </v>
    <v>       0.49652927       0.33347932       0.12605922 </v>
    <v>       0.49592415       0.33352528       0.62763394 </v>
    <v>       0.49663284       0.66666667       0.12507975 </v>
    <v>       0.49561597       0.66666667       0.62800556 </v>
    <v>       0.00347870       0.16666667       0.87038646 </v>
    <v>       0.00498447       0.50574969       0.37713269 </v>
    <v>       0.00382536       0.49958358       0.87244949 </v>
    <v>       0.00498447       0.82758364       0.37713269 </v>
    <v>       0.00382536       0.83374975       0.87244949 </v>
    <v>       0.17932849       0.99474130       0.27887582 </v>
    <v>       0.17173988       0.00108260       0.78002123 </v>
    <v>       0.17932849       0.33859204       0.27887582 </v>
    <v>       0.17173988       0.33225073       0.78002123 </v>
    <v>       0.17425890       0.66666667       0.28085112 </v>
    <v>       0.17261514       0.66666667       0.78185565 </v>
    <v>       0.33028457       0.16666667       0.21895280 </v>
    <v>       0.32831287       0.16666667       0.72051040 </v>
    <v>       0.32989413       0.50240150       0.21884902 </v>
    <v>       0.32886482       0.50053032       0.72196137 </v>
    <v>       0.32989413       0.83093184       0.21884902 </v>
    <v>       0.32886482       0.83280301       0.72196137 </v>
    <v>       0.33500756       0.16666667       0.44462196 </v>
    <v>       0.33137760       0.16666667       0.94526937 </v>
    <v>       0.33134572       0.50049392       0.44586749 </v>
    <v>       0.33112075       0.49934736       0.94589580 </v>
    <v>       0.33134572       0.83283941       0.44586749 </v>
    <v>       0.33112075       0.83398598       0.94589580 </v>
    <v>       0.16772804       0.00094750       0.05380413 </v>
    <v>       0.17687405       0.99615787       0.55884211 </v>
    <v>       0.16772804       0.33238583       0.05380413 </v>
    <v>       0.17687405       0.33717546       0.55884211 </v>
    <v>       0.16822495       0.66666667       0.05382128 </v>
    <v>       0.17207681       0.66666667       0.55698859 </v>
    <v>       0.99028463       0.16666667       0.34223069 </v>
   </varray>
  </structure>
  <varray name="forces" >
   <v>      -0.06982674       0.13662110       0.01859400 </v>
   <v>      -0.01891518       0.07471829       0.01756899 </v>
   <v>       0.06982674       0.13662110       0.01859400 </v>
   <v>       0.01891518       0.07471829       0.01756899 </v>
   <v>       0.00000000       0.05438720      -0.00729782 </v>
   <v>       0.00000000       0.07507288       0.03857793 </v>
   <v>       0.00000000      -0.42832301      -0.00419616 </v>
   <v>       0.00000000      -0.05479716      -0.02057893 </v>
   <v>       0.03611695      -0.12985441       0.04820950 </v>
   <v>      -0.00099444      -0.07409022      -0.02001321 </v>
   <v>      -0.03611695      -0.12985441       0.04820950 </v>
   <v>       0.00099444      -0.07409022      -0.02001321 </v>
   <v>       0.00000000      -0.00356600       0.04060214 </v>
   <v>       0.00000000      -0.02671955       0.01180119 </v>
   <v>       0.00564264      -0.04085573       0.03811416 </v>
   <v>       0.00718403      -0.00719025      -0.01932590 </v>
   <v>      -0.00564264      -0.04085573       0.03811416 </v>
   <v>      -0.00718403      -0.00719025      -0.01932590 </v>
   <v>       0.00131981       0.02800802      -0.00802515 </v>
   <v>      -0.03449649      -0.02418306      -0.00566409 </v>
   <v>      -0.00131981       0.02800802      -0.00802515 </v>
   <v>       0.03449649      -0.02418306      -0.00566409 </v>
   <v>       0.00000000       0.00903100      -0.02552010 </v>
   <v>       0.00000000       0.01338134       0.00216617 </v>
   <v>       0.00000000       0.09320909       0.06162537 </v>
   <v>       0.00000000       0.12299058      -0.03159690 </v>
   <v>      -0.02299374       0.07146010      -0.01525396 </v>
   <v>      -0.00541450       0.10540532       0.00913099 </v>
   <v>       0.02299374       0.07146010      -0.01525396 </v>
   <v>       0.00541450       0.10540532       0.00913099 </v>
   <v>      -0.02296836      -0.09615755       0.00811342 </v>
   <v>      -0.00064070      -0.06452855      -0.00587021 </v>
   <v>       0.02296836      -0.09615755       0.00811342 </v>
   <v>       0.00064070      -0.06452855      -0.00587021 </v>
   <v>       0.00000000      -0.05571077       0.01041133 </v>
   <v>       0.00000000      -0.05499584       0.00741118 </v>
   <v>      -0.26476335       0.14555779      -0.01098245 </v>
   <v>       0.01364880      -0.03437426       0.00948452 </v>
   <v>       0.26476335       0.14555779      -0.01098245 </v>
   <v>      -0.01364880      -0.03437426       0.00948452 </v>
   <v>       0.00000000      -0.11946158       0.02670024 </v>
   <v>       0.00000000      -0.01331412       0.01255245 </v>
   <v>       0.00000000       0.02451657      -0.02865172 </v>
   <v>       0.00000000       0.03299159      -0.03078453 </v>
   <v>       0.00848501       0.02249256      -0.03431593 </v>
   <v>       0.00759688       0.03605431      -0.01652721 </v>
   <v>      -0.00848501       0.02249256      -0.03431593 </v>
   <v>      -0.00759688       0.03605431      -0.01652721 </v>
   <v>       0.00000000      -0.21725423       0.10742084 </v>
   <v>       0.00000000      -0.24146810      -0.04687228 </v>
   <v>       0.02579038      -0.20729024       0.13735142 </v>
   <v>      -0.01637924      -0.19607475       0.11529659 </v>
   <v>      -0.02579038      -0.20729024       0.13735142 </v>
   <v>       0.01637924      -0.19607475       0.11529659 </v>
   <v>       0.08138049       0.13657294      -0.14025163 </v>
   <v>      -0.00780886       0.18146501      -0.11972534 </v>
   <v>      -0.08138049       0.13657294      -0.14025163 </v>
   <v>       0.00780886       0.18146501      -0.11972534 </v>
   <v>       0.00000000       0.18655635      -0.11818317 </v>
   <v>       0.00000000       0.17393491      -0.13377070 </v>
   <v>       0.00000000       0.17571112      -0.35730711 </v>
   <v>       0.00000000      -0.04368062      -0.12254784 </v>
   <v>       0.01433724      -0.07536510      -0.12752096 </v>
   <v>       0.00375575      -0.05489392      -0.11356681 </v>
   <v>      -0.01433724      -0.07536510      -0.12752096 </v>
   <v>      -0.00375575      -0.05489392      -0.11356681 </v>
   <v>      -0.16009617      -0.00479618       0.21048537 </v>
   <v>      -0.00845333       0.05813191       0.13346138 </v>
   <v>       0.16009617      -0.00479618       0.21048537 </v>
   <v>       0.00845333       0.05813191       0.13346138 </v>
   <v>       0.00000000       0.06343433       0.10100882 </v>
   <v>       0.00000000       0.04551666       0.11405459 </v>
   <v>       0.20055492       0.47652941      -0.04855444 </v>
   <v>      -0.01852968       0.39927143      -0.07205222 </v>
   <v>      -0.20055492       0.47652941      -0.04855444 </v>
   <v>       0.01852968       0.39927143      -0.07205222 </v>
   <v>       0.00000000       0.45707516      -0.09706771 </v>
   <v>       0.00000000       0.42161576      -0.06143548 </v>
   <v>       0.00000000      -0.44662057       0.11933273 </v>
   <v>       0.00000000      -0.44248046       0.08972751 </v>
   <v>      -0.02015692      -0.44273851       0.09112491 </v>
   <v>       0.00187914      -0.41184915       0.06684365 </v>
   <v>       0.02015692      -0.44273851       0.09112491 </v>
   <v>      -0.00187914      -0.41184915       0.06684365 </v>
   <v>      -0.00337467      -0.17314428       0.13820604 </v>
   <v>       0.00831286      -0.18746566       0.13004367 </v>
   <v>       0.00337467      -0.17314428       0.13820604 </v>
   <v>      -0.00831286      -0.18746566       0.13004367 </v>
   <v>       0.00000000      -0.21150289       0.12482746 </v>
   <v>       0.00000000      -0.19230018       0.11842241 </v>
   <v>       0.00000000       0.19858070      -0.14059367 </v>
   <v>       0.04574438       0.30243588      -0.11337607 </v>
   <v>       0.01144620       0.18659489      -0.12959833 </v>
   <v>      -0.04574438       0.30243588      -0.11337607 </v>
   <v>      -0.01144620       0.18659489      -0.12959833 </v>
   <v>      -0.04610435       0.03498827      -0.14980668 </v>
   <v>      -0.01576765      -0.04115411      -0.10813666 </v>
   <v>       0.04610435       0.03498827      -0.14980668 </v>
   <v>       0.01576765      -0.04115411      -0.10813666 </v>
   <v>       0.00000000      -0.03843143      -0.14565062 </v>
   <v>       0.00000000      -0.03793692      -0.08413420 </v>
   <v>       0.00000000       0.02059896       0.14946914 </v>
   <v>       0.00000000       0.03126209       0.12936609 </v>
   <v>      -0.00590676       0.03945718       0.12307589 </v>
   <v>      -0.00817975       0.01759180       0.11639435 </v>
   <v>       0.00590676       0.03945718       0.12307589 </v>
   <v>       0.00817975       0.01759180       0.11639435 </v>
   <v>       0.00000000       0.39763525      -0.10331191 </v>
   <v>       0.00000000       0.45201770      -0.07834383 </v>
   <v>      -0.00296543       0.43103452      -0.08953047 </v>
   <v>       0.01045612       0.45668594      -0.07322833 </v>
   <v>       0.00296543       0.43103452      -0.08953047 </v>
   <v>      -0.01045612       0.45668594      -0.07322833 </v>
   <v>       0.00635528      -0.40372011       0.08046447 </v>
   <v>      -0.03580460      -0.46411923       0.12999170 </v>
   <v>      -0.00635528      -0.40372011       0.08046447 </v>
   <v>       0.03580460      -0.46411923       0.12999170 </v>
   <v>       0.00000000      -0.43351091       0.06873500 </v>
   <v>       0.00000000      -0.45467994       0.09196522 </v>
   <v>       0.00000000       0.05277218      -0.18959102 </v>
  </varray>
  <varray name="stress" >
   <v>     -33.02992130       0.00000000       0.00000000 </v>
   <v>       0.00000000     -35.09283595       0.79348677 </v>
   <v>       0.00000000       0.79348741     -41.76222279 </v>
  </varray>
  <energy>
   <i name="e_fr_energy">   -980.60818362 </i>
   <i name="e_wo_entrp">   -980.58805127 </i>
   <i name="e_0_energy">   -980.59811744 </i>
  </energy>
  <time name="totalsc">18466.6018464.47</time>
  <eigenvalues>
   <array>
    <dimension dim="1">band</dimension>
    <dimension dim="2">kpoint</dimension>
    <dimension dim="3">spin</dimension>
    <field>eigene</field>
    <field>occ</field>
    <set>
     <set comment="spin 1">
      <set comment="kpoint 1">
       <r>  -18.9820    1.0000 </r>
       <r>  -18.7122    1.0000 </r>
       <r>  -18.6450    1.0000 </r>
       <r>  -18.5631    1.0000 </r>
       <r>  -18.4224    1.0000 </r>
       <r>  -18.2988    1.0000 </r>
       <r>  -18.2874    1.0000 </r>
       <r>  -18.2473    1.0000 </r>
       <r>  -18.1571    1.0000 </r>
       <r>  -18.1369    1.0000 </r>
       <r>  -18.0990    1.0000 </r>
       <r>  -18.0356    1.0000 </r>
       <r>  -18.0307    1.0000 </r>
       <r>  -18.0200    1.0000 </r>
       <r>  -17.9989    1.0000 </r>
       <r>  -17.9814    1.0000 </r>
       <r>  -17.9732    1.0000 </r>
       <r>  -17.9538    1.0000 </r>
       <r>  -17.8836    1.0000 </r>
       <r>  -17.8628    1.0000 </r>
       <r>  -17.8617    1.0000 </r>
       <r>  -17.8216    1.0000 </r>
       <r>  -17.8133    1.0000 </r>
       <r>  -17.7971    1.0000 </r>
       <r>  -17.7921    1.0000 </r>
       <r>  -17.7248    1.0000 </r>
       <r>  -17.6985    1.0000 </r>
       <r>  -17.6849    1.0000 </r>
       <r>  -17.6649    1.0000 </r>
       <r>  -17.6532    1.0000 </r>
       <r>  -17.6481    1.0000 </r>
       <r>  -17.6399    1.0000 </r>
       <r>  -17.6152    1.0000 </r>
       <r>  -17.6113    1.0000 </r>
       <r>  -17.5831    1.0000 </r>
       <r>  -17.5637    1.0000 </r>
       <r>  -17.5425    1.0000 </r>
       <r>  -17.5372    1.0000 </r>
       <r>  -17.5006    1.0000 </r>
       <r>  -17.4894    1.0000 </r>
       <r>  -17.4827    1.0000 </r>
       <r>  -17.4631    1.0000 </r>
       <r>  -17.4582    1.0000 </r>
       <r>  -17.4440    1.0000 </r>
       <r>  -17.4408    1.0000 </r>
       <r>  -17.4193    1.0000 </r>
       <r>  -17.3768    1.0000 </r>
       <r>  -17.3596    1.0000 </r>
       <r>  -17.3392    1.0000 </r>
       <r>  -17.3375    1.0000 </r>
       <r>  -17.3161    1.0000 </r>
       <r>  -17.2844    1.0000 </r>
       <r>  -17.2808    1.0000 </r>
       <r>  -17.2552    1.0000 </r>
       <r>  -17.2345    1.0000 </r>
       <r>  -17.2277    1.0000 </r>
       <r>  -17.2154    1.0000 </r>
       <r>  -17.2112    1.0000 </r>
       <r>  -17.2006    1.0000 </r>
       <r>  -17.1868    1.0000 </r>
       <r>  -17.1822    1.0000 </r>
       <r>  -17.1767    1.0000 </r>
       <r>  -17.1679    1.0000 </r>
       <r>  -17.1632    1.0000 </r>
       <r>  -17.1550    1.0000 </r>
       <r>  -17.1478    1.0000 </r>
       <r>  -17.1395    1.0000 </r>
       <r>  -17.1354    1.0000 </r>
       <r>  -17.1084    1.0000 </r>
       <r>  -17.0754    1.0000 </r>
       <r>  -17.0442    1.0000 </r>
       <r>  -13.4058    1.0000 </r>
       <r>  -13.4014    1.0000 </r>
       <r>  -13.3859    1.0000 </r>
       <r>  -13.3612    1.0000 </r>
       <r>  -13.3482    1.0000 </r>
       <r>  -13.3442    1.0000 </r>
       <r>  -13.3402    1.0000 </r>
       <r>  -13.3394    1.0000 </r>
       <r>  -13.3293    1.0000 </r>
       <r>  -13.3248    1.0000 </r>
       <r>  -13.3238    1.0000 </r>
       <r>  -13.3192    1.0000 </r>
       <r>  -13.3129    1.0000 </r>
       <r>  -13.3055    1.0000 </r>
       <r>  -13.2997    1.0000 </r>
       <r>  -13.2987    1.0000 </r>
       <r>  -13.2924    1.0000 </r>
       <r>  -13.2856    1.0000 </r>
       <r>  -13.2828    1.0000 </r>
       <r>  -13.2770    1.0000 </r>
       <r>  -13.2677    1.0000 </r>
       <r>  -13.2667    1.0000 </r>
       <r>  -13.2628    1.0000 </r>
       <r>  -13.2623    1.0000 </r>
       <r>  -13.2591    1.0000 </r>
       <r>  -13.2529    1.0000 </r>
       <r>  -13.2527    1.0000 </r>
       <r>  -13.2464    1.0000 </r>
       <r>  -13.2462    1.0000 </r>
       <r>  -13.2425    1.0000 </r>
       <r>  -13.2404    1.0000 </r>
       <r>  -13.2314    1.0000 </r>
       <r>  -13.2314    1.0000 </r>
       <r>  -13.2283    1.0000 </r>
       <r>  -13.2235    1.0000 </r>
       <r>  -13.2228    1.0000 </r>
       <r>  -13.2208    1.0000 </r>
       <r>  -13.2174    1.0000 </r>
       <r>  -13.2128    1.0000 </r>
       <r>  -13.2127    1.0000 </r>
       <r>  -13.2089    1.0000 </r>
       <r>  -13.2083    1.0000 </r>
       <r>  -13.2032    1.0000 </r>
       <r>  -13.2023    1.0000 </r>
       <r>  -13.2005    1.0000 </r>
       <r>  -13.1977    1.0000 </r>
       <r>  -13.1940    1.0000 </r>
       <r>  -13.1899    1.0000 </r>
       <r>  -13.1888    1.0000 </r>
       <r>  -13.1876    1.0000 </r>
       <r>  -13.1821    1.0000 </r>
       <r>  -13.1817    1.0000 </r>
       <r>  -13.1789    1.0000 </r>
       <r>  -13.1762    1.0000 </r>
       <r>  -13.1752    1.0000 </r>
       <r>  -13.1731    1.0000 </r>
       <r>  -13.1718    1.0000 </r>
       <r>  -13.1648    1.0000 </r>
       <r>  -13.1647    1.0000 </r>
       <r>  -13.1628    1.0000 </r>
       <r>  -13.1608    1.0000 </r>
       <r>  -13.1604    1.0000 </r>
       <r>  -13.1574    1.0000 </r>
       <r>  -13.1549    1.0000 </r>
       <r>  -13.1526    1.0000 </r>
       <r>  -13.1480    1.0000 </r>
       <r>  -13.1452    1.0000 </r>
       <r>  -13.1429    1.0000 </r>
       <r>  -13.1402    1.0000 </r>
       <r>  -13.1389    1.0000 </r>
       <r>  -13.1331    1.0000 </r>
       <r>  -13.1271    1.0000 </r>
       <r>  -13.1248    1.0000 </r>
       <r>  -13.1207    1.0000 </r>
       <r>  -13.1144    1.0000 </r>
       <r>  -13.1134    1.0000 </r>
       <r>  -13.1115    1.0000 </r>
       <r>  -13.1041    1.0000 </r>
       <r>  -13.1028    1.0000 </r>
       <r>  -13.0976    1.0000 </r>
       <r>  -13.0937    1.0000 </r>
       <r>  -13.0886    1.0000 </r>
       <r>  -13.0881    1.0000 </r>
       <r>  -13.0842    1.0000 </r>
       <r>  -13.0803    1.0000 </r>
       <r>  -13.0799    1.0000 </r>
       <r>  -13.0784    1.0000 </r>
       <r>  -13.0747    1.0000 </r>
       <r>  -13.0737    1.0000 </r>
       <r>  -13.0736    1.0000 </r>
       <r>  -13.0676    1.0000 </r>
       <r>  -13.0631    1.0000 </r>
       <r>  -13.0602    1.0000 </r>
       <r>  -13.0594    1.0000 </r>
       <r>  -13.0568    1.0000 </r>
       <r>  -13.0527    1.0000 </r>
       <r>  -13.0516    1.0000 </r>
       <r>  -13.0507    1.0000 </r>
       <r>  -13.0469    1.0000 </r>
       <r>  -13.0463    1.0000 </r>
       <r>  -13.0432    1.0000 </r>
       <r>  -13.0417    1.0000 </r>
       <r>  -13.0399    1.0000 </r>
       <r>  -13.0350    1.0000 </r>
       <r>  -13.0321    1.0000 </r>
       <r>  -13.0318    1.0000 </r>
       <r>  -13.0287    1.0000 </r>
       <r>  -13.0281    1.0000 </r>
       <r>  -13.0222    1.0000 </r>
       <r>  -13.0209    1.0000 </r>
       <r>  -13.0179    1.0000 </r>
       <r>  -13.0173    1.0000 </r>
       <r>  -13.0160    1.0000 </r>
       <r>  -13.0091    1.0000 </r>
       <r>  -13.0045    1.0000 </r>
       <r>  -13.0040    1.0000 </r>
       <r>  -13.0009    1.0000 </r>
       <r>  -12.9973    1.0000 </r>
       <r>  -12.9939    1.0000 </r>
       <r>  -12.9921    1.0000 </r>
       <r>  -12.9896    1.0000 </r>
       <r>  -12.9870    1.0000 </r>
       <r>  -12.9835    1.0000 </r>
       <r>  -12.9822    1.0000 </r>
       <r>  -12.9777    1.0000 </r>
       <r>  -12.9743    1.0000 </r>
       <r>  -12.9733    1.0000 </r>
       <r>  -12.9711    1.0000 </r>
       <r>  -12.9662    1.0000 </r>
       <r>  -12.9607    1.0000 </r>
       <r>  -12.9541    1.0000 </r>
       <r>  -12.9523    1.0000 </r>
       <r>  -12.9518    1.0000 </r>
       <r>  -12.9487    1.0000 </r>
       <r>  -12.9456    1.0000 </r>
       <r>  -12.9438    1.0000 </r>
       <r>  -12.9384    1.0000 </r>
       <r>  -12.9341    1.0000 </r>
       <r>  -12.9317    1.0000 </r>
       <r>  -12.9298    1.0000 </r>
       <r>  -12.9283    1.0000 </r>
       <r>  -12.9271    1.0000 </r>
       <r>  -12.9232    1.0000 </r>
       <r>  -12.9184    1.0000 </r>
       <r>  -12.9179    1.0000 </r>
       <r>  -12.9173    1.0000 </r>
       <r>  -12.9159    1.0000 </r>
       <r>  -12.9126    1.0000 </r>
       <r>  -12.9087    1.0000 </r>
       <r>  -12.9043    1.0000 </r>
       <r>  -12.9032    1.0000 </r>
       <r>  -12.8991    1.0000 </r>
       <r>  -12.8987    1.0000 </r>
       <r>  -12.8973    1.0000 </r>
       <r>  -12.8948    1.0000 </r>
       <r>  -12.8939    1.0000 </r>
       <r>  -12.8915    1.0000 </r>
       <r>  -12.8868    1.0000 </r>
       <r>  -12.8812    1.0000 </r>
       <r>  -12.8800    1.0000 </r>
       <r>  -12.8759    1.0000 </r>
       <r>  -12.8741    1.0000 </r>
       <r>  -12.8706    1.0000 </r>
       <r>  -12.8694    1.0000 </r>
       <r>  -12.8685    1.0000 </r>
       <r>  -12.8628    1.0000 </r>
       <r>  -12.8626    1.0000 </r>
       <r>  -12.8561    1.0000 </r>
       <r>  -12.8557    1.0000 </r>
       <r>  -12.8543    1.0000 </r>
       <r>  -12.8475    1.0000 </r>
       <r>  -12.8455    1.0000 </r>
       <r>  -12.8416    1.0000 </r>
       <r>  -12.8368    1.0000 </r>
       <r>  -12.8367    1.0000 </r>
[...]
       <r>   -12.2850    85.9273   583.0902 </r>
       <r>   -12.1466   107.5390   597.9812 </r>
       <r>   -12.0081   114.7094   613.8651 </r>
       <r>   -11.8696    54.0741   621.3528 </r>
       <r>   -11.7312     4.6712   621.9996 </r>
       <r>   -11.5927     0.0030   622.0000 </r>
       <r>   -11.4542     0.0000   622.0000 </r>
       <r>   -11.3157     0.0000   622.0000 </r>
       <r>   -11.1773     0.0000   622.0000 </r>
       <r>   -11.0388     0.0000   622.0000 </r>
       <r>   -10.9003     0.0000   622.0000 </r>
       <r>   -10.7619     0.0000   622.0000 </r>
       <r>   -10.6234     0.0000   622.0000 </r>
       <r>   -10.4849     0.0000   622.0000 </r>
       <r>   -10.3464     0.0000   622.0000 </r>
       <r>   -10.2080     0.0000   622.0000 </r>
       <r>   -10.0695     0.0000   622.0000 </r>
       <r>    -9.9310     0.0000   622.0000 </r>
       <r>    -9.7926     0.0000   622.0000 </r>
       <r>    -9.6541     0.0000   622.0000 </r>
       <r>    -9.5156     0.0000   622.0000 </r>
       <r>    -9.3772     0.0000   622.0000 </r>
       <r>    -9.2387     0.0000   622.0000 </r>
       <r>    -9.1002     0.0000   622.0000 </r>
       <r>    -8.9617     0.0000   622.0000 </r>
       <r>    -8.8233     0.0000   622.0000 </r>
       <r>    -8.6848     0.0000   622.0000 </r>
       <r>    -8.5463     0.0000   622.0000 </r>
       <r>    -8.4079     0.0000   622.0000 </r>
       <r>    -8.2694     0.0000   622.0000 </r>
       <r>    -8.1309     0.0000   622.0000 </r>
       <r>    -7.9924     0.0000   622.0000 </r>
       <r>    -7.8540     0.0000   622.0000 </r>
       <r>    -7.7155     0.0007   622.0001 </r>
       <r>    -7.5770     5.9968   622.8305 </r>
       <r>    -7.4386     8.4421   623.9995 </r>
       <r>    -7.3001     0.0039   624.0000 </r>
       <r>    -7.1616     0.0000   624.0000 </r>
       <r>    -7.0232     0.0000   624.0000 </r>
       <r>    -6.8847     0.0000   624.0000 </r>
       <r>    -6.7462     0.0000   624.0000 </r>
       <r>    -6.6077     0.0000   624.0000 </r>
       <r>    -6.4693     0.0000   624.0000 </r>
       <r>    -6.3308     0.0000   624.0000 </r>
       <r>    -6.1923     0.0000   624.0000 </r>
       <r>    -6.0539     0.0000   624.0000 </r>
       <r>    -5.9154     0.0000   624.0000 </r>
       <r>    -5.7769     0.0000   624.0000 </r>
       <r>    -5.6384     0.0000   624.0000 </r>
       <r>    -5.5000     0.0000   624.0000 </r>
       <r>    -5.3615     0.1144   624.0158 </r>
       <r>    -5.2230     6.7362   624.9486 </r>
       <r>    -5.0846    14.6125   626.9720 </r>
       <r>    -4.9461    20.4348   629.8016 </r>
       <r>    -4.8076    33.3842   634.4244 </r>
       <r>    -4.6692    24.5012   637.8171 </r>
       <r>    -4.5307    48.8271   644.5782 </r>
       <r>    -4.3922    39.6667   650.0709 </r>
       <r>    -4.2537    59.0625   658.2493 </r>
       <r>    -4.1153    52.6133   665.5347 </r>
       <r>    -3.9768    39.0338   670.9397 </r>
       <r>    -3.8383    53.8007   678.3895 </r>
       <r>    -3.6999    40.5180   684.0001 </r>
       <r>    -3.5614    34.0184   688.7106 </r>
       <r>    -3.4229    27.7270   692.5500 </r>
       <r>    -3.2844    33.5313   697.1931 </r>
       <r>    -3.1460    33.1167   701.7788 </r>
       <r>    -3.0075    40.8775   707.4392 </r>
       <r>    -2.8690    34.1986   712.1747 </r>
       <r>    -2.7306    31.7213   716.5671 </r>
       <r>    -2.5921    38.3317   721.8749 </r>
       <r>    -2.4536    35.1375   726.7405 </r>
       <r>    -2.3152    46.8331   733.2255 </r>
       <r>    -2.1767    41.3442   738.9504 </r>
       <r>    -2.0382    35.8596   743.9159 </r>
       <r>    -1.8997    61.2423   752.3962 </r>
       <r>    -1.7613    70.9029   762.2142 </r>
       <r>    -1.6228    52.9494   769.5461 </r>
       <r>    -1.4843    62.7101   778.2296 </r>
       <r>    -1.3459    69.4488   787.8463 </r>
       <r>    -1.2074    49.2962   794.6723 </r>
       <r>    -1.0689    48.2615   801.3551 </r>
       <r>    -0.9304    75.9534   811.8725 </r>
       <r>    -0.7920    60.3546   820.2298 </r>
       <r>    -0.6535    76.1537   830.7749 </r>
       <r>    -0.5150    67.0665   840.0616 </r>
       <r>    -0.3766    56.1493   847.8366 </r>
       <r>    -0.2381    72.3759   857.8586 </r>
       <r>    -0.0996    76.2695   868.4197 </r>
       <r>     0.0389    78.7802   879.3284 </r>
       <r>     0.1773    73.9644   889.5703 </r>
       <r>     0.3158    64.3133   898.4758 </r>
       <r>     0.4543    77.2110   909.1673 </r>
       <r>     0.5927    96.3708   922.5118 </r>
       <r>     0.7312    88.3619   934.7473 </r>
       <r>     0.8697    86.3204   946.7002 </r>
       <r>     1.0081    82.0160   958.0570 </r>
       <r>     1.1466   129.4754   975.9855 </r>
       <r>     1.2851   114.3856   991.8246 </r>
       <r>     1.4236   125.2854  1009.1730 </r>
       <r>     1.5620   121.7079  1026.0259 </r>
       <r>     1.7005    75.4914  1036.4793 </r>
       <r>     1.8390    44.1154  1042.5880 </r>
       <r>     1.9774    47.7387  1049.1984 </r>
       <r>     2.1159     5.7872  1049.9997 </r>
       <r>     2.2544     0.0018  1050.0000 </r>
       <r>     2.3929     0.0000  1050.0000 </r>
       <r>     2.5313     0.0000  1050.0000 </r>
       <r>     2.6698     0.0000  1050.0000 </r>
       <r>     2.8083     1.1710  1050.1621 </r>
       <r>     2.9467    14.3662  1052.1514 </r>
       <r>     3.0852     7.4333  1053.1807 </r>
       <r>     3.2237     5.9063  1053.9986 </r>
       <r>     3.3621     0.0101  1054.0000 </r>
       <r>     3.5006     0.0000  1054.0000 </r>
       <r>     3.6391     0.0000  1054.0000 </r>
       <r>     3.7776     0.0000  1054.0000 </r>
       <r>     3.9160     0.0000  1054.0000 </r>
       <r>     4.0545     0.0000  1054.0000 </r>
       <r>     4.1930     0.0000  1054.0000 </r>
       <r>     4.3314     0.0000  1054.0000 </r>
       <r>     4.4699     0.0000  1054.0000 </r>
       <r>     4.6084     0.0000  1054.0000 </r>
       <r>     4.7469     0.0000  1054.0000 </r>
       <r>     4.8853     0.0000  1054.0000 </r>
       <r>     5.0238     0.0000  1054.0000 </r>
       <r>     5.1623     0.0000  1054.0000 </r>
       <r>     5.3007     0.0000  1054.0000 </r>
       <r>     5.4392     0.0000  1054.0000 </r>
       <r>     5.5777     0.5154  1054.0714 </r>
       <r>     5.7161    11.8146  1055.7073 </r>
       <r>     5.8546     2.1134  1056.0000 </r>
       <r>     5.9931     0.0001  1056.0000 </r>
       <r>     6.1316     0.0000  1056.0000 </r>
       <r>     6.2700     0.0000  1056.0000 </r>
       <r>     6.4085     0.0000  1056.0000 </r>
       <r>     6.5470     0.0000  1056.0000 </r>
       <r>     6.6854     0.0000  1056.0000 </r>
       <r>     6.8239     0.0000  1056.0000 </r>
       <r>     6.9624     0.1010  1056.0140 </r>
       <r>     7.1009     1.6864  1056.2475 </r>
       <r>     7.2393     0.0180  1056.2500 </r>
       <r>     7.3778     0.0000  1056.2500 </r>
       <r>     7.5163     0.0000  1056.2500 </r>
       <r>     7.6547     0.0000  1056.2500 </r>
       <r>     7.7932     0.4565  1056.3132 </r>
       <r>     7.9317     4.6588  1056.9583 </r>
       <r>     8.0702     2.0991  1057.2490 </r>
       <r>     8.2086     0.9987  1057.3873 </r>
       <r>     8.3471     5.8571  1058.1983 </r>
       <r>     8.4856     0.3733  1058.2500 </r>
       <r>     8.6240     0.0034  1058.2505 </r>
       <r>     8.7625     4.6755  1058.8979 </r>
       <r>     8.9010     6.9959  1059.8666 </r>
       <r>     9.0394     5.9719  1060.6936 </r>
       <r>     9.1779     5.2753  1061.4240 </r>
       <r>     9.3164     3.9824  1061.9755 </r>
       <r>     9.4549     3.7619  1062.4964 </r>
       <r>     9.5933    12.6077  1064.2422 </r>
       <r>     9.7318     4.3700  1064.8473 </r>
       <r>     9.8703     3.0943  1065.2758 </r>
       <r>    10.0087     8.7985  1066.4941 </r>
       <r>    10.1472    19.2242  1069.1561 </r>
       <r>    10.2857    18.6095  1071.7330 </r>
       <r>    10.4242    11.1283  1073.2739 </r>
       <r>    10.5626    15.2962  1075.3920 </r>
       <r>    10.7011    26.6321  1079.0798 </r>
       <r>    10.8396    34.6712  1083.8807 </r>
       <r>    10.9780    35.3679  1088.7781 </r>
       <r>    11.1165    41.6596  1094.5467 </r>
       <r>    11.2550    35.2988  1099.4346 </r>
       <r>    11.3934    24.1028  1102.7721 </r>
       <r>    11.5319    28.6744  1106.7427 </r>
       <r>    11.6704    36.6840  1111.8223 </r>
       <r>    11.8089    30.8602  1116.0956 </r>
       <r>    11.9473    29.9145  1120.2378 </r>
       <r>    12.0858    35.9271  1125.2127 </r>
       <r>    12.2243    37.5987  1130.4190 </r>
       <r>    12.3627    38.8312  1135.7960 </r>
       <r>    12.5012    22.4130  1138.8995 </r>
       <r>    12.6397    39.9838  1144.4361 </r>
       <r>    12.7782    44.5022  1150.5984 </r>
       <r>    12.9166    36.6042  1155.6670 </r>
       <r>    13.0551    30.0150  1159.8232 </r>
       <r>    13.1936    21.7412  1162.8337 </r>
       <r>    13.3320    20.3395  1165.6501 </r>
       <r>    13.4705    33.0393  1170.2251 </r>
       <r>    13.6090    31.8485  1174.6352 </r>
       <r>    13.7474    26.7303  1178.3366 </r>
       <r>    13.8859    29.5614  1182.4300 </r>
       <r>    14.0244    22.5315  1185.5499 </r>
       <r>    14.1629    29.9950  1189.7033 </r>
       <r>    14.3013    25.7033  1193.2625 </r>
       <r>    14.4398    25.3609  1196.7742 </r>
       <r>    14.5783    26.7162  1200.4736 </r>
       <r>    14.7167    24.2323  1203.8291 </r>
       <r>    14.8552    18.0192  1206.3242 </r>
       <r>    14.9937    24.1945  1209.6745 </r>
       <r>    15.1322    25.8871  1213.2591 </r>
       <r>    15.2706    24.6504  1216.6724 </r>
       <r>    15.4091    19.5231  1219.3758 </r>
       <r>    15.5476    22.5659  1222.5005 </r>
       <r>    15.6860    27.5133  1226.3103 </r>
       <r>    15.8245    24.5495  1229.7097 </r>
       <r>    15.9630    24.7549  1233.1375 </r>
       <r>    16.1015    22.6108  1236.2685 </r>
       <r>    16.2399    22.0102  1239.3162 </r>
       <r>    16.3784    19.1726  1241.9711 </r>
       <r>    16.5169    23.2822  1245.1950 </r>
       <r>    16.6553    16.1321  1247.4288 </r>
       <r>    16.7938    18.2732  1249.9591 </r>
       <r>    16.9323    21.5472  1252.9428 </r>
       <r>    17.0707    17.0771  1255.3074 </r>
       <r>    17.2092    14.0427  1257.2519 </r>
       <r>    17.3477    16.0378  1259.4727 </r>
       <r>    17.4862    13.6391  1261.3613 </r>
       <r>    17.6246     6.2205  1262.2227 </r>
       <r>    17.7631     5.5052  1262.9850 </r>
       <r>    17.9016     5.2475  1263.7116 </r>
       <r>    18.0400     1.6210  1263.9361 </r>
       <r>    18.1785     2.3669  1264.2638 </r>
       <r>    18.3170     3.4491  1264.7414 </r>
       <r>    18.4555     0.7907  1264.8509 </r>
       <r>    18.5939     3.4669  1265.3310 </r>
       <r>    18.7324     1.5089  1265.5399 </r>
       <r>    18.8709     3.3010  1265.9970 </r>
       <r>    19.0093     0.0218  1266.0000 </r>
       <r>    19.1478     0.0000  1266.0000 </r>
       <r>    19.2863     0.0000  1266.0000 </r>
       <r>    19.4247     0.0000  1266.0000 </r>
       <r>    19.5632     0.0000  1266.0000 </r>
       <r>    19.7017     0.0000  1266.0000 </r>
       <r>    19.8402     0.0000  1266.0000 </r>
       <r>    19.9786     0.0000  1266.0000 </r>
       <r>    20.1171     0.0000  1266.0000 </r>
       <r>    20.2556     0.0000  1266.0000 </r>
       <r>    20.3940     0.0000  1266.0000 </r>
       <r>    20.5325     0.0000  1266.0000 </r>
       <r>    20.6710     0.0000  1266.0000 </r>
      </set>
     </set>
    </array>
   </total>
  </dos>
 </calculation>
 <structure name="finalpos" >
  <crystal>
   <varray name="basis" >
    <v>       0.00000000      12.28047342       0.00000000 </v>
    <v>       9.14270205       0.00000000       0.00000000 </v>
    <v>       0.00000000      -2.76826177     -11.30069772 </v>
   </varray>
   <i name="volume">   1268.80515525 </i>
   <varray name="rec_basis" >
    <v>       0.00000000       0.08143009      -0.01994742 </v>
    <v>       0.10937686      -0.00000000       0.00000000 </v>
    <v>       0.00000000       0.00000000      -0.08849011 </v>
   </varray>
  </crystal>
  <varray name="positions" >
   <v>       0.65780646       0.99654228       0.15346391 </v>
   <v>       0.65864618       0.99958986       0.65704571 </v>
   <v>       0.65780646       0.33679106       0.15346391 </v>
   <v>       0.65864618       0.33374347       0.65704571 </v>
   <v>       0.65892656       0.66666667       0.15560438 </v>
   <v>       0.65835640       0.66666667       0.65735927 </v>
   <v>       0.81701740       0.16666667       0.36128987 </v>
   <v>       0.84094386       0.16666667       0.84379936 </v>
   <v>       0.84119762       0.50119237       0.34104058 </v>
   <v>       0.84130993       0.50030512       0.84374081 </v>
   <v>       0.84119762       0.83214096       0.34104058 </v>
   <v>       0.84130993       0.83302821       0.84374081 </v>
   <v>       0.58366510       0.16666667       0.39957654 </v>
   <v>       0.59133529       0.16666667       0.89792622 </v>
   <v>       0.59368183       0.50161742       0.39832667 </v>
   <v>       0.58956149       0.50045648       0.89574874 </v>
   <v>       0.59368183       0.83171591       0.39832667 </v>
   <v>       0.58956149       0.83287685       0.89574874 </v>
   <v>       0.90665825       0.99668894       0.10379688 </v>
   <v>       0.90885467       0.99771244       0.60311919 </v>
   <v>       0.90665825       0.33664439       0.10379688 </v>
   <v>       0.90885467       0.33562089       0.60311919 </v>
   <v>       0.91117982       0.66666667       0.10358728 </v>
   <v>       0.90827646       0.66666667       0.60057648 </v>
   <v>       0.16311024       0.16666667       0.15720174 </v>
   <v>       0.16073989       0.16666667       0.65589088 </v>
   <v>       0.16119380       0.50054641       0.15635205 </v>
   <v>       0.16054521       0.50129492       0.65976285 </v>
   <v>       0.16119380       0.83278692       0.15635205 </v>
   <v>       0.16054521       0.83203842       0.65976285 </v>
   <v>       0.34332937       0.99823312       0.34252791 </v>
   <v>       0.34115055       0.00002935       0.84333019 </v>
   <v>       0.34332937       0.33510021       0.34252791 </v>
   <v>       0.34115055       0.33330398       0.84333019 </v>
   <v>       0.34266645       0.66666667       0.34303399 </v>
   <v>       0.34133115       0.66666667       0.84458967 </v>
   <v>       0.10330920       0.98506863       0.40205921 </v>
   <v>       0.09110760       0.00023728       0.89762644 </v>
   <v>       0.10330920       0.34826470       0.40205921 </v>
   <v>       0.09110760       0.33309606       0.89762644 </v>
   <v>       0.09492625       0.66666667       0.40011869 </v>
   <v>       0.09019358       0.66666667       0.89799719 </v>
   <v>       0.40993775       0.16666667       0.10081447 </v>
   <v>       0.40852816       0.16666667       0.60236263 </v>
   <v>       0.40990114       0.50057030       0.10163938 </v>
   <v>       0.40803242       0.50017581       0.60261597 </v>
   <v>       0.40990114       0.83276304       0.10163938 </v>
   <v>       0.40803242       0.83315753       0.60261597 </v>
   <v>       0.99599637       0.16666667       0.13108926 </v>
   <v>       0.99553729       0.16666667       0.61517415 </v>
   <v>       0.99832432       0.49962843       0.12843201 </v>
   <v>       0.99738348       0.50055832       0.62702013 </v>
   <v>       0.99832432       0.83370490       0.12843201 </v>
   <v>       0.99738348       0.83277501       0.62702013 </v>
   <v>       0.50364409       0.99654438       0.37283025 </v>
   <v>       0.50356654       0.00054600       0.87281385 </v>
   <v>       0.50364409       0.33678895       0.37283025 </v>
   <v>       0.50356654       0.33278733       0.87281385 </v>
   <v>       0.50447074       0.66666667       0.37433990 </v>
   <v>       0.50250109       0.66666667       0.87098761 </v>
   <v>       0.66518874       0.16666667       0.28053128 </v>
   <v>       0.67274032       0.16666667       0.78073871 </v>
   <v>       0.67042295       0.50248504       0.27865252 </v>
   <v>       0.67324392       0.49996650       0.78098848 </v>
   <v>       0.67042295       0.83084830       0.27865252 </v>
   <v>       0.67324392       0.83336684       0.78098848 </v>
   <v>       0.82069054       0.98698298       0.21477394 </v>
   <v>       0.82787578       0.00079627       0.72017185 </v>
   <v>       0.82069054       0.34635036       0.21477394 </v>
   <v>       0.82787578       0.33253707       0.72017185 </v>
   <v>       0.82774176       0.66666667       0.21862744 </v>
   <v>       0.82801690       0.66666667       0.71936636 </v>
   <v>       0.81943570       0.98931007       0.45080854 </v>
   <v>       0.83372477       0.00030546       0.94625392 </v>
   <v>       0.81943570       0.34402326       0.45080854 </v>
   <v>       0.83372477       0.33302788       0.94625392 </v>
   <v>       0.82983692       0.66666667       0.44471720 </v>
   <v>       0.83451628       0.66666667       0.94658095 </v>
   <v>       0.66791551       0.16666667       0.05472037 </v>
   <v>       0.66614489       0.16666667       0.55405567 </v>
   <v>       0.66595148       0.50229955       0.05121293 </v>
   <v>       0.66633574       0.50071276       0.55583721 </v>
   <v>       0.66595148       0.83103378       0.05121293 </v>
   <v>       0.66633574       0.83262058       0.55583721 </v>
   <v>       0.49652927       0.99985401       0.12605922 </v>
   <v>       0.49592415       0.99980805       0.62763394 </v>
   <v>       0.49652927       0.33347932       0.12605922 </v>
   <v>       0.49592415       0.33352528       0.62763394 </v>
   <v>       0.49663284       0.66666667       0.12507975 </v>
   <v>       0.49561597       0.66666667       0.62800556 </v>
   <v>       0.00347870       0.16666667       0.87038646 </v>
   <v>       0.00498447       0.50574969       0.37713269 </v>
   <v>       0.00382536       0.49958358       0.87244949 </v>
   <v>       0.00498447       0.82758364       0.37713269 </v>
   <v>       0.00382536       0.83374975       0.87244949 </v>
   <v>       0.17932849       0.99474130       0.27887582 </v>
   <v>       0.17173988       0.00108260       0.78002123 </v>
   <v>       0.17932849       0.33859204       0.27887582 </v>
   <v>       0.17173988       0.33225073       0.78002123 </v>
   <v>       0.17425890       0.66666667       0.28085112 </v>
   <v>       0.17261514       0.66666667       0.78185565 </v>
   <v>       0.33028457       0.16666667       0.21895280 </v>
   <v>       0.32831287       0.16666667       0.72051040 </v>
   <v>       0.32989413       0.50240150       0.21884902 </v>
   <v>       0.32886482       0.50053032       0.72196137 </v>
   <v>       0.32989413       0.83093184       0.21884902 </v>
   <v>       0.32886482       0.83280301       0.72196137 </v>
   <v>       0.33500756       0.16666667       0.44462196 </v>
   <v>       0.33137760       0.16666667       0.94526937 </v>
   <v>       0.33134572       0.50049392       0.44586749 </v>
   <v>       0.33112075       0.49934736       0.94589580 </v>
   <v>       0.33134572       0.83283941       0.44586749 </v>
   <v>       0.33112075       0.83398598       0.94589580 </v>
   <v>       0.16772804       0.00094750       0.05380413 </v>
   <v>       0.17687405       0.99615787       0.55884211 </v>
   <v>       0.16772804       0.33238583       0.05380413 </v>
   <v>       0.17687405       0.33717546       0.55884211 </v>
   <v>       0.16822495       0.66666667       0.05382128 </v>
   <v>       0.17207681       0.66666667       0.55698859 </v>
   <v>       0.99028463       0.16666667       0.34223069 </v>
  </varray>
 </structure>
</modeling>
