       N       E                     dE             d eps       ncg     rms          rms(c)
DAV:   1     0.220137392473E+05    0.22014E+05   -0.32137E+05 10128   0.282E+03
DAV:   2     0.487382100748E+04   -0.17140E+05   -0.16156E+05 10128   0.816E+02
DAV:   3    -0.150854360382E+03   -0.50247E+04   -0.47294E+04 12912   0.320E+02
DAV:   4    -0.777627140130E+03   -0.62677E+03   -0.61413E+03 12520   0.121E+02
DAV:   5    -0.820604320404E+03   -0.42977E+02   -0.42642E+02 14432   0.344E+01    0.611E+01
RMM:   6    -0.704896046087E+03    0.11571E+03   -0.38624E+02 13170   0.237E+01    0.161E+01
RMM:   7    -0.708896814914E+03   -0.40008E+01   -0.67186E+01 13897   0.989E+00    0.130E+01
RMM:   8    -0.708948078791E+03   -0.51264E-01   -0.98534E+00 12800   0.533E+00    0.500E+00
RMM:   9    -0.708409110035E+03    0.53897E+00   -0.19997E+00 15735   0.219E+00    0.330E+00
RMM:  10    -0.708305864797E+03    0.10325E+00   -0.18718E+00 13301   0.151E+00    0.121E+00
RMM:  11    -0.708294617634E+03    0.11247E-01   -0.27461E-01 14009   0.729E-01    0.487E-01
RMM:  12    -0.708309808427E+03   -0.15191E-01   -0.85977E-02 15256   0.303E-01    0.665E-01
RMM:  13    -0.708312264575E+03   -0.24561E-02   -0.21154E-02 14023   0.162E-01    0.414E-01
RMM:  14    -0.708312436797E+03   -0.17222E-03   -0.11995E-02 13606   0.115E-01    0.403E-01
RMM:  15    -0.708309004974E+03    0.34318E-02   -0.27768E-03 14053   0.649E-02    0.109E-01
RMM:  16    -0.708309330633E+03   -0.32566E-03   -0.15530E-03 12541   0.373E-02    0.177E-01
RMM:  17    -0.708309033561E+03    0.29707E-03   -0.38280E-04 10899   0.221E-02    0.129E-02
RMM:  18    -0.708309055599E+03   -0.22038E-04   -0.14144E-04 10135   0.128E-02    0.657E-03
RMM:  19    -0.708309060883E+03   -0.52833E-05   -0.44777E-05  9048   0.868E-03
   1 F= -.70830906E+03 E0= -.70830255E+03  d E =-.708309E+03
       N       E                     dE             d eps       ncg     rms          rms(c)
DAV:   1    -0.707403147169E+03    0.90591E+00   -0.24007E+02 11896   0.211E+01    0.261E+00
RMM:   2    -0.708449558746E+03   -0.10464E+01   -0.11293E+01 13894   0.660E+00    0.931E-01
RMM:   3    -0.708669781949E+03   -0.22022E+00   -0.26166E+00 15035   0.247E+00    0.883E-01
RMM:   4    -0.708669372416E+03    0.40953E-03   -0.31158E-01 15618   0.846E-01    0.545E-01
RMM:   5    -0.708649039997E+03    0.20332E-01   -0.11369E-01 14436   0.462E-01    0.337E-01
RMM:   6    -0.708648878283E+03    0.16171E-03   -0.17459E-02 15096   0.203E-01    0.175E-01
RMM:   7    -0.708648731785E+03    0.14650E-03   -0.57392E-03 13949   0.988E-02    0.876E-02
RMM:   8    -0.708648532779E+03    0.19901E-03   -0.14140E-03 15032   0.468E-02    0.504E-02
RMM:   9    -0.708648518207E+03    0.14572E-04   -0.44085E-04 12550   0.262E-02    0.113E-02
RMM:  10    -0.708648528501E+03   -0.10294E-04   -0.12135E-04 10513   0.147E-02    0.836E-03
RMM:  11    -0.708648528617E+03   -0.11561E-06   -0.36567E-05  9255   0.912E-03
   2 F= -.70864853E+03 E0= -.70864853E+03  d E =-.339468E+00
       N       E                     dE             d eps       ncg     rms          rms(c)
DAV:   1    -0.708650698918E+03   -0.21704E-02   -0.19614E+01 11672   0.635E+00    0.624E-01
RMM:   2    -0.708727080646E+03   -0.76382E-01   -0.85850E-01 14103   0.183E+00    0.273E-01
RMM:   3    -0.708739103523E+03   -0.12023E-01   -0.17665E-01 14794   0.637E-01    0.261E-01
RMM:   4    -0.708736049175E+03    0.30543E-02   -0.24402E-02 15264   0.226E-01    0.843E-02
RMM:   5    -0.708735201185E+03    0.84799E-03   -0.72467E-03 14589   0.110E-01    0.582E-02
RMM:   6    -0.708735221573E+03   -0.20388E-04   -0.12765E-03 14793   0.481E-02    0.319E-02
RMM:   7    -0.708735215521E+03    0.60526E-05   -0.41525E-04 12363   0.281E-02    0.199E-02
RMM:   8    -0.708735216214E+03   -0.69336E-06   -0.12992E-04 10642   0.145E-02    0.607E-03
RMM:   9    -0.708735218336E+03   -0.21221E-05   -0.32165E-05  8594   0.909E-03
   3 F= -.70873522E+03 E0= -.70873522E+03  d E =-.426157E+00
       N       E                     dE             d eps       ncg     rms          rms(c)
DAV:   1    -0.708646983589E+03    0.88233E-01   -0.43377E+01 10734   0.886E+00    0.107E+00
RMM:   2    -0.708790646924E+03   -0.14366E+00   -0.15491E+00 13380   0.232E+00    0.345E-01
RMM:   3    -0.708817024923E+03   -0.26378E-01   -0.30972E-01 15351   0.865E-01    0.367E-01
RMM:   4    -0.708816673060E+03    0.35186E-03   -0.31534E-02 15027   0.283E-01    0.162E-01
RMM:   5    -0.708816203634E+03    0.46943E-03   -0.92145E-03 14997   0.136E-01    0.845E-02
RMM:   6    -0.708816238772E+03   -0.35138E-04   -0.17303E-03 15586   0.584E-02    0.383E-02
RMM:   7    -0.708816246008E+03   -0.72364E-05   -0.52410E-04 12935   0.291E-02    0.168E-02
RMM:   8    -0.708816254568E+03   -0.85599E-05   -0.16268E-04 10827   0.167E-02    0.795E-03
RMM:   9    -0.708816258229E+03   -0.36612E-05   -0.54735E-05  9298   0.106E-02
   4 F= -.70881626E+03 E0= -.70881626E+03  d E =-.810399E-01
       N       E                     dE             d eps       ncg     rms          rms(c)
DAV:   1    -0.708816249171E+03    0.53966E-05   -0.23691E-03 11536   0.659E-02    0.757E-03
RMM:   2    -0.708816257504E+03   -0.83325E-05   -0.89408E-05  9471   0.179E-02
   5 F= -.70881626E+03 E0= -.70881626E+03  d E =-.810392E-01
       N       E                     dE             d eps       ncg     rms          rms(c)
DAV:   1    -0.708734049208E+03    0.82200E-01   -0.34906E+01 10576   0.806E+00    0.982E-01
RMM:   2    -0.708845702879E+03   -0.11165E+00   -0.12006E+00 13242   0.209E+00    0.297E-01
RMM:   3    -0.708868020582E+03   -0.22318E-01   -0.24863E-01 15337   0.793E-01    0.312E-01
RMM:   4    -0.708867938725E+03    0.81857E-04   -0.25585E-02 15210   0.259E-01    0.128E-01
RMM:   5    -0.708867697443E+03    0.24128E-03   -0.66630E-03 14972   0.118E-01    0.650E-02
RMM:   6    -0.708867748296E+03   -0.50853E-04   -0.13543E-03 15312   0.517E-02    0.355E-02
RMM:   7    -0.708867753157E+03   -0.48607E-05   -0.41927E-04 12585   0.264E-02    0.124E-02
RMM:   8    -0.708867761595E+03   -0.84382E-05   -0.13316E-04 10367   0.154E-02    0.703E-03
RMM:   9    -0.708867764440E+03   -0.28450E-05   -0.42570E-05  8962   0.986E-03
   6 F= -.70886776E+03 E0= -.70886776E+03  d E =-.515069E-01
       N       E                     dE             d eps       ncg     rms          rms(c)
DAV:   1    -0.708867601138E+03    0.16046E-03   -0.82820E-02 11664   0.392E-01    0.473E-02
RMM:   2    -0.708867855090E+03   -0.25395E-03   -0.27294E-03 13099   0.100E-01    0.145E-02
RMM:   3    -0.708867907802E+03   -0.52712E-04   -0.60472E-04 14357   0.390E-02    0.147E-02
RMM:   4    -0.708867908625E+03   -0.82304E-06   -0.65490E-05  9783   0.145E-02
   7 F= -.70886791E+03 E0= -.70886791E+03  d E =-.516511E-01
       N       E                     dE             d eps       ncg     rms          rms(c)
DAV:   1    -0.708811513833E+03    0.56394E-01   -0.22738E+01 10448   0.650E+00    0.816E-01
RMM:   2    -0.708881869961E+03   -0.70356E-01   -0.75833E-01 12994   0.167E+00    0.241E-01
RMM:   3    -0.708897144446E+03   -0.15274E-01   -0.16701E-01 15298   0.656E-01    0.247E-01
RMM:   4    -0.708897347434E+03   -0.20299E-03   -0.16694E-02 15110   0.211E-01    0.108E-01
RMM:   5    -0.708897260011E+03    0.87423E-04   -0.42634E-03 14987   0.963E-02    0.483E-02
RMM:   6    -0.708897307046E+03   -0.47035E-04   -0.87309E-04 15124   0.423E-02    0.270E-02
RMM:   7    -0.708897316460E+03   -0.94138E-05   -0.25934E-04 11925   0.208E-02    0.944E-03
RMM:   8    -0.708897321184E+03   -0.47247E-05   -0.76210E-05  9494   0.123E-02
   8 F= -.70889732E+03 E0= -.70889732E+03  d E =-.294126E-01
       N       E                     dE             d eps       ncg     rms          rms(c)
DAV:   1    -0.708896874596E+03    0.44186E-03   -0.22527E-01 11568   0.647E-01    0.783E-02
RMM:   2    -0.708897554953E+03   -0.68036E-03   -0.73115E-03 12974   0.164E-01    0.239E-02
RMM:   3    -0.708897704264E+03   -0.14931E-03   -0.16591E-03 15171   0.646E-02    0.246E-02
RMM:   4    -0.708897706894E+03   -0.26297E-05   -0.16962E-04 12288   0.212E-02    0.107E-02
RMM:   5    -0.708897706121E+03    0.77238E-06   -0.48636E-05  9487   0.120E-02
   9 F= -.70889771E+03 E0= -.70889771E+03  d E =-.297975E-01
       N       E                     dE             d eps       ncg     rms          rms(c)
DAV:   1    -0.708878141189E+03    0.19566E-01   -0.85427E+00 10536   0.411E+00    0.485E-01
RMM:   2    -0.708904995104E+03   -0.26854E-01   -0.28640E-01 13100   0.106E+00    0.144E-01
RMM:   3    -0.708910783708E+03   -0.57886E-02   -0.63057E-02 15324   0.411E-01    0.150E-01
RMM:   4    -0.708910943402E+03   -0.15969E-03   -0.64401E-03 15234   0.133E-01    0.773E-02
RMM:   5    -0.708910874704E+03    0.68698E-04   -0.17638E-03 14963   0.617E-02    0.343E-02
RMM:   6    -0.708910892202E+03   -0.17498E-04   -0.35220E-04 13495   0.272E-02    0.203E-02
RMM:   7    -0.708910894653E+03   -0.24501E-05   -0.11291E-04 10187   0.141E-02    0.652E-03
RMM:   8    -0.708910896410E+03   -0.17572E-05   -0.32509E-05  8531   0.906E-03
  10 F= -.70891090E+03 E0= -.70891090E+03  d E =-.131903E-01
       N       E                     dE             d eps       ncg     rms          rms(c)
DAV:   1    -0.708909738808E+03    0.11558E-02   -0.48799E-01 11376   0.982E-01    0.113E-01
RMM:   2    -0.708911256561E+03   -0.15178E-02   -0.16168E-02 13069   0.249E-01    0.342E-02
RMM:   3    -0.708911579747E+03   -0.32319E-03   -0.35366E-03 15295   0.970E-02    0.359E-02
RMM:   4    -0.708911588049E+03   -0.83017E-05   -0.36207E-04 13510   0.313E-02    0.183E-02
RMM:   5    -0.708911584605E+03    0.34440E-05   -0.10495E-04 10751   0.163E-02    0.919E-03
RMM:   6    -0.708911585332E+03   -0.72696E-06   -0.23064E-05  7957   0.802E-03
  11 F= -.70891159E+03 E0= -.70891159E+03  d E =-.138792E-01
       N       E                     dE             d eps       ncg     rms          rms(c)
DAV:   1    -0.708893981138E+03    0.17603E-01   -0.67054E+00 10672   0.369E+00    0.422E-01
RMM:   2    -0.708914704747E+03   -0.20724E-01   -0.21860E-01 13008   0.938E-01    0.127E-01
RMM:   3    -0.708919449211E+03   -0.47445E-02   -0.50422E-02 15237   0.371E-01    0.129E-01
RMM:   4    -0.708919633186E+03   -0.18397E-03   -0.51063E-03 15196   0.119E-01    0.668E-02
RMM:   5    -0.708919602465E+03    0.30721E-04   -0.13157E-03 14730   0.540E-02    0.331E-02
RMM:   6    -0.708919613127E+03   -0.10663E-04   -0.26655E-04 13147   0.238E-02    0.172E-02
RMM:   7    -0.708919616342E+03   -0.32149E-05   -0.85427E-05  9693   0.124E-02
  12 F= -.70891962E+03 E0= -.70891962E+03  d E =-.803101E-02
       N       E                     dE             d eps       ncg     rms          rms(c)
DAV:   1    -0.708919375307E+03    0.23782E-03   -0.12622E-01 11576   0.506E-01    0.551E-02
RMM:   2    -0.708919771822E+03   -0.39652E-03   -0.41766E-03 13049   0.130E-01    0.171E-02
RMM:   3    -0.708919859612E+03   -0.87790E-04   -0.95249E-04 15045   0.508E-02    0.183E-02
RMM:   4    -0.708919863095E+03   -0.34827E-05   -0.10449E-04 11680   0.172E-02    0.942E-03
RMM:   5    -0.708919862636E+03    0.45833E-06   -0.33527E-05  8739   0.108E-02
  13 F= -.70891986E+03 E0= -.70891986E+03  d E =-.827730E-02
       N       E                     dE             d eps       ncg     rms          rms(c)
DAV:   1    -0.708908324170E+03    0.11539E-01   -0.40658E+00 10520   0.285E+00    0.333E-01
RMM:   2    -0.708920886868E+03   -0.12563E-01   -0.13352E-01 12981   0.725E-01    0.101E-01
RMM:   3    -0.708923598054E+03   -0.27112E-02   -0.29868E-02 15287   0.285E-01    0.103E-01
RMM:   4    -0.708923615049E+03   -0.16995E-04   -0.30288E-03 15146   0.912E-02    0.429E-02
RMM:   5    -0.708923595138E+03    0.19911E-04   -0.81623E-04 14687   0.417E-02    0.304E-02
RMM:   6    -0.708923594741E+03    0.39637E-06   -0.15900E-04 11681   0.182E-02    0.133E-02
RMM:   7    -0.708923595565E+03   -0.82401E-06   -0.59259E-05  9405   0.111E-02
  14 F= -.70892360E+03 E0= -.70892360E+03  d E =-.373293E-02
       N       E                     dE             d eps       ncg     rms          rms(c)
DAV:   1    -0.708923476700E+03    0.11804E-03   -0.33484E-02 10720   0.259E-01    0.330E-02
RMM:   2    -0.708923582898E+03   -0.10620E-03   -0.11314E-03 12918   0.676E-02    0.975E-03
RMM:   3    -0.708923604249E+03   -0.21351E-04   -0.24388E-04 13327   0.268E-02    0.879E-03
RMM:   4    -0.708923604200E+03    0.49338E-07   -0.26426E-05  7103   0.109E-02
  15 F= -.70892360E+03 E0= -.70892360E+03  d E =-.374156E-02
       N       E                     dE             d eps       ncg     rms          rms(c)
DAV:   1    -0.708919029254E+03    0.45750E-02   -0.16285E+00 10632   0.184E+00    0.205E-01
RMM:   2    -0.708924112052E+03   -0.50828E-02   -0.53587E-02 13149   0.471E-01    0.628E-02
RMM:   3    -0.708925252601E+03   -0.11405E-02   -0.12242E-02 15292   0.185E-01    0.645E-02
RMM:   4    -0.708925285207E+03   -0.32606E-04   -0.12249E-03 15043   0.592E-02    0.324E-02
RMM:   5    -0.708925272478E+03    0.12729E-04   -0.34182E-04 12982   0.281E-02    0.191E-02
RMM:   6    -0.708925272076E+03    0.40189E-06   -0.58081E-05  9572   0.125E-02
  16 F= -.70892527E+03 E0= -.70892527E+03  d E =-.166788E-02
       N       E                     dE             d eps       ncg     rms          rms(c)
DAV:   1    -0.708925265558E+03    0.69201E-05   -0.64878E-04 11464   0.410E-02    0.753E-03
RMM:   2    -0.708925268336E+03   -0.27778E-05   -0.33401E-05  6896   0.147E-02
  17 F= -.70892527E+03 E0= -.70892527E+03  d E =-.166414E-02
       N       E                     dE             d eps       ncg     rms          rms(c)
DAV:   1    -0.708925269927E+03   -0.43687E-05   -0.51206E-04 10863   0.339E-02    0.357E-03
RMM:   2    -0.708925272663E+03   -0.27366E-05   -0.29009E-05  8290   0.125E-02
  18 F= -.70892527E+03 E0= -.70892527E+03  d E =-.166846E-02
       N       E                     dE             d eps       ncg     rms          rms(c)
DAV:   1    -0.708923228565E+03    0.20414E-02   -0.72307E-01 10658   0.124E+00    0.135E-01
RMM:   2    -0.708925518571E+03   -0.22900E-02   -0.24215E-02 13183   0.323E-01    0.422E-02
RMM:   3    -0.708926039064E+03   -0.52049E-03   -0.56226E-03 15242   0.126E-01    0.433E-02
RMM:   4    -0.708926058123E+03   -0.19059E-04   -0.58382E-04 14961   0.412E-02    0.227E-02
RMM:   5    -0.708926052235E+03    0.58882E-05   -0.16217E-04 12239   0.202E-02    0.121E-02
RMM:   6    -0.708926052612E+03   -0.37716E-06   -0.29517E-05  8518   0.934E-03
  19 F= -.70892605E+03 E0= -.70892605E+03  d E =-.779949E-03
       N       E                     dE             d eps       ncg     rms          rms(c)
DAV:   1    -0.708926047133E+03    0.51021E-05   -0.98136E-04 10712   0.467E-02    0.694E-03
RMM:   2    -0.708926050774E+03   -0.36416E-05   -0.40346E-05  7452   0.148E-02
  20 F= -.70892605E+03 E0= -.70892605E+03  d E =-.778111E-03
       N       E                     dE             d eps       ncg     rms          rms(c)
DAV:   1    -0.708926050159E+03   -0.30257E-05   -0.61293E-04 11169   0.361E-02    0.428E-03
RMM:   2    -0.708926052495E+03   -0.23361E-05   -0.25257E-05  6789   0.116E-02
  21 F= -.70892605E+03 E0= -.70892605E+03  d E =-.779831E-03
       N       E                     dE             d eps       ncg     rms          rms(c)
DAV:   1    -0.708924850690E+03    0.11995E-02   -0.44459E-01 10784   0.971E-01    0.106E-01
RMM:   2    -0.708926186690E+03   -0.13360E-02   -0.14072E-02 12914   0.248E-01    0.336E-02
RMM:   3    -0.708926532638E+03   -0.34595E-03   -0.36393E-03 15238   0.101E-01    0.329E-02
RMM:   4    -0.708926551368E+03   -0.18730E-04   -0.36164E-04 13745   0.325E-02    0.201E-02
RMM:   5    -0.708926548773E+03    0.25945E-05   -0.10918E-04 11154   0.182E-02    0.115E-02
RMM:   6    -0.708926548654E+03    0.11949E-06   -0.22324E-05  7728   0.803E-03
  22 F= -.70892655E+03 E0= -.70892655E+03  d E =-.496159E-03
       N       E                     dE             d eps       ncg     rms          rms(c)
DAV:   1    -0.708926547784E+03    0.98939E-06   -0.26826E-03 11374   0.764E-02    0.725E-03
RMM:   2    -0.708926558091E+03   -0.10307E-04   -0.10903E-04 10371   0.213E-02    0.293E-03
RMM:   3    -0.708926559119E+03   -0.10274E-05   -0.22684E-05  6763   0.952E-03
  23 F= -.70892656E+03 E0= -.70892656E+03  d E =-.506624E-03
       N       E                     dE             d eps       ncg     rms          rms(c)
DAV:   1    -0.708926128544E+03    0.42955E-03   -0.19791E-01 10802   0.651E-01    0.693E-02
RMM:   2    -0.708926729882E+03   -0.60134E-03   -0.63694E-03 12920   0.168E-01    0.227E-02
RMM:   3    -0.708926877870E+03   -0.14799E-03   -0.15947E-03 15132   0.677E-02    0.223E-02
RMM:   4    -0.708926887161E+03   -0.92914E-05   -0.17872E-04 12596   0.228E-02    0.138E-02
RMM:   5    -0.708926885878E+03    0.12839E-05   -0.53085E-05  9737   0.136E-02
  24 F= -.70892689E+03 E0= -.70892689E+03  d E =-.326759E-03
       N       E                     dE             d eps       ncg     rms          rms(c)
DAV:   1    -0.708926880583E+03    0.65788E-05   -0.59101E-03 11847   0.113E-01    0.144E-02
RMM:   2    -0.708926901227E+03   -0.20644E-04   -0.21922E-04 12568   0.307E-02    0.435E-03
RMM:   3    -0.708926905764E+03   -0.45366E-05   -0.59361E-05  9139   0.132E-02
  25 F= -.70892691E+03 E0= -.70892691E+03  d E =-.346645E-03
       N       E                     dE             d eps       ncg     rms          rms(c)
DAV:   1    -0.708926460175E+03    0.44105E-03   -0.18752E-01 11020   0.641E-01    0.659E-02
RMM:   2    -0.708927005134E+03   -0.54496E-03   -0.57398E-03 12800   0.163E-01    0.219E-02
RMM:   3    -0.708927151676E+03   -0.14654E-03   -0.15465E-03 15095   0.675E-02    0.207E-02
RMM:   4    -0.708927162369E+03   -0.10693E-04   -0.17382E-04 12613   0.228E-02    0.136E-02
RMM:   5    -0.708927161235E+03    0.11339E-05   -0.53701E-05  9814   0.140E-02
  26 F= -.70892716E+03 E0= -.70892716E+03  d E =-.255472E-03
       N       E                     dE             d eps       ncg     rms          rms(c)
DAV:   1    -0.708927151372E+03    0.10997E-04   -0.88117E-03 11854   0.139E-01    0.169E-02
RMM:   2    -0.708927179565E+03   -0.28193E-04   -0.29861E-04 12533   0.368E-02    0.523E-03
RMM:   3    -0.708927186736E+03   -0.71710E-05   -0.88810E-05 11380   0.161E-02
  27 F= -.70892719E+03 E0= -.70892719E+03  d E =-.280973E-03
       N       E                     dE             d eps       ncg     rms          rms(c)
DAV:   1    -0.708926813256E+03    0.36631E-03   -0.14965E-01 10928   0.574E-01    0.585E-02
RMM:   2    -0.708927262928E+03   -0.44967E-03   -0.47263E-03 12904   0.147E-01    0.197E-02
RMM:   3    -0.708927381842E+03   -0.11891E-03   -0.12654E-03 15109   0.607E-02    0.187E-02
RMM:   4    -0.708927390841E+03   -0.89995E-05   -0.14746E-04 12401   0.206E-02    0.118E-02
RMM:   5    -0.708927389684E+03    0.11570E-05   -0.44259E-05  9291   0.129E-02
  28 F= -.70892739E+03 E0= -.70892739E+03  d E =-.202948E-03
       N       E                     dE             d eps       ncg     rms          rms(c)
DAV:   1    -0.708927382425E+03    0.84160E-05   -0.57884E-03 11824   0.113E-01    0.139E-02
RMM:   2    -0.708927401997E+03   -0.19572E-04   -0.20668E-04 12389   0.302E-02    0.433E-03
RMM:   3    -0.708927406183E+03   -0.41856E-05   -0.58256E-05  8732   0.133E-02
  29 F= -.70892741E+03 E0= -.70892741E+03  d E =-.219447E-03
       N       E                     dE             d eps       ncg     rms          rms(c)
DAV:   1    -0.708927020672E+03    0.38132E-03   -0.14889E-01 10976   0.571E-01    0.588E-02
RMM:   2    -0.708927445998E+03   -0.42533E-03   -0.44575E-03 12687   0.144E-01    0.195E-02
RMM:   3    -0.708927565202E+03   -0.11920E-03   -0.12437E-03 15047   0.605E-02    0.180E-02
RMM:   4    -0.708927574885E+03   -0.96823E-05   -0.14049E-04 12425   0.206E-02    0.123E-02
RMM:   5    -0.708927574279E+03    0.60533E-06   -0.41336E-05  9016   0.126E-02
  30 F= -.70892757E+03 E0= -.70892757E+03  d E =-.168097E-03
       N       E                     dE             d eps       ncg     rms          rms(c)
DAV:   1    -0.708926139685E+03    0.14352E-02   -0.41046E-01 11144   0.947E-01    0.101E-01
RMM:   2    -0.708927270933E+03   -0.11312E-02   -0.11866E-02 12563   0.236E-01    0.329E-02
RMM:   3    -0.708927626606E+03   -0.35567E-03   -0.36408E-03 15206   0.102E-01    0.293E-02
RMM:   4    -0.708927656518E+03   -0.29912E-04   -0.38016E-04 14238   0.330E-02    0.226E-02
RMM:   5    -0.708927653832E+03    0.26852E-05   -0.11300E-04 10976   0.179E-02    0.135E-02
RMM:   6    -0.708927653571E+03    0.26146E-06   -0.23170E-05  7647   0.818E-03
  31 F= -.70892765E+03 E0= -.70892765E+03  d E =-.247388E-03
       N       E                     dE             d eps       ncg     rms          rms(c)
DAV:   1    -0.708927361740E+03    0.29209E-03   -0.77872E-02 11008   0.412E-01    0.449E-02
RMM:   2    -0.708927573632E+03   -0.21189E-03   -0.22254E-03 12486   0.104E-01    0.148E-02
RMM:   3    -0.708927640816E+03   -0.67185E-04   -0.69670E-04 14463   0.454E-02    0.121E-02
RMM:   4    -0.708927646962E+03   -0.61457E-05   -0.78749E-05 10994   0.170E-02
  32 F= -.70892765E+03 E0= -.70892765E+03  d E =-.240779E-03
       N       E                     dE             d eps       ncg     rms          rms(c)
DAV:   1    -0.708927534005E+03    0.10681E-03   -0.32035E-02 11366   0.266E-01    0.242E-02
RMM:   2    -0.708927631497E+03   -0.97491E-04   -0.10226E-03 12642   0.684E-02    0.879E-03
RMM:   3    -0.708927655573E+03   -0.24076E-04   -0.26262E-04 13510   0.287E-02    0.968E-03
RMM:   4    -0.708927656940E+03   -0.13668E-05   -0.34376E-05  7572   0.125E-02
  33 F= -.70892766E+03 E0= -.70892766E+03  d E =-.250757E-03
       N       E                     dE             d eps       ncg     rms          rms(c)
DAV:   1    -0.708927621747E+03    0.33826E-04   -0.79930E-03 10928   0.133E-01    0.128E-02
RMM:   2    -0.708927646858E+03   -0.25110E-04   -0.26341E-04 12357   0.341E-02    0.441E-03
RMM:   3    -0.708927652109E+03   -0.52510E-05   -0.67728E-05  9381   0.147E-02
  34 F= -.70892765E+03 E0= -.70892765E+03  d E =-.245926E-03
       N       E                     dE             d eps       ncg     rms          rms(c)
DAV:   1    -0.708927643702E+03    0.31551E-05   -0.31339E-03 11222   0.830E-02    0.107E-02
RMM:   2    -0.708927654284E+03   -0.10581E-04   -0.11091E-04 10968   0.214E-02    0.315E-03
RMM:   3    -0.708927655866E+03   -0.15824E-05   -0.25542E-05  6934   0.101E-02
  35 F= -.70892766E+03 E0= -.70892766E+03  d E =-.249683E-03
       N       E                     dE             d eps       ncg     rms          rms(c)
DAV:   1    -0.708927652281E+03    0.20026E-05   -0.75748E-04 10662   0.410E-02    0.547E-03
RMM:   2    -0.708927654954E+03   -0.26732E-05   -0.28232E-05  7393   0.107E-02
  36 F= -.70892765E+03 E0= -.70892765E+03  d E =-.248772E-03
       N       E                     dE             d eps       ncg     rms          rms(c)
DAV:   1    -0.708927655278E+03   -0.29973E-05   -0.25885E-04 10928   0.235E-02    0.276E-03
RMM:   2    -0.708927656061E+03   -0.78224E-06   -0.82788E-06  5536   0.577E-03
  37 F= -.70892766E+03 E0= -.70892766E+03  d E =-.249878E-03
       N       E                     dE             d eps       ncg     rms          rms(c)
DAV:   1    -0.708927655159E+03    0.11967E-06   -0.71409E-05  9266   0.141E-02    0.172E-03
RMM:   2    -0.708927655764E+03   -0.60506E-06   -0.71890E-06  5209   0.619E-03
  38 F= -.70892766E+03 E0= -.70892766E+03  d E =-.249581E-03
       N       E                     dE             d eps       ncg     rms          rms(c)
DAV:   1    -0.708927655607E+03   -0.44880E-06   -0.25632E-05  7342   0.961E-03    0.106E-03
RMM:   2    -0.708927656007E+03   -0.39954E-06   -0.41439E-06  5155   0.473E-03
  39 F= -.70892766E+03 E0= -.70892766E+03  d E =-.249824E-03
       N       E                     dE             d eps       ncg     rms          rms(c)
DAV:   1    -0.708927655769E+03   -0.16179E-06   -0.41015E-06  5488   0.624E-03    0.904E-04
RMM:   2    -0.708927655911E+03   -0.14180E-06   -0.16250E-06  4819   0.271E-03
  40 F= -.70892766E+03 E0= -.70892766E+03  d E =-.249728E-03
       N       E                     dE             d eps       ncg     rms          rms(c)
DAV:   1    -0.708927656005E+03   -0.23590E-06   -0.71768E-07  5326   0.372E-03    0.726E-04
RMM:   2    -0.708927656044E+03   -0.38490E-07   -0.54200E-07  4367   0.158E-03
  41 F= -.70892766E+03 E0= -.70892766E+03  d E =-.249861E-03
       N       E                     dE             d eps       ncg     rms          rms(c)
DAV:   1    -0.708927563156E+03    0.92849E-04   -0.45896E-02 11078   0.318E-01    0.326E-02
RMM:   2    -0.708927685894E+03   -0.12274E-03   -0.12838E-03 12348   0.776E-02    0.110E-02
RMM:   3    -0.708927723308E+03   -0.37414E-04   -0.39386E-04 13858   0.342E-02    0.957E-03
RMM:   4    -0.708927726675E+03   -0.33670E-05   -0.46511E-05  8734   0.138E-02
  42 F= -.70892773E+03 E0= -.70892773E+03  d E =-.706316E-04
       N       E                     dE             d eps       ncg     rms          rms(c)
DAV:   1    -0.708927729028E+03   -0.57198E-05   -0.36897E-03 11816   0.906E-02    0.116E-02
RMM:   2    -0.708927739840E+03   -0.10812E-04   -0.11558E-04 11307   0.247E-02    0.443E-03
RMM:   3    -0.708927742740E+03   -0.28997E-05   -0.37858E-05  7552   0.116E-02
  43 F= -.70892774E+03 E0= -.70892774E+03  d E =-.866962E-04
       N       E                     dE             d eps       ncg     rms          rms(c)
DAV:   1    -0.708927764517E+03   -0.24677E-04   -0.34280E-03 10756   0.894E-02    0.912E-03
RMM:   2    -0.708927779426E+03   -0.14908E-04   -0.16026E-04 13191   0.276E-02    0.324E-03
RMM:   3    -0.708927781833E+03   -0.24075E-05   -0.36329E-05  6928   0.115E-02
  44 F= -.70892778E+03 E0= -.70892778E+03  d E =-.390934E-04
       N       E                     dE             d eps       ncg     rms          rms(c)
DAV:   1    -0.708927788289E+03   -0.88634E-05   -0.10666E-03 11592   0.535E-02    0.544E-03
RMM:   2    -0.708927795187E+03   -0.68977E-05   -0.83219E-05 11837   0.223E-02
  45 F= -.70892780E+03 E0= -.70892780E+03  d E =-.524471E-04
       N       E                     dE             d eps       ncg     rms          rms(c)
DAV:   1    -0.708927804989E+03   -0.16700E-04   -0.10638E-03 11030   0.518E-02    0.531E-03
RMM:   2    -0.708927811327E+03   -0.63381E-05   -0.69638E-05 10875   0.199E-02
  46 F= -.70892781E+03 E0= -.70892781E+03  d E =-.161402E-04
