<?xml version="1.0" encoding="ISO-8859-1"?>
<modeling>
 <generator>
  <i name="program" type="string">vasp </i>
  <i name="version" type="string">6.4.2  </i>
  <i name="subversion" type="string">20Jul23 (build Nov 12 2023 22:16:35) complex                          parallel </i>
  <i name="platform" type="string">LinuxNV </i>
  <i name="date" type="string">2025 03 08 </i>
  <i name="time" type="string">11:10:04 </i>
 </generator>
 <incar>
  <i type="int" name="ISTART">     0</i>
  <i type="string" name="PREC">Normal</i>
  <i type="string" name="ALGO">Fast</i>
  <i type="int" name="ISPIN">     1</i>
  <i type="int" name="ICHARG">     2</i>
  <i type="int" name="IBRION">     2</i>
  <i name="EDIFF">      0.00001000</i>
  <i name="EDIFFG">     -0.00500000</i>
  <i type="int" name="NSW">   300</i>
  <i type="int" name="ISIF">     2</i>
  <i name="ENCUT">    450.00000000</i>
  <i name="NELECT">   1056.00000000</i>
  <i type="string" name="LREAL">Auto</i>
  <i type="logical" name="LPLANE"> T  </i>
  <i type="int" name="ISMEAR">     0</i>
  <i name="SIGMA">      0.05000000</i>
  <i type="logical" name="LWAVE"> F  </i>
  <i type="logical" name="LCHARG"> F  </i>
 </incar>
 <primitive_cell>
  <structure name="primitive_cell" >
   <crystal>
    <varray name="basis" >
     <v>       0.00000000      12.28047342       0.00000000 </v>
     <v>       9.14270205       0.00000000       0.00000000 </v>
     <v>       0.00000000      -2.76826177     -11.30069772 </v>
    </varray>
    <i name="volume">   1268.80515525 </i>
    <varray name="rec_basis" >
     <v>       0.00000000       0.08143009      -0.01994742 </v>
     <v>       0.10937686      -0.00000000       0.00000000 </v>
     <v>       0.00000000       0.00000000      -0.08849011 </v>
    </varray>
   </crystal>
   <varray name="positions" >
    <v>       0.65883830       0.00000000       0.15736517 </v>
    <v>       0.65883830       0.00000000       0.65736517 </v>
    <v>       0.65883830       0.33333333       0.15736517 </v>
    <v>       0.65883830       0.33333333       0.65736517 </v>
    <v>       0.65883830       0.66666667       0.15736517 </v>
    <v>       0.65883830       0.66666667       0.65736517 </v>
    <v>       0.84116170       0.16666667       0.34263483 </v>
    <v>       0.84116170       0.16666667       0.84263483 </v>
    <v>       0.84116170       0.50000000       0.34263483 </v>
    <v>       0.84116170       0.50000000       0.84263483 </v>
    <v>       0.84116170       0.83333333       0.34263483 </v>
    <v>       0.84116170       0.83333333       0.84263483 </v>
    <v>       0.59047440       0.16666667       0.39739300 </v>
    <v>       0.59047440       0.16666667       0.89739300 </v>
    <v>       0.59047440       0.50000000       0.39739300 </v>
    <v>       0.59047440       0.50000000       0.89739300 </v>
    <v>       0.59047440       0.83333333       0.39739300 </v>
    <v>       0.59047440       0.83333333       0.89739300 </v>
    <v>       0.90952560       0.00000000       0.10260700 </v>
    <v>       0.90952560       0.00000000       0.60260700 </v>
    <v>       0.90952560       0.33333333       0.10260700 </v>
    <v>       0.90952560       0.33333333       0.60260700 </v>
    <v>       0.90952560       0.66666667       0.10260700 </v>
    <v>       0.90952560       0.66666667       0.60260700 </v>
    <v>       0.15883830       0.16666667       0.15736517 </v>
    <v>       0.15883830       0.16666667       0.65736517 </v>
    <v>       0.15883830       0.50000000       0.15736517 </v>
    <v>       0.15883830       0.50000000       0.65736517 </v>
    <v>       0.15883830       0.83333333       0.15736517 </v>
    <v>       0.15883830       0.83333333       0.65736517 </v>
    <v>       0.34116170       0.00000000       0.34263483 </v>
    <v>       0.34116170       0.00000000       0.84263483 </v>
    <v>       0.34116170       0.33333333       0.34263483 </v>
    <v>       0.34116170       0.33333333       0.84263483 </v>
    <v>       0.34116170       0.66666667       0.34263483 </v>
    <v>       0.34116170       0.66666667       0.84263483 </v>
    <v>       0.09047440       0.00000000       0.39739300 </v>
    <v>       0.09047440       0.00000000       0.89739300 </v>
    <v>       0.09047440       0.33333333       0.39739300 </v>
    <v>       0.09047440       0.33333333       0.89739300 </v>
    <v>       0.09047440       0.66666667       0.39739300 </v>
    <v>       0.09047440       0.66666667       0.89739300 </v>
    <v>       0.40952560       0.16666667       0.10260700 </v>
    <v>       0.40952560       0.16666667       0.60260700 </v>
    <v>       0.40952560       0.50000000       0.10260700 </v>
    <v>       0.40952560       0.50000000       0.60260700 </v>
    <v>       0.40952560       0.83333333       0.10260700 </v>
    <v>       0.40952560       0.83333333       0.60260700 </v>
    <v>       0.99646913       0.16666667       0.12833205 </v>
    <v>       0.99646913       0.16666667       0.62833205 </v>
    <v>       0.99646913       0.50000000       0.12833205 </v>
    <v>       0.99646913       0.50000000       0.62833205 </v>
    <v>       0.99646913       0.83333333       0.12833205 </v>
    <v>       0.99646913       0.83333333       0.62833205 </v>
    <v>       0.50353087       0.00000000       0.37166795 </v>
    <v>       0.50353087       0.00000000       0.87166795 </v>
    <v>       0.50353087       0.33333333       0.37166795 </v>
    <v>       0.50353087       0.33333333       0.87166795 </v>
    <v>       0.50353087       0.66666667       0.37166795 </v>
    <v>       0.50353087       0.66666667       0.87166795 </v>
    <v>       0.67337106       0.16666667       0.28161508 </v>
    <v>       0.67337106       0.16666667       0.78161508 </v>
    <v>       0.67337106       0.50000000       0.28161508 </v>
    <v>       0.67337106       0.50000000       0.78161508 </v>
    <v>       0.67337106       0.83333333       0.28161508 </v>
    <v>       0.67337106       0.83333333       0.78161508 </v>
    <v>       0.82662894       0.00000000       0.21838492 </v>
    <v>       0.82662894       0.00000000       0.71838492 </v>
    <v>       0.82662894       0.33333333       0.21838492 </v>
    <v>       0.82662894       0.33333333       0.71838492 </v>
    <v>       0.82662894       0.66666667       0.21838492 </v>
    <v>       0.82662894       0.66666667       0.71838492 </v>
    <v>       0.83549502       0.00000000       0.44542296 </v>
    <v>       0.83549502       0.00000000       0.94542296 </v>
    <v>       0.83549502       0.33333333       0.44542296 </v>
    <v>       0.83549502       0.33333333       0.94542296 </v>
    <v>       0.83549502       0.66666667       0.44542296 </v>
    <v>       0.83549502       0.66666667       0.94542296 </v>
    <v>       0.66450498       0.16666667       0.05457704 </v>
    <v>       0.66450498       0.16666667       0.55457704 </v>
    <v>       0.66450498       0.50000000       0.05457704 </v>
    <v>       0.66450498       0.50000000       0.55457704 </v>
    <v>       0.66450498       0.83333333       0.05457704 </v>
    <v>       0.66450498       0.83333333       0.55457704 </v>
    <v>       0.49646913       0.00000000       0.12833205 </v>
    <v>       0.49646913       0.00000000       0.62833205 </v>
    <v>       0.49646913       0.33333333       0.12833205 </v>
    <v>       0.49646913       0.33333333       0.62833205 </v>
    <v>       0.49646913       0.66666667       0.12833205 </v>
    <v>       0.49646913       0.66666667       0.62833205 </v>
    <v>       0.00353087       0.16666667       0.87166795 </v>
    <v>       0.00353087       0.50000000       0.37166795 </v>
    <v>       0.00353087       0.50000000       0.87166795 </v>
    <v>       0.00353087       0.83333333       0.37166795 </v>
    <v>       0.00353087       0.83333333       0.87166795 </v>
    <v>       0.17337106       0.00000000       0.28161508 </v>
    <v>       0.17337106       0.00000000       0.78161508 </v>
    <v>       0.17337106       0.33333333       0.28161508 </v>
    <v>       0.17337106       0.33333333       0.78161508 </v>
    <v>       0.17337106       0.66666667       0.28161508 </v>
    <v>       0.17337106       0.66666667       0.78161508 </v>
    <v>       0.32662894       0.16666667       0.21838492 </v>
    <v>       0.32662894       0.16666667       0.71838492 </v>
    <v>       0.32662894       0.50000000       0.21838492 </v>
    <v>       0.32662894       0.50000000       0.71838492 </v>
    <v>       0.32662894       0.83333333       0.21838492 </v>
    <v>       0.32662894       0.83333333       0.71838492 </v>
    <v>       0.33549502       0.16666667       0.44542296 </v>
    <v>       0.33549502       0.16666667       0.94542296 </v>
    <v>       0.33549502       0.50000000       0.44542296 </v>
    <v>       0.33549502       0.50000000       0.94542296 </v>
    <v>       0.33549502       0.83333333       0.44542296 </v>
    <v>       0.33549502       0.83333333       0.94542296 </v>
    <v>       0.16450498       0.00000000       0.05457704 </v>
    <v>       0.16450498       0.00000000       0.55457704 </v>
    <v>       0.16450498       0.33333333       0.05457704 </v>
    <v>       0.16450498       0.33333333       0.55457704 </v>
    <v>       0.16450498       0.66666667       0.05457704 </v>
    <v>       0.16450498       0.66666667       0.55457704 </v>
    <v>       0.00353087       0.16666667       0.37166795 </v>
   </varray>
  </structure>
  <varray name="primitive_index" >
   <v type="int" >        1 </v>
   <v type="int" >        2 </v>
   <v type="int" >        3 </v>
   <v type="int" >        4 </v>
   <v type="int" >        5 </v>
   <v type="int" >        6 </v>
   <v type="int" >        7 </v>
   <v type="int" >        8 </v>
   <v type="int" >        9 </v>
   <v type="int" >       10 </v>
   <v type="int" >       11 </v>
   <v type="int" >       12 </v>
   <v type="int" >       13 </v>
   <v type="int" >       14 </v>
   <v type="int" >       15 </v>
   <v type="int" >       16 </v>
   <v type="int" >       17 </v>
   <v type="int" >       18 </v>
   <v type="int" >       19 </v>
   <v type="int" >       20 </v>
   <v type="int" >       21 </v>
   <v type="int" >       22 </v>
   <v type="int" >       23 </v>
   <v type="int" >       24 </v>
   <v type="int" >       25 </v>
   <v type="int" >       26 </v>
   <v type="int" >       27 </v>
   <v type="int" >       28 </v>
   <v type="int" >       29 </v>
   <v type="int" >       30 </v>
   <v type="int" >       31 </v>
   <v type="int" >       32 </v>
   <v type="int" >       33 </v>
   <v type="int" >       34 </v>
   <v type="int" >       35 </v>
   <v type="int" >       36 </v>
   <v type="int" >       37 </v>
   <v type="int" >       38 </v>
   <v type="int" >       39 </v>
   <v type="int" >       40 </v>
   <v type="int" >       41 </v>
   <v type="int" >       42 </v>
   <v type="int" >       43 </v>
   <v type="int" >       44 </v>
   <v type="int" >       45 </v>
   <v type="int" >       46 </v>
   <v type="int" >       47 </v>
   <v type="int" >       48 </v>
   <v type="int" >       49 </v>
   <v type="int" >       50 </v>
   <v type="int" >       51 </v>
   <v type="int" >       52 </v>
   <v type="int" >       53 </v>
   <v type="int" >       54 </v>
   <v type="int" >       55 </v>
   <v type="int" >       56 </v>
   <v type="int" >       57 </v>
   <v type="int" >       58 </v>
   <v type="int" >       59 </v>
   <v type="int" >       60 </v>
   <v type="int" >       61 </v>
   <v type="int" >       62 </v>
   <v type="int" >       63 </v>
   <v type="int" >       64 </v>
   <v type="int" >       65 </v>
   <v type="int" >       66 </v>
   <v type="int" >       67 </v>
   <v type="int" >       68 </v>
   <v type="int" >       69 </v>
   <v type="int" >       70 </v>
   <v type="int" >       71 </v>
   <v type="int" >       72 </v>
   <v type="int" >       73 </v>
   <v type="int" >       74 </v>
   <v type="int" >       75 </v>
   <v type="int" >       76 </v>
   <v type="int" >       77 </v>
   <v type="int" >       78 </v>
   <v type="int" >       79 </v>
   <v type="int" >       80 </v>
   <v type="int" >       81 </v>
   <v type="int" >       82 </v>
   <v type="int" >       83 </v>
   <v type="int" >       84 </v>
   <v type="int" >       85 </v>
   <v type="int" >       86 </v>
   <v type="int" >       87 </v>
   <v type="int" >       88 </v>
   <v type="int" >       89 </v>
   <v type="int" >       90 </v>
   <v type="int" >       91 </v>
   <v type="int" >       92 </v>
   <v type="int" >       93 </v>
   <v type="int" >       94 </v>
   <v type="int" >       95 </v>
   <v type="int" >       96 </v>
   <v type="int" >       97 </v>
   <v type="int" >       98 </v>
   <v type="int" >       99 </v>
   <v type="int" >      100 </v>
   <v type="int" >      101 </v>
   <v type="int" >      102 </v>
   <v type="int" >      103 </v>
   <v type="int" >      104 </v>
   <v type="int" >      105 </v>
   <v type="int" >      106 </v>
   <v type="int" >      107 </v>
   <v type="int" >      108 </v>
   <v type="int" >      109 </v>
   <v type="int" >      110 </v>
   <v type="int" >      111 </v>
   <v type="int" >      112 </v>
   <v type="int" >      113 </v>
   <v type="int" >      114 </v>
   <v type="int" >      115 </v>
   <v type="int" >      116 </v>
   <v type="int" >      117 </v>
   <v type="int" >      118 </v>
   <v type="int" >      119 </v>
   <v type="int" >      120 </v>
  </varray>
 </primitive_cell>
 <kpoints>
  <generation param="Gamma">
   <v type="int" name="divisions">       2        2        2 </v>
   <v name="usershift">      0.00000000       0.00000000       0.00000000 </v>
   <v name="genvec1">      0.50000000       0.00000000       0.00000000 </v>
   <v name="genvec2">      0.00000000       0.50000000       0.00000000 </v>
   <v name="genvec3">      0.00000000       0.00000000       0.50000000 </v>
   <v name="shift">      0.00000000       0.00000000       0.00000000 </v>
  </generation>
  <varray name="kpointlist" >
   <v>       0.00000000       0.00000000       0.00000000 </v>
   <v>       0.50000000       0.00000000       0.00000000 </v>
   <v>       0.00000000       0.50000000       0.00000000 </v>
   <v>       0.50000000       0.50000000       0.00000000 </v>
   <v>       0.00000000       0.00000000       0.50000000 </v>
   <v>       0.50000000       0.00000000       0.50000000 </v>
   <v>       0.00000000       0.50000000       0.50000000 </v>
   <v>       0.50000000       0.50000000       0.50000000 </v>
  </varray>
  <varray name="weights" >
   <v>       0.12500000 </v>
   <v>       0.12500000 </v>
   <v>       0.12500000 </v>
   <v>       0.12500000 </v>
   <v>       0.12500000 </v>
   <v>       0.12500000 </v>
   <v>       0.12500000 </v>
   <v>       0.12500000 </v>
  </varray>
 </kpoints>
 <parameters>
  <separator name="general" >
   <i type="string" name="SYSTEM">unknown system</i>
   <i type="logical" name="LCOMPAT"> F  </i>
  </separator>
  <separator name="electronic" >
   <i type="string" name="PREC">normal</i>
   <i name="ENMAX">    450.00000000</i>
   <i name="ENAUG">    627.11200000</i>
   <i name="EDIFF">      0.00001000</i>
   <i type="int" name="IALGO">    68</i>
   <i type="int" name="IWAVPR">    11</i>
   <i type="int" name="NBANDS">   633</i>
   <i type="int" name="NBANDSLOW">    -1</i>
   <i type="int" name="NBANDSHIGH">    -1</i>
   <i name="NELECT">   1056.00000000</i>
   <i type="int" name="TURBO">     0</i>
   <i type="int" name="IRESTART">     0</i>
   <i type="int" name="NREBOOT">     0</i>
   <i type="int" name="NMIN">     0</i>
   <i name="EREF">      0.00000000</i>
   <separator name="electronic smearing" >
    <i type="int" name="ISMEAR">     0</i>
    <i name="SIGMA">      0.05000000</i>
    <i name="KSPACING">      0.50000000</i>
    <i type="logical" name="KGAMMA"> T  </i>
    <i type="logical" name="KBLOWUP"> T  </i>
   </separator>
   <separator name="electronic projectors" >
    <i type="logical" name="LREAL"> T  </i>
    <v name="ROPT">     -0.00050000     -0.00050000     -0.00050000</v>
    <i type="int" name="LMAXPAW">  -100</i>
    <i type="int" name="LMAXMIX">     2</i>
    <i type="logical" name="NLSPLINE"> F  </i>
   </separator>
   <separator name="electronic startup" >
    <i type="int" name="ISTART">     0</i>
    <i type="int" name="ICHARG">     2</i>
    <i type="int" name="INIWAV">     1</i>
   </separator>
   <separator name="electronic spin" >
    <i type="int" name="ISPIN">     1</i>
    <i type="logical" name="LNONCOLLINEAR"> F  </i>
    <v name="MAGMOM">      1.00000000      1.00000000      1.00000000      1.00000000      1.00000000      1.00000000      1.00000000      1.00000000      1.00000000      1.00000000      1.00000000      1.00000000      1.00000000      1.00000000      1.00000000      1.00000000      1.00000000      1.00000000      1.00000000      1.00000000
      1.00000000      1.00000000      1.00000000      1.00000000      1.00000000      1.00000000      1.00000000      1.00000000      1.00000000      1.00000000      1.00000000      1.00000000      1.00000000      1.00000000      1.00000000      1.00000000      1.00000000      1.00000000      1.00000000      1.00000000
      1.00000000      1.00000000      1.00000000      1.00000000      1.00000000      1.00000000      1.00000000      1.00000000      1.00000000      1.00000000      1.00000000      1.00000000      1.00000000      1.00000000      1.00000000      1.00000000      1.00000000      1.00000000      1.00000000      1.00000000
      1.00000000      1.00000000      1.00000000      1.00000000      1.00000000      1.00000000      1.00000000      1.00000000      1.00000000      1.00000000      1.00000000      1.00000000      1.00000000      1.00000000      1.00000000      1.00000000      1.00000000      1.00000000      1.00000000      1.00000000
      1.00000000      1.00000000      1.00000000      1.00000000      1.00000000      1.00000000      1.00000000      1.00000000      1.00000000      1.00000000      1.00000000      1.00000000      1.00000000      1.00000000      1.00000000      1.00000000      1.00000000      1.00000000      1.00000000      1.00000000
      1.00000000      1.00000000      1.00000000      1.00000000      1.00000000      1.00000000      1.00000000      1.00000000      1.00000000      1.00000000      1.00000000      1.00000000      1.00000000      1.00000000      1.00000000      1.00000000      1.00000000      1.00000000      1.00000000      1.00000000
</v>
    <i name="NUPDOWN">     -1.00000000</i>
    <i type="logical" name="LSORBIT"> F  </i>
    <v name="SAXIS">      0.00000000      0.00000000      1.00000000</v>
    <i type="logical" name="LSPIRAL"> F  </i>
    <v name="QSPIRAL">      0.00000000      0.00000000      0.00000000</v>
    <i type="logical" name="LZEROZ"> F  </i>
   </separator>
   <separator name="electronic exchange-correlation" >
    <i type="logical" name="LASPH"> F  </i>
    <i type="logical" name="LMETAGGA"> F  </i>
   </separator>
   <separator name="electronic convergence" >
    <i type="int" name="NELM">    60</i>
    <i type="int" name="NELMDL">    -5</i>
    <i type="int" name="NELMIN">     2</i>
    <i name="ENINI">    450.00000000</i>
    <separator name="electronic convergence detail" >
     <i type="logical" name="LDIAG"> T  </i>
     <i type="logical" name="LSUBROT"> F  </i>
     <i name="WEIMIN">      0.00100000</i>
     <i name="EBREAK">      0.00000000</i>
     <i name="DEPER">      0.30000000</i>
     <i type="int" name="NRMM">     4</i>
     <i name="TIME">      0.40000000</i>
    </separator>
   </separator>
   <separator name="electronic mixer" >
    <i name="AMIX">      0.40000000</i>
    <i name="BMIX">      1.00000000</i>
    <i name="AMIN">      0.10000000</i>
    <i name="AMIX_MAG">      1.60000000</i>
    <i name="BMIX_MAG">      1.00000000</i>
    <separator name="electronic mixer details" >
     <i type="int" name="IMIX">     4</i>
     <i type="logical" name="MIXFIRST"> F  </i>
     <i type="int" name="MAXMIX">   -45</i>
     <i name="WC">    100.00000000</i>
     <i type="int" name="INIMIX">     1</i>
     <i type="int" name="MIXPRE">     1</i>
     <i type="int" name="MREMOVE">     5</i>
    </separator>
   </separator>
   <separator name="electronic dipolcorrection" >
    <i type="logical" name="LDIPOL"> F  </i>
    <i type="logical" name="LMONO"> F  </i>
    <i type="int" name="IDIPOL">     0</i>
    <i name="EPSILON">      1.00000000</i>
    <v name="DIPOL">   -100.00000000   -100.00000000   -100.00000000</v>
    <i name="EFIELD">      0.00000000</i>
   </separator>
  </separator>
  <separator name="grids" >
   <i type="int" name="NGX">    64</i>
   <i type="int" name="NGY">    48</i>
   <i type="int" name="NGZ">    60</i>
   <i type="int" name="NGXF">   128</i>
   <i type="int" name="NGYF">    96</i>
   <i type="int" name="NGZF">   120</i>
   <i type="logical" name="ADDGRID"> F  </i>
  </separator>
  <separator name="ionic" >
   <i type="int" name="NSW">   300</i>
   <i type="int" name="IBRION">     2</i>
   <i type="int" name="MDALGO">     0</i>
   <i type="int" name="ISIF">     2</i>
   <i name="PSTRESS">      0.00000000</i>
   <i name="EDIFFG">     -0.00500000</i>
   <i type="int" name="NFREE">     1</i>
   <i name="POTIM">      0.50000000</i>
   <i name="SMASS">     -3.00000000</i>
   <i name="SCALEE">      1.00000000</i>
  </separator>
  <separator name="ionic md" >
   <i name="TEBEG">      0.00010000</i>
   <i name="TEEND">      0.00010000</i>
   <i type="int" name="NBLOCK">     1</i>
   <i type="int" name="KBLOCK">   300</i>
   <i type="int" name="NPACO">   256</i>
   <i name="APACO">     10.00000000</i>
  </separator>
  <separator name="symmetry" >
   <i type="int" name="ISYM">     2</i>
   <i name="SYMPREC">      0.00001000</i>
  </separator>
  <separator name="dos" >
   <i type="int" name="LORBIT">     0</i>
   <v name="RWIGS">     -1.00000000     -1.00000000     -1.00000000</v>
   <i type="int" name="NEDOS">   301</i>
   <i name="EMIN">     10.00000000</i>
   <i name="EMAX">    -10.00000000</i>
   <i name="EFERMI">      0.00000000</i>
  </separator>
  <separator name="writing" >
   <i type="int" name="NWRITE">     2</i>
   <i type="logical" name="LWAVE"> F  </i>
   <i type="logical" name="LDOWNSAMPLE"> F  </i>
   <i type="logical" name="LCHARG"> F  </i>
   <i type="logical" name="LPARD"> F  </i>
   <i type="logical" name="LVTOT"> F  </i>
   <i type="logical" name="LVHAR"> F  </i>
   <i type="logical" name="LELF"> F  </i>
   <i type="logical" name="LOPTICS"> F  </i>
   <v name="STM">      0.00000000      0.00000000      0.00000000      0.00000000      0.00000000      0.00000000      0.00000000</v>
  </separator>
  <separator name="performance" >
   <i type="int" name="NPAR">     1</i>
   <i type="int" name="NSIM">     4</i>
   <i type="int" name="NBLK">    -1</i>
   <i type="logical" name="LPLANE"> T  </i>
   <i type="logical" name="LSCALAPACK"> T  </i>
   <i type="logical" name="LSCAAWARE"> F  </i>
   <i type="logical" name="LSCALU"> F  </i>
   <i type="logical" name="LASYNC"> F  </i>
   <i type="logical" name="LORBITALREAL"> F  </i>
  </separator>
  <separator name="miscellaneous" >
   <i type="int" name="IDIOT">     3</i>
   <i type="int" name="PHON_NSTRUCT">    -1</i>
   <i type="logical" name="LMUSIC"> F  </i>
   <v name="POMASS">     69.72300000     16.00000000     14.00100000</v>
   <v name="DARWINR">      0.00000000      0.00000000      0.00000000</v>
   <v name="DARWINV">      1.00000000      1.00000000      1.00000000</v>
   <i type="logical" name="LCORR"> T  </i>
  </separator>
  <i type="logical" name="GGA_COMPAT"> T  </i>
  <i type="logical" name="LBERRY"> F  </i>
  <i type="int" name="ICORELEVEL">     0</i>
  <i type="logical" name="LDAU"> F  </i>
  <i type="int" name="I_CONSTRAINED_M">     0</i>
  <separator name="electronic exchange-correlation" >
   <i type="string" name="GGA">--</i>
   <i type="int" name="VOSKOWN">     0</i>
   <i type="logical" name="LHFCALC"> F  </i>
   <i type="string" name="PRECFOCK"></i>
   <i type="logical" name="LSYMGRAD"> F  </i>
   <i type="logical" name="LHFONE"> F  </i>
   <i type="logical" name="LRHFCALC"> F  </i>
   <i type="logical" name="LTHOMAS"> F  </i>
   <i type="logical" name="LMODELHF"> F  </i>
   <i type="logical" name="LFOCKACE"> F  </i>
   <i name="ENCUT4O">     -1.00000000</i>
   <i type="int" name="EXXOEP">     0</i>
   <i type="int" name="FOURORBIT">     0</i>
   <i name="AEXX">      0.00000000</i>
   <i name="HFALPHA">      0.00000000</i>
   <i name="MCALPHA">      0.00000000</i>
   <i name="ALDAX">      1.00000000</i>
   <i name="AGGAX">      1.00000000</i>
   <i name="ALDAC">      1.00000000</i>
   <i name="AGGAC">      1.00000000</i>
   <i type="int" name="NKREDX">     1</i>
   <i type="int" name="NKREDY">     1</i>
   <i type="int" name="NKREDZ">     1</i>
   <i type="logical" name="SHIFTRED"> F  </i>
   <i type="logical" name="ODDONLY"> F  </i>
   <i type="logical" name="EVENONLY"> F  </i>
   <i type="int" name="LMAXFOCK">     0</i>
   <i type="int" name="NMAXFOCKAE">     0</i>
   <i type="logical" name="LFOCKAEDFT"> F  </i>
   <i name="HFSCREEN">      0.00000000</i>
   <i name="HFSCREENC">      0.00000000</i>
   <i type="int" name="NBANDSGWLOW">     0</i>
  </separator>
  <separator name="vdW DFT" >
   <i type="logical" name="LUSE_VDW"> F  </i>
   <i type="int" name="IVDW_NL">     1</i>
   <i type="logical" name="LSPIN_VDW"> F  </i>
   <i name="Zab_VDW">     -0.84910000</i>
   <i name="PARAM1">      0.12340000</i>
   <i name="PARAM2">      1.00000000</i>
   <i name="PARAM3">      0.00000000</i>
  </separator>
  <separator name="model GW" >
   <i type="int" name="MODEL_GW">     0</i>
   <i name="MODEL_EPS0">      6.34402578</i>
   <i name="MODEL_ALPHA">      1.00000000</i>
  </separator>
  <separator name="linear response parameters" >
   <i type="logical" name="LEPSILON"> F  </i>
   <i type="logical" name="LRPA"> F  </i>
   <i type="logical" name="LNABLA"> F  </i>
   <i type="logical" name="LVEL"> F  </i>
   <i name="CSHIFT">      0.10000000</i>
   <i name="OMEGAMAX">     -1.00000000</i>
   <i name="DEG_THRESHOLD">      0.00200000</i>
   <i name="RTIME">     -0.10000000</i>
   <i name="WPLASMAI">      0.00000000</i>
   <v name="DFIELD">      0.00000000      0.00000000      0.00000000</v>
   <v name="WPLASMA">      0.00000000      0.00000000      0.00000000      0.00000000      0.00000000      0.00000000      0.00000000      0.00000000      0.00000000</v>
  </separator>
  <separator name="orbital magnetization" >
   <i type="logical" name="NUCIND"> F  </i>
   <v name="MAGPOS">      0.00000000      0.00000000      0.00000000</v>
   <i type="logical" name="LNICSALL"> T  </i>
   <i type="logical" name="ORBITALMAG"> F  </i>
   <i type="logical" name="LMAGBLOCH"> F  </i>
   <i type="logical" name="LCHIMAG"> F  </i>
   <i type="logical" name="LGAUGE"> T  </i>
   <i type="int" name="MAGATOM">     0</i>
   <v name="MAGDIPOL">      0.00000000      0.00000000      0.00000000</v>
   <v name="AVECCONST">      0.00000000      0.00000000      0.00000000</v>
  </separator>
  <separator name="response functions" >
   <i type="logical" name="LALL_IN_ONE"> F  </i>
   <i type="int" name="IALL_IN_ONE">    -1</i>
   <i type="int" name="NBANDS_WAVE">    -1</i>
   <i type="logical" name="LFINITE_TEMPERATURE"> F  </i>
   <i type="logical" name="LADDER"> F  </i>
   <i type="logical" name="LRPAFORCE"> F  </i>
   <i type="logical" name="LFXC"> F  </i>
   <i type="logical" name="LHARTREE"> T  </i>
   <i type="int" name="IBSE">     0</i>
   <v type="int" name="KPOINT">    -1     0     0     0</v>
   <i type="logical" name="LTCTC"> F  </i>
   <i type="logical" name="LTCTE"> F  </i>
   <i type="logical" name="LTETE"> F  </i>
   <i type="logical" name="LTRIPLET"> F  </i>
   <i type="logical" name="LFXCEPS"> F  </i>
   <i type="logical" name="LFXHEG"> F  </i>
   <i type="int" name="NATURALO">     2</i>
   <i type="logical" name="LHOLEGF"> F  </i>
   <i type="logical" name="L2ORDER"> F  </i>
   <i type="logical" name="LDMP1"> F  </i>
   <i type="logical" name="LMP2LT"> F  </i>
   <i type="logical" name="LSMP2LT"> F  </i>
   <i type="logical" name="LGWLF"> F  </i>
   <i name="ENCUTGW">     -1.60000002</i>
   <i name="ENCUTGWSOFT">     -1.60000002</i>
   <i name="ENCUTLF">     -1.00000000</i>
   <i type="logical" name="LESF_SPLINES"> F  </i>
   <i type="int" name="LMAXMP2">    -1</i>
   <i name="SCISSOR">      0.00000000</i>
   <i type="int" name="NOMEGA">     0</i>
   <i type="int" name="NOMEGAR">     0</i>
   <i type="int" name="NBANDSGW">    -1</i>
   <i type="int" name="NBANDSO">    -1</i>
   <i type="int" name="NBANDSV">    -1</i>
   <i type="int" name="NELMGW">     1</i>
   <i type="int" name="NELMHF">     1</i>
   <i type="int" name="DIM">     3</i>
   <i type="int" name="IESPILON">     4</i>
   <i type="int" name="ANTIRES">     0</i>
   <i name="OMEGAMAX">    -30.00000000</i>
   <i name="OMEGAMIN">    -30.00000000</i>
   <i name="OMEGATL">   -200.00000000</i>
   <i type="int" name="OMEGAGRID">     0</i>
   <i name="CSHIFT">     -0.10000000</i>
   <i type="logical" name="LSELFENERGY"> F  </i>
   <i type="logical" name="LSPECTRAL"> F  </i>
   <i type="logical" name="LSPECTRALGW"> F  </i>
   <i type="logical" name="LSINGLES"> F  </i>
   <i type="logical" name="LFERMIGW"> F  </i>
   <i type="logical" name="ODDONLYGW"> F  </i>
   <i type="logical" name="EVENONLYGW"> F  </i>
   <i type="int" name="NKREDLFX">     1</i>
   <i type="int" name="NKREDLFY">     1</i>
   <i type="int" name="NKREDLFZ">     1</i>
   <i type="int" name="MAXMEM">  2800</i>
   <i type="int" name="TELESCOPE">     0</i>
   <i type="int" name="NTAUPAR">    -1</i>
   <i type="int" name="NOMEGAPAR">    -1</i>
   <i name="DAMP_NEWTON">      0.80000001</i>
   <i name="LAMBDA">      1.00000000</i>
  </separator>
  <separator name="External order field" >
   <i name="OFIELD_KAPPA">      0.00000000</i>
   <v name="OFIELD_K">      0.00000000      0.00000000      0.00000000</v>
   <i name="OFIELD_Q6_NEAR">      0.00000000</i>
   <i name="OFIELD_Q6_FAR">      0.00000000</i>
   <i name="OFIELD_A">      0.00000000</i>
  </separator>
  <separator name="optional k-points parameters" >
   <i type="int" name="KPOINTS_OPT_MODE">     1</i>
   <i type="logical" name="LKPOINTS_OPT"> F  </i>
  </separator>
 </parameters>
 <atominfo>
  <atoms>     120 </atoms>
  <types>       3 </types>
  <array name="atoms" >
   <dimension dim="1">ion</dimension>
   <field type="string">element</field>
   <field type="int">atomtype</field>
   <set>
    <rc><c>Ga</c><c>   1</c></rc>
    <rc><c>Ga</c><c>   1</c></rc>
    <rc><c>Ga</c><c>   1</c></rc>
    <rc><c>Ga</c><c>   1</c></rc>
    <rc><c>Ga</c><c>   1</c></rc>
    <rc><c>Ga</c><c>   1</c></rc>
    <rc><c>Ga</c><c>   1</c></rc>
    <rc><c>Ga</c><c>   1</c></rc>
    <rc><c>Ga</c><c>   1</c></rc>
    <rc><c>Ga</c><c>   1</c></rc>
    <rc><c>Ga</c><c>   1</c></rc>
    <rc><c>Ga</c><c>   1</c></rc>
    <rc><c>Ga</c><c>   1</c></rc>
    <rc><c>Ga</c><c>   1</c></rc>
    <rc><c>Ga</c><c>   1</c></rc>
    <rc><c>Ga</c><c>   1</c></rc>
    <rc><c>Ga</c><c>   1</c></rc>
    <rc><c>Ga</c><c>   1</c></rc>
    <rc><c>Ga</c><c>   1</c></rc>
    <rc><c>Ga</c><c>   1</c></rc>
    <rc><c>Ga</c><c>   1</c></rc>
    <rc><c>Ga</c><c>   1</c></rc>
    <rc><c>Ga</c><c>   1</c></rc>
    <rc><c>Ga</c><c>   1</c></rc>
    <rc><c>Ga</c><c>   1</c></rc>
    <rc><c>Ga</c><c>   1</c></rc>
    <rc><c>Ga</c><c>   1</c></rc>
    <rc><c>Ga</c><c>   1</c></rc>
    <rc><c>Ga</c><c>   1</c></rc>
    <rc><c>Ga</c><c>   1</c></rc>
    <rc><c>Ga</c><c>   1</c></rc>
    <rc><c>Ga</c><c>   1</c></rc>
    <rc><c>Ga</c><c>   1</c></rc>
    <rc><c>Ga</c><c>   1</c></rc>
    <rc><c>Ga</c><c>   1</c></rc>
    <rc><c>Ga</c><c>   1</c></rc>
    <rc><c>Ga</c><c>   1</c></rc>
    <rc><c>Ga</c><c>   1</c></rc>
    <rc><c>Ga</c><c>   1</c></rc>
    <rc><c>Ga</c><c>   1</c></rc>
    <rc><c>Ga</c><c>   1</c></rc>
    <rc><c>Ga</c><c>   1</c></rc>
    <rc><c>Ga</c><c>   1</c></rc>
    <rc><c>Ga</c><c>   1</c></rc>
    <rc><c>Ga</c><c>   1</c></rc>
    <rc><c>Ga</c><c>   1</c></rc>
    <rc><c>Ga</c><c>   1</c></rc>
    <rc><c>Ga</c><c>   1</c></rc>
    <rc><c>O </c><c>   2</c></rc>
    <rc><c>O </c><c>   2</c></rc>
    <rc><c>O </c><c>   2</c></rc>
    <rc><c>O </c><c>   2</c></rc>
    <rc><c>O </c><c>   2</c></rc>
    <rc><c>O </c><c>   2</c></rc>
    <rc><c>O </c><c>   2</c></rc>
    <rc><c>O </c><c>   2</c></rc>
    <rc><c>O </c><c>   2</c></rc>
    <rc><c>O </c><c>   2</c></rc>
    <rc><c>O </c><c>   2</c></rc>
    <rc><c>O </c><c>   2</c></rc>
    <rc><c>O </c><c>   2</c></rc>
    <rc><c>O </c><c>   2</c></rc>
    <rc><c>O </c><c>   2</c></rc>
    <rc><c>O </c><c>   2</c></rc>
    <rc><c>O </c><c>   2</c></rc>
    <rc><c>O </c><c>   2</c></rc>
    <rc><c>O </c><c>   2</c></rc>
    <rc><c>O </c><c>   2</c></rc>
    <rc><c>O </c><c>   2</c></rc>
    <rc><c>O </c><c>   2</c></rc>
    <rc><c>O </c><c>   2</c></rc>
    <rc><c>O </c><c>   2</c></rc>
    <rc><c>O </c><c>   2</c></rc>
    <rc><c>O </c><c>   2</c></rc>
    <rc><c>O </c><c>   2</c></rc>
    <rc><c>O </c><c>   2</c></rc>
    <rc><c>O </c><c>   2</c></rc>
    <rc><c>O </c><c>   2</c></rc>
    <rc><c>O </c><c>   2</c></rc>
    <rc><c>O </c><c>   2</c></rc>
    <rc><c>O </c><c>   2</c></rc>
    <rc><c>O </c><c>   2</c></rc>
    <rc><c>O </c><c>   2</c></rc>
    <rc><c>O </c><c>   2</c></rc>
    <rc><c>O </c><c>   2</c></rc>
    <rc><c>O </c><c>   2</c></rc>
    <rc><c>O </c><c>   2</c></rc>
    <rc><c>O </c><c>   2</c></rc>
    <rc><c>O </c><c>   2</c></rc>
    <rc><c>O </c><c>   2</c></rc>
    <rc><c>O </c><c>   2</c></rc>
    <rc><c>O </c><c>   2</c></rc>
    <rc><c>O </c><c>   2</c></rc>
    <rc><c>O </c><c>   2</c></rc>
    <rc><c>O </c><c>   2</c></rc>
    <rc><c>O </c><c>   2</c></rc>
    <rc><c>O </c><c>   2</c></rc>
    <rc><c>O </c><c>   2</c></rc>
    <rc><c>O </c><c>   2</c></rc>
    <rc><c>O </c><c>   2</c></rc>
    <rc><c>O </c><c>   2</c></rc>
    <rc><c>O </c><c>   2</c></rc>
    <rc><c>O </c><c>   2</c></rc>
    <rc><c>O </c><c>   2</c></rc>
    <rc><c>O </c><c>   2</c></rc>
    <rc><c>O </c><c>   2</c></rc>
    <rc><c>O </c><c>   2</c></rc>
    <rc><c>O </c><c>   2</c></rc>
    <rc><c>O </c><c>   2</c></rc>
    <rc><c>O </c><c>   2</c></rc>
    <rc><c>O </c><c>   2</c></rc>
    <rc><c>O </c><c>   2</c></rc>
    <rc><c>O </c><c>   2</c></rc>
    <rc><c>O </c><c>   2</c></rc>
    <rc><c>O </c><c>   2</c></rc>
    <rc><c>O </c><c>   2</c></rc>
    <rc><c>O </c><c>   2</c></rc>
    <rc><c>O </c><c>   2</c></rc>
    <rc><c>O </c><c>   2</c></rc>
    <rc><c>N </c><c>   3</c></rc>
   </set>
  </array>
  <array name="atomtypes" >
   <dimension dim="1">type</dimension>
   <field type="int">atomspertype</field>
   <field type="string">element</field>
   <field>mass</field>
   <field>valence</field>
   <field type="string">pseudopotential</field>
   <set>
    <rc><c>  48</c><c>Ga</c><c>     69.72300000</c><c>     13.00000000</c><c>  PAW_PBE Ga_d 06Jul2010                </c></rc>
    <rc><c>  71</c><c>O </c><c>     16.00000000</c><c>      6.00000000</c><c>  PAW_PBE O 08Apr2002                   </c></rc>
    <rc><c>   1</c><c>N </c><c>     14.00100000</c><c>      5.00000000</c><c>  PAW_PBE N 08Apr2002                   </c></rc>
   </set>
  </array>
 </atominfo>
 <structure name="initialpos" >
  <crystal>
   <varray name="basis" >
    <v>       0.00000000      12.28047342       0.00000000 </v>
    <v>       9.14270205       0.00000000       0.00000000 </v>
    <v>       0.00000000      -2.76826177     -11.30069772 </v>
   </varray>
   <i name="volume">   1268.80515525 </i>
   <varray name="rec_basis" >
    <v>       0.00000000       0.08143009      -0.01994742 </v>
    <v>       0.10937686      -0.00000000       0.00000000 </v>
    <v>       0.00000000       0.00000000      -0.08849011 </v>
   </varray>
  </crystal>
  <varray name="positions" >
   <v>       0.65883830       0.00000000       0.15736517 </v>
   <v>       0.65883830       0.00000000       0.65736517 </v>
   <v>       0.65883830       0.33333333       0.15736517 </v>
   <v>       0.65883830       0.33333333       0.65736517 </v>
   <v>       0.65883830       0.66666667       0.15736517 </v>
   <v>       0.65883830       0.66666667       0.65736517 </v>
   <v>       0.84116170       0.16666667       0.34263483 </v>
   <v>       0.84116170       0.16666667       0.84263483 </v>
   <v>       0.84116170       0.50000000       0.34263483 </v>
   <v>       0.84116170       0.50000000       0.84263483 </v>
   <v>       0.84116170       0.83333333       0.34263483 </v>
   <v>       0.84116170       0.83333333       0.84263483 </v>
   <v>       0.59047440       0.16666667       0.39739300 </v>
   <v>       0.59047440       0.16666667       0.89739300 </v>
   <v>       0.59047440       0.50000000       0.39739300 </v>
   <v>       0.59047440       0.50000000       0.89739300 </v>
   <v>       0.59047440       0.83333333       0.39739300 </v>
   <v>       0.59047440       0.83333333       0.89739300 </v>
   <v>       0.90952560       0.00000000       0.10260700 </v>
   <v>       0.90952560       0.00000000       0.60260700 </v>
   <v>       0.90952560       0.33333333       0.10260700 </v>
   <v>       0.90952560       0.33333333       0.60260700 </v>
   <v>       0.90952560       0.66666667       0.10260700 </v>
   <v>       0.90952560       0.66666667       0.60260700 </v>
   <v>       0.15883830       0.16666667       0.15736517 </v>
   <v>       0.15883830       0.16666667       0.65736517 </v>
   <v>       0.15883830       0.50000000       0.15736517 </v>
   <v>       0.15883830       0.50000000       0.65736517 </v>
   <v>       0.15883830       0.83333333       0.15736517 </v>
   <v>       0.15883830       0.83333333       0.65736517 </v>
   <v>       0.34116170       0.00000000       0.34263483 </v>
   <v>       0.34116170       0.00000000       0.84263483 </v>
   <v>       0.34116170       0.33333333       0.34263483 </v>
   <v>       0.34116170       0.33333333       0.84263483 </v>
   <v>       0.34116170       0.66666667       0.34263483 </v>
   <v>       0.34116170       0.66666667       0.84263483 </v>
   <v>       0.09047440       0.00000000       0.39739300 </v>
   <v>       0.09047440       0.00000000       0.89739300 </v>
   <v>       0.09047440       0.33333333       0.39739300 </v>
   <v>       0.09047440       0.33333333       0.89739300 </v>
   <v>       0.09047440       0.66666667       0.39739300 </v>
   <v>       0.09047440       0.66666667       0.89739300 </v>
   <v>       0.40952560       0.16666667       0.10260700 </v>
   <v>       0.40952560       0.16666667       0.60260700 </v>
   <v>       0.40952560       0.50000000       0.10260700 </v>
   <v>       0.40952560       0.50000000       0.60260700 </v>
   <v>       0.40952560       0.83333333       0.10260700 </v>
   <v>       0.40952560       0.83333333       0.60260700 </v>
   <v>       0.99646913       0.16666667       0.12833205 </v>
   <v>       0.99646913       0.16666667       0.62833205 </v>
   <v>       0.99646913       0.50000000       0.12833205 </v>
   <v>       0.99646913       0.50000000       0.62833205 </v>
   <v>       0.99646913       0.83333333       0.12833205 </v>
   <v>       0.99646913       0.83333333       0.62833205 </v>
   <v>       0.50353087       0.00000000       0.37166795 </v>
   <v>       0.50353087       0.00000000       0.87166795 </v>
   <v>       0.50353087       0.33333333       0.37166795 </v>
   <v>       0.50353087       0.33333333       0.87166795 </v>
   <v>       0.50353087       0.66666667       0.37166795 </v>
   <v>       0.50353087       0.66666667       0.87166795 </v>
   <v>       0.67337106       0.16666667       0.28161508 </v>
   <v>       0.67337106       0.16666667       0.78161508 </v>
   <v>       0.67337106       0.50000000       0.28161508 </v>
   <v>       0.67337106       0.50000000       0.78161508 </v>
   <v>       0.67337106       0.83333333       0.28161508 </v>
   <v>       0.67337106       0.83333333       0.78161508 </v>
   <v>       0.82662894       0.00000000       0.21838492 </v>
   <v>       0.82662894       0.00000000       0.71838492 </v>
   <v>       0.82662894       0.33333333       0.21838492 </v>
   <v>       0.82662894       0.33333333       0.71838492 </v>
   <v>       0.82662894       0.66666667       0.21838492 </v>
   <v>       0.82662894       0.66666667       0.71838492 </v>
   <v>       0.83549502       0.00000000       0.44542296 </v>
   <v>       0.83549502       0.00000000       0.94542296 </v>
   <v>       0.83549502       0.33333333       0.44542296 </v>
   <v>       0.83549502       0.33333333       0.94542296 </v>
   <v>       0.83549502       0.66666667       0.44542296 </v>
   <v>       0.83549502       0.66666667       0.94542296 </v>
   <v>       0.66450498       0.16666667       0.05457704 </v>
   <v>       0.66450498       0.16666667       0.55457704 </v>
   <v>       0.66450498       0.50000000       0.05457704 </v>
   <v>       0.66450498       0.50000000       0.55457704 </v>
   <v>       0.66450498       0.83333333       0.05457704 </v>
   <v>       0.66450498       0.83333333       0.55457704 </v>
   <v>       0.49646913       0.00000000       0.12833205 </v>
   <v>       0.49646913       0.00000000       0.62833205 </v>
   <v>       0.49646913       0.33333333       0.12833205 </v>
   <v>       0.49646913       0.33333333       0.62833205 </v>
   <v>       0.49646913       0.66666667       0.12833205 </v>
   <v>       0.49646913       0.66666667       0.62833205 </v>
   <v>       0.00353087       0.16666667       0.87166795 </v>
   <v>       0.00353087       0.50000000       0.37166795 </v>
   <v>       0.00353087       0.50000000       0.87166795 </v>
   <v>       0.00353087       0.83333333       0.37166795 </v>
   <v>       0.00353087       0.83333333       0.87166795 </v>
   <v>       0.17337106       0.00000000       0.28161508 </v>
   <v>       0.17337106       0.00000000       0.78161508 </v>
   <v>       0.17337106       0.33333333       0.28161508 </v>
   <v>       0.17337106       0.33333333       0.78161508 </v>
   <v>       0.17337106       0.66666667       0.28161508 </v>
   <v>       0.17337106       0.66666667       0.78161508 </v>
   <v>       0.32662894       0.16666667       0.21838492 </v>
   <v>       0.32662894       0.16666667       0.71838492 </v>
   <v>       0.32662894       0.50000000       0.21838492 </v>
   <v>       0.32662894       0.50000000       0.71838492 </v>
   <v>       0.32662894       0.83333333       0.21838492 </v>
   <v>       0.32662894       0.83333333       0.71838492 </v>
   <v>       0.33549502       0.16666667       0.44542296 </v>
   <v>       0.33549502       0.16666667       0.94542296 </v>
   <v>       0.33549502       0.50000000       0.44542296 </v>
   <v>       0.33549502       0.50000000       0.94542296 </v>
   <v>       0.33549502       0.83333333       0.44542296 </v>
   <v>       0.33549502       0.83333333       0.94542296 </v>
   <v>       0.16450498       0.00000000       0.05457704 </v>
   <v>       0.16450498       0.00000000       0.55457704 </v>
   <v>       0.16450498       0.33333333       0.05457704 </v>
   <v>       0.16450498       0.33333333       0.55457704 </v>
   <v>       0.16450498       0.66666667       0.05457704 </v>
   <v>       0.16450498       0.66666667       0.55457704 </v>
   <v>       0.00353087       0.16666667       0.37166795 </v>
  </varray>
 </structure>
 <calculation>
  <scstep>
   <time name="dav">    1.80    1.80</time>
   <time name="total">    1.93    1.93</time>
   <energy>
    <i name="alphaZ">   5530.94812622 </i>
    <i name="ewald"> -88605.56783106 </i>
    <i name="hartreedc"> -33372.11073469 </i>
    <i name="XCdc">   4139.94457209 </i>
    <i name="pawpsdc"> 101761.42039030 </i>
    <i name="pawaedc">-117900.86270521 </i>
    <i name="eentropy">     -0.01574279 </i>
    <i name="bandstr">  16355.68224794 </i>
    <i name="atom"> 134104.30092448 </i>
    <i name="e_fr_energy">  22013.73924728 </i>
    <i name="e_wo_entrp">  22013.75499007 </i>
    <i name="e_0_energy">  22013.74711867 </i>
   </energy>
  </scstep>
  <scstep>
   <time name="dav">    1.71    1.71</time>
   <time name="total">    1.72    1.72</time>
   <energy>
    <i name="e_fr_energy">   4873.82100748 </i>
    <i name="e_wo_entrp">   4873.83716515 </i>
    <i name="e_0_energy">   4873.82908632 </i>
   </energy>
  </scstep>
  <scstep>
   <time name="dav">    2.08    2.08</time>
   <time name="total">    2.08    2.08</time>
   <energy>
    <i name="e_fr_energy">   -150.85436038 </i>
    <i name="e_wo_entrp">   -150.85436038 </i>
    <i name="e_0_energy">   -150.85436038 </i>
   </energy>
  </scstep>
  <scstep>
   <time name="dav">    2.04    2.04</time>
   <time name="total">    2.04    2.04</time>
   <energy>
    <i name="e_fr_energy">   -777.62714013 </i>
    <i name="e_wo_entrp">   -777.62714013 </i>
    <i name="e_0_energy">   -777.62714013 </i>
   </energy>
  </scstep>
  <scstep>
   <time name="dav">    2.32    2.32</time>
   <time name="total">    2.59    2.60</time>
   <energy>
    <i name="e_fr_energy">   -820.60432040 </i>
    <i name="e_wo_entrp">   -820.60432040 </i>
    <i name="e_0_energy">   -820.60432040 </i>
   </energy>
  </scstep>
  <scstep>
   <time name="diag">    0.24    0.24</time>
   <time name="diis">    2.50    2.51</time>
   <time name="orth">    0.03    0.03</time>
   <time name="total">    3.16    3.17</time>
   <energy>
    <i name="e_fr_energy">   -704.89604609 </i>
    <i name="e_wo_entrp">   -704.89601439 </i>
    <i name="e_0_energy">   -704.89603024 </i>
   </energy>
  </scstep>
  <scstep>
   <time name="diag">    0.24    0.24</time>
   <time name="diis">    2.63    2.63</time>
   <time name="orth">    0.03    0.03</time>
   <time name="total">    3.29    3.29</time>
   <energy>
    <i name="e_fr_energy">   -708.89681491 </i>
    <i name="e_wo_entrp">   -708.88461577 </i>
    <i name="e_0_energy">   -708.89071534 </i>
   </energy>
  </scstep>
  <scstep>
   <time name="diag">    0.24    0.24</time>
   <time name="diis">    2.42    2.42</time>
   <time name="orth">    0.03    0.03</time>
   <time name="total">    3.08    3.08</time>
   <energy>
    <i name="e_fr_energy">   -708.94807879 </i>
    <i name="e_wo_entrp">   -708.94807879 </i>
    <i name="e_0_energy">   -708.94807879 </i>
   </energy>
  </scstep>
  <scstep>
   <time name="diag">    0.24    0.24</time>
   <time name="diis">    3.01    3.01</time>
   <time name="orth">    0.03    0.03</time>
   <time name="total">    3.68    3.68</time>
   <energy>
    <i name="e_fr_energy">   -708.40911004 </i>
    <i name="e_wo_entrp">   -708.40848812 </i>
    <i name="e_0_energy">   -708.40879908 </i>
   </energy>
  </scstep>
  <scstep>
   <time name="diag">    0.24    0.24</time>
   <time name="diis">    2.52    2.52</time>
   <time name="orth">    0.03    0.03</time>
   <time name="total">    3.18    3.18</time>
   <energy>
    <i name="e_fr_energy">   -708.30586480 </i>
    <i name="e_wo_entrp">   -708.29346861 </i>
    <i name="e_0_energy">   -708.29966671 </i>
   </energy>
  </scstep>
  <scstep>
   <time name="diag">    0.24    0.24</time>
   <time name="diis">    2.69    2.69</time>
   <time name="orth">    0.03    0.03</time>
   <time name="total">    3.36    3.36</time>
   <energy>
    <i name="e_fr_energy">   -708.29461763 </i>
    <i name="e_wo_entrp">   -708.28249956 </i>
    <i name="e_0_energy">   -708.28855860 </i>
   </energy>
  </scstep>
  <scstep>
   <time name="diag">    0.24    0.24</time>
   <time name="diis">    2.94    2.94</time>
   <time name="orth">    0.03    0.03</time>
   <time name="total">    3.60    3.60</time>
   <energy>
    <i name="e_fr_energy">   -708.30980843 </i>
    <i name="e_wo_entrp">   -708.30090029 </i>
    <i name="e_0_energy">   -708.30535436 </i>
   </energy>
  </scstep>
  <scstep>
   <time name="diag">    0.24    0.24</time>
   <time name="diis">    2.65    2.65</time>
   <time name="orth">    0.03    0.03</time>
   <time name="total">    3.32    3.32</time>
   <energy>
    <i name="e_fr_energy">   -708.31226458 </i>
    <i name="e_wo_entrp">   -708.29962186 </i>
    <i name="e_0_energy">   -708.30594322 </i>
   </energy>
  </scstep>
  <scstep>
   <time name="diag">    0.24    0.24</time>
   <time name="diis">    2.59    2.59</time>
   <time name="orth">    0.03    0.03</time>
   <time name="total">    3.26    3.26</time>
   <energy>
    <i name="e_fr_energy">   -708.31243680 </i>
    <i name="e_wo_entrp">   -708.29976219 </i>
    <i name="e_0_energy">   -708.30609950 </i>
   </energy>
  </scstep>
  <scstep>
   <time name="diag">    0.24    0.24</time>
   <time name="diis">    2.69    2.69</time>
   <time name="orth">    0.03    0.03</time>
   <time name="total">    3.36    3.36</time>
   <energy>
    <i name="e_fr_energy">   -708.30900497 </i>
    <i name="e_wo_entrp">   -708.29584867 </i>
    <i name="e_0_energy">   -708.30242682 </i>
   </energy>
  </scstep>
  <scstep>
   <time name="diag">    0.24    0.24</time>
   <time name="diis">    2.36    2.36</time>
   <time name="orth">    0.03    0.03</time>
   <time name="total">    3.03    3.03</time>
   <energy>
    <i name="e_fr_energy">   -708.30933063 </i>
    <i name="e_wo_entrp">   -708.29700238 </i>
    <i name="e_0_energy">   -708.30316651 </i>
   </energy>
  </scstep>
  <scstep>
   <time name="diag">    0.24    0.24</time>
   <time name="diis">    2.09    2.09</time>
   <time name="orth">    0.03    0.03</time>
   <time name="total">    2.77    2.77</time>
   <energy>
    <i name="e_fr_energy">   -708.30903356 </i>
    <i name="e_wo_entrp">   -708.29602475 </i>
    <i name="e_0_energy">   -708.30252916 </i>
   </energy>
  </scstep>
  <scstep>
   <time name="diag">    0.24    0.24</time>
   <time name="diis">    1.95    1.95</time>
   <time name="orth">    0.03    0.03</time>
   <time name="total">    2.63    2.63</time>
   <energy>
    <i name="e_fr_energy">   -708.30905560 </i>
    <i name="e_wo_entrp">   -708.29605309 </i>
    <i name="e_0_energy">   -708.30255435 </i>
   </energy>
  </scstep>
  <scstep>
   <time name="diag">    0.24    0.24</time>
   <time name="diis">    1.74    1.74</time>
   <time name="orth">    0.03    0.03</time>
   <time name="total">    2.13    2.13</time>
   <energy>
    <i name="alphaZ">   5530.94812622 </i>
    <i name="ewald"> -88605.56783106 </i>
    <i name="hartreedc"> -33843.14960040 </i>
    <i name="XCdc">   4204.29205351 </i>
    <i name="pawpsdc"> 119912.38873532 </i>
    <i name="pawaedc">-136311.92813992 </i>
    <i name="eentropy">     -0.01301306 </i>
    <i name="bandstr">  -5699.58031598 </i>
    <i name="atom"> 134104.30092448 </i>
    <i name="e_fr_energy">   -708.30906088 </i>
    <i name="e_wo_entrp">   -708.29604782 </i>
    <i name="e_0_energy">   -708.30255435 </i>
   </energy>
  </scstep>
  <structure>
   <crystal>
    <varray name="basis" >
     <v>       0.00000000      12.28047342       0.00000000 </v>
     <v>       9.14270205       0.00000000       0.00000000 </v>
     <v>       0.00000000      -2.76826177     -11.30069772 </v>
    </varray>
    <i name="volume">   1268.80515525 </i>
    <varray name="rec_basis" >
     <v>       0.00000000       0.08143009      -0.01994742 </v>
     <v>       0.10937686      -0.00000000       0.00000000 </v>
     <v>       0.00000000       0.00000000      -0.08849011 </v>
    </varray>
   </crystal>
   <varray name="positions" >
    <v>       0.65883830       0.00000000       0.15736517 </v>
    <v>       0.65883830       0.00000000       0.65736517 </v>
    <v>       0.65883830       0.33333333       0.15736517 </v>
    <v>       0.65883830       0.33333333       0.65736517 </v>
    <v>       0.65883830       0.66666667       0.15736517 </v>
    <v>       0.65883830       0.66666667       0.65736517 </v>
    <v>       0.84116170       0.16666667       0.34263483 </v>
    <v>       0.84116170       0.16666667       0.84263483 </v>
    <v>       0.84116170       0.50000000       0.34263483 </v>
    <v>       0.84116170       0.50000000       0.84263483 </v>
    <v>       0.84116170       0.83333333       0.34263483 </v>
    <v>       0.84116170       0.83333333       0.84263483 </v>
    <v>       0.59047440       0.16666667       0.39739300 </v>
    <v>       0.59047440       0.16666667       0.89739300 </v>
    <v>       0.59047440       0.50000000       0.39739300 </v>
    <v>       0.59047440       0.50000000       0.89739300 </v>
    <v>       0.59047440       0.83333333       0.39739300 </v>
    <v>       0.59047440       0.83333333       0.89739300 </v>
    <v>       0.90952560       0.00000000       0.10260700 </v>
    <v>       0.90952560       0.00000000       0.60260700 </v>
    <v>       0.90952560       0.33333333       0.10260700 </v>
    <v>       0.90952560       0.33333333       0.60260700 </v>
    <v>       0.90952560       0.66666667       0.10260700 </v>
    <v>       0.90952560       0.66666667       0.60260700 </v>
    <v>       0.15883830       0.16666667       0.15736517 </v>
    <v>       0.15883830       0.16666667       0.65736517 </v>
    <v>       0.15883830       0.50000000       0.15736517 </v>
    <v>       0.15883830       0.50000000       0.65736517 </v>
    <v>       0.15883830       0.83333333       0.15736517 </v>
    <v>       0.15883830       0.83333333       0.65736517 </v>
    <v>       0.34116170       0.00000000       0.34263483 </v>
    <v>       0.34116170       0.00000000       0.84263483 </v>
    <v>       0.34116170       0.33333333       0.34263483 </v>
    <v>       0.34116170       0.33333333       0.84263483 </v>
    <v>       0.34116170       0.66666667       0.34263483 </v>
    <v>       0.34116170       0.66666667       0.84263483 </v>
    <v>       0.09047440       0.00000000       0.39739300 </v>
    <v>       0.09047440       0.00000000       0.89739300 </v>
    <v>       0.09047440       0.33333333       0.39739300 </v>
    <v>       0.09047440       0.33333333       0.89739300 </v>
    <v>       0.09047440       0.66666667       0.39739300 </v>
    <v>       0.09047440       0.66666667       0.89739300 </v>
    <v>       0.40952560       0.16666667       0.10260700 </v>
    <v>       0.40952560       0.16666667       0.60260700 </v>
    <v>       0.40952560       0.50000000       0.10260700 </v>
    <v>       0.40952560       0.50000000       0.60260700 </v>
    <v>       0.40952560       0.83333333       0.10260700 </v>
    <v>       0.40952560       0.83333333       0.60260700 </v>
    <v>       0.99646913       0.16666667       0.12833205 </v>
    <v>       0.99646913       0.16666667       0.62833205 </v>
    <v>       0.99646913       0.50000000       0.12833205 </v>
    <v>       0.99646913       0.50000000       0.62833205 </v>
    <v>       0.99646913       0.83333333       0.12833205 </v>
    <v>       0.99646913       0.83333333       0.62833205 </v>
    <v>       0.50353087       0.00000000       0.37166795 </v>
    <v>       0.50353087       0.00000000       0.87166795 </v>
    <v>       0.50353087       0.33333333       0.37166795 </v>
    <v>       0.50353087       0.33333333       0.87166795 </v>
    <v>       0.50353087       0.66666667       0.37166795 </v>
    <v>       0.50353087       0.66666667       0.87166795 </v>
    <v>       0.67337106       0.16666667       0.28161508 </v>
    <v>       0.67337106       0.16666667       0.78161508 </v>
    <v>       0.67337106       0.50000000       0.28161508 </v>
    <v>       0.67337106       0.50000000       0.78161508 </v>
    <v>       0.67337106       0.83333333       0.28161508 </v>
    <v>       0.67337106       0.83333333       0.78161508 </v>
    <v>       0.82662894       0.00000000       0.21838492 </v>
    <v>       0.82662894       0.00000000       0.71838492 </v>
    <v>       0.82662894       0.33333333       0.21838492 </v>
    <v>       0.82662894       0.33333333       0.71838492 </v>
    <v>       0.82662894       0.66666667       0.21838492 </v>
    <v>       0.82662894       0.66666667       0.71838492 </v>
    <v>       0.83549502       0.00000000       0.44542296 </v>
    <v>       0.83549502       0.00000000       0.94542296 </v>
    <v>       0.83549502       0.33333333       0.44542296 </v>
    <v>       0.83549502       0.33333333       0.94542296 </v>
    <v>       0.83549502       0.66666667       0.44542296 </v>
    <v>       0.83549502       0.66666667       0.94542296 </v>
    <v>       0.66450498       0.16666667       0.05457704 </v>
    <v>       0.66450498       0.16666667       0.55457704 </v>
    <v>       0.66450498       0.50000000       0.05457704 </v>
    <v>       0.66450498       0.50000000       0.55457704 </v>
    <v>       0.66450498       0.83333333       0.05457704 </v>
    <v>       0.66450498       0.83333333       0.55457704 </v>
    <v>       0.49646913       0.00000000       0.12833205 </v>
    <v>       0.49646913       0.00000000       0.62833205 </v>
    <v>       0.49646913       0.33333333       0.12833205 </v>
    <v>       0.49646913       0.33333333       0.62833205 </v>
    <v>       0.49646913       0.66666667       0.12833205 </v>
    <v>       0.49646913       0.66666667       0.62833205 </v>
    <v>       0.00353087       0.16666667       0.87166795 </v>
    <v>       0.00353087       0.50000000       0.37166795 </v>
    <v>       0.00353087       0.50000000       0.87166795 </v>
    <v>       0.00353087       0.83333333       0.37166795 </v>
    <v>       0.00353087       0.83333333       0.87166795 </v>
    <v>       0.17337106       0.00000000       0.28161508 </v>
    <v>       0.17337106       0.00000000       0.78161508 </v>
    <v>       0.17337106       0.33333333       0.28161508 </v>
    <v>       0.17337106       0.33333333       0.78161508 </v>
    <v>       0.17337106       0.66666667       0.28161508 </v>
    <v>       0.17337106       0.66666667       0.78161508 </v>
    <v>       0.32662894       0.16666667       0.21838492 </v>
    <v>       0.32662894       0.16666667       0.71838492 </v>
    <v>       0.32662894       0.50000000       0.21838492 </v>
    <v>       0.32662894       0.50000000       0.71838492 </v>
    <v>       0.32662894       0.83333333       0.21838492 </v>
    <v>       0.32662894       0.83333333       0.71838492 </v>
    <v>       0.33549502       0.16666667       0.44542296 </v>
    <v>       0.33549502       0.16666667       0.94542296 </v>
    <v>       0.33549502       0.50000000       0.44542296 </v>
    <v>       0.33549502       0.50000000       0.94542296 </v>
    <v>       0.33549502       0.83333333       0.44542296 </v>
    <v>       0.33549502       0.83333333       0.94542296 </v>
    <v>       0.16450498       0.00000000       0.05457704 </v>
    <v>       0.16450498       0.00000000       0.55457704 </v>
    <v>       0.16450498       0.33333333       0.05457704 </v>
    <v>       0.16450498       0.33333333       0.55457704 </v>
    <v>       0.16450498       0.66666667       0.05457704 </v>
    <v>       0.16450498       0.66666667       0.55457704 </v>
    <v>       0.00353087       0.16666667       0.37166795 </v>
   </varray>
  </structure>
  <varray name="forces" >
   <v>       0.02852100       0.25546713      -0.13091276 </v>
   <v>       0.01582001       0.02863260       0.09391440 </v>
   <v>      -0.02852100       0.25546713      -0.13091276 </v>
   <v>      -0.01582001       0.02863260       0.09391440 </v>
   <v>       0.00000000       0.07199470      -0.06352399 </v>
   <v>       0.00000000      -0.00421986       0.08818057 </v>
   <v>       0.00000000       1.84615987      -0.41522907 </v>
   <v>       0.00000000       0.11264417      -0.07254168 </v>
   <v>      -0.34195987       0.39235682      -0.17798263 </v>
   <v>      -0.04864829       0.08075193      -0.06113356 </v>
   <v>       0.34195987       0.39235682      -0.17798263 </v>
   <v>       0.04864829       0.08075193      -0.06113356 </v>
   <v>       0.00000000       0.13337962       0.02497889 </v>
   <v>       0.00000000       0.02859013      -0.09294791 </v>
   <v>      -0.02970344       0.09557073       0.01361040 </v>
   <v>      -0.00171960       0.01673037      -0.08157542 </v>
   <v>       0.02970344       0.09557073       0.01361040 </v>
   <v>       0.00171960       0.01673037      -0.08157542 </v>
   <v>       0.19046258       0.01181929      -0.47182804 </v>
   <v>       0.16373955       0.21717925       0.49960539 </v>
   <v>      -0.19046258       0.01181929      -0.47182804 </v>
   <v>      -0.16373955       0.21717925       0.49960539 </v>
   <v>       0.00000000       0.06432830      -0.16384363 </v>
   <v>       0.00000000       0.14328591       0.19219591 </v>
   <v>       0.00000000      -0.39365449      -0.39294599 </v>
   <v>       0.00000000      -0.18800533       0.68929331 </v>
   <v>      -0.19143562      -0.16546341      -0.21768268 </v>
   <v>      -0.22597733      -0.04868809       0.39174003 </v>
   <v>       0.19143562      -0.16546341      -0.21768268 </v>
   <v>       0.22597733      -0.04868809       0.39174003 </v>
   <v>       0.05326209      -0.29799134       0.02966577 </v>
   <v>       0.01932071      -0.03939864       0.05778482 </v>
   <v>      -0.05326209      -0.29799134       0.02966577 </v>
   <v>      -0.01932071      -0.03939864       0.05778482 </v>
   <v>       0.00000000      -0.08845413      -0.01518512 </v>
   <v>       0.00000000       0.00503891       0.03772195 </v>
   <v>       1.29450080      -0.97905742       0.23475360 </v>
   <v>       0.04314018       0.01554594      -0.04197281 </v>
   <v>      -1.29450080      -0.97905742       0.23475360 </v>
   <v>      -0.04314018       0.01554594      -0.04197281 </v>
   <v>       0.00000000      -0.40463377       0.06418246 </v>
   <v>       0.00000000      -0.01268065      -0.02999148 </v>
   <v>       0.00000000      -0.06318331      -0.05161862 </v>
   <v>       0.00000000      -0.15220431       0.14260140 </v>
   <v>      -0.00484201      -0.04279594      -0.04314914 </v>
   <v>      -0.02708319      -0.10786372       0.09170432 </v>
   <v>       0.00484201      -0.04279594      -0.04314914 </v>
   <v>       0.02708319      -0.10786372       0.09170432 </v>
   <v>       0.00000000       0.07270554       0.41316549 </v>
   <v>       0.00000000      -0.12772199      -0.38953022 </v>
   <v>       0.09557731       0.00732897       0.08524144 </v>
   <v>       0.09692513      -0.04985658      -0.14450713 </v>
   <v>      -0.09557731       0.00732897       0.08524144 </v>
   <v>      -0.09692513      -0.04985658      -0.14450713 </v>
   <v>      -0.02072368       0.00666668       0.02067427 </v>
   <v>      -0.00880158       0.00568896       0.03678772 </v>
   <v>       0.02072368       0.00666668       0.02067427 </v>
   <v>       0.00880158       0.00568896       0.03678772 </v>
   <v>       0.00000000       0.00605294       0.01825582 </v>
   <v>       0.00000000       0.00593165       0.03777036 </v>
   <v>       0.00000000      -0.20513611       0.05630668 </v>
   <v>       0.00000000      -0.06913614       0.01668270 </v>
   <v>       0.06973598      -0.17917951       0.05180341 </v>
   <v>       0.01265955      -0.06176721       0.01743035 </v>
   <v>      -0.06973598      -0.17917951       0.05180341 </v>
   <v>      -0.01265955      -0.06176721       0.01743035 </v>
   <v>      -0.41599668      -0.41456695       0.48579230 </v>
   <v>      -0.02227753      -0.09371970      -0.11481857 </v>
   <v>       0.41599668      -0.41456695       0.48579230 </v>
   <v>       0.02227753      -0.09371970      -0.11481857 </v>
   <v>       0.00000000      -0.08657395       0.09633238 </v>
   <v>       0.00000000      -0.05600299      -0.07080005 </v>
   <v>      -0.51946102      -0.73205860      -0.34567500 </v>
   <v>      -0.03311428      -0.20793421       0.10787251 </v>
   <v>       0.51946102      -0.73205860      -0.34567500 </v>
   <v>       0.03311428      -0.20793421       0.10787251 </v>
   <v>       0.00000000      -0.29254099      -0.08061386 </v>
   <v>       0.00000000      -0.20098206       0.05217542 </v>
   <v>       0.00000000       0.10043109       0.16286330 </v>
   <v>       0.00000000       0.09900165      -0.03568700 </v>
   <v>       0.04798795       0.11032825       0.14659683 </v>
   <v>       0.02977695       0.10884089      -0.02866736 </v>
   <v>      -0.04798795       0.11032825       0.14659683 </v>
   <v>      -0.02977695       0.10884089      -0.02866736 </v>
   <v>      -0.01323817      -0.00834443      -0.00057166 </v>
   <v>      -0.01725169       0.04031945      -0.06659218 </v>
   <v>       0.01323817      -0.00834443      -0.00057166 </v>
   <v>       0.01725169       0.04031945      -0.06659218 </v>
   <v>       0.00000000      -0.00292533      -0.00248152 </v>
   <v>       0.00000000       0.02940427      -0.05969245 </v>
   <v>       0.00000000      -0.02407970       0.03556111 </v>
   <v>       0.67033563       0.01743691       0.02054098 </v>
   <v>       0.02718048      -0.01583102       0.03498404 </v>
   <v>      -0.67033563       0.01743691       0.02054098 </v>
   <v>      -0.02718048      -0.01583102       0.03498404 </v>
   <v>      -0.38033978       0.76004294       0.42953166 </v>
   <v>      -0.01959410      -0.00138713      -0.15240649 </v>
   <v>       0.38033978       0.76004294       0.42953166 </v>
   <v>       0.01959410      -0.00138713      -0.15240649 </v>
   <v>       0.00000000       0.15202397       0.08862653 </v>
   <v>       0.00000000      -0.00017012      -0.06354553 </v>
   <v>       0.00000000       0.20620922       0.07188063 </v>
   <v>       0.00000000       0.14066641      -0.15336599 </v>
   <v>       0.07643345       0.18901125       0.05232052 </v>
   <v>       0.05248647       0.13628849      -0.13841878 </v>
   <v>      -0.07643345       0.18901125       0.05232052 </v>
   <v>      -0.05248647       0.13628849      -0.13841878 </v>
   <v>       0.00000000       0.00232638      -0.10777332 </v>
   <v>       0.00000000      -0.13773159      -0.03798421 </v>
   <v>       0.05679880      -0.07795181      -0.08684448 </v>
   <v>       0.01075333      -0.14748873      -0.03370011 </v>
   <v>      -0.05679880      -0.07795181      -0.08684448 </v>
   <v>      -0.01075333      -0.14748873      -0.03370011 </v>
   <v>      -0.03419601       0.23400079       0.16786185 </v>
   <v>      -0.45691637       0.52083460      -0.76571521 </v>
   <v>       0.03419601       0.23400079       0.16786185 </v>
   <v>       0.45691637       0.52083460      -0.76571521 </v>
   <v>       0.00000000       0.21029432       0.09242383 </v>
   <v>       0.00000000       0.25316165      -0.13741872 </v>
   <v>       0.00000000      -0.33258949       0.12339642 </v>
  </varray>
  <varray name="stress" >
   <v>      83.36459659       0.00000000       0.00000000 </v>
   <v>       0.00000000      75.26301006      -0.37370290 </v>
   <v>       0.00000000      -0.37370450      77.11785909 </v>
  </varray>
  <energy>
   <i name="e_fr_energy">   -708.30906088 </i>
   <i name="e_wo_entrp">   -708.29604782 </i>
   <i name="e_0_energy">   -708.30255435 </i>
  </energy>
  <time name="totalsc">   63.86   63.89</time>
 </calculation>
 <calculation>
  <scstep>
   <time name="dav">    2.00    1.99</time>
   <time name="total">    2.38    2.38</time>
   <energy>
    <i name="alphaZ">   5530.94812622 </i>
    <i name="ewald"> -88639.67621672 </i>
    <i name="hartreedc"> -33814.74719679 </i>
    <i name="XCdc">   4204.26982901 </i>
    <i name="pawpsdc"> 119912.59441271 </i>
    <i name="pawaedc">-136312.13522962 </i>
    <i name="eentropy">     -0.00000000 </i>
    <i name="bandstr">  -5692.95779646 </i>
    <i name="atom"> 134104.30092448 </i>
    <i name="e_fr_energy">   -707.40314717 </i>
    <i name="e_wo_entrp">   -707.40314717 </i>
    <i name="e_0_energy">   -707.40314717 </i>
   </energy>
  </scstep>
  <scstep>
   <time name="diag">    0.24    0.24</time>
   <time name="diis">    2.63    2.63</time>
   <time name="orth">    0.03    0.03</time>
   <time name="total">    3.29    3.29</time>
   <energy>
    <i name="e_fr_energy">   -708.44955875 </i>
    <i name="e_wo_entrp">   -708.44955875 </i>
    <i name="e_0_energy">   -708.44955875 </i>
   </energy>
  </scstep>
  <scstep>
   <time name="diag">    0.24    0.24</time>
   <time name="diis">    2.85    2.85</time>
   <time name="orth">    0.03    0.03</time>
   <time name="total">    3.52    3.52</time>
   <energy>
    <i name="e_fr_energy">   -708.66978195 </i>
    <i name="e_wo_entrp">   -708.66978195 </i>
    <i name="e_0_energy">   -708.66978195 </i>
   </energy>
  </scstep>
  <scstep>
   <time name="diag">    0.24    0.24</time>
   <time name="diis">    2.99    2.99</time>
   <time name="orth">    0.03    0.03</time>
   <time name="total">    3.65    3.65</time>
   <energy>
    <i name="e_fr_energy">   -708.66937242 </i>
    <i name="e_wo_entrp">   -708.66937242 </i>
    <i name="e_0_energy">   -708.66937242 </i>
   </energy>
  </scstep>
  <scstep>
   <time name="diag">    0.24    0.24</time>
   <time name="diis">    2.76    2.76</time>
   <time name="orth">    0.03    0.03</time>
   <time name="total">    3.42    3.42</time>
   <energy>
    <i name="e_fr_energy">   -708.64904000 </i>
    <i name="e_wo_entrp">   -708.64904000 </i>
    <i name="e_0_energy">   -708.64904000 </i>
   </energy>
  </scstep>
  <scstep>
   <time name="diag">    0.24    0.24</time>
   <time name="diis">    2.90    2.90</time>
   <time name="orth">    0.03    0.03</time>
   <time name="total">    3.56    3.56</time>
   <energy>
    <i name="e_fr_energy">   -708.64887828 </i>
    <i name="e_wo_entrp">   -708.64887828 </i>
    <i name="e_0_energy">   -708.64887828 </i>
   </energy>
  </scstep>
  <scstep>
   <time name="diag">    0.24    0.24</time>
   <time name="diis">    2.63    2.63</time>
   <time name="orth">    0.03    0.03</time>
   <time name="total">    3.30    3.30</time>
   <energy>
    <i name="e_fr_energy">   -708.64873179 </i>
    <i name="e_wo_entrp">   -708.64873179 </i>
    <i name="e_0_energy">   -708.64873179 </i>
   </energy>
  </scstep>
  <scstep>
   <time name="diag">    0.24    0.24</time>
   <time name="diis">    2.88    2.88</time>
   <time name="orth">    0.03    0.03</time>
   <time name="total">    3.54    3.54</time>
   <energy>
    <i name="e_fr_energy">   -708.64853278 </i>
    <i name="e_wo_entrp">   -708.64853278 </i>
    <i name="e_0_energy">   -708.64853278 </i>
   </energy>
  </scstep>
  <scstep>
   <time name="diag">    0.24    0.24</time>
   <time name="diis">    2.38    2.38</time>
   <time name="orth">    0.03    0.03</time>
   <time name="total">    3.06    3.07</time>
   <energy>
    <i name="e_fr_energy">   -708.64851821 </i>
    <i name="e_wo_entrp">   -708.64851821 </i>
    <i name="e_0_energy">   -708.64851821 </i>
   </energy>
  </scstep>
  <scstep>
   <time name="diag">    0.24    0.24</time>
   <time name="diis">    2.01    2.01</time>
   <time name="orth">    0.03    0.03</time>
   <time name="total">    2.68    2.68</time>
   <energy>
    <i name="e_fr_energy">   -708.64852850 </i>
    <i name="e_wo_entrp">   -708.64852850 </i>
    <i name="e_0_energy">   -708.64852850 </i>
   </energy>
  </scstep>
  <scstep>
   <time name="diag">    0.24    0.24</time>
   <time name="diis">    1.79    1.79</time>
   <time name="orth">    0.03    0.03</time>
   <time name="total">    2.18    2.18</time>
   <energy>
    <i name="alphaZ">   5530.94812622 </i>
    <i name="ewald"> -88639.67621672 </i>
    <i name="hartreedc"> -33810.93061546 </i>
    <i name="XCdc">   4204.23597995 </i>
    <i name="pawpsdc"> 119944.56510691 </i>
    <i name="pawaedc">-136344.16761917 </i>
    <i name="eentropy">     -0.00000000 </i>
    <i name="bandstr">  -5697.92421482 </i>
    <i name="atom"> 134104.30092448 </i>
    <i name="e_fr_energy">   -708.64852862 </i>
    <i name="e_wo_entrp">   -708.64852862 </i>
    <i name="e_0_energy">   -708.64852862 </i>
   </energy>
  </scstep>
  <structure>
   <crystal>
    <varray name="basis" >
     <v>       0.00000000      12.28047342       0.00000000 </v>
     <v>       9.14270205       0.00000000       0.00000000 </v>
     <v>       0.00000000      -2.76826177     -11.30069772 </v>
    </varray>
    <i name="volume">   1268.80515525 </i>
    <varray name="rec_basis" >
     <v>       0.00000000       0.08143009      -0.01994742 </v>
     <v>       0.10937686      -0.00000000       0.00000000 </v>
     <v>       0.00000000       0.00000000      -0.08849011 </v>
    </varray>
   </crystal>
   <varray name="positions" >
    <v>       0.65996786       0.00015049       0.15792404 </v>
    <v>       0.65886041       0.00008348       0.65696425 </v>
    <v>       0.65996786       0.33318284       0.15792404 </v>
    <v>       0.65886041       0.33324986       0.65696425 </v>
    <v>       0.65918225       0.66666667       0.15763635 </v>
    <v>       0.65873687       0.66666667       0.65698873 </v>
    <v>       0.84881374       0.16666667       0.34440744 </v>
    <v>       0.84167402       0.16666667       0.84294451 </v>
    <v>       0.84287431       0.49819560       0.34339464 </v>
    <v>       0.84153776       0.49974330       0.84289581 </v>
    <v>       0.84287431       0.83513773       0.34339464 </v>
    <v>       0.84153776       0.83359003       0.84289581 </v>
    <v>       0.59097433       0.16666667       0.39728637 </v>
    <v>       0.59067616       0.16666667       0.89778979 </v>
    <v>       0.59083674       0.49984327       0.39733490 </v>
    <v>       0.59061863       0.49999093       0.89774125 </v>
    <v>       0.59083674       0.83349007       0.39733490 </v>
    <v>       0.59061863       0.83334241       0.89774125 </v>
    <v>       0.91002608       0.00100500       0.10462123 </v>
    <v>       0.90989799       0.00086399       0.60047419 </v>
    <v>       0.91002608       0.33232833       0.10462123 </v>
    <v>       0.90989799       0.33246934       0.60047419 </v>
    <v>       0.90993598       0.66666667       0.10330645 </v>
    <v>       0.90990353       0.66666667       0.60178652 </v>
    <v>       0.15767000       0.16666667       0.15904266 </v>
    <v>       0.15743642       0.16666667       0.65442258 </v>
    <v>       0.15839777       0.49898987       0.15829446 </v>
    <v>       0.15827006       0.49880760       0.65569283 </v>
    <v>       0.15839777       0.83434347       0.15829446 </v>
    <v>       0.15827006       0.83452573       0.65569283 </v>
    <v>       0.33996252       0.00028104       0.34250819 </v>
    <v>       0.34095132       0.00010195       0.84238815 </v>
    <v>       0.33996252       0.33305229       0.34250819 </v>
    <v>       0.34095132       0.33323139       0.84238815 </v>
    <v>       0.34082883       0.66666667       0.34269966 </v>
    <v>       0.34114519       0.66666667       0.84247380 </v>
    <v>       0.08640236       0.00683060       0.39639084 </v>
    <v>       0.09057586       0.00022763       0.89757218 </v>
    <v>       0.08640236       0.32650273       0.39639084 </v>
    <v>       0.09057586       0.33310570       0.89757218 </v>
    <v>       0.08882307       0.66666667       0.39711901 </v>
    <v>       0.09045345       0.66666667       0.89752103 </v>
    <v>       0.40932706       0.16666667       0.10282736 </v>
    <v>       0.40879045       0.16666667       0.60199823 </v>
    <v>       0.40939900       0.49997445       0.10279120 </v>
    <v>       0.40901362       0.49985709       0.60221551 </v>
    <v>       0.40939900       0.83335888       0.10279120 </v>
    <v>       0.40901362       0.83347624       0.60221551 </v>
    <v>       0.99635715       0.16666667       0.12656824 </v>
    <v>       0.99634224       0.16666667       0.62999495 </v>
    <v>       0.99641589       0.50050433       0.12796815 </v>
    <v>       0.99641233       0.50051144       0.62894895 </v>
    <v>       0.99641589       0.83282901       0.12796815 </v>
    <v>       0.99641233       0.83282190       0.62894895 </v>
    <v>       0.50353716      -0.00010935       0.37157970 </v>
    <v>       0.50351782      -0.00004644       0.87151091 </v>
    <v>       0.50353716       0.33344268       0.37157970 </v>
    <v>       0.50351782       0.33337978       0.87151091 </v>
    <v>       0.50353708       0.66666667       0.37159002 </v>
    <v>       0.50351782       0.66666667       0.87150671 </v>
    <v>       0.67251102       0.16666667       0.28137471 </v>
    <v>       0.67308342       0.16666667       0.78154386 </v>
    <v>       0.67261732       0.50036797       0.28139393 </v>
    <v>       0.67311164       0.50006680       0.78154067 </v>
    <v>       0.67261732       0.83296536       0.28139393 </v>
    <v>       0.67311164       0.83326653       0.78154067 </v>
    <v>       0.82453286      -0.00219506       0.21631107 </v>
    <v>       0.82637126      -0.00011755       0.71887508 </v>
    <v>       0.82453286       0.33552839       0.21631107 </v>
    <v>       0.82637126       0.33345088       0.71887508 </v>
    <v>       0.82619614       0.66666667       0.21797368 </v>
    <v>       0.82647706       0.66666667       0.71868717 </v>
    <v>       0.83295185      -0.00274100       0.44689865 </v>
    <v>       0.83457436      -0.00017473       0.94496245 </v>
    <v>       0.83295185       0.33607434       0.44689865 </v>
    <v>       0.83457436       0.33350807       0.94496245 </v>
    <v>       0.83442338       0.66666667       0.44576710 </v>
    <v>       0.83465527       0.66666667       0.94520022 </v>
    <v>       0.66474279       0.16666667       0.05388178 </v>
    <v>       0.66492824       0.16666667       0.55472939 </v>
    <v>       0.66479732       0.50025321       0.05395122 </v>
    <v>       0.66496014       0.50015712       0.55469942 </v>
    <v>       0.66479732       0.83308012       0.05395122 </v>
    <v>       0.66496014       0.83317621       0.55469942 </v>
    <v>       0.49643690      -0.00006985       0.12833449 </v>
    <v>       0.49669160      -0.00009103       0.62861633 </v>
    <v>       0.49643690       0.33340319       0.12833449 </v>
    <v>       0.49669160       0.33342436       0.62861633 </v>
    <v>       0.49646003       0.66666667       0.12834264 </v>
    <v>       0.49664208       0.66666667       0.62858687 </v>
    <v>       0.00340205       0.16666667       0.87151614 </v>
    <v>       0.00357960       0.50353711       0.37158027 </v>
    <v>       0.00343501       0.50014342       0.87151861 </v>
    <v>       0.00357960       0.82979622       0.37158027 </v>
    <v>       0.00343501       0.83318991       0.87151861 </v>
    <v>       0.17594347      -0.00200691       0.27978141 </v>
    <v>       0.17351228      -0.00010339       0.78226570 </v>
    <v>       0.17594347       0.33534025       0.27978141 </v>
    <v>       0.17351228       0.33343672       0.78226570 </v>
    <v>       0.17388299       0.66666667       0.28123673 </v>
    <v>       0.17343155       0.66666667       0.78188636 </v>
    <v>       0.32736984       0.16666667       0.21807806 </v>
    <v>       0.32732912       0.16666667       0.71903964 </v>
    <v>       0.32732110       0.50040331       0.21816156 </v>
    <v>       0.32729753       0.50027695       0.71897583 </v>
    <v>       0.32732110       0.83293002       0.21816156 </v>
    <v>       0.32729753       0.83305638       0.71897583 </v>
    <v>       0.33560787       0.16666667       0.44588304 </v>
    <v>       0.33499051       0.16666667       0.94558511 </v>
    <v>       0.33527237       0.50029971       0.44579370 </v>
    <v>       0.33494805       0.50005674       0.94556683 </v>
    <v>       0.33527237       0.83303363       0.44579370 </v>
    <v>       0.33494805       0.83327659       0.94556683 </v>
    <v>       0.16526269      -0.00018044       0.05386044 </v>
[...]
       <r>    -9.7606     7.7144   142.8496 </r>
       <r>    -9.6506    10.4265   143.9965 </r>
       <r>    -9.5405     0.0316   144.0000 </r>
       <r>    -9.4305     0.0000   144.0000 </r>
       <r>    -9.3205     0.0000   144.0000 </r>
       <r>    -9.2105     1.2354   144.1359 </r>
       <r>    -9.1005   127.7299   158.1866 </r>
       <r>    -8.9905   442.3471   206.8460 </r>
       <r>    -8.8805   711.9445   285.1620 </r>
       <r>    -8.7705   724.7222   364.8835 </r>
       <r>    -8.6605   620.3182   433.1203 </r>
       <r>    -8.5505   631.4077   502.5769 </r>
       <r>    -8.4405   228.2489   527.6850 </r>
       <r>    -8.3305   154.9564   544.7306 </r>
       <r>    -8.2205   163.9494   562.7655 </r>
       <r>    -8.1105   167.6698   581.2097 </r>
       <r>    -8.0005   134.1133   595.9625 </r>
       <r>    -7.8905   116.2225   608.7474 </r>
       <r>    -7.7805    80.0721   617.5555 </r>
       <r>    -7.6705    38.1437   621.7514 </r>
       <r>    -7.5605     2.2595   622.0000 </r>
       <r>    -7.4505     0.0002   622.0000 </r>
       <r>    -7.3405     0.0000   622.0000 </r>
       <r>    -7.2305     0.0000   622.0000 </r>
       <r>    -7.1205     0.0000   622.0000 </r>
       <r>    -7.0105     0.0000   622.0000 </r>
       <r>    -6.9005     0.0000   622.0000 </r>
       <r>    -6.7905     0.0000   622.0000 </r>
       <r>    -6.6805     0.0000   622.0000 </r>
       <r>    -6.5705     0.0001   622.0000 </r>
       <r>    -6.4605     1.9371   622.2131 </r>
       <r>    -6.3505    15.6719   623.9371 </r>
       <r>    -6.2405     0.5722   624.0000 </r>
       <r>    -6.1305     0.0000   624.0000 </r>
       <r>    -6.0205     0.0000   624.0000 </r>
       <r>    -5.9105     0.0000   624.0000 </r>
       <r>    -5.8005     0.0000   624.0000 </r>
       <r>    -5.6904     0.0000   624.0000 </r>
       <r>    -5.5804     0.0000   624.0000 </r>
       <r>    -5.4704     0.0000   624.0000 </r>
       <r>    -5.3604     0.0000   624.0000 </r>
       <r>    -5.2504     0.0000   624.0000 </r>
       <r>    -5.1404     0.0000   624.0000 </r>
       <r>    -5.0304     0.0000   624.0000 </r>
       <r>    -4.9204     0.0000   624.0000 </r>
       <r>    -4.8104     0.0000   624.0000 </r>
       <r>    -4.7004     0.0000   624.0000 </r>
       <r>    -4.5904     0.0000   624.0000 </r>
       <r>    -4.4804     0.0000   624.0000 </r>
       <r>    -4.3704     0.0000   624.0000 </r>
       <r>    -4.2604     0.0000   624.0000 </r>
       <r>    -4.1504     0.0000   624.0000 </r>
       <r>    -4.0404     0.0000   624.0000 </r>
       <r>    -3.9304     0.0000   624.0000 </r>
       <r>    -3.8204     0.0000   624.0000 </r>
       <r>    -3.7104     0.0000   624.0000 </r>
       <r>    -3.6004     0.0000   624.0000 </r>
       <r>    -3.4904     0.0000   624.0000 </r>
       <r>    -3.3804     0.0001   624.0000 </r>
       <r>    -3.2704     0.8236   624.0906 </r>
       <r>    -3.1604     4.9451   624.6346 </r>
       <r>    -3.0504    13.8748   626.1609 </r>
       <r>    -2.9404    17.8128   628.1203 </r>
       <r>    -2.8304    32.7915   631.7275 </r>
       <r>    -2.7204    35.9216   635.6790 </r>
       <r>    -2.6104    27.3259   638.6849 </r>
       <r>    -2.5004    51.1144   644.3076 </r>
       <r>    -2.3904    38.2366   648.5138 </r>
       <r>    -2.2804    61.7803   655.3098 </r>
       <r>    -2.1704    57.9751   661.6872 </r>
       <r>    -2.0604    47.3362   666.8943 </r>
       <r>    -1.9504    42.5227   671.5719 </r>
       <r>    -1.8403    60.0300   678.1754 </r>
       <r>    -1.7303    43.4788   682.9582 </r>
       <r>    -1.6203    31.8504   686.4618 </r>
       <r>    -1.5103    35.6211   690.3802 </r>
       <r>    -1.4003    24.3496   693.0588 </r>
       <r>    -1.2903    34.4183   696.8449 </r>
       <r>    -1.1803    33.9350   700.5778 </r>
       <r>    -1.0703    35.7540   704.5109 </r>
       <r>    -0.9603    44.3078   709.3849 </r>
       <r>    -0.8503    37.4350   713.5028 </r>
       <r>    -0.7403    36.0438   717.4677 </r>
       <r>    -0.6303    31.5410   720.9373 </r>
       <r>    -0.5203    40.4712   725.3893 </r>
       <r>    -0.4103    40.1651   729.8076 </r>
       <r>    -0.3003    53.5011   735.6928 </r>
       <r>    -0.1903    35.0297   739.5462 </r>
       <r>    -0.0803    41.2892   744.0881 </r>
       <r>     0.0297    55.6445   750.2092 </r>
       <r>     0.1397    80.0735   759.0175 </r>
       <r>     0.2497    70.4936   766.7720 </r>
       <r>     0.3597    63.9747   773.8094 </r>
       <r>     0.4697    75.4902   782.1135 </r>
       <r>     0.5797    60.7148   788.7924 </r>
       <r>     0.6897    54.9007   794.8316 </r>
       <r>     0.7997    58.9074   801.3116 </r>
       <r>     0.9097    79.3158   810.0365 </r>
       <r>     1.0197    78.4956   818.6713 </r>
       <r>     1.1297    79.1077   827.3733 </r>
       <r>     1.2397    81.8877   836.3812 </r>
       <r>     1.3497    64.9922   843.5306 </r>
       <r>     1.4597    65.7049   850.7583 </r>
       <r>     1.5697    75.0335   859.0122 </r>
       <r>     1.6797    75.0520   867.2681 </r>
       <r>     1.7897    87.8834   876.9356 </r>
       <r>     1.8998    86.8052   886.4844 </r>
       <r>     2.0098    70.0271   894.1876 </r>
       <r>     2.1198    49.1739   899.5968 </r>
       <r>     2.2298    53.7204   905.5062 </r>
       <r>     2.3398   105.7873   917.1431 </r>
       <r>     2.4498    91.5111   927.2096 </r>
       <r>     2.5598    99.4501   938.1494 </r>
       <r>     2.6698    94.8162   948.5795 </r>
       <r>     2.7798    96.4325   959.1873 </r>
       <r>     2.8898   111.8896   971.4955 </r>
       <r>     2.9998   108.6392   983.4461 </r>
       <r>     3.1098   145.2787   999.4272 </r>
       <r>     3.2198   113.3955  1011.9010 </r>
       <r>     3.3298   107.5809  1023.7353 </r>
       <r>     3.4398    71.1588  1031.5629 </r>
       <r>     3.5498    61.7750  1038.3584 </r>
       <r>     3.6598    47.1320  1043.5430 </r>
       <r>     3.7698    54.6145  1049.5508 </r>
       <r>     3.8798    30.3712  1052.8917 </r>
       <r>     3.9898     9.9907  1053.9907 </r>
       <r>     4.0998     0.0846  1054.0000 </r>
       <r>     4.2098     0.0000  1054.0000 </r>
       <r>     4.3198     0.0000  1054.0000 </r>
       <r>     4.4298     0.0000  1054.0000 </r>
       <r>     4.5398     0.0000  1054.0000 </r>
       <r>     4.6498     0.0000  1054.0000 </r>
       <r>     4.7598     0.0000  1054.0000 </r>
       <r>     4.8698     0.0000  1054.0000 </r>
       <r>     4.9798     0.0000  1054.0000 </r>
       <r>     5.0898     0.0000  1054.0000 </r>
       <r>     5.1998     0.0000  1054.0000 </r>
       <r>     5.3098     0.0504  1054.0055 </r>
       <r>     5.4198     7.9421  1054.8792 </r>
       <r>     5.5298    10.0892  1055.9890 </r>
       <r>     5.6398     0.0996  1056.0000 </r>
       <r>     5.7499     0.0000  1056.0000 </r>
       <r>     5.8599     0.0000  1056.0000 </r>
       <r>     5.9699     0.0013  1056.0001 </r>
       <r>     6.0799     1.0108  1056.1113 </r>
       <r>     6.1899     1.2572  1056.2496 </r>
       <r>     6.2999     0.0033  1056.2500 </r>
       <r>     6.4099     0.0000  1056.2500 </r>
       <r>     6.5199     0.0000  1056.2500 </r>
       <r>     6.6299     0.0000  1056.2500 </r>
       <r>     6.7399     0.0000  1056.2500 </r>
       <r>     6.8499     0.0148  1056.2516 </r>
       <r>     6.9599     2.5177  1056.5286 </r>
       <r>     7.0699     5.2969  1057.1113 </r>
       <r>     7.1799     1.2601  1057.2499 </r>
       <r>     7.2899     1.2773  1057.3904 </r>
       <r>     7.3999     6.7840  1058.1366 </r>
       <r>     7.5099     1.0303  1058.2500 </r>
       <r>     7.6199     0.0003  1058.2500 </r>
       <r>     7.7299     0.8165  1058.3398 </r>
       <r>     7.8399     9.0651  1059.3370 </r>
       <r>     7.9499     5.9062  1059.9867 </r>
       <r>     8.0599     5.8083  1060.6256 </r>
       <r>     8.1699     5.8301  1061.2670 </r>
       <r>     8.2799     5.8518  1061.9107 </r>
       <r>     8.3899     2.8644  1062.2258 </r>
       <r>     8.4999     9.0659  1063.2231 </r>
       <r>     8.6099    12.3033  1064.5765 </r>
       <r>     8.7199     4.7066  1065.0942 </r>
       <r>     8.8299     2.4212  1065.3605 </r>
       <r>     8.9399    12.1334  1066.6953 </r>
       <r>     9.0499    15.7555  1068.4284 </r>
       <r>     9.1599    12.9379  1069.8516 </r>
       <r>     9.2699     8.0375  1070.7357 </r>
       <r>     9.3799    13.5923  1072.2309 </r>
       <r>     9.4899    25.7539  1075.0639 </r>
       <r>     9.6000    32.8643  1078.6791 </r>
       <r>     9.7100    30.5740  1082.0423 </r>
       <r>     9.8200    50.5733  1087.6055 </r>
       <r>     9.9300    50.6399  1093.1761 </r>
       <r>    10.0400    36.2987  1097.1690 </r>
       <r>    10.1500    27.6963  1100.2157 </r>
       <r>    10.2600    38.6025  1104.4621 </r>
       <r>    10.3700    27.5718  1107.4951 </r>
       <r>    10.4800    27.7910  1110.5522 </r>
       <r>    10.5900    44.2554  1115.4204 </r>
       <r>    10.7000    44.9694  1120.3671 </r>
       <r>    10.8100    35.5278  1124.2753 </r>
       <r>    10.9200    34.3531  1128.0542 </r>
       <r>    11.0300    33.8521  1131.7781 </r>
       <r>    11.1400    27.3193  1134.7833 </r>
       <r>    11.2500    39.5221  1139.1308 </r>
       <r>    11.3600    39.5132  1143.4774 </r>
       <r>    11.4700    41.3729  1148.0285 </r>
       <r>    11.5800    36.1243  1152.0023 </r>
       <r>    11.6900    47.5487  1157.2328 </r>
       <r>    11.8000    30.5209  1160.5902 </r>
       <r>    11.9100    11.6210  1161.8685 </r>
       <r>    12.0200    10.1349  1162.9834 </r>
       <r>    12.1300    27.4899  1166.0074 </r>
       <r>    12.2400    36.2794  1169.9982 </r>
       <r>    12.3500    34.8053  1173.8269 </r>
       <r>    12.4600    40.3414  1178.2646 </r>
       <r>    12.5700    43.6343  1183.0645 </r>
       <r>    12.6800    41.5835  1187.6388 </r>
       <r>    12.7900    34.3381  1191.4161 </r>
       <r>    12.9000    40.9604  1195.9218 </r>
       <r>    13.0100    35.5100  1199.8280 </r>
       <r>    13.1200    40.5529  1204.2890 </r>
       <r>    13.2300    35.3155  1208.1738 </r>
       <r>    13.3400    32.6173  1211.7618 </r>
       <r>    13.4501    51.8441  1217.4648 </r>
       <r>    13.5601    44.7858  1222.3913 </r>
       <r>    13.6701    42.9176  1227.1124 </r>
       <r>    13.7801    35.7383  1231.0437 </r>
       <r>    13.8901    32.6582  1234.6362 </r>
       <r>    14.0001    31.1212  1238.0596 </r>
       <r>    14.1101    43.4428  1242.8385 </r>
       <r>    14.2201    34.1583  1246.5960 </r>
       <r>    14.3301    22.0416  1249.0206 </r>
       <r>    14.4401    24.4019  1251.7049 </r>
       <r>    14.5501    43.8576  1256.5294 </r>
       <r>    14.6601    35.2419  1260.4061 </r>
       <r>    14.7701    36.4212  1264.4125 </r>
       <r>    14.8801    11.3440  1265.6604 </r>
       <r>    14.9901     3.0322  1265.9939 </r>
       <r>    15.1001     0.0552  1266.0000 </r>
       <r>    15.2101     0.0000  1266.0000 </r>
       <r>    15.3201     0.0000  1266.0000 </r>
       <r>    15.4301     0.0000  1266.0000 </r>
       <r>    15.5401     0.0000  1266.0000 </r>
       <r>    15.6501     0.0000  1266.0000 </r>
       <r>    15.7601     0.0000  1266.0000 </r>
       <r>    15.8701     0.0000  1266.0000 </r>
       <r>    15.9801     0.0000  1266.0000 </r>
       <r>    16.0901     0.0000  1266.0000 </r>
       <r>    16.2001     0.0000  1266.0000 </r>
       <r>    16.3101     0.0000  1266.0000 </r>
       <r>    16.4201     0.0000  1266.0000 </r>
      </set>
     </set>
    </array>
   </total>
  </dos>
 </calculation>
 <structure name="finalpos" >
  <crystal>
   <varray name="basis" >
    <v>       0.00000000      12.28047342       0.00000000 </v>
    <v>       9.14270205       0.00000000       0.00000000 </v>
    <v>       0.00000000      -2.76826177     -11.30069772 </v>
   </varray>
   <i name="volume">   1268.80515525 </i>
   <varray name="rec_basis" >
    <v>       0.00000000       0.08143009      -0.01994742 </v>
    <v>       0.10937686      -0.00000000       0.00000000 </v>
    <v>       0.00000000       0.00000000      -0.08849011 </v>
   </varray>
  </crystal>
  <varray name="positions" >
   <v>       0.65966986      -0.00034207       0.15652540 </v>
   <v>       0.65947135      -0.00005769       0.65695185 </v>
   <v>       0.65966986       0.33367541       0.15652540 </v>
   <v>       0.65947135       0.33339102       0.65695185 </v>
   <v>       0.65885139       0.66666667       0.15649641 </v>
   <v>       0.65888488       0.66666667       0.65725114 </v>
   <v>       0.84469705       0.16666667       0.34651624 </v>
   <v>       0.84172716       0.16666667       0.84421369 </v>
   <v>       0.84111341       0.49986379       0.34310889 </v>
   <v>       0.84150970       0.49970353       0.84377932 </v>
   <v>       0.84111341       0.83346955       0.34310889 </v>
   <v>       0.84150970       0.83362980       0.84377932 </v>
   <v>       0.59294382       0.16666667       0.39714238 </v>
   <v>       0.59084495       0.16666667       0.89756138 </v>
   <v>       0.59186707       0.49971957       0.39771793 </v>
   <v>       0.59014056       0.50000049       0.89704278 </v>
   <v>       0.59186707       0.83361376       0.39771793 </v>
   <v>       0.59014056       0.83333285       0.89704278 </v>
   <v>       0.90953937       0.00008695       0.10397696 </v>
   <v>       0.90810845      -0.00000265       0.60041610 </v>
   <v>       0.90953937       0.33324639       0.10397696 </v>
   <v>       0.90810845       0.33333598       0.60041610 </v>
   <v>       0.90964917       0.66666667       0.10315864 </v>
   <v>       0.90856808       0.66666667       0.60151854 </v>
   <v>       0.15912355       0.16666667       0.15919826 </v>
   <v>       0.15817751       0.16666667       0.65218156 </v>
   <v>       0.16006257       0.49933097       0.15790456 </v>
   <v>       0.15899385       0.49941284       0.65578680 </v>
   <v>       0.16006257       0.83400237       0.15790456 </v>
   <v>       0.15899385       0.83392049       0.65578680 </v>
   <v>       0.34114102      -0.00017689       0.34391490 </v>
   <v>       0.34002123       0.00024854       0.84273670 </v>
   <v>       0.34114102       0.33351023       0.34391490 </v>
   <v>       0.34002123       0.33308479       0.84273670 </v>
   <v>       0.34232030       0.66666667       0.34329393 </v>
   <v>       0.34038685       0.66666667       0.84322049 </v>
   <v>       0.08589534       0.00461576       0.39623162 </v>
   <v>       0.09167034       0.00038715       0.89812388 </v>
   <v>       0.08589534       0.32871757       0.39623162 </v>
   <v>       0.09167034       0.33294618       0.89812388 </v>
   <v>       0.09179779       0.66666667       0.39804030 </v>
   <v>       0.09157614       0.66666667       0.89834576 </v>
   <v>       0.40873966       0.16666667       0.10246954 </v>
   <v>       0.40919631       0.16666667       0.60274234 </v>
   <v>       0.40945451       0.49974186       0.10227216 </v>
   <v>       0.40906521       0.49991829       0.60292105 </v>
   <v>       0.40945451       0.83359147       0.10227216 </v>
   <v>       0.40906521       0.83341504       0.60292105 </v>
   <v>       0.99647756       0.16666667       0.12014493 </v>
   <v>       0.99563613       0.16666667       0.62991903 </v>
   <v>       0.99720220       0.50014101       0.12716020 </v>
   <v>       0.99612914       0.49996172       0.62718848 </v>
   <v>       0.99720220       0.83319232       0.12716020 </v>
   <v>       0.99612914       0.83337161       0.62718848 </v>
   <v>       0.50449613       0.00045897       0.37282473 </v>
   <v>       0.50305687       0.00030056       0.87239070 </v>
   <v>       0.50449613       0.33287436       0.37282473 </v>
   <v>       0.50305687       0.33303277       0.87239070 </v>
   <v>       0.50466493       0.66666667       0.37314377 </v>
   <v>       0.50287256       0.66666667       0.87195978 </v>
   <v>       0.67452915       0.16666667       0.28030889 </v>
   <v>       0.67293331       0.16666667       0.78099022 </v>
   <v>       0.67129814       0.50127366       0.27942104 </v>
   <v>       0.67271232       0.50014284       0.78097955 </v>
   <v>       0.67129814       0.83205967       0.27942104 </v>
   <v>       0.67271232       0.83319050       0.78097955 </v>
   <v>       0.82484952      -0.00542645       0.21701350 </v>
   <v>       0.82756983      -0.00036815       0.71956657 </v>
   <v>       0.82484952       0.33875979       0.21701350 </v>
   <v>       0.82756983       0.33370149       0.71956657 </v>
   <v>       0.82689440       0.66666667       0.21886107 </v>
   <v>       0.82757010       0.66666667       0.71958544 </v>
   <v>       0.82461258      -0.00386704       0.44658061 </v>
   <v>       0.83262691      -0.00034295       0.94628100 </v>
   <v>       0.82461258       0.33720037       0.44658061 </v>
   <v>       0.83262691       0.33367628       0.94628100 </v>
   <v>       0.83015472       0.66666667       0.44554510 </v>
   <v>       0.83309737       0.66666667       0.94611764 </v>
   <v>       0.66768525       0.16666667       0.05373473 </v>
   <v>       0.66698847       0.16666667       0.55482048 </v>
   <v>       0.66616681       0.50064743       0.05314186 </v>
   <v>       0.66648518       0.50049918       0.55499492 </v>
   <v>       0.66616681       0.83268590       0.05314186 </v>
   <v>       0.66648518       0.83283416       0.55499492 </v>
   <v>       0.49668067       0.00042861       0.12689283 </v>
   <v>       0.49667089      -0.00000058       0.62843033 </v>
   <v>       0.49668067       0.33290472       0.12689283 </v>
   <v>       0.49667089       0.33333392       0.62843033 </v>
   <v>       0.49612460       0.66666667       0.12633598 </v>
   <v>       0.49636781       0.66666667       0.62866777 </v>
   <v>       0.00390749       0.16666667       0.87223904 </v>
   <v>       0.00339818       0.50215896       0.37368828 </v>
   <v>       0.00416937       0.49993292       0.87307044 </v>
   <v>       0.00339818       0.83117437       0.37368828 </v>
   <v>       0.00416937       0.83340041       0.87307044 </v>
   <v>       0.17441018      -0.00237705       0.28085179 </v>
   <v>       0.17245188       0.00004744       0.78030698 </v>
   <v>       0.17441018       0.33571038       0.28085179 </v>
   <v>       0.17245188       0.33328590       0.78030698 </v>
   <v>       0.17394229       0.66666667       0.28117686 </v>
   <v>       0.17242158       0.66666667       0.78053069 </v>
   <v>       0.32832678       0.16666667       0.22005698 </v>
   <v>       0.32729745       0.16666667       0.71941223 </v>
   <v>       0.32907498       0.50064153       0.21982069 </v>
   <v>       0.32802588       0.50030584       0.72030684 </v>
   <v>       0.32907498       0.83269180       0.21982069 </v>
   <v>       0.32802588       0.83302749       0.72030684 </v>
   <v>       0.33386118       0.16666667       0.44617638 </v>
   <v>       0.33220465       0.16666667       0.94576399 </v>
   <v>       0.33447199       0.50057613       0.44614619 </v>
   <v>       0.33219228       0.49981417       0.94584838 </v>
   <v>       0.33447199       0.83275720       0.44614619 </v>
   <v>       0.33219228       0.83351916       0.94584838 </v>
   <v>       0.16904370       0.00028269       0.05452935 </v>
   <v>       0.17029736      -0.00237234       0.55400962 </v>
   <v>       0.16904370       0.33305064       0.05452935 </v>
   <v>       0.17029736       0.33570567       0.55400962 </v>
   <v>       0.16849507       0.66666667       0.05493625 </v>
   <v>       0.16922284       0.66666667       0.55479615 </v>
   <v>      -0.00079400       0.16666667       0.36971450 </v>
  </varray>
 </structure>
</modeling>
