 running    4 mpi-ranks, on    1 nodes
 distrk:  each k-point on    1 cores,    4 groups
 distr:  one band on    1 cores,    1 groups
 OpenACC runtime initialized ...    4 GPUs detected
 vasp.6.4.2 20Jul23 (build Nov 12 2023 22:16:35) complex                         
 POSCAR found type information on POSCAR GaO P 
 POSCAR found :  3 types and     120 ions
 scaLAPACK will be used selectively (only on CPU)
 LDA part: xc-table for Pade appr. of Perdew
 POSCAR, INCAR and KPOINTS ok, starting setup
 FFT: planning ... GRIDC
 FFT: planning ... GRID_SOFT
 FFT: planning ... GRID
 WAVECAR not read
 initial charge from wavefunction
 entering main loop
       N       E                     dE             d eps       ncg     rms          ort
DAV:   1    -0.186155216067E+05   -0.18616E+05   -0.54358E+05  5064   0.747E+03
DAV:   2    -0.630394005687E+05   -0.44424E+05   -0.43035E+05  5064   0.122E+03
DAV:   3    -0.677723749405E+05   -0.47330E+04   -0.42547E+04  5064   0.362E+02
DAV:   4    -0.683759963899E+05   -0.60362E+03   -0.53124E+03  5064   0.109E+02
DAV:   5    -0.381646874804E+05    0.30211E+05   -0.74490E+02  5064   0.548E+01
 gam= 0.000 g(H,U,f)=  0.714E+05 0.247E+05 0.107E+03 ort(H,U,f) = 0.000E+00 0.000E+00 0.000E+00
SDA:   6     0.227041008303E+05    0.60869E+05   -0.74490E+02  5064   0.962E+05 0.000E+00
 gam= 0.000 trial= 0.400  step= 0.336 mean= 0.400
 gam= 0.461 g(H,U,f)=  0.180E+05 0.219E+05 0.447E+04 ort(H,U,f) = 0.862E+03-0.221E+05-0.607E+04
CGA:   7     0.522861231687E+04   -0.17475E+05   -0.16166E+05  5064   0.444E+05-0.273E+05
 gam= 0.461 trial= 0.397  step= 0.216 mean= 0.397
 gam= 0.294 g(H,U,f)=  0.742E+04 0.536E+04 0.254E+03 ort(H,U,f) = 0.144E+04 0.136E+04 0.133E+03
CGA:   8     0.230904076915E+04   -0.29196E+04   -0.34392E+04  5064   0.130E+05 0.293E+04
 gam= 0.294 trial= 0.388  step= 0.184 mean= 0.388
 gam= 0.603 g(H,U,f)=  0.610E+04 0.162E+04 0.155E+03 ort(H,U,f) = 0.375E+03 0.228E+03 0.355E+03
CGA:   9     0.126754115717E+04   -0.10415E+04   -0.12816E+04  5064   0.787E+04 0.959E+03
 gam= 0.603 trial= 0.378  step= 0.228 mean= 0.378
 gam= 0.724 g(H,U,f)=  0.314E+04 0.244E+04 0.111E+03 ort(H,U,f) = 0.435E+03 0.380E+03 0.192E+02
CGA:  10     0.520369507702E+03   -0.74717E+03   -0.96450E+03  5064   0.570E+04 0.834E+03
 gam= 0.724 trial= 0.370  step= 0.244 mean= 0.370
 gam= 0.406 g(H,U,f)=  0.199E+04 0.319E+03 0.113E+01 ort(H,U,f) = 0.227E+02 0.350E+03-0.865E+00
CGA:  11    -0.992857278614E+02   -0.61966E+03   -0.76980E+03  5064   0.231E+04 0.372E+03
 gam= 0.406 trial= 0.364  step= 0.324 mean= 0.364
 gam= 0.758 g(H,U,f)=  0.627E+03 0.103E+04 0.928E+02 ort(H,U,f) = 0.257E+03-0.519E+03-0.584E+02
CGA:  12    -0.510100564707E+03   -0.41081E+03   -0.39977E+03  5064   0.175E+04-0.321E+03
 gam= 0.758 trial= 0.362  step= 0.229 mean= 0.362
 gam= 0.284 g(H,U,f)=  0.434E+03 0.632E+02 0.141E+00 ort(H,U,f) =-0.224E+02 0.935E+02 0.297E+00
CGA:  13    -0.648257923696E+03   -0.13816E+03   -0.17296E+03  5064   0.497E+03 0.714E+02
 gam= 0.284 trial= 0.355  step= 0.588 mean= 0.355
 gam= 0.441 g(H,U,f)=  0.181E+03 0.378E+02 0.284E+00 ort(H,U,f) =-0.282E+02 0.506E+02-0.681E+00
CGA:  14    -0.804347017875E+03   -0.15609E+03   -0.15207E+03  5064   0.219E+03 0.217E+02
 gam= 0.441 trial= 0.367  step= 0.666 mean= 0.367
 gam= 0.564 g(H,U,f)=  0.106E+03 0.167E+02 0.305E+00 ort(H,U,f) =-0.498E+02 0.341E+02 0.870E+00
CGA:  15    -0.878321816775E+03   -0.73975E+02   -0.76094E+02  5064   0.123E+03-0.149E+02
 gam= 0.564 trial= 0.382  step= 0.676 mean= 0.382
 gam= 0.497 g(H,U,f)=  0.550E+02 0.642E+01 0.155E-02 ort(H,U,f) =-0.195E+02 0.666E+01 0.240E-02
CGA:  16    -0.915090075937E+03   -0.36768E+02   -0.38904E+02  5064   0.614E+02-0.128E+02
 gam= 0.497 trial= 0.397  step= 0.575 mean= 0.397
 gam= 0.467 g(H,U,f)=  0.256E+02 0.305E+01 0.278E-19 ort(H,U,f) =-0.484E+01 0.783E-01-0.161E-18
CGA:  17    -0.930268134748E+03   -0.15178E+02   -0.15834E+02  5064   0.287E+02-0.477E+01
 gam= 0.467 trial= 0.405  step= 0.605 mean= 0.405
 gam= 0.495 g(H,U,f)=  0.120E+02 0.218E+01 0.358E-15 ort(H,U,f) =-0.484E+00 0.199E+00 0.111E-15
CGA:  18    -0.938244290133E+03   -0.79762E+01   -0.80084E+01  5064   0.142E+02-0.285E+00
 gam= 0.495 trial= 0.415  step= 0.562 mean= 0.415
 gam= 0.450 g(H,U,f)=  0.528E+01 0.110E+01 0.144E-14 ort(H,U,f) =-0.102E+01 0.103E+01 0.354E-14
CGA:  19    -0.942190682550E+03   -0.39464E+01   -0.39457E+01  5064   0.638E+01 0.165E-01
 gam= 0.450 trial= 0.423  step= 0.627 mean= 0.423
 gam= 0.490 g(H,U,f)=  0.263E+01 0.498E+00 0.620E-15 ort(H,U,f) =-0.659E+00 0.694E+00 0.763E-14
CGA:  20    -0.944197223211E+03   -0.20065E+01   -0.20028E+01  5064   0.313E+01 0.350E-01
 gam= 0.490 trial= 0.433  step= 0.637 mean= 0.433
 gam= 0.455 g(H,U,f)=  0.124E+01 0.179E+00 0.105E-15 ort(H,U,f) =-0.328E+00 0.342E+00 0.689E-14
CGA:  21    -0.945199776142E+03   -0.10026E+01   -0.10008E+01  5064   0.142E+01 0.147E-01
 gam= 0.455 trial= 0.443  step= 0.630 mean= 0.443
 gam= 0.474 g(H,U,f)=  0.605E+00 0.692E-01 0.490E-21 ort(H,U,f) =-0.801E-01 0.818E-01-0.457E-20
CGA:  22    -0.945650485046E+03   -0.45071E+00   -0.45048E+00  5064   0.674E+00 0.164E-02
 gam= 0.474 trial= 0.453  step= 0.605 mean= 0.453
 gam= 0.487 g(H,U,f)=  0.290E+00 0.386E-01 0.661E-13 ort(H,U,f) =-0.192E-01 0.189E-01 0.144E-12
CGA:  23    -0.945854776308E+03   -0.20429E+00   -0.20433E+00  5064   0.328E+00-0.261E-03
 gam= 0.487 trial= 0.460  step= 0.551 mean= 0.460
 gam= 0.415 g(H,U,f)=  0.117E+00 0.187E-01 0.143E-12 ort(H,U,f) =-0.903E-02 0.878E-02 0.759E-12
CGA:  24    -0.945945143315E+03   -0.90367E-01   -0.90383E-01  5064   0.136E+00-0.249E-03
 gam= 0.415 trial= 0.465  step= 0.590 mean= 0.465
 gam= 0.478 g(H,U,f)=  0.537E-01 0.114E-01 0.318E-18 ort(H,U,f) =-0.973E-02 0.927E-02 0.739E-18
CGA:  25    -0.945985203850E+03   -0.40061E-01   -0.40091E-01  5064   0.651E-01-0.458E-03
 gam= 0.478 trial= 0.471  step= 0.630 mean= 0.471
 gam= 0.453 g(H,U,f)=  0.247E-01 0.474E-02 0.315E-13 ort(H,U,f) =-0.792E-02 0.760E-02 0.111E-12
CGA:  26    -0.946005602017E+03   -0.20398E-01   -0.20426E-01  5064   0.295E-01-0.318E-03
 gam= 0.453 trial= 0.479  step= 0.644 mean= 0.479
 gam= 0.517 g(H,U,f)=  0.133E-01 0.191E-02 0.298E-15 ort(H,U,f) =-0.339E-02 0.329E-02-0.974E-15
CGA:  27    -0.946015027666E+03   -0.94256E-02   -0.94350E-02  5064   0.152E-01-0.102E-03
 gam= 0.517 trial= 0.487  step= 0.637 mean= 0.487
 gam= 0.469 g(H,U,f)=  0.643E-02 0.720E-03 0.313E-19 ort(H,U,f) =-0.936E-03 0.914E-03-0.182E-18
CGA:  28    -0.946019854343E+03   -0.48267E-02   -0.48288E-02  5064   0.714E-02-0.219E-04
 gam= 0.469 trial= 0.495  step= 0.595 mean= 0.495
 gam= 0.468 g(H,U,f)=  0.296E-02 0.386E-03 0.142E-16 ort(H,U,f) =-0.898E-04 0.851E-04-0.154E-16
CGA:  29    -0.946021976650E+03   -0.21223E-02   -0.21226E-02  5064   0.334E-02-0.470E-05
 gam= 0.468 trial= 0.500  step= 0.622 mean= 0.500
 gam= 0.459 g(H,U,f)=  0.128E-02 0.255E-03 0.191E-15 ort(H,U,f) =-0.394E-04 0.471E-04 0.120E-15
CGA:  30    -0.946023015168E+03   -0.10385E-02   -0.10381E-02  5064   0.154E-02 0.771E-05
 gam= 0.459 trial= 0.506  step= 0.614 mean= 0.506
 gam= 0.458 g(H,U,f)=  0.571E-03 0.132E-03 0.659E-15 ort(H,U,f) =-0.849E-04 0.103E-03 0.156E-14
CGA:  31    -0.946023488617E+03   -0.47345E-03   -0.47246E-03  5064   0.703E-03 0.182E-04
 gam= 0.458 trial= 0.511  step= 0.674 mean= 0.511
 gam= 0.531 g(H,U,f)=  0.312E-03 0.618E-04 0.447E-18 ort(H,U,f) =-0.580E-04 0.773E-04-0.260E-17
CGA:  32    -0.946023729763E+03   -0.24115E-03   -0.23957E-03  5064   0.373E-03 0.193E-04
 gam= 0.531 trial= 0.519  step= 0.648 mean= 0.519
 gam= 0.501 g(H,U,f)=  0.166E-03 0.214E-04 0.884E-18 ort(H,U,f) =-0.306E-04 0.398E-04-0.258E-17
CGA:  33    -0.946023854536E+03   -0.12477E-03   -0.12419E-03  5064   0.187E-03 0.920E-05
 gam= 0.501 trial= 0.526  step= 0.614 mean= 0.526
 gam= 0.473 g(H,U,f)=  0.801E-04 0.829E-05 0.283E-16 ort(H,U,f) =-0.101E-04 0.101E-04-0.158E-16
CGA:  34    -0.946023913373E+03   -0.58837E-04   -0.58841E-04  5064   0.884E-04-0.747E-07
 gam= 0.473 trial= 0.530  step= 0.622 mean= 0.530
 gam= 0.451 g(H,U,f)=  0.354E-04 0.448E-05 0.511E-24 ort(H,U,f) =-0.368E-05 0.145E-05-0.121E-23
CGA:  35    -0.946023940780E+03   -0.27407E-04   -0.27511E-04  5064   0.399E-04-0.223E-05
 gam= 0.451 trial= 0.535  step= 0.641 mean= 0.535
 gam= 0.448 g(H,U,f)=  0.151E-04 0.274E-05 0.787E-22 ort(H,U,f) =-0.138E-05 0.649E-06-0.405E-23
CGA:  36    -0.946023953213E+03   -0.12433E-04   -0.12472E-04  5064   0.179E-04-0.733E-06
 gam= 0.448 trial= 0.540  step= 0.702 mean= 0.540
 gam= 0.000 g(H,U,f)=  0.828E-05 0.157E-05 0.424E-20 ort(H,U,f) =-0.126E-05 0.995E-06 0.590E-20
SDA:  37    -0.946023959350E+03   -0.61367E-05   -0.61585E-05  5064   0.984E-05-0.269E-06
 gam= 0.000 trial= 0.548  step= 0.926 mean= 0.548
 final diagonalization
   1 F= -.94602396E+03 E0= -.94602396E+03  d E =-.805999E-16
 writing wavefunctions
Warning: ieee_invalid is signaling
Warning: ieee_divide_by_zero is signaling
Warning: ieee_underflow is signaling
Warning: ieee_inexact is signaling
FORTRAN STOP
Warning: ieee_invalid is signaling
Warning: ieee_divide_by_zero is signaling
Warning: ieee_underflow is signaling
Warning: ieee_inexact is signaling
FORTRAN STOP
Warning: ieee_invalid is signaling
Warning: ieee_divide_by_zero is signaling
Warning: ieee_underflow is signaling
Warning: ieee_inexact is signaling
FORTRAN STOP
Warning: ieee_invalid is signaling
Warning: ieee_divide_by_zero is signaling
Warning: ieee_underflow is signaling
Warning: ieee_inexact is signaling
FORTRAN STOP
