       N       E                     dE             d eps       ncg     rms          ort
DAV:   1    -0.186155216067E+05   -0.18616E+05   -0.54358E+05  5064   0.747E+03
DAV:   2    -0.630394005687E+05   -0.44424E+05   -0.43035E+05  5064   0.122E+03
DAV:   3    -0.677723749405E+05   -0.47330E+04   -0.42547E+04  5064   0.362E+02
DAV:   4    -0.683759963899E+05   -0.60362E+03   -0.53124E+03  5064   0.109E+02
DAV:   5    -0.381646874804E+05    0.30211E+05   -0.74490E+02  5064   0.548E+01
SDA:   6     0.227041008303E+05    0.60869E+05   -0.74490E+02  5064   0.962E+05 0.000E+00
CGA:   7     0.522861231687E+04   -0.17475E+05   -0.16166E+05  5064   0.444E+05-0.273E+05
CGA:   8     0.230904076915E+04   -0.29196E+04   -0.34392E+04  5064   0.130E+05 0.293E+04
CGA:   9     0.126754115717E+04   -0.10415E+04   -0.12816E+04  5064   0.787E+04 0.959E+03
CGA:  10     0.520369507702E+03   -0.74717E+03   -0.96450E+03  5064   0.570E+04 0.834E+03
CGA:  11    -0.992857278614E+02   -0.61966E+03   -0.76980E+03  5064   0.231E+04 0.372E+03
CGA:  12    -0.510100564707E+03   -0.41081E+03   -0.39977E+03  5064   0.175E+04-0.321E+03
CGA:  13    -0.648257923696E+03   -0.13816E+03   -0.17296E+03  5064   0.497E+03 0.714E+02
CGA:  14    -0.804347017875E+03   -0.15609E+03   -0.15207E+03  5064   0.219E+03 0.217E+02
CGA:  15    -0.878321816775E+03   -0.73975E+02   -0.76094E+02  5064   0.123E+03-0.149E+02
CGA:  16    -0.915090075937E+03   -0.36768E+02   -0.38904E+02  5064   0.614E+02-0.128E+02
CGA:  17    -0.930268134748E+03   -0.15178E+02   -0.15834E+02  5064   0.287E+02-0.477E+01
CGA:  18    -0.938244290133E+03   -0.79762E+01   -0.80084E+01  5064   0.142E+02-0.285E+00
CGA:  19    -0.942190682550E+03   -0.39464E+01   -0.39457E+01  5064   0.638E+01 0.165E-01
CGA:  20    -0.944197223211E+03   -0.20065E+01   -0.20028E+01  5064   0.313E+01 0.350E-01
CGA:  21    -0.945199776142E+03   -0.10026E+01   -0.10008E+01  5064   0.142E+01 0.147E-01
CGA:  22    -0.945650485046E+03   -0.45071E+00   -0.45048E+00  5064   0.674E+00 0.164E-02
CGA:  23    -0.945854776308E+03   -0.20429E+00   -0.20433E+00  5064   0.328E+00-0.261E-03
CGA:  24    -0.945945143315E+03   -0.90367E-01   -0.90383E-01  5064   0.136E+00-0.249E-03
CGA:  25    -0.945985203850E+03   -0.40061E-01   -0.40091E-01  5064   0.651E-01-0.458E-03
CGA:  26    -0.946005602017E+03   -0.20398E-01   -0.20426E-01  5064   0.295E-01-0.318E-03
CGA:  27    -0.946015027666E+03   -0.94256E-02   -0.94350E-02  5064   0.152E-01-0.102E-03
CGA:  28    -0.946019854343E+03   -0.48267E-02   -0.48288E-02  5064   0.714E-02-0.219E-04
CGA:  29    -0.946021976650E+03   -0.21223E-02   -0.21226E-02  5064   0.334E-02-0.470E-05
CGA:  30    -0.946023015168E+03   -0.10385E-02   -0.10381E-02  5064   0.154E-02 0.771E-05
CGA:  31    -0.946023488617E+03   -0.47345E-03   -0.47246E-03  5064   0.703E-03 0.182E-04
CGA:  32    -0.946023729763E+03   -0.24115E-03   -0.23957E-03  5064   0.373E-03 0.193E-04
CGA:  33    -0.946023854536E+03   -0.12477E-03   -0.12419E-03  5064   0.187E-03 0.920E-05
CGA:  34    -0.946023913373E+03   -0.58837E-04   -0.58841E-04  5064   0.884E-04-0.747E-07
CGA:  35    -0.946023940780E+03   -0.27407E-04   -0.27511E-04  5064   0.399E-04-0.223E-05
CGA:  36    -0.946023953213E+03   -0.12433E-04   -0.12472E-04  5064   0.179E-04-0.733E-06
SDA:  37    -0.946023959350E+03   -0.61367E-05   -0.61585E-05  5064   0.984E-05-0.269E-06
   1 F= -.94602396E+03 E0= -.94602396E+03  d E =-.805999E-16
