 vasp.6.4.2 20Jul23 (build Nov 12 2023 22:16:35) complex                         
 executed on              LinuxNV date 2025.03.19  16:06:26
 running    4 mpi-ranks, on    1 nodes
 distrk:  each k-point on    1 cores,    4 groups
 distr:  one band on NCORE=   1 cores,    1 groups
 OpenACC runtime initialized ...    4 GPUs detected


--------------------------------------------------------------------------------------------------------


 INCAR:
   PREC = Normal
   ENCUT = 450
   NELM = 500
   IBRION = -1
   ISPIN = 1
   NSW = 0
   ISIF = 2
   EDIFF = 1E-5
   EDIFFG = -5E-3
   ISTART = 0
   ICHARG = 0
   ISMEAR = 0
   SIGMA = 0.05
   LWAVE = .T.
   LCHARG = .T.
   LREAL = Auto
   LPLANE = .TRUE.
   NPAR = 1
   KPAR = 4
   NCORE = 1
   ALGO = All
   LHFCALC = .TRUE.
   HSE06 = .TRUE.
   HFSCREEN = 0.2
   TIME = 0.4
   AEXX = 0.32
   LMAXFOCK = 4
   PRECFOCK = Fast
   NELECT = 1056

 POTCAR:    PAW_PBE Ga_d 06Jul2010                
 POTCAR:     PAW_PBE O 08Apr2002                  
 POTCAR:    PAW_PBE P 06Sep2000                   
 POTCAR:    PAW_PBE Ga_d 06Jul2010                
   SHA256 =  a60ddf36e14f00ea098d9e3914b3745f1b7105e68786148f49ae384e44b4226c Ga_d/POTCAR           
   COPYR  = (c) Copyright 06Jul2010 Georg Kresse                                                    
   COPYR  = This file is part of the software VASP. Any use, copying, and all other rights are regul
   COPYR  = If you do not have a valid VASP license, you may not use, copy or distribute this file. 
   VRHFIN =Ga: s2p1                                                                                 
   LEXCH  = PE                                                                                      
   EATOM  =  2148.8298 eV,  157.9345 Ry                                                             
                                                                                                    
   TITEL  = PAW_PBE Ga_d 06Jul2010                                                                  
   LULTRA =        F    use ultrasoft PP ?                                                          
   IUNSCR =        1    unscreen: 0-lin 1-nonlin 2-no                                               
   RPACOR =    1.700    partial core radius                                                         
   POMASS =   69.723; ZVAL   =   13.000    mass and valenz                                          
   RCORE  =    2.300    outmost cutoff radius                                                       
   RWIGS  =    2.300; RWIGS  =    1.217    wigner-seitz radius (au A)                               
   ENMAX  =  282.691; ENMIN  =  212.018 eV                                                          
   ICORE  =        3    local potential                                                             
   LCOR   =        T    correct aug charges                                                         
   LPAW   =        T    paw PP                                                                      
   EAUG   =  490.690                                                                                
   DEXC   =    0.000                                                                                
   RMAX   =    2.341    core radius for proj-oper                                                   
   RAUG   =    1.300    factor for augmentation sphere                                              
   RDEP   =    2.413    radius for radial grids                                                     
   RDEPT  =    1.856    core radius for aug-charge                                                  
                                                                                                    
   Atomic configuration                                                                             
    9 entries                                                                                       
     n  l   j            E        occ.                                                              
     1  0  0.50    -10228.7831   2.0000                                                             
     2  0  0.50     -1262.1604   2.0000                                                             
     2  1  1.50     -1098.6333   6.0000                                                             
     3  0  0.50      -148.1110   2.0000                                                             
     3  1  1.50       -98.8436   6.0000                                                             
     3  2  2.50       -19.1549  10.0000                                                             
     4  0  0.50        -8.9483   2.0000                                                             
     4  1  0.50        -2.5791   1.0000                                                             
     4  3  2.50        -2.7416   0.0000                                                             
   Description                                                                                      
     l       E           TYP  RCUT    TYP  RCUT                                                     
     2    -19.1549037     23  2.300                                                                 
     2     -5.4423304     23  2.300                                                                 
     0     -8.9483111     23  2.300                                                                 
     0     68.0291300     23  2.300                                                                 
     1     -2.5790802     23  2.100                                                                 
     1     81.6349560     23  2.300                                                                 
     3      6.8029130     23  2.300                                                                 
  local pseudopotential read in
  partial core-charges read in
  partial kinetic energy density read in
  atomic valenz-charges read in
  non local Contribution for L=            2  read in
    real space projection operators read in
  non local Contribution for L=            2  read in
    real space projection operators read in
  non local Contribution for L=            0  read in
    real space projection operators read in
  non local Contribution for L=            0  read in
    real space projection operators read in
  non local Contribution for L=            1  read in
    real space projection operators read in
  non local Contribution for L=            1  read in
    real space projection operators read in
    PAW grid and wavefunctions read in
 
   number of l-projection  operators is LMAX  =            6
   number of lm-projection operators is LMMAX =           18
 
 POTCAR:     PAW_PBE O 08Apr2002                  
   SHA256 =  818f92134a0a090dccd8ba1447fa70422a3b330e708bb4f08108d8ae51209ddf O/POTCAR              
   COPYR  = (c) Copyright 08Apr2002 Georg Kresse                                                    
   COPYR  = This file is part of the software VASP. Any use, copying, and all other rights are regul
   COPYR  = If you do not have a valid VASP license, you may not use, copy or distribute this file. 
   VRHFIN =O: s2p4                                                                                  
   LEXCH  = PE                                                                                      
   EATOM  =   432.3788 eV,   31.7789 Ry                                                             
                                                                                                    
   TITEL  = PAW_PBE O 08Apr2002                                                                     
   LULTRA =        F    use ultrasoft PP ?                                                          
   IUNSCR =        1    unscreen: 0-lin 1-nonlin 2-no                                               
   RPACOR =    1.200    partial core radius                                                         
   POMASS =   16.000; ZVAL   =    6.000    mass and valenz                                          
   RCORE  =    1.520    outmost cutoff radius                                                       
   RWIGS  =    1.550; RWIGS  =    0.820    wigner-seitz radius (au A)                               
   ENMAX  =  400.000; ENMIN  =  300.000 eV                                                          
   ICORE  =        2    local potential                                                             
   LCOR   =        T    correct aug charges                                                         
   LPAW   =        T    paw PP                                                                      
   EAUG   =  605.392                                                                                
   DEXC   =    0.000                                                                                
   RMAX   =    1.553    core radius for proj-oper                                                   
   RAUG   =    1.300    factor for augmentation sphere                                              
   RDEP   =    1.550    radius for radial grids                                                     
   RDEPT  =    1.329    core radius for aug-charge                                                  
                                                                                                    
   Atomic configuration                                                                             
    4 entries                                                                                       
     n  l   j            E        occ.                                                              
     1  0  0.50      -514.6923   2.0000                                                             
     2  0  0.50       -23.9615   2.0000                                                             
     2  1  0.50        -9.0305   4.0000                                                             
     3  2  1.50        -9.5241   0.0000                                                             
   Description                                                                                      
     l       E           TYP  RCUT    TYP  RCUT                                                     
     0    -23.9615318     23  1.200                                                                 
     0     -9.5240782     23  1.200                                                                 
     1     -9.0304911     23  1.520                                                                 
     1      8.1634956     23  1.520                                                                 
     2     -9.5240782      7  1.500                                                                 
  local pseudopotential read in
  partial core-charges read in
  partial kinetic energy density read in
  kinetic energy density of atom read in
  atomic valenz-charges read in
  non local Contribution for L=            0  read in
    real space projection operators read in
  non local Contribution for L=            0  read in
    real space projection operators read in
  non local Contribution for L=            1  read in
    real space projection operators read in
  non local Contribution for L=            1  read in
    real space projection operators read in
    PAW grid and wavefunctions read in
 
   number of l-projection  operators is LMAX  =            4
   number of lm-projection operators is LMMAX =            8
 
 POTCAR:    PAW_PBE P 06Sep2000                   
   SHA256 =  df60c54a93efe35c9e85ae94c010c75e9f6960a95d5595d7cdba4096d109af88 P/POTCAR              
   COPYR  = (c) Copyright 06Sep2000 Georg Kresse                                                    
   COPYR  = This file is part of the software VASP. Any use, copying, and all other rights are regul
   COPYR  = If you do not have a valid VASP license, you may not use, copy or distribute this file. 
   VRHFIN =P : s2p3                                                                                 
   LEXCH  = PE                                                                                      
   EATOM  =   176.0430 eV,   12.9388 Ry                                                             
                                                                                                    
   TITEL  = PAW_PBE P 06Sep2000                                                                     
   LULTRA =        F    use ultrasoft PP ?                                                          
   IUNSCR =        1    unscreen: 0-lin 1-nonlin 2-no                                               
   RPACOR =    1.500    partial core radius                                                         
   POMASS =   30.974; ZVAL   =    5.000    mass and valenz                                          
   RCORE  =    1.900    outmost cutoff radius                                                       
   RWIGS  =    2.330; RWIGS  =    1.233    wigner-seitz radius (au A)                               
   ENMAX  =  255.040; ENMIN  =  191.280 eV                                                          
   ICORE  =        2    local potential                                                             
   LCOR   =        T    correct aug charges                                                         
   LPAW   =        T    paw PP                                                                      
   EAUG   =  342.924                                                                                
   DEXC   =    0.000                                                                                
   RMAX   =    1.935    core radius for proj-oper                                                   
   RAUG   =    1.300    factor for augmentation sphere                                              
   RDEP   =    1.931    radius for radial grids                                                     
   RDEPT  =    1.794    core radius for aug-charge                                                  
                                                                                                    
   Atomic configuration                                                                             
    6 entries                                                                                       
     n  l   j            E        occ.                                                              
     1  0  0.50     -2084.0982   2.0000                                                             
     2  0  0.50      -173.9859   2.0000                                                             
     2  1  1.50      -124.4865   6.0000                                                             
     3  0  0.50       -13.9692   2.0000                                                             
     3  1  0.50        -5.5067   3.0000                                                             
     3  2  1.50        -5.4423   0.0000                                                             
   Description                                                                                      
     l       E           TYP  RCUT    TYP  RCUT                                                     
     0    -13.9691527     23  1.900                                                                 
     0    -11.7794650     23  1.900                                                                 
     1     -5.5066937     23  1.900                                                                 
     1     -0.2556953     23  1.900                                                                 
     2     -5.4423304     23  1.900                                                                 
  local pseudopotential read in
  partial core-charges read in
  partial kinetic energy density read in
  atomic valenz-charges read in
  non local Contribution for L=            0  read in
    real space projection operators read in
  non local Contribution for L=            0  read in
    real space projection operators read in
  non local Contribution for L=            1  read in
    real space projection operators read in
  non local Contribution for L=            1  read in
    real space projection operators read in
    PAW grid and wavefunctions read in
 
   number of l-projection  operators is LMAX  =            4
   number of lm-projection operators is LMMAX =            8
 
 Optimization of the real space projectors (new method)

 maximal supplied QI-value         = 16.25
 optimisation between [QCUT,QGAM] = [ 10.73, 21.61] = [ 32.22,130.83] Ry 
 Optimized for a Real-space Cutoff    1.42 Angstroem

   l    n(q)    QCUT    max X(q) W(low)/X(q) W(high)/X(q)  e(spline) 
   2      8    10.726     7.143    0.22E-03    0.16E-03    0.73E-07
   2      8    10.726     5.586    0.40E-03    0.26E-03    0.10E-06
   0      9    10.726    12.382    0.25E-04    0.21E-05    0.37E-07
   0      9    10.726     6.622    0.42E-04    0.48E-05    0.77E-07
   1      9    10.726     7.935    0.27E-03    0.13E-04    0.16E-06
   1      9    10.726     2.425    0.23E-03    0.15E-04    0.14E-06
 Optimization of the real space projectors (new method)

 maximal supplied QI-value         = 24.76
 optimisation between [QCUT,QGAM] = [ 10.64, 21.54] = [ 31.73,129.89] Ry 
 Optimized for a Real-space Cutoff    1.23 Angstroem

   l    n(q)    QCUT    max X(q) W(low)/X(q) W(high)/X(q)  e(spline) 
   0      8    10.645    20.381    0.38E-03    0.60E-03    0.15E-06
   0      8    10.645    15.268    0.40E-03    0.65E-03    0.17E-06
   1      7    10.645     5.964    0.30E-03    0.63E-03    0.18E-06
   1      7    10.645     5.382    0.24E-03    0.53E-03    0.16E-06
 Optimization of the real space projectors (new method)

 maximal supplied QI-value         = 19.84
 optimisation between [QCUT,QGAM] = [ 10.71, 21.63] = [ 32.15,130.99] Ry 
 Optimized for a Real-space Cutoff    1.19 Angstroem

   l    n(q)    QCUT    max X(q) W(low)/X(q) W(high)/X(q)  e(spline) 
   0      8    10.715   160.924    0.37E-03    0.37E-04    0.63E-07
   0      8    10.715   130.086    0.37E-03    0.36E-04    0.63E-07
   1      7    10.715    74.434    0.19E-03    0.56E-03    0.65E-07
   1      7    10.715    49.120    0.19E-03    0.55E-03    0.63E-07
  PAW_PBE Ga_d 06Jul2010                :
 energy of atom  1       EATOM=-2148.8298
 kinetic energy error for atom=    0.0038 (will be added to EATOM!!)
   PAW_PBE O 08Apr2002                  :
 energy of atom  2       EATOM= -432.3788
 kinetic energy error for atom=    0.0389 (will be added to EATOM!!)
  PAW_PBE P 06Sep2000                   :
 energy of atom  3       EATOM= -176.0430
 kinetic energy error for atom=    0.0019 (will be added to EATOM!!)
 
 
 POSCAR: Ga48 O72
  positions in direct lattice
  velocities in cartesian coordinates
 exchange correlation table for  LEXCH =        8
   RHO(1)=    0.500       N(1)  =     2000
   RHO(2)=  100.500       N(2)  =     4000
 


--------------------------------------------------------------------------------------------------------


 ion  position               nearest neighbor table
   1  0.660  0.000  0.156-  85 1.93  83 1.95  79 1.95  67 2.01  61 2.08  65 2.08
   2  0.656  0.000  0.655-  86 1.91  84 1.96  80 1.96  68 2.02  62 2.08  66 2.08
   3  0.661  0.333  0.157-  87 1.94  81 1.95  79 1.95  69 2.01  63 2.07  61 2.08
   4  0.654  0.333  0.656-  88 1.93  82 1.96  80 1.96  70 2.04  62 2.07  64 2.08
   5  0.661  0.667  0.157-  89 1.94  81 1.95  83 1.95  71 2.01  63 2.07  65 2.08
   6  0.654  0.667  0.656-  90 1.93  82 1.96  84 1.96  72 2.04  66 2.07  64 2.08
   7  0.839  0.168  0.343-  91 1.92  75 1.95  73 1.95  61 2.00  69 2.07  67 2.09
   8  0.838  0.167  0.842-  92 1.94  74 1.95  76 1.96  62 2.01  70 2.07  68 2.08
   9  0.843  0.500  0.343-  93 1.93  77 1.96  75 1.96  63 2.01  71 2.07  69 2.07
  10  0.838  0.500  0.842-  94 1.94  78 1.96  76 1.96  64 2.02  72 2.06  70 2.06
  11  0.839  0.832  0.343-  95 1.92  77 1.95  73 1.95  65 2.00  71 2.07  67 2.09
  12  0.838  0.833  0.842-  96 1.94  74 1.95  78 1.96  66 2.01  72 2.07  68 2.08
  13  0.590  0.167  0.397-  55 1.84  57 1.84  80 1.84  61 1.88
  14  0.590  0.167  0.898-  58 1.84  56 1.84  79 1.85  62 1.87
  15  0.595  0.500  0.398-  82 1.84  59 1.84  57 1.84  63 1.86
  16  0.595  0.500  0.901-  58 1.83  60 1.83  81 1.83  64 1.86
  17  0.590  0.833  0.397-  55 1.84  59 1.84  84 1.84  65 1.88
  18  0.590  0.833  0.898-  60 1.84  56 1.84  83 1.85  66 1.87
  19  0.908  0.000  0.101-  74 1.84  53 1.85  49 1.85  67 1.87
  20  0.908  0.000  0.602-  73 1.84  50 1.84  54 1.84  68 1.88
  21  0.908  0.333  0.102-  76 1.84  49 1.85  51 1.85  69 1.87
  22  0.906  0.334  0.602-  75 1.84  50 1.84  52 1.85  70 1.87
  23  0.908  0.667  0.102-  78 1.84  53 1.85  51 1.85  71 1.87
  24  0.906  0.666  0.602-  77 1.84  54 1.84  52 1.85  72 1.87
  25  0.160  0.167  0.154- 116 1.94 115 1.95  49 1.96  97 2.02 103 2.02  99 2.10
  26  0.157  0.173  0.662-  50 1.96 117 1.99 100 2.01  98 2.14 104 2.16 120 2.26
  27  0.157  0.500  0.158-  51 1.94 116 1.96 118 1.96 105 2.04 101 2.07  99 2.07
  28  0.158  0.500  0.658- 117 1.91 119 1.91  52 1.96 106 2.04 102 2.07 100 2.07
  29  0.160  0.833  0.154- 118 1.94 115 1.95  53 1.96  97 2.02 107 2.02 101 2.10
  30  0.157  0.827  0.662-  54 1.96 119 1.99 102 2.01  98 2.14 108 2.16 120 2.26
  31  0.342  0.000  0.341- 109 1.94 113 1.94  55 1.95  97 2.05 103 2.09 107 2.09
  32  0.340  0.000  0.848-  56 1.96 110 1.96 114 1.96  98 2.00 104 2.07 108 2.07
  33  0.343  0.336  0.341- 109 1.89 111 1.95  57 1.95  99 2.05 105 2.05 103 2.09
  34  0.344  0.334  0.847- 112 1.94  58 1.95 104 1.95 110 1.96 106 2.07 100 2.08
  35  0.343  0.664  0.341- 113 1.89 111 1.95  59 1.95 101 2.05 105 2.05 107 2.09
  36  0.344  0.666  0.847- 112 1.94  60 1.95 108 1.95 114 1.96 106 2.07 102 2.08
  37  0.084  0.000  0.383-  91 1.85  95 1.85  97 1.88 120 2.19
  38  0.087  0.000  0.898- 115 1.82  98 1.84  92 1.85  96 1.85
  39  0.092  0.333  0.399- 117 1.83  91 1.86  93 1.86  99 1.88
  40  0.088  0.333  0.898- 116 1.84  92 1.85  94 1.85 100 1.87
  41  0.092  0.667  0.399- 119 1.83  95 1.86  93 1.86 101 1.88
  42  0.088  0.667  0.898- 118 1.84  96 1.85  94 1.85 102 1.87
  43  0.412  0.167  0.104- 110 1.82  85 1.84  87 1.85 103 1.86
  44  0.402  0.162  0.603- 109 1.86  86 1.86 104 1.88  88 1.89 120 2.70
  45  0.411  0.500  0.103- 112 1.84  89 1.84  87 1.84 105 1.87
  46  0.408  0.500  0.603- 111 1.85  90 1.85  88 1.85 106 1.88
  47  0.412  0.833  0.104- 114 1.82  85 1.84  89 1.85 107 1.86
  48  0.402  0.838  0.603- 113 1.86  86 1.86 108 1.88  90 1.89 120 2.70
  49  0.996  0.166  0.124-  21 1.85  19 1.85  25 1.96
  50  0.993  0.168  0.628-  20 1.84  22 1.84  26 1.96
  51  0.995  0.500  0.127-  21 1.85  23 1.85  27 1.94
  52  0.994  0.500  0.628-  22 1.85  24 1.85  28 1.96
  53  0.996  0.834  0.124-  23 1.85  19 1.85  29 1.96
  54  0.993  0.832  0.628-  20 1.84  24 1.84  30 1.96
  55  0.505  0.000  0.369-  13 1.84  17 1.84  31 1.95
  56  0.504  0.000  0.878-  14 1.84  18 1.84  32 1.96
  57  0.506  0.336  0.369-  15 1.84  13 1.84  33 1.95
  58  0.507  0.336  0.879-  16 1.83  14 1.84  34 1.95
  59  0.506  0.664  0.369-  15 1.84  17 1.84  35 1.95
  60  0.507  0.664  0.879-  16 1.83  18 1.84  36 1.95
  61  0.673  0.167  0.280-  13 1.88   7 2.00   3 2.08   1 2.08
  62  0.671  0.167  0.780-  14 1.87   8 2.01   4 2.07   2 2.08
  63  0.675  0.500  0.280-  15 1.86   9 2.01   3 2.07   5 2.07
  64  0.671  0.500  0.780-  16 1.86  10 2.02   4 2.08   6 2.08
  65  0.673  0.833  0.280-  17 1.88  11 2.00   5 2.08   1 2.08
  66  0.671  0.833  0.780-  18 1.87  12 2.01   6 2.07   2 2.08
  67  0.828  0.000  0.219-  19 1.87   1 2.01  11 2.09   7 2.09
  68  0.825  0.000  0.719-  20 1.88   2 2.02  12 2.08   8 2.08
  69  0.828  0.333  0.219-  21 1.87   3 2.01   9 2.07   7 2.07
  70  0.824  0.334  0.719-  22 1.87   4 2.04  10 2.06   8 2.07
  71  0.828  0.667  0.219-  23 1.87   5 2.01   9 2.07  11 2.07
  72  0.824  0.666  0.719-  24 1.87   6 2.04  10 2.06  12 2.07
  73  0.832  0.000  0.445-  20 1.84  11 1.95   7 1.95
  74  0.830  0.000  0.945-  19 1.84  12 1.95   8 1.95
  75  0.831  0.334  0.445-  22 1.84   7 1.95   9 1.96
  76  0.830  0.334  0.945-  21 1.84   8 1.96  10 1.96
  77  0.831  0.666  0.445-  24 1.84  11 1.95   9 1.96
  78  0.830  0.666  0.945-  23 1.84  12 1.96  10 1.96
  79  0.670  0.167  0.055-  14 1.85   1 1.95   3 1.95
  80  0.667  0.167  0.554-  13 1.84   4 1.96   2 1.96
  81  0.672  0.500  0.056-  16 1.83   5 1.95   3 1.95
  82  0.666  0.500  0.555-  15 1.84   6 1.96   4 1.96
  83  0.670  0.833  0.055-  18 1.85   1 1.95   5 1.95
  84  0.667  0.833  0.554-  17 1.84   6 1.96   2 1.96
  85  0.499  0.000  0.128-  43 1.84  47 1.84   1 1.93
  86  0.497  0.000  0.629-  44 1.86  48 1.86   2 1.91
  87  0.499  0.334  0.128-  45 1.84  43 1.85   3 1.94
  88  0.493  0.331  0.627-  46 1.85  44 1.89   4 1.93
  89  0.499  0.666  0.128-  45 1.84  47 1.85   5 1.94
  90  0.493  0.669  0.627-  46 1.85  48 1.89   6 1.93
  91  0.999  0.170  0.366-  37 1.85  39 1.86   7 1.92
  92  0.000  0.167  0.872-  40 1.85  38 1.85   8 1.94
  93  0.004  0.500  0.372-  39 1.86  41 1.86   9 1.93
  94  0.001  0.500  0.872-  40 1.85  42 1.85  10 1.94
  95  0.999  0.830  0.366-  37 1.85  41 1.86  11 1.92
  96  0.000  0.833  0.872-  42 1.85  38 1.85  12 1.94
  97  0.172  0.000  0.270-  37 1.88  29 2.02  25 2.02  31 2.05
  98  0.173  0.000  0.789-  38 1.84  32 2.00  26 2.14  30 2.14
  99  0.173  0.333  0.280-  39 1.88  33 2.05  27 2.07  25 2.10
 100  0.171  0.334  0.782-  40 1.87  26 2.01  28 2.07  34 2.08
 101  0.173  0.667  0.280-  41 1.88  35 2.05  27 2.07  29 2.10
 102  0.171  0.666  0.782-  42 1.87  30 2.01  28 2.07  36 2.08
 103  0.328  0.168  0.217-  43 1.86  25 2.02  33 2.09  31 2.09
 104  0.337  0.175  0.734-  44 1.88  34 1.95  32 2.07  26 2.16
 105  0.327  0.500  0.218-  45 1.87  27 2.04  35 2.05  33 2.05
 106  0.328  0.500  0.722-  46 1.88  28 2.04  36 2.07  34 2.07
 107  0.328  0.832  0.217-  47 1.86  29 2.02  35 2.09  31 2.09
 108  0.337  0.825  0.734-  48 1.88  36 1.95  32 2.07  30 2.16
 109  0.343  0.172  0.440-  44 1.86  33 1.89  31 1.94
 110  0.332  0.168  0.950-  43 1.82  32 1.96  34 1.96
 111  0.334  0.500  0.445-  46 1.85  35 1.95  33 1.95
 112  0.332  0.500  0.948-  45 1.84  36 1.94  34 1.94
 113  0.343  0.828  0.440-  48 1.86  35 1.89  31 1.94
 114  0.332  0.832  0.950-  47 1.82  32 1.96  36 1.96
 115  0.167  0.000  0.052-  38 1.82  29 1.95  25 1.95
 116  0.165  0.335  0.054-  40 1.84  25 1.94  27 1.96
 117  0.167  0.340  0.555-  39 1.83  28 1.91  26 1.99
 118  0.165  0.665  0.054-  42 1.84  29 1.94  27 1.96
 119  0.167  0.660  0.555-  41 1.83  28 1.91  30 1.99
 120  0.212  0.000  0.549-  37 2.19  30 2.26  26 2.26  44 2.70  48 2.70
 
  LATTYP: Found a simple monoclinic cell.
 ALAT       =    11.6348202465
 B/A-ratio  =     0.7858051831
 C/A-ratio  =     1.0554931797
 COS(beta)  =    -0.2379290539
  
  Lattice vectors:
  
 A1 = (   0.0000000000,  -2.7682617730, -11.3006977184)
 A2 = (  -9.1427020537,   0.0000000000,   0.0000000000)
 A3 = (   0.0000000000,  12.2804734172,   0.0000000000)


Analysis of symmetry for initial positions (statically):
=====================================================================
 Subroutine PRICEL returns:
 Original cell was already a primitive cell.
 

 Routine SETGRP: Setting up the symmetry group for a 
 simple monoclinic supercell.


 Subroutine GETGRP returns: Found  2 space group operations
 (whereof  2 operations were pure point group operations)
 out of a pool of  4 trial point group operations.


The static configuration has the point symmetry C_1h.


Analysis of symmetry for dynamics (positions and initial velocities):
=====================================================================
 Subroutine PRICEL returns:
 Original cell was already a primitive cell.
 

 Routine SETGRP: Setting up the symmetry group for a 
 simple monoclinic supercell.


 Subroutine GETGRP returns: Found  2 space group operations
 (whereof  2 operations were pure point group operations)
 out of a pool of  4 trial point group operations.


The dynamic configuration has the point symmetry C_1h.


 Subroutine INISYM returns: Found  2 space group operations
 (whereof  2 operations are pure point group operations),
 and found     1 'primitive' translations


----------------------------------------------------------------------------------------

                                     Primitive cell                                     

  volume of cell :    1268.8052

  direct lattice vectors                    reciprocal lattice vectors
     0.000000000 12.280473417  0.000000000     0.000000000  0.081430085 -0.019947423
     9.142702054  0.000000000  0.000000000     0.109376855 -0.000000000  0.000000000
     0.000000000 -2.768261773-11.300697718     0.000000000  0.000000000 -0.088490111

  length of vectors
    12.280473417  9.142702054 11.634820246     0.083837691  0.109376855  0.088490111

  position of ions in fractional coordinates (direct lattice)
     0.660496386  0.000000000  0.156393290
     0.656437365  0.000000000  0.655422430
     0.660672742  0.333415916  0.156890499
     0.654374691  0.332560979  0.656099379
     0.660672742  0.666584084  0.156890499
     0.654374691  0.667439021  0.656099379
     0.839251893  0.167500516  0.343191120
     0.837905363  0.167121626  0.842086998
     0.842543041  0.500000000  0.342622162
     0.838372996  0.500000000  0.841820810
     0.839251893  0.832499484  0.343191120
     0.837905363  0.832878374  0.842086998
     0.590158852  0.167238068  0.397393936
     0.590249507  0.166664925  0.898196562
     0.594783734  0.500000000  0.397663736
     0.594732720  0.500000000  0.900520815
     0.590158852  0.832761932  0.397393936
     0.590249507  0.833335075  0.898196562
     0.907683759  0.000000000  0.100564639
     0.907549562  0.000000000  0.602263265
     0.908099279  0.332806109  0.101590253
     0.905677098  0.334046340  0.602297572
     0.908099279  0.667193891  0.101590253
     0.905677098  0.665953660  0.602297572
     0.159673548  0.166520819  0.153937778
     0.157352871  0.172947614  0.662284443
     0.157225382  0.500000000  0.158072045
     0.158012562  0.500000000  0.658217689
     0.159673548  0.833479181  0.153937778
     0.157352871  0.827052386  0.662284443
     0.341561985  0.000000000  0.340894275
     0.340125633  0.000000000  0.848069862
     0.343159106  0.335921824  0.341193763
     0.343792250  0.334233097  0.846666609
     0.343159106  0.664078176  0.341193763
     0.343792250  0.665766903  0.846666609
     0.083993028  0.000000000  0.382734390
     0.087141331  0.000000000  0.898117044
     0.091773162  0.332605730  0.398969996
     0.088123919  0.333289295  0.897803279
     0.091773162  0.667394270  0.398969996
     0.088123919  0.666710705  0.897803279
     0.411913940  0.166811602  0.103913222
     0.401543930  0.161689130  0.602927020
     0.410791902  0.500000000  0.102982225
     0.407603314  0.500000000  0.603117564
     0.411913940  0.833188398  0.103913222
     0.401543930  0.838310870  0.602927020
     0.995618437  0.166354964  0.124358979
     0.993219388  0.167838424  0.627522060
     0.994827799  0.500000000  0.126544317
     0.993768284  0.500000000  0.628443333
     0.995618437  0.833645036  0.124358979
     0.993219388  0.832161576  0.627522060
     0.504798818  0.000000000  0.369102980
     0.504027314  0.000000000  0.877716458
     0.506223013  0.335778896  0.369145315
     0.506801234  0.335621906  0.878803842
     0.506223013  0.664221104  0.369145315
     0.506801234  0.664378094  0.878803842
     0.672903505  0.166745264  0.280489223
     0.670584583  0.166881501  0.780188319
     0.674878407  0.500000000  0.280128916
     0.670518367  0.500000000  0.779524834
     0.672903505  0.833254736  0.280489223
     0.670584583  0.833118499  0.780188319
     0.827620449  0.000000000  0.218928724
     0.824966640  0.000000000  0.718671532
     0.827703886  0.333454428  0.219238360
     0.824290433  0.333584161  0.719188859
     0.827703886  0.666545572  0.219238360
     0.824290433  0.666415839  0.719188859
     0.831917304  0.000000000  0.445320890
     0.829812835  0.000000000  0.944516016
     0.830525790  0.334414402  0.445400781
     0.830074674  0.333744696  0.945248339
     0.830525790  0.665585598  0.445400781
     0.830074674  0.666255304  0.945248339
     0.669507261  0.166762798  0.054508640
     0.667465499  0.167115443  0.553697196
     0.672426996  0.500000000  0.056139763
     0.666450110  0.500000000  0.555326373
     0.669507261  0.833237202  0.054508640
     0.667465499  0.832884557  0.553697196
     0.498912859  0.000000000  0.128214025
     0.496641053  0.000000000  0.628521973
     0.498669002  0.334247309  0.127787537
     0.492681624  0.330802692  0.626961371
     0.498669002  0.665752691  0.127787537
     0.492681624  0.669197308  0.626961371
     0.999327940  0.169886749  0.366056875
     0.000121745  0.167315490  0.871758105
     0.003937353  0.500000000  0.371990652
     0.000911520  0.500000000  0.872480770
     0.999327940  0.830113251  0.366056875
     0.000121745  0.832684510  0.871758105
     0.171923811  0.000000000  0.270218922
     0.173190149  0.000000000  0.788668426
     0.172545671  0.332999572  0.280384795
     0.170650284  0.334426808  0.781980599
     0.172545671  0.667000428  0.280384795
     0.170650284  0.665573192  0.781980599
     0.327719507  0.168076075  0.216937920
     0.336617853  0.174830308  0.733880343
     0.327043381  0.500000000  0.217829645
     0.327551128  0.500000000  0.722158077
     0.327719507  0.831923925  0.216937920
     0.336617853  0.825169692  0.733880343
     0.343434887  0.171579545  0.440058180
     0.332073327  0.168486608  0.950374237
     0.333745127  0.500000000  0.444900849
     0.331629680  0.500000000  0.947596248
     0.343434887  0.828420455  0.440058180
     0.332073327  0.831513392  0.950374237
     0.166841740  0.000000000  0.051567648
     0.165401853  0.334842031  0.053724529
     0.167445002  0.339683788  0.555140037
     0.165401853  0.665157969  0.053724529
     0.167445002  0.660316212  0.555140037
     0.211947081  0.000000000  0.549458646

  ion indices of the primitive-cell ions
   primitive index   ion index
                 1           1
                 2           2
                 3           3
                 4           4
                 5           5
                 6           6
                 7           7
                 8           8
                 9           9
                10          10
                11          11
                12          12
                13          13
                14          14
                15          15
                16          16
                17          17
                18          18
                19          19
                20          20
                21          21
                22          22
                23          23
                24          24
                25          25
                26          26
                27          27
                28          28
                29          29
                30          30
                31          31
                32          32
                33          33
                34          34
                35          35
                36          36
                37          37
                38          38
                39          39
                40          40
                41          41
                42          42
                43          43
                44          44
                45          45
                46          46
                47          47
                48          48
                49          49
                50          50
                51          51
                52          52
                53          53
                54          54
                55          55
                56          56
                57          57
                58          58
                59          59
                60          60
                61          61
                62          62
                63          63
                64          64
                65          65
                66          66
                67          67
                68          68
                69          69
                70          70
                71          71
                72          72
                73          73
                74          74
                75          75
                76          76
                77          77
                78          78
                79          79
                80          80
                81          81
                82          82
                83          83
                84          84
                85          85
                86          86
                87          87
                88          88
                89          89
                90          90
                91          91
                92          92
                93          93
                94          94
                95          95
                96          96
                97          97
                98          98
                99          99
               100         100
               101         101
               102         102
               103         103
               104         104
               105         105
               106         106
               107         107
               108         108
               109         109
               110         110
               111         111
               112         112
               113         113
               114         114
               115         115
               116         116
               117         117
               118         118
               119         119
               120         120

----------------------------------------------------------------------------------------

 
 
 KPOINTS: Automatic mesh                          

Automatic generation of k-mesh.
 Grid dimensions read from file:
 generate k-points for:    2    2    2

 Generating k-lattice:

  Cartesian coordinates                     Fractional coordinates (reciprocal lattice)
     0.000000000  0.040715043 -0.009973711     0.500000000  0.000000000  0.000000000
     0.054688428 -0.000000000  0.000000000     0.000000000  0.500000000  0.000000000
     0.000000000  0.000000000 -0.044245056     0.000000000  0.000000000  0.500000000

  Length of vectors
     0.041918846  0.054688428  0.044245056

  Shift w.r.t. Gamma in fractional coordinates (k-lattice)
     0.000000000  0.000000000  0.000000000

 
 Subroutine IBZKPT returns following result:
 ===========================================
 
 Found      8 irreducible k-points:
 
 Following reciprocal coordinates:
            Coordinates               Weight
  0.000000  0.000000  0.000000      1.000000
  0.500000  0.000000  0.000000      1.000000
  0.000000  0.500000  0.000000      1.000000
  0.500000  0.500000  0.000000      1.000000
  0.000000  0.000000  0.500000      1.000000
  0.500000  0.000000  0.500000      1.000000
  0.000000  0.500000  0.500000      1.000000
  0.500000  0.500000  0.500000      1.000000
 
 Following cartesian coordinates:
            Coordinates               Weight
  0.000000  0.000000 -0.000000      1.000000
  0.000000  0.040715 -0.009974      1.000000
  0.054688  0.000000 -0.000000      1.000000
  0.054688  0.040715 -0.009974      1.000000
  0.000000  0.000000 -0.044245      1.000000
  0.000000  0.040715 -0.054219      1.000000
  0.054688  0.000000 -0.044245      1.000000
  0.054688  0.040715 -0.054219      1.000000
 
 
 Subroutine IBZKPT_HF returns following result:
 ==============================================
 
 Found      8 k-points in 1st BZ
 the following      8 k-points will be used (e.g. in the exchange kernel)
 Following reciprocal coordinates:   # in IRBZ
  0.000000  0.000000  0.000000    0.12500000   1 t-inv F
  0.500000  0.000000  0.000000    0.12500000   2 t-inv F
  0.000000  0.500000  0.000000    0.12500000   3 t-inv F
  0.500000  0.500000  0.000000    0.12500000   4 t-inv F
  0.000000  0.000000  0.500000    0.12500000   5 t-inv F
  0.500000  0.000000  0.500000    0.12500000   6 t-inv F
  0.000000  0.500000  0.500000    0.12500000   7 t-inv F
  0.500000  0.500000  0.500000    0.12500000   8 t-inv F


--------------------------------------------------------------------------------------------------------




 Dimension of arrays:
   k-points           NKPTS =      8   k-points in BZ     NKDIM =      8   number of bands    NBANDS=    633
   number of dos      NEDOS =    301   number of ions     NIONS =    120
   non local maximal  LDIM  =      6   non local SUM 2l+1 LMDIM =     18
   total plane-waves  NPLWV = 184320
   max r-space proj   IRMAX =   1800   max aug-charges    IRDMAX=   5704
   dimension x,y,z NGX =    64 NGY =   48 NGZ =   60
   dimension x,y,z NGXF=   128 NGYF=   96 NGZF=  120
   support grid    NGXF=   128 NGYF=   96 NGZF=  120
   ions per type =              48  71   1
   NGX,Y,Z   is equivalent  to a cutoff of   8.66,  8.73,  8.57 a.u.
   NGXF,Y,Z  is equivalent  to a cutoff of  17.33, 17.46, 17.15 a.u.

 SYSTEM =  unknown system                          
 POSCAR =  Ga48 O72                                

 Startparameter for this run:
   NWRITE =      2    write-flag & timer
   PREC   = normal    normal or accurate (medium, high low for compatibility)
   ISTART =      0    job   : 0-new  1-cont  2-samecut
   ICHARG =      0    charge: 1-file 2-atom 10-const
   ISPIN  =      1    spin polarized calculation?
   LNONCOLLINEAR =      F non collinear calculations
   LSORBIT =      F    spin-orbit coupling
   INIWAV =      1    electr: 0-lowe 1-rand  2-diag
   LASPH  =      F    aspherical Exc in radial PAW
 Electronic Relaxation 1
   ENCUT  =  450.0 eV  33.07 Ry    5.75 a.u.  21.24 15.81 20.12*2*pi/ulx,y,z
   ENINI  =  450.0     initial cutoff
   ENAUG  =  605.4 eV  augmentation charge cutoff
   NELM   =    500;   NELMIN=  2; NELMDL= -5     # of ELM steps 
   EDIFF  = 0.1E-04   stopping-criterion for ELM
   LREAL  =      T    real-space projection
   NLSPLINE    = F    spline interpolate recip. space projectors
   LCOMPAT=      F    compatible to vasp.4.4
   GGA_COMPAT  = T    GGA compatible to vasp.4.4-vasp.4.6
   LMAXPAW     = -100 max onsite density
   LMAXMIX     =    2 max onsite mixed and CHGCAR
   VOSKOWN=      0    Vosko Wilk Nusair interpolation
   ROPT   =   -0.00050  -0.00050  -0.00050
 Ionic relaxation
   EDIFFG = -.5E-02   stopping-criterion for IOM
   NSW    =      0    number of steps for IOM
   NBLOCK =      1;   KBLOCK =      1    inner block; outer block 
   IBRION =     -1    ionic relax: 0-MD 1-quasi-New 2-CG
   NFREE  =      0    steps in history (QN), initial steepest desc. (CG)
   ISIF   =      2    stress and relaxation
   IWAVPR =     10    prediction:  0-non 1-charg 2-wave 3-comb
   ISYM   =      3    0-nonsym 1-usesym 2-fastsym
   LCORR  =      T    Harris-Foulkes like correction to forces

   POTIM  = 0.5000    time-step for ionic-motion
   TEIN   =    0.0    initial temperature
   TEBEG  =    0.0;   TEEND  =   0.0 temperature during run
   SMASS  =  -3.00    Nose mass-parameter (am)
   estimated Nose-frequenzy (Omega)   =  0.10E-29 period in steps = 0.13E+47 mass=  -0.345E-26a.u.
   SCALEE = 1.0000    scale energy and forces
   NPACO  =    256;   APACO  = 10.0  distance and # of slots for P.C.
   PSTRESS=    0.0 pullay stress

  Mass of Ions in am
   POMASS =  69.72 16.00 30.97
  Ionic Valenz
   ZVAL   =  13.00  6.00  5.00
  Atomic Wigner-Seitz radii
   RWIGS  =  -1.00 -1.00 -1.00
  virtual crystal weights 
   VCA    =   1.00  1.00  1.00
   NELECT =    1056.0000    total number of electrons
   NUPDOWN=      -1.0000    fix difference up-down

 DOS related values:
   EMIN   =  10.00;   EMAX   =-10.00  energy-range for DOS
   EFERMI =   0.00;   METHOD = LEGACY      
   ISMEAR =     0;   SIGMA  =   0.05  broadening in eV -4-tet -1-fermi 0-gaus

 Electronic relaxation 2 (details)
   IALGO  =     58    algorithm
   LDIAG  =      T    sub-space diagonalisation (order eigenvalues)
   LSUBROT=      F    optimize rotation matrix (better conditioning)
   TURBO    =      0    0=normal 1=particle mesh
   IRESTART =      0    0=no restart 2=restart with 2 vectors
   NREBOOT  =      0    no. of reboots
   NMIN     =      0    reboot dimension
   EREF     =   0.00    reference energy to select bands
   IMIX   =      4    mixing-type and parameters
     AMIX     =   0.40;   BMIX     =  1.00
     AMIX_MAG =   1.60;   BMIX_MAG =  1.00
     AMIN     =   0.10
     WC   =   100.;   INIMIX=   1;  MIXPRE=   1;  MAXMIX= -45

 Intra band minimization:
   WEIMIN = 0.0000     energy-eigenvalue tresh-hold
   EBREAK =  0.39E-08  absolut break condition
   DEPER  =   0.30     relativ break condition  

   TIME   =   0.40     timestep for ELM

  volume/ion in A,a.u.               =      10.57        71.35
  Fermi-wavevector in a.u.,A,eV,Ry     =   1.539919  2.910025 32.264175  2.371350
  Thomas-Fermi vector in A             =   2.646079
 
 Write flags
   LWAVE        =      T    write WAVECAR
   LDOWNSAMPLE  =      F    k-point downsampling of WAVECAR
   LCHARG       =      T    write CHGCAR
   LVTOT        =      F    write LOCPOT, total local potential
   LVHAR        =      F    write LOCPOT, Hartree potential only
   LELF         =      F    write electronic localiz. function (ELF)
   LORBIT       =      0    0 simple, 1 ext, 2 COOP (PROOUT), +10 PAW based schemes


 Dipole corrections
   LMONO  =      F    monopole corrections only (constant potential shift)
   LDIPOL =      F    correct potential (dipole corrections)
   IDIPOL =      0    1-x, 2-y, 3-z, 4-all directions 
   EPSILON=  1.0000000 bulk dielectric constant

 Exchange correlation treatment:
   GGA     =    --    GGA type
   LEXCH   =     8    internal setting for exchange type
   LIBXC   =     F    Libxc                    
   VOSKOWN =     0    Vosko Wilk Nusair interpolation
   EXXOEP  =     0    0=HF, 1=EXX-LHF (local Hartree Fock) 2=EXX OEP
   LHFCALC =     T    Hartree Fock is set to
   LSYMGRAD=     F    symmetrize gradient (conserves proper symmetry)
   PRECFOCK=fast      Normal, Fast or Accurate (Low or Medium for compatibility)
   LRHFCALC=     F    long range Hartree Fock
   LRSCOR  =     F    long range correlation only (use DFT for short range part)
   LTHOMAS =     F    Thomas Fermi screening in HF
   LMODELHF=     F    short range full HF, long range fraction AEXX
   FOCKCORR=     1    mode to apply convergence corrections
   LFOCKACE=     T    use Adeptively-Compressed-Exchange operator
   ENCUT4O =  -1.0   cutoff for four orbital integrals eV
   LMAXFOCK=     4    L truncation for augmentation on plane wave grid
   LMAXFOCKAE=  -1    L truncation for all-electron charge restoration on plane wave grid
   NMAXFOCKAE=   1    number of basis functions for all-electron charge restoration
   LFOCKAEDFT=     F  apply the AE augmentation even for DFT
   NKREDX  =     1    reduce k-point grid by
   NKREDY  =     1    reduce k-point grid by
   NKREDZ  =     1    reduce k-point grid by
   SHIFTRED=     F    shift reduced grid of Gamma
   HFKIDENT=     F    idential grid for each k-point
   ODDONLY =     F    use only odd q-grid points
   EVENONLY=     F    use only even q-grid points
   HFALPHA =   -1.0000 decay constant for conv. correction
   MCALPHA =    0.0000 extent of test-charge in conv. correction in multipole expansion
   AEXX    =    0.3200 exact exchange contribution
   HFSCREEN=    0.2000 screening length (either q_TF or 0.3 A-1)
   HFSCREENC=   0.2000 screening length for correlation (either q_TF or 0.3 A-1)
   HFRCUT  =    0.0000 spherical cutoff for potential kernel
   ALDAX   =    0.6800 LDA exchange part
   AGGAX   =    0.6800 GGA exchange part
   ALDAC   =    1.0000 LDA correlation
   AGGAC   =    1.0000 GGA correlation
   ENCUTFOCK=  -1.0 apply spherical cutoff to Coloumb kernel
   NBANDSGWLOW=     1    first orbital included in HF term
   NBLOCK_FOCK=    64    blocking factor in FOCK_ACC

 Linear response parameters
   LEPSILON=     F    determine dielectric tensor
   LRPA    =     F    only Hartree local field effects (RPA)
   LNABLA  =     F    use nabla operator in PAW spheres
   LVEL    =     F    velocity operator in full k-point grid
   CSHIFT  =0.1000    complex shift for real part using Kramers Kronig
   OMEGAMAX=  -1.0    maximum frequency
   DEG_THRESHOLD= 0.2000000E-02 threshold for treating states as degnerate
   RTIME   =   -0.100 relaxation time in fs
  (WPLASMAI=    0.000 imaginary part of plasma frequency in eV, 0.658/RTIME)
   DFIELD  = 0.0000000 0.0000000 0.0000000 field for delta impulse in time
 
  Optional k-point grid parameters
   LKPOINTS_OPT  =     F    use optional k-point grid
   KPOINTS_OPT_MODE=     1    mode for optional k-point grid
 
 Orbital magnetization related:
   ORBITALMAG=     F  switch on orbital magnetization
   LCHIMAG   =     F  perturbation theory with respect to B field
   DQ        =  0.001000  dq finite difference perturbation B field
   LLRAUG    =     F  two centre corrections for induced B field
   LBONE     =     F  B-component reconstruction in AE one-centre
   LVGVCALC  =     T  calculate vGv susceptibility
   LVGVAPPL  =     F  apply vGv susceptibility instead of pGv for G=0

 Random number generation:
   RANDOM_GENERATOR = DEFAULT
   PCG_SEED         = not used


--------------------------------------------------------------------------------------------------------


 Static calculation
 charge density and potential will be updated during run
 non-spin polarized calculation
 Conjugate gradient for all bands (Freysoldt, et al. PRB 79, 241103 (2009))
 preconditioned conjugated gradient                                        
 perform sub-space diagonalisation
    before iterative eigenvector-optimisation
 modified Broyden-mixing scheme, WC =      100.0
 initial mixing is a Kerker type mixing with AMIX =  0.4000 and BMIX =      1.0000
 Hartree-type preconditioning will be used
 using additional bands           105
 real space projection scheme for non local part
 use partial core corrections
 no Harris-corrections to forces 
 use gradient corrections 
 use of overlap-Matrix (Vanderbilt PP)
 Gauss-broadening in eV      SIGMA  =   0.05


--------------------------------------------------------------------------------------------------------


  energy-cutoff  :      450.00
  volume of cell :     1268.81
      direct lattice vectors                 reciprocal lattice vectors
     0.000000000 12.280473417  0.000000000     0.000000000  0.081430085 -0.019947423
     9.142702054  0.000000000  0.000000000     0.109376855 -0.000000000  0.000000000
     0.000000000 -2.768261773-11.300697718     0.000000000  0.000000000 -0.088490111

  length of vectors
    12.280473417  9.142702054 11.634820246     0.083837691  0.109376855  0.088490111


 
 k-points in units of 2pi/SCALE and weight: Automatic mesh                          
   0.00000000  0.00000000 -0.00000000       0.125
   0.00000000  0.04071504 -0.00997371       0.125
   0.05468843  0.00000000 -0.00000000       0.125
   0.05468843  0.04071504 -0.00997371       0.125
   0.00000000  0.00000000 -0.04424506       0.125
   0.00000000  0.04071504 -0.05421877       0.125
   0.05468843  0.00000000 -0.04424506       0.125
   0.05468843  0.04071504 -0.05421877       0.125
 
 k-points in reciprocal lattice and weights: Automatic mesh                          
   0.00000000  0.00000000  0.00000000       0.125
   0.50000000  0.00000000  0.00000000       0.125
   0.00000000  0.50000000  0.00000000       0.125
   0.50000000  0.50000000  0.00000000       0.125
   0.00000000  0.00000000  0.50000000       0.125
   0.50000000  0.00000000  0.50000000       0.125
   0.00000000  0.50000000  0.50000000       0.125
   0.50000000  0.50000000  0.50000000       0.125
 
 position of ions in fractional coordinates (direct lattice) 
   0.66049639  0.00000000  0.15639329
   0.65643737  0.00000000  0.65542243
   0.66067274  0.33341592  0.15689050
   0.65437469  0.33256098  0.65609938
   0.66067274  0.66658408  0.15689050
   0.65437469  0.66743902  0.65609938
   0.83925189  0.16750052  0.34319112
   0.83790536  0.16712163  0.84208700
   0.84254304  0.50000000  0.34262216
   0.83837300  0.50000000  0.84182081
   0.83925189  0.83249948  0.34319112
   0.83790536  0.83287837  0.84208700
   0.59015885  0.16723807  0.39739394
   0.59024951  0.16666492  0.89819656
   0.59478373  0.50000000  0.39766374
   0.59473272  0.50000000  0.90052082
   0.59015885  0.83276193  0.39739394
   0.59024951  0.83333508  0.89819656
   0.90768376  0.00000000  0.10056464
   0.90754956  0.00000000  0.60226327
   0.90809928  0.33280611  0.10159025
   0.90567710  0.33404634  0.60229757
   0.90809928  0.66719389  0.10159025
   0.90567710  0.66595366  0.60229757
   0.15967355  0.16652082  0.15393778
   0.15735287  0.17294761  0.66228444
   0.15722538  0.50000000  0.15807204
   0.15801256  0.50000000  0.65821769
   0.15967355  0.83347918  0.15393778
   0.15735287  0.82705239  0.66228444
   0.34156199  0.00000000  0.34089427
   0.34012563  0.00000000  0.84806986
   0.34315911  0.33592182  0.34119376
   0.34379225  0.33423310  0.84666661
   0.34315911  0.66407818  0.34119376
   0.34379225  0.66576690  0.84666661
   0.08399303  0.00000000  0.38273439
   0.08714133  0.00000000  0.89811704
   0.09177316  0.33260573  0.39897000
   0.08812392  0.33328929  0.89780328
   0.09177316  0.66739427  0.39897000
   0.08812392  0.66671071  0.89780328
   0.41191394  0.16681160  0.10391322
   0.40154393  0.16168913  0.60292702
   0.41079190  0.50000000  0.10298223
   0.40760331  0.50000000  0.60311756
   0.41191394  0.83318840  0.10391322
   0.40154393  0.83831087  0.60292702
   0.99561844  0.16635496  0.12435898
   0.99321939  0.16783842  0.62752206
   0.99482780  0.50000000  0.12654432
   0.99376828  0.50000000  0.62844333
   0.99561844  0.83364504  0.12435898
   0.99321939  0.83216158  0.62752206
   0.50479882  0.00000000  0.36910298
   0.50402731  0.00000000  0.87771646
   0.50622301  0.33577890  0.36914532
   0.50680123  0.33562191  0.87880384
   0.50622301  0.66422110  0.36914532
   0.50680123  0.66437809  0.87880384
   0.67290351  0.16674526  0.28048922
   0.67058458  0.16688150  0.78018832
   0.67487841  0.50000000  0.28012892
   0.67051837  0.50000000  0.77952483
   0.67290351  0.83325474  0.28048922
   0.67058458  0.83311850  0.78018832
   0.82762045  0.00000000  0.21892872
   0.82496664  0.00000000  0.71867153
   0.82770389  0.33345443  0.21923836
   0.82429043  0.33358416  0.71918886
   0.82770389  0.66654557  0.21923836
   0.82429043  0.66641584  0.71918886
   0.83191730  0.00000000  0.44532089
   0.82981283  0.00000000  0.94451602
   0.83052579  0.33441440  0.44540078
   0.83007467  0.33374470  0.94524834
   0.83052579  0.66558560  0.44540078
   0.83007467  0.66625530  0.94524834
   0.66950726  0.16676280  0.05450864
   0.66746550  0.16711544  0.55369720
   0.67242700  0.50000000  0.05613976
   0.66645011  0.50000000  0.55532637
   0.66950726  0.83323720  0.05450864
   0.66746550  0.83288456  0.55369720
   0.49891286  0.00000000  0.12821402
   0.49664105  0.00000000  0.62852197
   0.49866900  0.33424731  0.12778754
   0.49268162  0.33080269  0.62696137
   0.49866900  0.66575269  0.12778754
   0.49268162  0.66919731  0.62696137
   0.99932794  0.16988675  0.36605688
   0.00012175  0.16731549  0.87175811
   0.00393735  0.50000000  0.37199065
   0.00091152  0.50000000  0.87248077
   0.99932794  0.83011325  0.36605688
   0.00012175  0.83268451  0.87175811
   0.17192381  0.00000000  0.27021892
   0.17319015  0.00000000  0.78866843
   0.17254567  0.33299957  0.28038479
   0.17065028  0.33442681  0.78198060
   0.17254567  0.66700043  0.28038479
   0.17065028  0.66557319  0.78198060
   0.32771951  0.16807608  0.21693792
   0.33661785  0.17483031  0.73388034
   0.32704338  0.50000000  0.21782965
   0.32755113  0.50000000  0.72215808
   0.32771951  0.83192392  0.21693792
   0.33661785  0.82516969  0.73388034
   0.34343489  0.17157955  0.44005818
   0.33207333  0.16848661  0.95037424
   0.33374513  0.50000000  0.44490085
   0.33162968  0.50000000  0.94759625
   0.34343489  0.82842045  0.44005818
   0.33207333  0.83151339  0.95037424
   0.16684174  0.00000000  0.05156765
   0.16540185  0.33484203  0.05372453
   0.16744500  0.33968379  0.55514004
   0.16540185  0.66515797  0.05372453
   0.16744500  0.66031621  0.55514004
   0.21194708  0.00000000  0.54945865
 
 position of ions in cartesian coordinates  (Angst):
   0.00000000  7.67827074 -1.76735330
   0.00000000  6.24698076 -7.40673076
   3.04832238  7.67906007 -1.77297211
   3.04050595  6.21977617 -7.41438076
   6.09437968  7.67906007 -1.77297211
   6.10219611  6.21977617 -7.41438076
   1.53140731  9.35636770 -3.87829910
   1.52794323  7.95875729 -9.51617062
   4.57135103  9.39835958 -3.87186948
   4.57135103  7.96523692 -9.51316251
   7.61129474  9.35636770 -3.87829910
   7.61475882  7.95875729 -9.51617062
   1.52900783  6.14733964 -4.49082875
   1.52376775  4.76210018-10.15024784
   4.57135103  6.20338852 -4.49387768
   4.57135103  4.81072201-10.17651352
   7.61369423  6.14733964 -4.49082875
   7.61893430  4.76210018-10.15024784
   0.00000000 10.86839703 -1.13645059
   0.00000000  9.47791590 -6.80599511
   3.04274710 10.87066064 -1.14804074
   3.05408616  9.45482619 -6.80638280
   6.09995496 10.87066064 -1.14804074
   6.08861589  9.45482619 -6.80638280
   1.52245023  1.53472670 -1.73960430
   1.58120850  0.09899105 -7.48427629
   4.57135103  1.49321733 -1.78632439
   4.57135103  0.11835020 -7.43831914
   7.62025182  1.53472670 -1.73960430
   7.56149355  0.09899105 -7.48427629
   0.00000000  3.25085829 -3.85234315
   0.00000000  1.82922441 -9.58378116
   3.07123315  3.26964262 -3.85572758
   3.05579362  1.87813678 -9.56792342
   6.07146890  3.26964262 -3.85572758
   6.08690844  1.87813678 -9.56792342
   0.00000000 -0.02803484 -4.32516565
   0.00000000 -1.41608628-10.14934923
   3.04091509  0.02256448 -4.50863932
   3.04716472 -1.40315105-10.14580347
   6.10178696  0.02256448 -4.50863932
   6.09553733 -1.40315105-10.14580347
   1.52510878  4.77083919 -1.17429191
   1.47827554  3.26208974 -6.81349600
   4.57135103  4.75963728 -1.16377100
   4.57135103  3.33597436 -6.81564928
   7.61759327  4.77083919 -1.17429191
   7.66442651  3.26208974 -6.81349600
   1.52093387 11.88240754 -1.40534323
   1.53449671 10.46005896 -7.09143711
   4.57135103 11.86664855 -1.43003907
   4.57135103 10.46424933 -7.10184814
   7.62176818 11.88240754 -1.40534323
   7.60820535 10.46005896 -7.09143711
   0.00000000  5.17739479 -4.17112120
   0.00000000  3.75994512 -9.91880837
   3.06992641  5.19476739 -4.17159962
   3.06849109  3.79100000 -9.93109657
   6.07277565  5.19476739 -4.17159962
   6.07421097  3.79100000 -9.93109657
   1.52450226  7.48710601 -3.16972393
   1.52574784  6.07533065 -8.81667235
   4.57135103  7.51235616 -3.16565220
   4.57135103  6.07635418 -8.80917452
   7.61819979  7.48710601 -3.16972393
   7.61695421  6.07533065 -8.81667235
   0.00000000  9.55751891 -2.47404733
   0.00000000  8.14150996 -8.12148974
   3.04867448  9.55768640 -2.47754643
   3.04986059  8.13177372 -8.12733590
   6.09402757  9.55768640 -2.47754643
   6.09284146  8.13177372 -8.12733590
   0.00000000  8.98357354 -5.03243677
   0.00000000  7.57582688-10.67368999
   3.05745124  8.96626393 -5.03333959
   3.05132832  7.57701513-10.68196575
   6.08525081  8.96626393 -5.03333959
   6.09137374  7.57701513-10.68196575
   1.52466258  8.07097194 -0.61598567
   1.52788671  6.66401354 -6.25716464
   4.57135103  8.10231229 -0.63441849
   4.57135103  6.64703409 -6.27557547
   7.61803948  8.07097194 -0.61598567
   7.61481535  6.66401354 -6.25716464
   0.00000000  5.77195612 -1.44890794
   0.00000000  4.35907390 -7.10273682
   3.05592355  5.77014207 -1.44408832
   3.02443045  4.31477039 -7.08510093
   6.08677850  5.77014207 -1.44408832
   6.11827160  4.31477039 -7.08510093
   1.55322393 11.25887894 -4.13669809
   1.52971568 -2.41175955 -9.85147483
   4.57135103 -0.98141494 -4.20375391
   4.57135103 -2.40406127 -9.85964145
   7.58947812 11.25887894 -4.13669809
   7.61298638 -2.41175955 -9.85147483
   0.00000000  1.36326908 -3.05366235
   0.00000000 -0.05638363 -8.91250348
   3.04451587  1.34276402 -3.16854381
   3.05756466 -0.06906073 -8.83692637
   6.09818619  1.34276402 -3.16854381
   6.08513739 -0.06906073 -8.83692637
   1.53666948  3.42400974 -2.45154986
   1.59842142  2.10225369 -8.29335991
   4.57135103  3.41323807 -2.46162698
   4.57135103  2.02336032 -8.16089013
   7.60603257  3.42400974 -2.45154986
   7.54428063  2.10225369 -8.29335991
   1.56870066  2.99934676 -4.97296448
   1.54042285  1.44713299-10.73989197
   4.57135103  2.86694615 -5.02769001
   4.57135103  1.44937501-10.70849875
   7.57400139  2.99934676 -4.97296448
   7.60227920  1.44713299-10.73989197
   0.00000000  1.90614280 -0.58275040
   3.06136092  1.88248950 -0.60712466
   3.10562767  0.51953095 -6.27346975
   6.08134113  1.88248950 -0.60712466
   6.03707438  0.51953095 -6.27346975
   0.00000000  1.08176513 -6.20926607
 


--------------------------------------------------------------------------------------------------------


 k-point   1 :   0.0000 0.0000 0.0000  plane waves:   27533
 k-point   2 :   0.5000 0.0000 0.0000  plane waves:   27522
 k-point   3 :   0.0000 0.5000 0.0000  plane waves:   27488
 k-point   4 :   0.5000 0.5000 0.0000  plane waves:   27488
 k-point   5 :   0.0000 0.0000 0.5000  plane waves:   27482
 k-point   6 :   0.5000 0.0000 0.5000  plane waves:   27476
 k-point   7 :   0.0000 0.5000 0.5000  plane waves:   27468
 k-point   8 :   0.5000 0.5000 0.5000  plane waves:   27564

 maximum and minimum number of plane-waves per node :     27564    27468

 maximum number of plane-waves:     27564
 maximum index in each direction: 
   IXMAX=   21   IYMAX=   15   IZMAX=   20
   IXMIN=  -21   IYMIN=  -16   IZMIN=  -20


 serial   3D FFT for wavefunctions
 parallel 3D FFT for charge:
    minimum data exchange during FFTs selected (reduces bandwidth)


 FFT grid for exact exchange (Hartree Fock) 
  NGX = 48; NGY = 36; NGZ = 48

 
 Radii for the augmentation spheres in the non-local exchange
 for species   1 augmentation radius   1.392 (default was   1.031)
       energy cutoff for augmentation   1800.0
 for species   2 augmentation radius   0.974 (default was   0.722)
       energy cutoff for augmentation   1800.0
 for species   3 augmentation radius   1.294 (default was   0.959)
       energy cutoff for augmentation   1800.0
 Maximum index for augmentation-charges in exchange           755
  SETUP_FOCK is finished

 total amount of memory used by VASP MPI-rank0  7269089. kBytes
=======================================================================

   base      :      30000. kBytes
   nonlr-proj:      32984. kBytes
   fftplans  :      51012. kBytes
   grid      :     102973. kBytes
   one-center:       1866. kBytes
   HF        :        194. kBytes
   wavefun   :    7050060. kBytes
 
     INWAV:  cpu time      0.0001: real time      0.0002
 Broyden mixing: mesh for mixing (old mesh)
   NGX = 43   NGY = 31   NGZ = 41
  (NGX  =128   NGY  = 96   NGZ  =120)
  gives a total of  54653 points

 charge density for first step will be calculated from the start-wavefunctions


--------------------------------------------------------------------------------------------------------


 Maximum index for non-local projection operator          1718
 Maximum index for augmentation-charges          5374 (set IRDMAX)


--------------------------------------------------------------------------------------------------------


 initial charge from wavefunction
 First call to EWALD:  gamma=   0.164
 Maximum number of real-space cells 3x 3x 3
 Maximum number of reciprocal cells 3x 2x 3

    FEWALD:  cpu time      0.0736: real time      0.0736


--------------------------------------- Ionic step        1  -------------------------------------------




--------------------------------------- Iteration      1(   1)  ---------------------------------------


    POTLOK:  cpu time      0.0335: real time      0.0335
    SETDIJ:  cpu time      0.1551: real time      0.1551
    TRIAL :  cpu time      2.9617: real time      2.9781
    CORREC:  cpu time      0.0015: real time      0.0015
    --------------------------------------------
      LOOP:  cpu time      4.0213: real time      4.0372

 eigenvalue-minimisations  : 10616
 total energy-change (2. order) :-0.1861552E+05  (-0.5435755E+05)
 number of electron    1055.9999508 magnetization 
 augmentation part      121.8947935 magnetization 

 Free energy of the ion-electron system (eV)
  ---------------------------------------------------
  alpha Z        PSCENC =      5529.70323211
  Ewald energy   TEWEN  =    -88683.86560705
  -Hartree energ DENC   =     -2119.95244232
  -exchange      EXHF   =         0.00000000
  -V(xc)+E(xc)   XCENC  =      2796.62679937
  PAW double counting   =    343096.95847695  -372437.29055634
  entropy T*S    EENTRO =        -0.00791088
  eigenvalues    EBANDS =    -40444.62645848
  atomic energy  EATOM  =    133646.93285989
  ---------------------------------------------------
  free energy    TOTEN  =    -18615.52160674 eV

  energy without entropy =   -18615.51369586  energy(sigma->0) =   -18615.51765130
  exchange ACFDT corr.  =         0.00000000  see jH, gK, PRB 81, 115126


--------------------------------------------------------------------------------------------------------




--------------------------------------- Iteration      1(   2)  ---------------------------------------


    TRIAL :  cpu time      3.2043: real time      3.2040
    CORREC:  cpu time      0.0016: real time      0.0016
    --------------------------------------------
      LOOP:  cpu time      3.2061: real time      3.2067

 eigenvalue-minimisations  : 13480
 total energy-change (2. order) :-0.4442388E+05  (-0.4303470E+05)
 number of electron    1055.9999508 magnetization 
 augmentation part      121.8947935 magnetization 

 Free energy of the ion-electron system (eV)
  ---------------------------------------------------
  alpha Z        PSCENC =      5529.70323211
  Ewald energy   TEWEN  =    -88683.86560705
  -Hartree energ DENC   =     -2119.95244232
  -exchange      EXHF   =         0.00000000
  -V(xc)+E(xc)   XCENC  =      2796.62679937
  PAW double counting   =    343096.95847695  -372437.29055634
  entropy T*S    EENTRO =        -0.01813692
  eigenvalues    EBANDS =    -84868.49519440
  atomic energy  EATOM  =    133646.93285989
  ---------------------------------------------------
  free energy    TOTEN  =    -63039.40056870 eV

  energy without entropy =   -63039.38243179  energy(sigma->0) =   -63039.39150024
  exchange ACFDT corr.  =         0.00000000  see jH, gK, PRB 81, 115126


--------------------------------------------------------------------------------------------------------




--------------------------------------- Iteration      1(   3)  ---------------------------------------


    TRIAL :  cpu time      3.3540: real time      3.3533
    CORREC:  cpu time      0.0016: real time      0.0016
    --------------------------------------------
      LOOP:  cpu time      3.3558: real time      3.3555

 eigenvalue-minimisations  : 14396
 total energy-change (2. order) :-0.4732974E+04  (-0.4254703E+04)
 number of electron    1055.9999508 magnetization 
 augmentation part      121.8947935 magnetization 

 Free energy of the ion-electron system (eV)
  ---------------------------------------------------
  alpha Z        PSCENC =      5529.70323211
  Ewald energy   TEWEN  =    -88683.86560705
  -Hartree energ DENC   =     -2119.95244232
  -exchange      EXHF   =         0.00000000
  -V(xc)+E(xc)   XCENC  =      2796.62679937
  PAW double counting   =    343096.95847695  -372437.29055634
  entropy T*S    EENTRO =        -0.02459354
  eigenvalues    EBANDS =    -89601.46310957
  atomic energy  EATOM  =    133646.93285989
  ---------------------------------------------------
  free energy    TOTEN  =    -67772.37494050 eV

  energy without entropy =   -67772.35034696  energy(sigma->0) =   -67772.36264373
  exchange ACFDT corr.  =         0.00000000  see jH, gK, PRB 81, 115126


--------------------------------------------------------------------------------------------------------




--------------------------------------- Iteration      1(   4)  ---------------------------------------


    TRIAL :  cpu time      3.7974: real time      3.7968
    CORREC:  cpu time      0.0017: real time      0.0017
    --------------------------------------------
      LOOP:  cpu time      3.7993: real time      3.7991

 eigenvalue-minimisations  : 17408
 total energy-change (2. order) :-0.6036214E+03  (-0.5312435E+03)
 number of electron    1055.9999508 magnetization 
 augmentation part      121.8947935 magnetization 

 Free energy of the ion-electron system (eV)
  ---------------------------------------------------
  alpha Z        PSCENC =      5529.70323211
  Ewald energy   TEWEN  =    -88683.86560705
  -Hartree energ DENC   =     -2119.95244232
  -exchange      EXHF   =         0.00000000
  -V(xc)+E(xc)   XCENC  =      2796.62679937
  PAW double counting   =    343096.95847695  -372437.29055634
  entropy T*S    EENTRO =        -0.05146787
  eigenvalues    EBANDS =    -90205.05768462
  atomic energy  EATOM  =    133646.93285989
  ---------------------------------------------------
  free energy    TOTEN  =    -68375.99638987 eV

  energy without entropy =   -68375.94492200  energy(sigma->0) =   -68375.97065593
  exchange ACFDT corr.  =         0.00000000  see jH, gK, PRB 81, 115126


--------------------------------------------------------------------------------------------------------




--------------------------------------- Iteration      1(   5)  ---------------------------------------


    POTLOK:  cpu time      1.4028: real time      1.4026
    SETDIJ:  cpu time      0.4685: real time      0.4684
    TRIAL :  cpu time    436.6983: real time    436.6421
    CORREC:  cpu time      0.0015: real time      0.0015
    CHARGE:  cpu time      0.2100: real time      0.2099
    --------------------------------------------
      LOOP:  cpu time    438.7811: real time    438.7250

 eigenvalue-minimisations  : 18807
 total energy-change (2. order) : 0.3021131E+05  (-0.7449027E+02)
 number of electron    1055.9997659 magnetization 
 augmentation part      490.7290152 magnetization 

 Free energy of the ion-electron system (eV)
  ---------------------------------------------------
  alpha Z        PSCENC =      5529.70323211
  Ewald energy   TEWEN  =    -88683.86560705
  -Hartree energ DENC   =     -2119.95244232
  -exchange      EXHF   =      4687.59060811
  -V(xc)+E(xc)   XCENC  =      1932.74028873
  PAW double counting   =    344336.62630025  -346410.89732496
  entropy T*S    EENTRO =        -0.00043519
  eigenvalues    EBANDS =    -91083.56495994
  atomic energy  EATOM  =    133646.93285989
  ---------------------------------------------------
  free energy    TOTEN  =    -38164.68748037 eV

  energy without entropy =   -38164.68704518  energy(sigma->0) =   -38164.68726277
  exchange ACFDT corr.  =        -0.15289146  see jH, gK, PRB 81, 115126


--------------------------------------------------------------------------------------------------------




--------------------------------------- Iteration      1(   6)  ---------------------------------------


    POTLOK:  cpu time      1.6437: real time      1.6435
    SETDIJ:  cpu time      0.4667: real time      0.4666
    TRIAL :  cpu time    631.1853: real time    631.4235
    CORREC:  cpu time    632.6656: real time    632.5833
    CHARGE:  cpu time     12.1052: real time     12.1036
    --------------------------------------------
      LOOP:  cpu time   1278.0667: real time   1278.2211

 eigenvalue-minimisations  :     0
 total energy-change (2. order) : 0.6086879E+05  (-0.1616610E+05)
 number of electron    1055.9997599 magnetization 
 augmentation part      481.7148333 magnetization 

 Free energy of the ion-electron system (eV)
  ---------------------------------------------------
  alpha Z        PSCENC =      5529.70323211
  Ewald energy   TEWEN  =    -88683.86560705
  -Hartree energ DENC   =    -69992.68698091
  -exchange      EXHF   =      4812.45716120
  -V(xc)+E(xc)   XCENC  =      3732.83327089
  PAW double counting   =    145934.26371346  -170646.07897990
  entropy T*S    EENTRO =        -0.01876788
  eigenvalues    EBANDS =     58370.54259582
  atomic energy  EATOM  =    133646.93285989
  ---------------------------------------------------
  free energy    TOTEN  =     22704.10083033 eV

  energy without entropy =    22704.11959821  energy(sigma->0) =    22704.11021427
  exchange ACFDT corr.  =        -0.00101892  see jH, gK, PRB 81, 115126


--------------------------------------------------------------------------------------------------------




--------------------------------------- Iteration      1(   7)  ---------------------------------------


    POTLOK:  cpu time      3.3858: real time      3.3854
    SETDIJ:  cpu time      0.4874: real time      0.4873
    TRIAL :  cpu time    621.3567: real time    621.2819
    CORREC:  cpu time    627.8534: real time    627.7714
    CHARGE:  cpu time     12.4802: real time     12.4787
    --------------------------------------------
      LOOP:  cpu time   1265.5651: real time   1265.4066

 eigenvalue-minimisations  :     0
 total energy-change (2. order) :-0.1747549E+05  (-0.3439205E+04)
 number of electron    1055.9998024 magnetization 
 augmentation part      452.5404533 magnetization 

 Free energy of the ion-electron system (eV)
  ---------------------------------------------------
  alpha Z        PSCENC =      5529.70323211
  Ewald energy   TEWEN  =    -88683.86560705
  -Hartree energ DENC   =    -41286.95126716
  -exchange      EXHF   =      3987.62694254
  -V(xc)+E(xc)   XCENC  =      3051.65887242
  PAW double counting   =    134146.33885353  -153062.06815381
  entropy T*S    EENTRO =        -0.04007474
  eigenvalues    EBANDS =      7899.25535226
  atomic energy  EATOM  =    133646.93285989
  ---------------------------------------------------
  free energy    TOTEN  =      5228.61231687 eV

  energy without entropy =     5228.65239161  energy(sigma->0) =     5228.63235424
  exchange ACFDT corr.  =      -175.53555197  see jH, gK, PRB 81, 115126


--------------------------------------------------------------------------------------------------------




--------------------------------------- Iteration      1(   8)  ---------------------------------------


    POTLOK:  cpu time      3.3899: real time      3.3895
    SETDIJ:  cpu time      0.4681: real time      0.4680
    TRIAL :  cpu time    619.6426: real time    619.5615
    CORREC:  cpu time    624.0460: real time    623.9627
    CHARGE:  cpu time     11.8745: real time     11.8730
    --------------------------------------------
      LOOP:  cpu time   1259.4213: real time   1259.2576

 eigenvalue-minimisations  :     0
 total energy-change (2. order) :-0.2919572E+04  (-0.1281565E+04)
 number of electron    1055.9998038 magnetization 
 augmentation part      445.6955295 magnetization 

 Free energy of the ion-electron system (eV)
  ---------------------------------------------------
  alpha Z        PSCENC =      5529.70323211
  Ewald energy   TEWEN  =    -88683.86560705
  -Hartree energ DENC   =    -33281.53050644
  -exchange      EXHF   =      3681.59981926
  -V(xc)+E(xc)   XCENC  =      2831.09349625
  PAW double counting   =    132883.43474862  -148943.51313534
  entropy T*S    EENTRO =        -0.05232486
  eigenvalues    EBANDS =     -5354.77406342
  atomic energy  EATOM  =    133646.93285989
  ---------------------------------------------------
  free energy    TOTEN  =      2309.04076915 eV

  energy without entropy =     2309.09309401  energy(sigma->0) =     2309.06693158
  exchange ACFDT corr.  =      -123.50159040  see jH, gK, PRB 81, 115126


--------------------------------------------------------------------------------------------------------




--------------------------------------- Iteration      1(   9)  ---------------------------------------


    POTLOK:  cpu time      3.3737: real time      3.3734
    SETDIJ:  cpu time      0.5124: real time      0.5123
    TRIAL :  cpu time    618.9235: real time    618.8439
    CORREC:  cpu time    626.0553: real time    625.9705
    CHARGE:  cpu time     11.3194: real time     11.3178
    --------------------------------------------
      LOOP:  cpu time   1260.1870: real time   1260.0208

 eigenvalue-minimisations  :     0
 total energy-change (2. order) :-0.1041500E+04  (-0.9644994E+03)
 number of electron    1055.9998041 magnetization 
 augmentation part      450.8568702 magnetization 

 Free energy of the ion-electron system (eV)
  ---------------------------------------------------
  alpha Z        PSCENC =      5529.70323211
  Ewald energy   TEWEN  =    -88683.86560705
  -Hartree energ DENC   =    -32131.39643296
  -exchange      EXHF   =      3637.35474190
  -V(xc)+E(xc)   XCENC  =      2796.92671391
  PAW double counting   =    130335.43651803  -145634.18657609
  entropy T*S    EENTRO =        -0.03729630
  eigenvalues    EBANDS =     -8229.31196771
  atomic energy  EATOM  =    133646.93285989
  ---------------------------------------------------
  free energy    TOTEN  =      1267.54115717 eV

  energy without entropy =     1267.57845347  energy(sigma->0) =     1267.55980532
  exchange ACFDT corr.  =       -73.81773549  see jH, gK, PRB 81, 115126


--------------------------------------------------------------------------------------------------------




--------------------------------------- Iteration      1(  10)  ---------------------------------------


    POTLOK:  cpu time      3.4468: real time      3.4464
    SETDIJ:  cpu time      0.6395: real time      0.6394
    TRIAL :  cpu time    617.8836: real time    617.8021
    CORREC:  cpu time    621.5435: real time    621.4596
    CHARGE:  cpu time     12.3283: real time     12.3266
    --------------------------------------------
      LOOP:  cpu time   1255.8421: real time   1255.6746

 eigenvalue-minimisations  :     0
 total energy-change (2. order) :-0.7471716E+03  (-0.7698010E+03)
 number of electron    1055.9998122 magnetization 
 augmentation part      458.8124913 magnetization 

 Free energy of the ion-electron system (eV)
  ---------------------------------------------------
  alpha Z        PSCENC =      5529.70323211
  Ewald energy   TEWEN  =    -88683.86560705
  -Hartree energ DENC   =    -32944.24296275
  -exchange      EXHF   =      3695.34089977
  -V(xc)+E(xc)   XCENC  =      2834.89974113
  PAW double counting   =    131935.87756851  -147231.45096746
  entropy T*S    EENTRO =        -0.00952660
  eigenvalues    EBANDS =     -8262.78796016
  atomic energy  EATOM  =    133646.93285989
  ---------------------------------------------------
  free energy    TOTEN  =       520.36950770 eV

  energy without entropy =      520.37903431  energy(sigma->0) =      520.37427100
  exchange ACFDT corr.  =       -45.25371515  see jH, gK, PRB 81, 115126


--------------------------------------------------------------------------------------------------------




--------------------------------------- Iteration      1(  11)  ---------------------------------------


    POTLOK:  cpu time      3.3606: real time      3.3602
    SETDIJ:  cpu time      0.5357: real time      0.5356
    TRIAL :  cpu time    619.3792: real time    619.2978
    CORREC:  cpu time    620.7003: real time    620.6201
[...]
   0.974E-04 0.737E+02 -.306E+02   -.649E-12 -.717E+02 0.326E+02   0.000E+00 -.179E+01 -.188E+01
   -.281E-03 0.742E+02 -.440E+02   -.741E-12 -.714E+02 0.454E+02   0.000E+00 -.254E+01 -.130E+01
   -.272E+01 0.558E+02 -.241E+02   0.261E+01 -.561E+02 0.271E+02   0.910E-01 0.317E+00 -.276E+01
   -.111E+01 0.125E+03 -.594E+02   0.222E+01 -.122E+03 0.602E+02   -.947E+00 -.285E+01 -.670E+00
   -.231E+01 -.299E+02 0.229E+02   0.224E+01 0.383E+02 -.264E+02   0.634E-01 -.718E+01 0.303E+01
   0.312E+02 -.689E+02 -.894E+01   -.314E+02 0.773E+02 0.559E+01   0.194E+00 -.722E+01 0.287E+01
   0.413E-04 -.261E+02 0.236E+02   0.255E-10 0.332E+02 -.273E+02   0.000E+00 -.611E+01 0.313E+01
   0.127E-03 -.379E+02 0.934E+01   -.577E-11 0.463E+02 -.134E+02   0.000E+00 -.723E+01 0.354E+01
   0.231E+01 -.299E+02 0.229E+02   -.224E+01 0.383E+02 -.264E+02   -.634E-01 -.718E+01 0.303E+01
   -.312E+02 -.689E+02 -.894E+01   0.314E+02 0.773E+02 0.559E+01   -.194E+00 -.722E+01 0.287E+01
   -.130E-04 0.262E+02 -.660E+01   0.173E-12 -.341E+02 0.113E+02   0.000E+00 0.682E+01 -.408E+01
   -.518E-04 0.308E+02 -.281E+02   0.429E-12 -.396E+02 0.314E+02   0.000E+00 0.760E+01 -.285E+01
   -.178E+01 0.298E+02 -.699E+01   0.195E+01 -.378E+02 0.118E+02   -.149E+00 0.684E+01 -.413E+01
   -.275E+01 0.287E+02 -.259E+02   0.286E+01 -.371E+02 0.290E+02   -.958E-01 0.725E+01 -.262E+01
   0.178E+01 0.298E+02 -.699E+01   -.195E+01 -.378E+02 0.118E+02   0.149E+00 0.684E+01 -.413E+01
   0.275E+01 0.287E+02 -.259E+02   -.286E+01 -.371E+02 0.290E+02   0.958E-01 0.725E+01 -.262E+01
   0.546E+01 0.677E+02 0.491E+02   -.567E+01 -.670E+02 -.444E+02   0.180E+00 -.609E+00 -.401E+01
   0.479E+01 0.702E+02 0.230E+02   -.516E+01 -.688E+02 -.180E+02   0.322E+00 -.124E+01 -.433E+01
   0.213E-04 0.651E+02 0.455E+02   -.775E-12 -.632E+02 -.406E+02   0.000E+00 -.161E+01 -.424E+01
   0.429E-04 0.705E+02 0.162E+02   -.768E-12 -.687E+02 -.106E+02   0.000E+00 -.150E+01 -.483E+01
   -.546E+01 0.677E+02 0.491E+02   0.567E+01 -.670E+02 -.444E+02   -.180E+00 -.609E+00 -.401E+01
   -.479E+01 0.702E+02 0.230E+02   0.516E+01 -.688E+02 -.180E+02   -.322E+00 -.124E+01 -.433E+01
   -.283E-04 -.807E+02 -.165E+02   0.521E-11 0.794E+02 0.110E+02   0.000E+00 0.113E+01 0.473E+01
   -.601E-04 -.803E+02 -.491E+02   0.771E-12 0.783E+02 0.446E+02   0.000E+00 0.173E+01 0.388E+01
   0.416E+01 -.833E+02 -.221E+02   -.429E+01 0.818E+02 0.170E+02   0.112E+00 0.124E+01 0.434E+01
   0.447E+01 -.712E+02 -.486E+02   -.456E+01 0.685E+02 0.444E+02   0.742E-01 0.233E+01 0.356E+01
   -.416E+01 -.833E+02 -.221E+02   0.429E+01 0.818E+02 0.170E+02   -.112E+00 0.124E+01 0.434E+01
   -.447E+01 -.712E+02 -.486E+02   0.456E+01 0.685E+02 0.444E+02   -.742E-01 0.233E+01 0.356E+01
   -.479E-05 0.876E+02 0.799E+02   0.751E-12 -.997E+02 -.764E+02   0.000E+00 0.104E+02 -.306E+01
   -.651E-04 0.113E+03 0.561E+02   0.534E-11 -.125E+03 -.525E+02   0.000E+00 0.109E+02 -.309E+01
   0.665E+01 0.102E+03 0.750E+02   -.639E+01 -.114E+03 -.712E+02   -.220E+00 0.108E+02 -.326E+01
   0.174E+01 0.109E+03 0.590E+02   -.165E+01 -.121E+03 -.556E+02   -.780E-01 0.107E+02 -.287E+01
   -.665E+01 0.102E+03 0.750E+02   0.639E+01 -.114E+03 -.712E+02   0.220E+00 0.108E+02 -.326E+01
   -.174E+01 0.109E+03 0.590E+02   0.165E+01 -.121E+03 -.556E+02   0.780E-01 0.107E+02 -.287E+01
   0.229E+01 -.124E+03 -.663E+02   -.220E+01 0.136E+03 0.634E+02   -.773E-01 -.109E+02 0.249E+01
   0.272E+01 -.124E+03 -.587E+02   -.269E+01 0.137E+03 0.549E+02   -.217E-01 -.112E+02 0.323E+01
   0.581E-04 -.125E+03 -.632E+02   -.694E-12 0.138E+03 0.595E+02   0.000E+00 -.114E+02 0.320E+01
   -.230E-04 -.114E+03 -.549E+02   -.653E-12 0.126E+03 0.505E+02   0.000E+00 -.105E+02 0.379E+01
   -.229E+01 -.124E+03 -.663E+02   0.220E+01 0.136E+03 0.634E+02   0.773E-01 -.109E+02 0.249E+01
   -.272E+01 -.124E+03 -.587E+02   0.269E+01 0.137E+03 0.549E+02   0.217E-01 -.112E+02 0.323E+01
   -.425E-04 -.776E+01 0.146E+02   0.394E-12 0.147E+02 -.183E+02   0.000E+00 -.592E+01 0.317E+01
   0.522E-04 -.239E+01 0.763E+01   0.225E-12 0.790E+01 -.108E+02   0.000E+00 -.472E+01 0.277E+01
   -.862E-01 -.830E+01 0.142E+02   -.843E-01 0.154E+02 -.179E+02   0.148E+00 -.611E+01 0.313E+01
   0.130E+02 0.365E+01 0.312E+01   -.155E+02 0.141E+01 -.607E+01   0.214E+01 -.433E+01 0.253E+01
   0.862E-01 -.830E+01 0.142E+02   0.843E-01 0.154E+02 -.179E+02   -.148E+00 -.611E+01 0.313E+01
   -.130E+02 0.365E+01 0.312E+01   0.155E+02 0.141E+01 -.607E+01   -.214E+01 -.433E+01 0.253E+01
   0.115E+02 -.195E+02 0.345E+02   -.108E+02 0.138E+02 -.307E+02   -.560E+00 0.491E+01 -.323E+01
   0.346E+01 0.360E+01 -.320E+02   -.365E+01 -.106E+02 0.361E+02   0.157E+00 0.599E+01 -.354E+01
   -.315E-04 -.243E+01 0.102E+01   -.155E-11 -.337E+01 0.290E+01   0.000E+00 0.499E+01 -.338E+01
   0.760E-04 0.707E+01 -.218E+02   -.185E-11 -.143E+02 0.256E+02   0.000E+00 0.623E+01 -.324E+01
   -.115E+02 -.195E+02 0.345E+02   0.108E+02 0.138E+02 -.307E+02   0.560E+00 0.491E+01 -.323E+01
   -.346E+01 0.360E+01 -.320E+02   0.365E+01 -.106E+02 0.361E+02   -.157E+00 0.599E+01 -.354E+01
   -.355E-04 0.640E+02 0.959E+02   0.155E-11 -.617E+02 -.946E+02   0.000E+00 -.196E+01 -.106E+01
   -.589E-04 0.456E+02 -.433E+02   0.412E-12 -.424E+02 0.517E+02   0.000E+00 -.279E+01 -.729E+01
   0.145E+02 0.679E+02 0.631E+02   -.155E+02 -.655E+02 -.590E+02   0.835E+00 -.204E+01 -.353E+01
   0.240E+01 0.522E+02 0.318E+02   -.724E+00 -.482E+02 -.294E+02   -.145E+01 -.348E+01 -.208E+01
   -.145E+02 0.679E+02 0.631E+02   0.155E+02 -.655E+02 -.590E+02   -.835E+00 -.204E+01 -.353E+01
   -.240E+01 0.522E+02 0.318E+02   0.724E+00 -.482E+02 -.294E+02   0.145E+01 -.348E+01 -.208E+01
   -.109E+01 -.419E+02 -.251E+02   0.130E+01 0.390E+02 0.196E+02   -.181E+00 0.256E+01 0.475E+01
   0.246E+02 -.342E+02 -.761E+02   -.264E+02 0.317E+02 0.747E+02   0.164E+01 0.219E+01 0.117E+01
   0.328E-04 -.440E+02 -.446E+02   -.447E-12 0.411E+02 0.413E+02   0.000E+00 0.249E+01 0.278E+01
   -.368E-04 -.553E+02 -.551E+02   -.451E-12 0.530E+02 0.509E+02   0.000E+00 0.192E+01 0.357E+01
   0.109E+01 -.419E+02 -.251E+02   -.130E+01 0.390E+02 0.196E+02   0.181E+00 0.256E+01 0.475E+01
   -.246E+02 -.342E+02 -.761E+02   0.264E+02 0.317E+02 0.747E+02   -.164E+01 0.219E+01 0.117E+01
   0.781E+01 0.123E+03 0.858E+02   -.870E+01 -.131E+03 -.851E+02   0.824E+00 0.686E+01 -.568E+00
   -.752E+00 0.142E+03 0.389E+02   0.101E+01 -.156E+03 -.340E+02   -.224E+00 0.117E+02 -.429E+01
   -.189E-04 0.135E+03 0.795E+02   -.331E-12 -.147E+03 -.769E+02   0.000E+00 0.105E+02 -.222E+01
   0.325E-04 0.144E+03 0.517E+02   -.397E-12 -.158E+03 -.483E+02   0.000E+00 0.120E+02 -.293E+01
   -.781E+01 0.123E+03 0.858E+02   0.870E+01 -.131E+03 -.851E+02   -.824E+00 0.686E+01 -.568E+00
   0.752E+00 0.142E+03 0.389E+02   -.101E+01 -.156E+03 -.340E+02   0.224E+00 0.117E+02 -.429E+01
   -.370E-04 -.127E+03 -.625E+02   0.155E-11 0.141E+03 0.583E+02   0.000E+00 -.116E+02 0.355E+01
   -.757E+01 -.122E+03 -.625E+02   0.839E+01 0.135E+03 0.590E+02   -.716E+00 -.110E+02 0.305E+01
   0.468E+02 -.121E+03 -.704E+02   -.492E+02 0.134E+03 0.666E+02   0.214E+01 -.109E+02 0.327E+01
   0.757E+01 -.122E+03 -.625E+02   -.839E+01 0.135E+03 0.590E+02   0.716E+00 -.110E+02 0.305E+01
   -.468E+02 -.121E+03 -.704E+02   0.492E+02 0.134E+03 0.666E+02   -.214E+01 -.109E+02 0.327E+01
   0.954E-05 -.259E+02 -.590E+02   0.476E-12 0.267E+02 0.571E+02   0.000E+00 -.918E+00 0.173E+01
 -----------------------------------------------------------------------------------------------
   -.271E-04 0.162E+02 0.156E+02   0.469E-12 0.244E-11 0.405E-12   0.133E-14 -.157E+02 -.139E+02
 
 
 POSITION                                       TOTAL-FORCE (eV/Angst)
 -----------------------------------------------------------------------------------
      0.00000      7.67827     -1.76735         0.000000      0.060380      0.012188
      0.00000      6.24698     -7.40673         0.000000      0.019025      0.017751
      3.04832      7.67906     -1.77297         0.007960      0.074201      0.002958
      3.04051      6.21978     -7.41438        -0.007433      0.044974      0.011015
      6.09438      7.67906     -1.77297        -0.007960      0.074201      0.002958
      6.10220      6.21978     -7.41438         0.007433      0.044974      0.011015
      1.53141      9.35637     -3.87830         0.009657     -0.037616      0.009785
      1.52794      7.95876     -9.51617         0.002299     -0.074082     -0.004674
      4.57135      9.39836     -3.87187         0.000000     -0.070421      0.005474
      4.57135      7.96524     -9.51316         0.000000     -0.069930     -0.004223
      7.61129      9.35637     -3.87830        -0.009657     -0.037616      0.009785
      7.61476      7.95876     -9.51617        -0.002299     -0.074082     -0.004674
      1.52901      6.14734     -4.49083        -0.008586     -0.043469      0.029780
      1.52377      4.76210    -10.15025         0.001722     -0.044876      0.007495
      4.57135      6.20339     -4.49388         0.000000     -0.077295      0.047693
      4.57135      4.81072    -10.17651         0.000000     -0.070600      0.012100
      7.61369      6.14734     -4.49083         0.008586     -0.043469      0.029780
      7.61893      4.76210    -10.15025        -0.001722     -0.044876      0.007495
      0.00000     10.86840     -1.13645         0.000000      0.025463     -0.005672
      0.00000      9.47792     -6.80600         0.000000      0.021904     -0.011795
      3.04275     10.87066     -1.14804         0.007980      0.022345     -0.022710
      3.05409      9.45483     -6.80638        -0.006579      0.033238     -0.021183
      6.09995     10.87066     -1.14804        -0.007980      0.022345     -0.022710
      6.08862      9.45483     -6.80638         0.006579      0.033238     -0.021183
      1.52245      1.53473     -1.73960        -0.040628      0.090259     -0.017145
      1.58121      0.09899     -7.48428         0.205340     -0.001391     -0.068709
      4.57135      1.49322     -1.78632         0.000000      0.071504      0.021311
      4.57135      0.11835     -7.43832         0.000000      0.109696      0.078173
      7.62025      1.53473     -1.73960         0.040628      0.090259     -0.017145
      7.56149      0.09899     -7.48428        -0.205340     -0.001391     -0.068709
      0.00000      3.25086     -3.85234         0.000000     -0.016151     -0.071318
      0.00000      1.82922     -9.58378         0.000000     -0.067813      0.004261
      3.07123      3.26964     -3.85573        -0.070221     -0.046155     -0.087256
      3.05579      1.87814     -9.56792        -0.088087     -0.008640      0.054537
      6.07147      3.26964     -3.85573         0.070221     -0.046155     -0.087256
      6.08691      1.87814     -9.56792         0.088087     -0.008640      0.054537
      0.00000     -0.02803     -4.32517         0.000000     -0.022706      0.268662
      0.00000     -1.41609    -10.14935         0.000000      0.073198      0.009255
      3.04092      0.02256     -4.50864         0.017470     -0.019352      0.024610
      3.04716     -1.40315    -10.14580         0.015472      0.001898      0.003381
      6.10179      0.02256     -4.50864        -0.017470     -0.019352      0.024610
      6.09554     -1.40315    -10.14580        -0.015472      0.001898      0.003381
      1.52511      4.77084     -1.17429         0.007020     -0.035833      0.011661
      1.47828      3.26209     -6.81350        -0.021545      0.082128     -0.000616
      4.57135      4.75964     -1.16377         0.000000      0.001395     -0.001732
      4.57135      3.33597     -6.81565         0.000000      0.015784     -0.004685
      7.61759      4.77084     -1.17429        -0.007020     -0.035833      0.011661
      7.66443      3.26209     -6.81350         0.021545      0.082128     -0.000616
      1.52093     11.88241     -1.40534         0.000881     -0.204302      0.113528
      1.53450     10.46006     -7.09144         0.022926     -0.218673      0.090285
      4.57135     11.86665     -1.43004         0.000000     -0.169592      0.116268
      4.57135     10.46425     -7.10185         0.000000     -0.213547      0.121257
      7.62177     11.88241     -1.40534        -0.000881     -0.204302      0.113528
      7.60821     10.46006     -7.09144        -0.022926     -0.218673      0.090285
      0.00000      5.17739     -4.17112         0.000000      0.207897     -0.135494
      0.00000      3.75995     -9.91881         0.000000      0.216993     -0.107141
      3.06993      5.19477     -4.17160        -0.005171      0.201667     -0.139573
      3.06849      3.79100     -9.93110        -0.006580      0.206579     -0.097520
      6.07278      5.19477     -4.17160         0.005171      0.201667     -0.139573
      6.07421      3.79100     -9.93110         0.006580      0.206579     -0.097520
      1.52450      7.48711     -3.16972         0.007994      0.006457     -0.110049
      1.52575      6.07533     -8.81667         0.011327     -0.014621     -0.121284
      4.57135      7.51236     -3.16565         0.000000     -0.030095     -0.122144
      4.57135      6.07635     -8.80917         0.000000     -0.023334     -0.141729
      7.61820      7.48711     -3.16972        -0.007994      0.006457     -0.110049
      7.61695      6.07533     -8.81667        -0.011327     -0.014621     -0.121284
      0.00000      9.55752     -2.47405         0.000000      0.015738      0.147552
      0.00000      8.14151     -8.12149         0.000000      0.039461      0.109816
      3.04867      9.55769     -2.47755         0.005405      0.017838      0.124823
      3.04986      8.13177     -8.12734         0.002944      0.060176      0.100398
      6.09403      9.55769     -2.47755        -0.005405      0.017838      0.124823
      6.09284      8.13177     -8.12734        -0.002944      0.060176      0.100398
      0.00000      8.98357     -5.03244         0.000000      0.379364     -0.078026
      0.00000      7.57583    -10.67369         0.000000      0.399602     -0.075310
      3.05745      8.96626     -5.03334        -0.007257      0.395322     -0.084179
      3.05133      7.57702    -10.68197        -0.005592      0.395137     -0.064359
      6.08525      8.96626     -5.03334         0.007257      0.395322     -0.084179
      6.09137      7.57702    -10.68197         0.005592      0.395137     -0.064359
      1.52466      8.07097     -0.61599        -0.002597     -0.399076      0.055038
      1.52789      6.66401     -6.25716        -0.000339     -0.405774      0.074534
      4.57135      8.10231     -0.63442         0.000000     -0.417713      0.081463
      4.57135      6.64703     -6.27558         0.000000     -0.384548      0.094791
      7.61804      8.07097     -0.61599         0.002597     -0.399076      0.055038
      7.61482      6.66401     -6.25716         0.000339     -0.405774      0.074534
      0.00000      5.77196     -1.44891         0.000000     -0.151861      0.114941
      0.00000      4.35907     -7.10274         0.000000     -0.131577      0.095087
      3.05592      5.77014     -1.44409         0.000535     -0.156001      0.111175
      3.02443      4.31477     -7.08510         0.083501     -0.095987      0.083781
      6.08678      5.77014     -1.44409        -0.000535     -0.156001      0.111175
      6.11827      4.31477     -7.08510        -0.083501     -0.095987      0.083781
      1.55322     11.25888     -4.13670        -0.021128      0.125295     -0.102580
      1.52972     -2.41176     -9.85147         0.001089      0.163172     -0.129567
      4.57135     -0.98141     -4.20375         0.000000      0.128378     -0.119143
      4.57135     -2.40406     -9.85964         0.000000      0.158898     -0.114152
      7.58948     11.25888     -4.13670         0.021128      0.125295     -0.102580
      7.61299     -2.41176     -9.85147        -0.001089      0.163172     -0.129567
      0.00000      1.36327     -3.05366         0.000000     -0.052235      0.007858
      0.00000     -0.05638     -8.91250         0.000000     -0.087740     -0.221288
      3.04452      1.34276     -3.16854         0.036752     -0.055389     -0.091202
      3.05756     -0.06906     -8.83693        -0.059687     -0.109262     -0.042364
      6.09819      1.34276     -3.16854        -0.036752     -0.055389     -0.091202
      6.08514     -0.06906     -8.83693         0.059687     -0.109262     -0.042364
      1.53667      3.42401     -2.45155        -0.008467      0.073631      0.149721
      1.59842      2.10225     -8.29336         0.061640      0.047042      0.024441
      4.57135      3.41324     -2.46163         0.000000      0.066492      0.063112
      4.57135      2.02336     -8.16089         0.000000      0.048603      0.087098
      7.60603      3.42401     -2.45155         0.008467      0.073631      0.149721
      7.54428      2.10225     -8.29336        -0.061640      0.047042      0.024441
      1.56870      2.99935     -4.97296         0.047268      0.280035      0.011674
      1.54042      1.44713    -10.73989        -0.013307      0.427535     -0.125788
      4.57135      2.86695     -5.02769         0.000000      0.387044     -0.036931
      4.57135      1.44938    -10.70850         0.000000      0.440507     -0.073253
      7.57400      2.99935     -4.97296        -0.047268      0.280035      0.011674
      7.60228      1.44713    -10.73989         0.013307      0.427535     -0.125788
      0.00000      1.90614     -0.58275         0.000000     -0.422488      0.101802
      3.06136      1.88249     -0.60712        -0.032689     -0.403752      0.075139
      3.10563      0.51953     -6.27347         0.078036     -0.407458      0.062904
      6.08134      1.88249     -0.60712         0.032689     -0.403752      0.075139
      6.03707      0.51953     -6.27347        -0.078036     -0.407458      0.062904
      0.00000      1.08177     -6.20927         0.000000     -0.342113     -0.097687
 -----------------------------------------------------------------------------------
    total drift:                               -0.000027      0.027283     -0.054654


--------------------------------------------------------------------------------------------------------



  FREE ENERGIE OF THE ION-ELECTRON SYSTEM (eV)
  ---------------------------------------------------
  free  energy   TOTEN  =      -946.02395935 eV

  energy  without entropy=     -946.02395935  energy(sigma->0) =     -946.02395935
 


--------------------------------------------------------------------------------------------------------


    POTLOK:  cpu time      1.9328: real time      1.9386


--------------------------------------------------------------------------------------------------------


 writing wavefunctions
     LOOP+:  cpu time  22420.9644: real time  22418.7716
    4ORBIT:  cpu time      0.0000: real time      0.0000

 total amount of memory used by VASP MPI-rank0  7512696. kBytes
=======================================================================

   base      :      30000. kBytes
   nonlr-proj:      47321. kBytes
   fftplans  :      51012. kBytes
   grid      :     102973. kBytes
   one-center:       1866. kBytes
   HF        :        194. kBytes
   wavefun   :    7050060. kBytes
   fock_wrk  :     229270. kBytes
 
  
  
 General timing and accounting informations for this job:
 ========================================================
  
                  Total CPU time used (sec):    22453.934
                            User time (sec):    22440.963
                          System time (sec):       12.970
                         Elapsed time (sec):    22452.810
  
                   Maximum memory used (kb):    13334976.
                   Average memory used (kb):          N/A
  
                          Minor page faults:      2604382
                          Major page faults:            6
                 Voluntary context switches:       411025
