<?xml version="1.0" encoding="ISO-8859-1"?>
<modeling>
 <generator>
  <i name="program" type="string">vasp </i>
  <i name="version" type="string">6.4.2  </i>
  <i name="subversion" type="string">20Jul23 (build Nov 12 2023 22:16:35) complex                          parallel </i>
  <i name="platform" type="string">LinuxNV </i>
  <i name="date" type="string">2025 03 19 </i>
  <i name="time" type="string">16:06:26 </i>
 </generator>
 <incar>
  <i type="int" name="ISTART">     0</i>
  <i type="string" name="PREC">Normal</i>
  <i type="string" name="ALGO">All</i>
  <i type="int" name="ISPIN">     1</i>
  <i type="int" name="ICHARG">     0</i>
  <i type="int" name="NELM">   500</i>
  <i type="int" name="IBRION">    -1</i>
  <i name="EDIFF">      0.00001000</i>
  <i name="EDIFFG">     -0.00500000</i>
  <i type="int" name="NSW">     0</i>
  <i type="int" name="ISIF">     2</i>
  <i name="ENCUT">    450.00000000</i>
  <i name="NELECT">   1056.00000000</i>
  <i type="string" name="LREAL">Auto</i>
  <i type="logical" name="LPLANE"> T  </i>
  <i name="TIME">      0.40000000</i>
  <i type="int" name="ISMEAR">     0</i>
  <i name="SIGMA">      0.05000000</i>
  <i type="logical" name="LWAVE"> T  </i>
  <i type="logical" name="LCHARG"> T  </i>
  <i name="HFSCREEN">      0.20000000</i>
  <i type="logical" name="LHFCALC"> T  </i>
  <i type="int" name="LMAXFOCK">     4</i>
  <i name="AEXX">      0.32000000</i>
  <i type="string" name="PRECFOCK">Fast</i>
 </incar>
 <primitive_cell>
  <structure name="primitive_cell" >
   <crystal>
    <varray name="basis" >
     <v>       0.00000000      12.28047342       0.00000000 </v>
     <v>       9.14270205       0.00000000       0.00000000 </v>
     <v>       0.00000000      -2.76826177     -11.30069772 </v>
    </varray>
    <i name="volume">   1268.80515525 </i>
    <varray name="rec_basis" >
     <v>       0.00000000       0.08143009      -0.01994742 </v>
     <v>       0.10937686      -0.00000000       0.00000000 </v>
     <v>       0.00000000       0.00000000      -0.08849011 </v>
    </varray>
   </crystal>
   <varray name="positions" >
    <v>       0.66049639       0.00000000       0.15639329 </v>
    <v>       0.65643737       0.00000000       0.65542243 </v>
    <v>       0.66067274       0.33341592       0.15689050 </v>
    <v>       0.65437469       0.33256098       0.65609938 </v>
    <v>       0.66067274       0.66658408       0.15689050 </v>
    <v>       0.65437469       0.66743902       0.65609938 </v>
    <v>       0.83925189       0.16750052       0.34319112 </v>
    <v>       0.83790536       0.16712163       0.84208700 </v>
    <v>       0.84254304       0.50000000       0.34262216 </v>
    <v>       0.83837300       0.50000000       0.84182081 </v>
    <v>       0.83925189       0.83249948       0.34319112 </v>
    <v>       0.83790536       0.83287837       0.84208700 </v>
    <v>       0.59015885       0.16723807       0.39739394 </v>
    <v>       0.59024951       0.16666492       0.89819656 </v>
    <v>       0.59478373       0.50000000       0.39766374 </v>
    <v>       0.59473272       0.50000000       0.90052082 </v>
    <v>       0.59015885       0.83276193       0.39739394 </v>
    <v>       0.59024951       0.83333508       0.89819656 </v>
    <v>       0.90768376       0.00000000       0.10056464 </v>
    <v>       0.90754956       0.00000000       0.60226327 </v>
    <v>       0.90809928       0.33280611       0.10159025 </v>
    <v>       0.90567710       0.33404634       0.60229757 </v>
    <v>       0.90809928       0.66719389       0.10159025 </v>
    <v>       0.90567710       0.66595366       0.60229757 </v>
    <v>       0.15967355       0.16652082       0.15393778 </v>
    <v>       0.15735287       0.17294761       0.66228444 </v>
    <v>       0.15722538       0.50000000       0.15807204 </v>
    <v>       0.15801256       0.50000000       0.65821769 </v>
    <v>       0.15967355       0.83347918       0.15393778 </v>
    <v>       0.15735287       0.82705239       0.66228444 </v>
    <v>       0.34156199       0.00000000       0.34089427 </v>
    <v>       0.34012563       0.00000000       0.84806986 </v>
    <v>       0.34315911       0.33592182       0.34119376 </v>
    <v>       0.34379225       0.33423310       0.84666661 </v>
    <v>       0.34315911       0.66407818       0.34119376 </v>
    <v>       0.34379225       0.66576690       0.84666661 </v>
    <v>       0.08399303       0.00000000       0.38273439 </v>
    <v>       0.08714133       0.00000000       0.89811704 </v>
    <v>       0.09177316       0.33260573       0.39897000 </v>
    <v>       0.08812392       0.33328929       0.89780328 </v>
    <v>       0.09177316       0.66739427       0.39897000 </v>
    <v>       0.08812392       0.66671071       0.89780328 </v>
    <v>       0.41191394       0.16681160       0.10391322 </v>
    <v>       0.40154393       0.16168913       0.60292702 </v>
    <v>       0.41079190       0.50000000       0.10298223 </v>
    <v>       0.40760331       0.50000000       0.60311756 </v>
    <v>       0.41191394       0.83318840       0.10391322 </v>
    <v>       0.40154393       0.83831087       0.60292702 </v>
    <v>       0.99561844       0.16635496       0.12435898 </v>
    <v>       0.99321939       0.16783842       0.62752206 </v>
    <v>       0.99482780       0.50000000       0.12654432 </v>
    <v>       0.99376828       0.50000000       0.62844333 </v>
    <v>       0.99561844       0.83364504       0.12435898 </v>
    <v>       0.99321939       0.83216158       0.62752206 </v>
    <v>       0.50479882       0.00000000       0.36910298 </v>
    <v>       0.50402731       0.00000000       0.87771646 </v>
    <v>       0.50622301       0.33577890       0.36914532 </v>
    <v>       0.50680123       0.33562191       0.87880384 </v>
    <v>       0.50622301       0.66422110       0.36914532 </v>
    <v>       0.50680123       0.66437809       0.87880384 </v>
    <v>       0.67290351       0.16674526       0.28048922 </v>
    <v>       0.67058458       0.16688150       0.78018832 </v>
    <v>       0.67487841       0.50000000       0.28012892 </v>
    <v>       0.67051837       0.50000000       0.77952483 </v>
    <v>       0.67290351       0.83325474       0.28048922 </v>
    <v>       0.67058458       0.83311850       0.78018832 </v>
    <v>       0.82762045       0.00000000       0.21892872 </v>
    <v>       0.82496664       0.00000000       0.71867153 </v>
    <v>       0.82770389       0.33345443       0.21923836 </v>
    <v>       0.82429043       0.33358416       0.71918886 </v>
    <v>       0.82770389       0.66654557       0.21923836 </v>
    <v>       0.82429043       0.66641584       0.71918886 </v>
    <v>       0.83191730       0.00000000       0.44532089 </v>
    <v>       0.82981283       0.00000000       0.94451602 </v>
    <v>       0.83052579       0.33441440       0.44540078 </v>
    <v>       0.83007467       0.33374470       0.94524834 </v>
    <v>       0.83052579       0.66558560       0.44540078 </v>
    <v>       0.83007467       0.66625530       0.94524834 </v>
    <v>       0.66950726       0.16676280       0.05450864 </v>
    <v>       0.66746550       0.16711544       0.55369720 </v>
    <v>       0.67242700       0.50000000       0.05613976 </v>
    <v>       0.66645011       0.50000000       0.55532637 </v>
    <v>       0.66950726       0.83323720       0.05450864 </v>
    <v>       0.66746550       0.83288456       0.55369720 </v>
    <v>       0.49891286       0.00000000       0.12821402 </v>
    <v>       0.49664105       0.00000000       0.62852197 </v>
    <v>       0.49866900       0.33424731       0.12778754 </v>
    <v>       0.49268162       0.33080269       0.62696137 </v>
    <v>       0.49866900       0.66575269       0.12778754 </v>
    <v>       0.49268162       0.66919731       0.62696137 </v>
    <v>       0.99932794       0.16988675       0.36605688 </v>
    <v>       0.00012175       0.16731549       0.87175811 </v>
    <v>       0.00393735       0.50000000       0.37199065 </v>
    <v>       0.00091152       0.50000000       0.87248077 </v>
    <v>       0.99932794       0.83011325       0.36605688 </v>
    <v>       0.00012175       0.83268451       0.87175811 </v>
    <v>       0.17192381       0.00000000       0.27021892 </v>
    <v>       0.17319015       0.00000000       0.78866843 </v>
    <v>       0.17254567       0.33299957       0.28038479 </v>
    <v>       0.17065028       0.33442681       0.78198060 </v>
    <v>       0.17254567       0.66700043       0.28038479 </v>
    <v>       0.17065028       0.66557319       0.78198060 </v>
    <v>       0.32771951       0.16807608       0.21693792 </v>
    <v>       0.33661785       0.17483031       0.73388034 </v>
    <v>       0.32704338       0.50000000       0.21782965 </v>
    <v>       0.32755113       0.50000000       0.72215808 </v>
    <v>       0.32771951       0.83192392       0.21693792 </v>
    <v>       0.33661785       0.82516969       0.73388034 </v>
    <v>       0.34343489       0.17157955       0.44005818 </v>
    <v>       0.33207333       0.16848661       0.95037424 </v>
    <v>       0.33374513       0.50000000       0.44490085 </v>
    <v>       0.33162968       0.50000000       0.94759625 </v>
    <v>       0.34343489       0.82842045       0.44005818 </v>
    <v>       0.33207333       0.83151339       0.95037424 </v>
    <v>       0.16684174       0.00000000       0.05156765 </v>
    <v>       0.16540185       0.33484203       0.05372453 </v>
    <v>       0.16744500       0.33968379       0.55514004 </v>
    <v>       0.16540185       0.66515797       0.05372453 </v>
    <v>       0.16744500       0.66031621       0.55514004 </v>
    <v>       0.21194708       0.00000000       0.54945865 </v>
   </varray>
  </structure>
  <varray name="primitive_index" >
   <v type="int" >        1 </v>
   <v type="int" >        2 </v>
   <v type="int" >        3 </v>
   <v type="int" >        4 </v>
   <v type="int" >        5 </v>
   <v type="int" >        6 </v>
   <v type="int" >        7 </v>
   <v type="int" >        8 </v>
   <v type="int" >        9 </v>
   <v type="int" >       10 </v>
   <v type="int" >       11 </v>
   <v type="int" >       12 </v>
   <v type="int" >       13 </v>
   <v type="int" >       14 </v>
   <v type="int" >       15 </v>
   <v type="int" >       16 </v>
   <v type="int" >       17 </v>
   <v type="int" >       18 </v>
   <v type="int" >       19 </v>
   <v type="int" >       20 </v>
   <v type="int" >       21 </v>
   <v type="int" >       22 </v>
   <v type="int" >       23 </v>
   <v type="int" >       24 </v>
   <v type="int" >       25 </v>
   <v type="int" >       26 </v>
   <v type="int" >       27 </v>
   <v type="int" >       28 </v>
   <v type="int" >       29 </v>
   <v type="int" >       30 </v>
   <v type="int" >       31 </v>
   <v type="int" >       32 </v>
   <v type="int" >       33 </v>
   <v type="int" >       34 </v>
   <v type="int" >       35 </v>
   <v type="int" >       36 </v>
   <v type="int" >       37 </v>
   <v type="int" >       38 </v>
   <v type="int" >       39 </v>
   <v type="int" >       40 </v>
   <v type="int" >       41 </v>
   <v type="int" >       42 </v>
   <v type="int" >       43 </v>
   <v type="int" >       44 </v>
   <v type="int" >       45 </v>
   <v type="int" >       46 </v>
   <v type="int" >       47 </v>
   <v type="int" >       48 </v>
   <v type="int" >       49 </v>
   <v type="int" >       50 </v>
   <v type="int" >       51 </v>
   <v type="int" >       52 </v>
   <v type="int" >       53 </v>
   <v type="int" >       54 </v>
   <v type="int" >       55 </v>
   <v type="int" >       56 </v>
   <v type="int" >       57 </v>
   <v type="int" >       58 </v>
   <v type="int" >       59 </v>
   <v type="int" >       60 </v>
   <v type="int" >       61 </v>
   <v type="int" >       62 </v>
   <v type="int" >       63 </v>
   <v type="int" >       64 </v>
   <v type="int" >       65 </v>
   <v type="int" >       66 </v>
   <v type="int" >       67 </v>
   <v type="int" >       68 </v>
   <v type="int" >       69 </v>
   <v type="int" >       70 </v>
   <v type="int" >       71 </v>
   <v type="int" >       72 </v>
   <v type="int" >       73 </v>
   <v type="int" >       74 </v>
   <v type="int" >       75 </v>
   <v type="int" >       76 </v>
   <v type="int" >       77 </v>
   <v type="int" >       78 </v>
   <v type="int" >       79 </v>
   <v type="int" >       80 </v>
   <v type="int" >       81 </v>
   <v type="int" >       82 </v>
   <v type="int" >       83 </v>
   <v type="int" >       84 </v>
   <v type="int" >       85 </v>
   <v type="int" >       86 </v>
   <v type="int" >       87 </v>
   <v type="int" >       88 </v>
   <v type="int" >       89 </v>
   <v type="int" >       90 </v>
   <v type="int" >       91 </v>
   <v type="int" >       92 </v>
   <v type="int" >       93 </v>
   <v type="int" >       94 </v>
   <v type="int" >       95 </v>
   <v type="int" >       96 </v>
   <v type="int" >       97 </v>
   <v type="int" >       98 </v>
   <v type="int" >       99 </v>
   <v type="int" >      100 </v>
   <v type="int" >      101 </v>
   <v type="int" >      102 </v>
   <v type="int" >      103 </v>
   <v type="int" >      104 </v>
   <v type="int" >      105 </v>
   <v type="int" >      106 </v>
   <v type="int" >      107 </v>
   <v type="int" >      108 </v>
   <v type="int" >      109 </v>
   <v type="int" >      110 </v>
   <v type="int" >      111 </v>
   <v type="int" >      112 </v>
   <v type="int" >      113 </v>
   <v type="int" >      114 </v>
   <v type="int" >      115 </v>
   <v type="int" >      116 </v>
   <v type="int" >      117 </v>
   <v type="int" >      118 </v>
   <v type="int" >      119 </v>
   <v type="int" >      120 </v>
  </varray>
 </primitive_cell>
 <kpoints>
  <generation param="Gamma">
   <v type="int" name="divisions">       2        2        2 </v>
   <v name="usershift">      0.00000000       0.00000000       0.00000000 </v>
   <v name="genvec1">      0.50000000       0.00000000       0.00000000 </v>
   <v name="genvec2">      0.00000000       0.50000000       0.00000000 </v>
   <v name="genvec3">      0.00000000       0.00000000       0.50000000 </v>
   <v name="shift">      0.00000000       0.00000000       0.00000000 </v>
  </generation>
  <varray name="kpointlist" >
   <v>       0.00000000       0.00000000       0.00000000 </v>
   <v>       0.50000000       0.00000000       0.00000000 </v>
   <v>       0.00000000       0.50000000       0.00000000 </v>
   <v>       0.50000000       0.50000000       0.00000000 </v>
   <v>       0.00000000       0.00000000       0.50000000 </v>
   <v>       0.50000000       0.00000000       0.50000000 </v>
   <v>       0.00000000       0.50000000       0.50000000 </v>
   <v>       0.50000000       0.50000000       0.50000000 </v>
  </varray>
  <varray name="weights" >
   <v>       0.12500000 </v>
   <v>       0.12500000 </v>
   <v>       0.12500000 </v>
   <v>       0.12500000 </v>
   <v>       0.12500000 </v>
   <v>       0.12500000 </v>
   <v>       0.12500000 </v>
   <v>       0.12500000 </v>
  </varray>
 </kpoints>
 <parameters>
  <separator name="general" >
   <i type="string" name="SYSTEM">unknown system</i>
   <i type="logical" name="LCOMPAT"> F  </i>
  </separator>
  <separator name="electronic" >
   <i type="string" name="PREC">normal</i>
   <i name="ENMAX">    450.00000000</i>
   <i name="ENAUG">    605.39200000</i>
   <i name="EDIFF">      0.00001000</i>
   <i type="int" name="IALGO">    58</i>
   <i type="int" name="IWAVPR">    10</i>
   <i type="int" name="NBANDS">   633</i>
   <i type="int" name="NBANDSLOW">    -1</i>
   <i type="int" name="NBANDSHIGH">    -1</i>
   <i name="NELECT">   1056.00000000</i>
   <i type="int" name="TURBO">     0</i>
   <i type="int" name="IRESTART">     0</i>
   <i type="int" name="NREBOOT">     0</i>
   <i type="int" name="NMIN">     0</i>
   <i name="EREF">      0.00000000</i>
   <separator name="electronic smearing" >
    <i type="int" name="ISMEAR">     0</i>
    <i name="SIGMA">      0.05000000</i>
    <i name="KSPACING">      0.50000000</i>
    <i type="logical" name="KGAMMA"> T  </i>
    <i type="logical" name="KBLOWUP"> T  </i>
   </separator>
   <separator name="electronic projectors" >
    <i type="logical" name="LREAL"> T  </i>
    <v name="ROPT">     -0.00050000     -0.00050000     -0.00050000</v>
    <i type="int" name="LMAXPAW">  -100</i>
    <i type="int" name="LMAXMIX">     2</i>
    <i type="logical" name="NLSPLINE"> F  </i>
   </separator>
   <separator name="electronic startup" >
    <i type="int" name="ISTART">     0</i>
    <i type="int" name="ICHARG">     0</i>
    <i type="int" name="INIWAV">     1</i>
   </separator>
   <separator name="electronic spin" >
    <i type="int" name="ISPIN">     1</i>
    <i type="logical" name="LNONCOLLINEAR"> F  </i>
    <v name="MAGMOM">      1.00000000      1.00000000      1.00000000      1.00000000      1.00000000      1.00000000      1.00000000      1.00000000      1.00000000      1.00000000      1.00000000      1.00000000      1.00000000      1.00000000      1.00000000      1.00000000      1.00000000      1.00000000      1.00000000      1.00000000
      1.00000000      1.00000000      1.00000000      1.00000000      1.00000000      1.00000000      1.00000000      1.00000000      1.00000000      1.00000000      1.00000000      1.00000000      1.00000000      1.00000000      1.00000000      1.00000000      1.00000000      1.00000000      1.00000000      1.00000000
      1.00000000      1.00000000      1.00000000      1.00000000      1.00000000      1.00000000      1.00000000      1.00000000      1.00000000      1.00000000      1.00000000      1.00000000      1.00000000      1.00000000      1.00000000      1.00000000      1.00000000      1.00000000      1.00000000      1.00000000
      1.00000000      1.00000000      1.00000000      1.00000000      1.00000000      1.00000000      1.00000000      1.00000000      1.00000000      1.00000000      1.00000000      1.00000000      1.00000000      1.00000000      1.00000000      1.00000000      1.00000000      1.00000000      1.00000000      1.00000000
      1.00000000      1.00000000      1.00000000      1.00000000      1.00000000      1.00000000      1.00000000      1.00000000      1.00000000      1.00000000      1.00000000      1.00000000      1.00000000      1.00000000      1.00000000      1.00000000      1.00000000      1.00000000      1.00000000      1.00000000
      1.00000000      1.00000000      1.00000000      1.00000000      1.00000000      1.00000000      1.00000000      1.00000000      1.00000000      1.00000000      1.00000000      1.00000000      1.00000000      1.00000000      1.00000000      1.00000000      1.00000000      1.00000000      1.00000000      1.00000000
</v>
    <i name="NUPDOWN">     -1.00000000</i>
    <i type="logical" name="LSORBIT"> F  </i>
    <v name="SAXIS">      0.00000000      0.00000000      1.00000000</v>
    <i type="logical" name="LSPIRAL"> F  </i>
    <v name="QSPIRAL">      0.00000000      0.00000000      0.00000000</v>
    <i type="logical" name="LZEROZ"> F  </i>
   </separator>
   <separator name="electronic exchange-correlation" >
    <i type="logical" name="LASPH"> F  </i>
    <i type="logical" name="LMETAGGA"> F  </i>
   </separator>
   <separator name="electronic convergence" >
    <i type="int" name="NELM">   500</i>
    <i type="int" name="NELMDL">    -5</i>
    <i type="int" name="NELMIN">     2</i>
    <i name="ENINI">    450.00000000</i>
    <separator name="electronic convergence detail" >
     <i type="logical" name="LDIAG"> T  </i>
     <i type="logical" name="LSUBROT"> F  </i>
     <i name="WEIMIN">      0.00000000</i>
     <i name="EBREAK">      0.00000000</i>
     <i name="DEPER">      0.30000000</i>
     <i type="int" name="NRMM">     4</i>
     <i name="TIME">      0.40000000</i>
    </separator>
   </separator>
   <separator name="electronic mixer" >
    <i name="AMIX">      0.40000000</i>
    <i name="BMIX">      1.00000000</i>
    <i name="AMIN">      0.10000000</i>
    <i name="AMIX_MAG">      1.60000000</i>
    <i name="BMIX_MAG">      1.00000000</i>
    <separator name="electronic mixer details" >
     <i type="int" name="IMIX">     4</i>
     <i type="logical" name="MIXFIRST"> F  </i>
     <i type="int" name="MAXMIX">   -45</i>
     <i name="WC">    100.00000000</i>
     <i type="int" name="INIMIX">     1</i>
     <i type="int" name="MIXPRE">     1</i>
     <i type="int" name="MREMOVE">     5</i>
    </separator>
   </separator>
   <separator name="electronic dipolcorrection" >
    <i type="logical" name="LDIPOL"> F  </i>
    <i type="logical" name="LMONO"> F  </i>
    <i type="int" name="IDIPOL">     0</i>
    <i name="EPSILON">      1.00000000</i>
    <v name="DIPOL">   -100.00000000   -100.00000000   -100.00000000</v>
    <i name="EFIELD">      0.00000000</i>
   </separator>
  </separator>
  <separator name="grids" >
   <i type="int" name="NGX">    64</i>
   <i type="int" name="NGY">    48</i>
   <i type="int" name="NGZ">    60</i>
   <i type="int" name="NGXF">   128</i>
   <i type="int" name="NGYF">    96</i>
   <i type="int" name="NGZF">   120</i>
   <i type="logical" name="ADDGRID"> F  </i>
  </separator>
  <separator name="ionic" >
   <i type="int" name="NSW">     0</i>
   <i type="int" name="IBRION">    -1</i>
   <i type="int" name="MDALGO">     0</i>
   <i type="int" name="ISIF">     2</i>
   <i name="PSTRESS">      0.00000000</i>
   <i name="EDIFFG">     -0.00500000</i>
   <i type="int" name="NFREE">     0</i>
   <i name="POTIM">      0.50000000</i>
   <i name="SMASS">     -3.00000000</i>
   <i name="SCALEE">      1.00000000</i>
  </separator>
  <separator name="ionic md" >
   <i name="TEBEG">      0.00010000</i>
   <i name="TEEND">      0.00010000</i>
   <i type="int" name="NBLOCK">     1</i>
   <i type="int" name="KBLOCK">     1</i>
   <i type="int" name="NPACO">   256</i>
   <i name="APACO">     10.00000000</i>
  </separator>
  <separator name="symmetry" >
   <i type="int" name="ISYM">     3</i>
   <i name="SYMPREC">      0.00001000</i>
  </separator>
  <separator name="dos" >
   <i type="int" name="LORBIT">     0</i>
   <v name="RWIGS">     -1.00000000     -1.00000000     -1.00000000</v>
   <i type="int" name="NEDOS">   301</i>
   <i name="EMIN">     10.00000000</i>
   <i name="EMAX">    -10.00000000</i>
   <i name="EFERMI">      0.00000000</i>
  </separator>
  <separator name="writing" >
   <i type="int" name="NWRITE">     2</i>
   <i type="logical" name="LWAVE"> T  </i>
   <i type="logical" name="LDOWNSAMPLE"> F  </i>
   <i type="logical" name="LCHARG"> T  </i>
   <i type="logical" name="LPARD"> F  </i>
   <i type="logical" name="LVTOT"> F  </i>
   <i type="logical" name="LVHAR"> F  </i>
   <i type="logical" name="LELF"> F  </i>
   <i type="logical" name="LOPTICS"> F  </i>
   <v name="STM">      0.00000000      0.00000000      0.00000000      0.00000000      0.00000000      0.00000000      0.00000000</v>
  </separator>
  <separator name="performance" >
   <i type="int" name="NPAR">     1</i>
   <i type="int" name="NSIM">     4</i>
   <i type="int" name="NBLK">    -1</i>
   <i type="logical" name="LPLANE"> T  </i>
   <i type="logical" name="LSCALAPACK"> T  </i>
   <i type="logical" name="LSCAAWARE"> F  </i>
   <i type="logical" name="LSCALU"> F  </i>
   <i type="logical" name="LASYNC"> F  </i>
   <i type="logical" name="LORBITALREAL"> F  </i>
  </separator>
  <separator name="miscellaneous" >
   <i type="int" name="IDIOT">     3</i>
   <i type="int" name="PHON_NSTRUCT">    -1</i>
   <i type="logical" name="LMUSIC"> F  </i>
   <v name="POMASS">     69.72300000     16.00000000     30.97400000</v>
   <v name="DARWINR">      0.00000000      0.00000000      0.00000000</v>
   <v name="DARWINV">      1.00000000      1.00000000      1.00000000</v>
   <i type="logical" name="LCORR"> T  </i>
  </separator>
  <i type="logical" name="GGA_COMPAT"> T  </i>
  <i type="logical" name="LBERRY"> F  </i>
  <i type="int" name="ICORELEVEL">     0</i>
  <i type="logical" name="LDAU"> F  </i>
  <i type="int" name="I_CONSTRAINED_M">     0</i>
  <separator name="electronic exchange-correlation" >
   <i type="string" name="GGA">--</i>
   <i type="int" name="VOSKOWN">     0</i>
   <i type="logical" name="LHFCALC"> T  </i>
   <i type="string" name="PRECFOCK">fast</i>
   <i type="logical" name="LSYMGRAD"> F  </i>
   <i type="logical" name="LHFONE"> F  </i>
   <i type="logical" name="LRHFCALC"> F  </i>
   <i type="logical" name="LTHOMAS"> F  </i>
   <i type="logical" name="LMODELHF"> F  </i>
   <i type="logical" name="LFOCKACE"> T  </i>
   <i name="ENCUT4O">     -1.00000000</i>
   <i type="int" name="EXXOEP">     0</i>
   <i type="int" name="FOURORBIT">     0</i>
   <i name="AEXX">      0.32000000</i>
   <i name="HFALPHA">     -1.00000000</i>
   <i name="MCALPHA">      0.00000000</i>
   <i name="ALDAX">      0.68000000</i>
   <i name="AGGAX">      0.68000000</i>
   <i name="ALDAC">      1.00000000</i>
   <i name="AGGAC">      1.00000000</i>
   <i type="int" name="NKREDX">     1</i>
   <i type="int" name="NKREDY">     1</i>
   <i type="int" name="NKREDZ">     1</i>
   <i type="logical" name="SHIFTRED"> F  </i>
   <i type="logical" name="ODDONLY"> F  </i>
   <i type="logical" name="EVENONLY"> F  </i>
   <i type="int" name="LMAXFOCK">     4</i>
   <i type="int" name="NMAXFOCKAE">     1</i>
   <i type="logical" name="LFOCKAEDFT"> F  </i>
   <i name="HFSCREEN">      0.20000000</i>
   <i name="HFSCREENC">      0.20000000</i>
   <i type="int" name="NBANDSGWLOW">     1</i>
  </separator>
  <separator name="vdW DFT" >
   <i type="logical" name="LUSE_VDW"> F  </i>
   <i type="int" name="IVDW_NL">     1</i>
   <i type="logical" name="LSPIN_VDW"> F  </i>
   <i name="Zab_VDW">     -0.84910000</i>
   <i name="PARAM1">      0.12340000</i>
   <i name="PARAM2">      1.00000000</i>
   <i name="PARAM3">      0.00000000</i>
  </separator>
  <separator name="model GW" >
   <i type="int" name="MODEL_GW">     0</i>
   <i name="MODEL_EPS0">      6.34402578</i>
   <i name="MODEL_ALPHA">      1.00000000</i>
  </separator>
  <separator name="linear response parameters" >
   <i type="logical" name="LEPSILON"> F  </i>
   <i type="logical" name="LRPA"> F  </i>
   <i type="logical" name="LNABLA"> F  </i>
   <i type="logical" name="LVEL"> F  </i>
   <i name="CSHIFT">      0.10000000</i>
   <i name="OMEGAMAX">     -1.00000000</i>
   <i name="DEG_THRESHOLD">      0.00200000</i>
   <i name="RTIME">     -0.10000000</i>
   <i name="WPLASMAI">      0.00000000</i>
   <v name="DFIELD">      0.00000000      0.00000000      0.00000000</v>
   <v name="WPLASMA">      0.00000000      0.00000000      0.00000000      0.00000000      0.00000000      0.00000000      0.00000000      0.00000000      0.00000000</v>
  </separator>
  <separator name="orbital magnetization" >
   <i type="logical" name="NUCIND"> F  </i>
   <v name="MAGPOS">      0.00000000      0.00000000      0.00000000</v>
   <i type="logical" name="LNICSALL"> T  </i>
   <i type="logical" name="ORBITALMAG"> F  </i>
   <i type="logical" name="LMAGBLOCH"> F  </i>
   <i type="logical" name="LCHIMAG"> F  </i>
   <i type="logical" name="LGAUGE"> T  </i>
   <i type="int" name="MAGATOM">     0</i>
   <v name="MAGDIPOL">      0.00000000      0.00000000      0.00000000</v>
   <v name="AVECCONST">      0.00000000      0.00000000      0.00000000</v>
  </separator>
  <separator name="response functions" >
   <i type="logical" name="LALL_IN_ONE"> F  </i>
   <i type="int" name="IALL_IN_ONE">    -1</i>
   <i type="int" name="NBANDS_WAVE">    -1</i>
   <i type="logical" name="LFINITE_TEMPERATURE"> F  </i>
   <i type="logical" name="LADDER"> F  </i>
   <i type="logical" name="LRPAFORCE"> F  </i>
   <i type="logical" name="LFXC"> F  </i>
   <i type="logical" name="LHARTREE"> T  </i>
   <i type="int" name="IBSE">     0</i>
   <v type="int" name="KPOINT">    -1     0     0     0</v>
   <i type="logical" name="LTCTC"> F  </i>
   <i type="logical" name="LTCTE"> F  </i>
   <i type="logical" name="LTETE"> F  </i>
   <i type="logical" name="LTRIPLET"> F  </i>
   <i type="logical" name="LFXCEPS"> F  </i>
   <i type="logical" name="LFXHEG"> F  </i>
   <i type="int" name="NATURALO">     2</i>
   <i type="logical" name="LHOLEGF"> F  </i>
   <i type="logical" name="L2ORDER"> F  </i>
   <i type="logical" name="LDMP1"> F  </i>
   <i type="logical" name="LMP2LT"> F  </i>
   <i type="logical" name="LSMP2LT"> F  </i>
   <i type="logical" name="LGWLF"> F  </i>
   <i name="ENCUTGW">     -1.60000002</i>
   <i name="ENCUTGWSOFT">     -1.60000002</i>
   <i name="ENCUTLF">     -1.00000000</i>
   <i type="logical" name="LESF_SPLINES"> F  </i>
   <i type="int" name="LMAXMP2">    -1</i>
   <i name="SCISSOR">      0.00000000</i>
   <i type="int" name="NOMEGA">     0</i>
   <i type="int" name="NOMEGAR">     0</i>
   <i type="int" name="NBANDSGW">    -1</i>
   <i type="int" name="NBANDSO">    -1</i>
   <i type="int" name="NBANDSV">    -1</i>
   <i type="int" name="NELMGW">     1</i>
   <i type="int" name="NELMHF">     1</i>
   <i type="int" name="DIM">     3</i>
   <i type="int" name="IESPILON">     4</i>
   <i type="int" name="ANTIRES">     0</i>
   <i name="OMEGAMAX">    -30.00000000</i>
   <i name="OMEGAMIN">    -30.00000000</i>
   <i name="OMEGATL">   -200.00000000</i>
   <i type="int" name="OMEGAGRID">     0</i>
   <i name="CSHIFT">     -0.10000000</i>
   <i type="logical" name="LSELFENERGY"> F  </i>
   <i type="logical" name="LSPECTRAL"> F  </i>
   <i type="logical" name="LSPECTRALGW"> F  </i>
   <i type="logical" name="LSINGLES"> F  </i>
   <i type="logical" name="LFERMIGW"> F  </i>
   <i type="logical" name="ODDONLYGW"> F  </i>
   <i type="logical" name="EVENONLYGW"> F  </i>
   <i type="int" name="NKREDLFX">     1</i>
   <i type="int" name="NKREDLFY">     1</i>
   <i type="int" name="NKREDLFZ">     1</i>
   <i type="int" name="MAXMEM">  2800</i>
   <i type="int" name="TELESCOPE">     0</i>
   <i type="int" name="NTAUPAR">    -1</i>
   <i type="int" name="NOMEGAPAR">    -1</i>
   <i name="DAMP_NEWTON">      0.80000001</i>
   <i name="LAMBDA">      1.00000000</i>
  </separator>
  <separator name="External order field" >
   <i name="OFIELD_KAPPA">      0.00000000</i>
   <v name="OFIELD_K">      0.00000000      0.00000000      0.00000000</v>
   <i name="OFIELD_Q6_NEAR">      0.00000000</i>
   <i name="OFIELD_Q6_FAR">      0.00000000</i>
   <i name="OFIELD_A">      0.00000000</i>
  </separator>
  <separator name="optional k-points parameters" >
   <i type="int" name="KPOINTS_OPT_MODE">     1</i>
   <i type="logical" name="LKPOINTS_OPT"> F  </i>
  </separator>
 </parameters>
 <atominfo>
  <atoms>     120 </atoms>
  <types>       3 </types>
  <array name="atoms" >
   <dimension dim="1">ion</dimension>
   <field type="string">element</field>
   <field type="int">atomtype</field>
   <set>
    <rc><c>Ga</c><c>   1</c></rc>
    <rc><c>Ga</c><c>   1</c></rc>
    <rc><c>Ga</c><c>   1</c></rc>
    <rc><c>Ga</c><c>   1</c></rc>
    <rc><c>Ga</c><c>   1</c></rc>
    <rc><c>Ga</c><c>   1</c></rc>
    <rc><c>Ga</c><c>   1</c></rc>
    <rc><c>Ga</c><c>   1</c></rc>
    <rc><c>Ga</c><c>   1</c></rc>
    <rc><c>Ga</c><c>   1</c></rc>
    <rc><c>Ga</c><c>   1</c></rc>
    <rc><c>Ga</c><c>   1</c></rc>
    <rc><c>Ga</c><c>   1</c></rc>
    <rc><c>Ga</c><c>   1</c></rc>
    <rc><c>Ga</c><c>   1</c></rc>
    <rc><c>Ga</c><c>   1</c></rc>
    <rc><c>Ga</c><c>   1</c></rc>
    <rc><c>Ga</c><c>   1</c></rc>
    <rc><c>Ga</c><c>   1</c></rc>
    <rc><c>Ga</c><c>   1</c></rc>
    <rc><c>Ga</c><c>   1</c></rc>
    <rc><c>Ga</c><c>   1</c></rc>
    <rc><c>Ga</c><c>   1</c></rc>
    <rc><c>Ga</c><c>   1</c></rc>
    <rc><c>Ga</c><c>   1</c></rc>
    <rc><c>Ga</c><c>   1</c></rc>
    <rc><c>Ga</c><c>   1</c></rc>
    <rc><c>Ga</c><c>   1</c></rc>
    <rc><c>Ga</c><c>   1</c></rc>
    <rc><c>Ga</c><c>   1</c></rc>
    <rc><c>Ga</c><c>   1</c></rc>
    <rc><c>Ga</c><c>   1</c></rc>
    <rc><c>Ga</c><c>   1</c></rc>
    <rc><c>Ga</c><c>   1</c></rc>
    <rc><c>Ga</c><c>   1</c></rc>
    <rc><c>Ga</c><c>   1</c></rc>
    <rc><c>Ga</c><c>   1</c></rc>
    <rc><c>Ga</c><c>   1</c></rc>
    <rc><c>Ga</c><c>   1</c></rc>
    <rc><c>Ga</c><c>   1</c></rc>
    <rc><c>Ga</c><c>   1</c></rc>
    <rc><c>Ga</c><c>   1</c></rc>
    <rc><c>Ga</c><c>   1</c></rc>
    <rc><c>Ga</c><c>   1</c></rc>
    <rc><c>Ga</c><c>   1</c></rc>
    <rc><c>Ga</c><c>   1</c></rc>
    <rc><c>Ga</c><c>   1</c></rc>
    <rc><c>Ga</c><c>   1</c></rc>
    <rc><c>O </c><c>   2</c></rc>
    <rc><c>O </c><c>   2</c></rc>
    <rc><c>O </c><c>   2</c></rc>
    <rc><c>O </c><c>   2</c></rc>
    <rc><c>O </c><c>   2</c></rc>
    <rc><c>O </c><c>   2</c></rc>
    <rc><c>O </c><c>   2</c></rc>
    <rc><c>O </c><c>   2</c></rc>
    <rc><c>O </c><c>   2</c></rc>
    <rc><c>O </c><c>   2</c></rc>
    <rc><c>O </c><c>   2</c></rc>
    <rc><c>O </c><c>   2</c></rc>
    <rc><c>O </c><c>   2</c></rc>
    <rc><c>O </c><c>   2</c></rc>
    <rc><c>O </c><c>   2</c></rc>
    <rc><c>O </c><c>   2</c></rc>
    <rc><c>O </c><c>   2</c></rc>
    <rc><c>O </c><c>   2</c></rc>
    <rc><c>O </c><c>   2</c></rc>
    <rc><c>O </c><c>   2</c></rc>
    <rc><c>O </c><c>   2</c></rc>
    <rc><c>O </c><c>   2</c></rc>
    <rc><c>O </c><c>   2</c></rc>
    <rc><c>O </c><c>   2</c></rc>
    <rc><c>O </c><c>   2</c></rc>
    <rc><c>O </c><c>   2</c></rc>
    <rc><c>O </c><c>   2</c></rc>
    <rc><c>O </c><c>   2</c></rc>
    <rc><c>O </c><c>   2</c></rc>
    <rc><c>O </c><c>   2</c></rc>
    <rc><c>O </c><c>   2</c></rc>
    <rc><c>O </c><c>   2</c></rc>
    <rc><c>O </c><c>   2</c></rc>
    <rc><c>O </c><c>   2</c></rc>
    <rc><c>O </c><c>   2</c></rc>
    <rc><c>O </c><c>   2</c></rc>
    <rc><c>O </c><c>   2</c></rc>
    <rc><c>O </c><c>   2</c></rc>
    <rc><c>O </c><c>   2</c></rc>
    <rc><c>O </c><c>   2</c></rc>
    <rc><c>O </c><c>   2</c></rc>
    <rc><c>O </c><c>   2</c></rc>
    <rc><c>O </c><c>   2</c></rc>
    <rc><c>O </c><c>   2</c></rc>
    <rc><c>O </c><c>   2</c></rc>
    <rc><c>O </c><c>   2</c></rc>
    <rc><c>O </c><c>   2</c></rc>
    <rc><c>O </c><c>   2</c></rc>
    <rc><c>O </c><c>   2</c></rc>
    <rc><c>O </c><c>   2</c></rc>
    <rc><c>O </c><c>   2</c></rc>
    <rc><c>O </c><c>   2</c></rc>
    <rc><c>O </c><c>   2</c></rc>
    <rc><c>O </c><c>   2</c></rc>
    <rc><c>O </c><c>   2</c></rc>
    <rc><c>O </c><c>   2</c></rc>
    <rc><c>O </c><c>   2</c></rc>
    <rc><c>O </c><c>   2</c></rc>
    <rc><c>O </c><c>   2</c></rc>
    <rc><c>O </c><c>   2</c></rc>
    <rc><c>O </c><c>   2</c></rc>
    <rc><c>O </c><c>   2</c></rc>
    <rc><c>O </c><c>   2</c></rc>
    <rc><c>O </c><c>   2</c></rc>
    <rc><c>O </c><c>   2</c></rc>
    <rc><c>O </c><c>   2</c></rc>
    <rc><c>O </c><c>   2</c></rc>
    <rc><c>O </c><c>   2</c></rc>
    <rc><c>O </c><c>   2</c></rc>
    <rc><c>O </c><c>   2</c></rc>
    <rc><c>O </c><c>   2</c></rc>
    <rc><c>P </c><c>   3</c></rc>
   </set>
  </array>
  <array name="atomtypes" >
   <dimension dim="1">type</dimension>
   <field type="int">atomspertype</field>
   <field type="string">element</field>
   <field>mass</field>
   <field>valence</field>
   <field type="string">pseudopotential</field>
   <set>
    <rc><c>  48</c><c>Ga</c><c>     69.72300000</c><c>     13.00000000</c><c>  PAW_PBE Ga_d 06Jul2010                </c></rc>
    <rc><c>  71</c><c>O </c><c>     16.00000000</c><c>      6.00000000</c><c>   PAW_PBE O 08Apr2002                  </c></rc>
    <rc><c>   1</c><c>P </c><c>     30.97400000</c><c>      5.00000000</c><c>  PAW_PBE P 06Sep2000                   </c></rc>
   </set>
  </array>
 </atominfo>
 <structure name="initialpos" >
  <crystal>
   <varray name="basis" >
    <v>       0.00000000      12.28047342       0.00000000 </v>
    <v>       9.14270205       0.00000000       0.00000000 </v>
    <v>       0.00000000      -2.76826177     -11.30069772 </v>
   </varray>
   <i name="volume">   1268.80515525 </i>
   <varray name="rec_basis" >
    <v>       0.00000000       0.08143009      -0.01994742 </v>
    <v>       0.10937686      -0.00000000       0.00000000 </v>
    <v>       0.00000000       0.00000000      -0.08849011 </v>
   </varray>
  </crystal>
  <varray name="positions" >
   <v>       0.66049639       0.00000000       0.15639329 </v>
   <v>       0.65643737       0.00000000       0.65542243 </v>
   <v>       0.66067274       0.33341592       0.15689050 </v>
   <v>       0.65437469       0.33256098       0.65609938 </v>
   <v>       0.66067274       0.66658408       0.15689050 </v>
   <v>       0.65437469       0.66743902       0.65609938 </v>
   <v>       0.83925189       0.16750052       0.34319112 </v>
   <v>       0.83790536       0.16712163       0.84208700 </v>
   <v>       0.84254304       0.50000000       0.34262216 </v>
   <v>       0.83837300       0.50000000       0.84182081 </v>
   <v>       0.83925189       0.83249948       0.34319112 </v>
   <v>       0.83790536       0.83287837       0.84208700 </v>
   <v>       0.59015885       0.16723807       0.39739394 </v>
   <v>       0.59024951       0.16666492       0.89819656 </v>
   <v>       0.59478373       0.50000000       0.39766374 </v>
   <v>       0.59473272       0.50000000       0.90052082 </v>
   <v>       0.59015885       0.83276193       0.39739394 </v>
   <v>       0.59024951       0.83333508       0.89819656 </v>
   <v>       0.90768376       0.00000000       0.10056464 </v>
   <v>       0.90754956       0.00000000       0.60226327 </v>
   <v>       0.90809928       0.33280611       0.10159025 </v>
   <v>       0.90567710       0.33404634       0.60229757 </v>
   <v>       0.90809928       0.66719389       0.10159025 </v>
   <v>       0.90567710       0.66595366       0.60229757 </v>
   <v>       0.15967355       0.16652082       0.15393778 </v>
   <v>       0.15735287       0.17294761       0.66228444 </v>
   <v>       0.15722538       0.50000000       0.15807204 </v>
   <v>       0.15801256       0.50000000       0.65821769 </v>
   <v>       0.15967355       0.83347918       0.15393778 </v>
   <v>       0.15735287       0.82705239       0.66228444 </v>
   <v>       0.34156199       0.00000000       0.34089427 </v>
   <v>       0.34012563       0.00000000       0.84806986 </v>
   <v>       0.34315911       0.33592182       0.34119376 </v>
   <v>       0.34379225       0.33423310       0.84666661 </v>
   <v>       0.34315911       0.66407818       0.34119376 </v>
   <v>       0.34379225       0.66576690       0.84666661 </v>
   <v>       0.08399303       0.00000000       0.38273439 </v>
   <v>       0.08714133       0.00000000       0.89811704 </v>
   <v>       0.09177316       0.33260573       0.39897000 </v>
   <v>       0.08812392       0.33328929       0.89780328 </v>
   <v>       0.09177316       0.66739427       0.39897000 </v>
   <v>       0.08812392       0.66671071       0.89780328 </v>
   <v>       0.41191394       0.16681160       0.10391322 </v>
   <v>       0.40154393       0.16168913       0.60292702 </v>
   <v>       0.41079190       0.50000000       0.10298223 </v>
   <v>       0.40760331       0.50000000       0.60311756 </v>
   <v>       0.41191394       0.83318840       0.10391322 </v>
   <v>       0.40154393       0.83831087       0.60292702 </v>
   <v>       0.99561844       0.16635496       0.12435898 </v>
   <v>       0.99321939       0.16783842       0.62752206 </v>
   <v>       0.99482780       0.50000000       0.12654432 </v>
   <v>       0.99376828       0.50000000       0.62844333 </v>
   <v>       0.99561844       0.83364504       0.12435898 </v>
   <v>       0.99321939       0.83216158       0.62752206 </v>
   <v>       0.50479882       0.00000000       0.36910298 </v>
   <v>       0.50402731       0.00000000       0.87771646 </v>
   <v>       0.50622301       0.33577890       0.36914532 </v>
   <v>       0.50680123       0.33562191       0.87880384 </v>
   <v>       0.50622301       0.66422110       0.36914532 </v>
   <v>       0.50680123       0.66437809       0.87880384 </v>
   <v>       0.67290351       0.16674526       0.28048922 </v>
   <v>       0.67058458       0.16688150       0.78018832 </v>
   <v>       0.67487841       0.50000000       0.28012892 </v>
   <v>       0.67051837       0.50000000       0.77952483 </v>
   <v>       0.67290351       0.83325474       0.28048922 </v>
   <v>       0.67058458       0.83311850       0.78018832 </v>
   <v>       0.82762045       0.00000000       0.21892872 </v>
   <v>       0.82496664       0.00000000       0.71867153 </v>
   <v>       0.82770389       0.33345443       0.21923836 </v>
   <v>       0.82429043       0.33358416       0.71918886 </v>
   <v>       0.82770389       0.66654557       0.21923836 </v>
   <v>       0.82429043       0.66641584       0.71918886 </v>
   <v>       0.83191730       0.00000000       0.44532089 </v>
   <v>       0.82981283       0.00000000       0.94451602 </v>
   <v>       0.83052579       0.33441440       0.44540078 </v>
   <v>       0.83007467       0.33374470       0.94524834 </v>
   <v>       0.83052579       0.66558560       0.44540078 </v>
   <v>       0.83007467       0.66625530       0.94524834 </v>
   <v>       0.66950726       0.16676280       0.05450864 </v>
   <v>       0.66746550       0.16711544       0.55369720 </v>
   <v>       0.67242700       0.50000000       0.05613976 </v>
   <v>       0.66645011       0.50000000       0.55532637 </v>
   <v>       0.66950726       0.83323720       0.05450864 </v>
   <v>       0.66746550       0.83288456       0.55369720 </v>
   <v>       0.49891286       0.00000000       0.12821402 </v>
   <v>       0.49664105       0.00000000       0.62852197 </v>
   <v>       0.49866900       0.33424731       0.12778754 </v>
   <v>       0.49268162       0.33080269       0.62696137 </v>
   <v>       0.49866900       0.66575269       0.12778754 </v>
   <v>       0.49268162       0.66919731       0.62696137 </v>
   <v>       0.99932794       0.16988675       0.36605688 </v>
   <v>       0.00012175       0.16731549       0.87175811 </v>
   <v>       0.00393735       0.50000000       0.37199065 </v>
   <v>       0.00091152       0.50000000       0.87248077 </v>
   <v>       0.99932794       0.83011325       0.36605688 </v>
   <v>       0.00012175       0.83268451       0.87175811 </v>
   <v>       0.17192381       0.00000000       0.27021892 </v>
   <v>       0.17319015       0.00000000       0.78866843 </v>
   <v>       0.17254567       0.33299957       0.28038479 </v>
   <v>       0.17065028       0.33442681       0.78198060 </v>
   <v>       0.17254567       0.66700043       0.28038479 </v>
   <v>       0.17065028       0.66557319       0.78198060 </v>
   <v>       0.32771951       0.16807608       0.21693792 </v>
   <v>       0.33661785       0.17483031       0.73388034 </v>
   <v>       0.32704338       0.50000000       0.21782965 </v>
   <v>       0.32755113       0.50000000       0.72215808 </v>
   <v>       0.32771951       0.83192392       0.21693792 </v>
   <v>       0.33661785       0.82516969       0.73388034 </v>
   <v>       0.34343489       0.17157955       0.44005818 </v>
   <v>       0.33207333       0.16848661       0.95037424 </v>
   <v>       0.33374513       0.50000000       0.44490085 </v>
   <v>       0.33162968       0.50000000       0.94759625 </v>
   <v>       0.34343489       0.82842045       0.44005818 </v>
   <v>       0.33207333       0.83151339       0.95037424 </v>
   <v>       0.16684174       0.00000000       0.05156765 </v>
   <v>       0.16540185       0.33484203       0.05372453 </v>
   <v>       0.16744500       0.33968379       0.55514004 </v>
   <v>       0.16540185       0.66515797       0.05372453 </v>
   <v>       0.16744500       0.66031621       0.55514004 </v>
   <v>       0.21194708       0.00000000       0.54945865 </v>
  </varray>
 </structure>
 <calculation>
  <scstep>
   <time name="total">    4.02    4.04</time>
   <energy>
    <i name="alphaZ">   5529.70323211 </i>
    <i name="ewald"> -88683.86560705 </i>
    <i name="hartreedc">  -2119.95244232 </i>
    <i name="XCdc">   2796.62679937 </i>
    <i name="pawpsdc"> 343096.95847695 </i>
    <i name="pawaedc">-372437.29055634 </i>
    <i name="eentropy">     -0.00791088 </i>
    <i name="bandstr"> -40444.62645848 </i>
    <i name="atom"> 133646.93285989 </i>
    <i name="e_fr_energy"> -18615.52160674 </i>
    <i name="e_wo_entrp"> -18615.51369586 </i>
    <i name="e_0_energy"> -18615.51765130 </i>
   </energy>
  </scstep>
  <scstep>
   <time name="total">    3.21    3.21</time>
   <energy>
    <i name="e_fr_energy"> -63039.40056870 </i>
    <i name="e_wo_entrp"> -63039.38243179 </i>
    <i name="e_0_energy"> -63039.39150024 </i>
   </energy>
  </scstep>
  <scstep>
   <time name="total">    3.36    3.36</time>
   <energy>
    <i name="e_fr_energy"> -67772.37494050 </i>
    <i name="e_wo_entrp"> -67772.35034696 </i>
    <i name="e_0_energy"> -67772.36264373 </i>
   </energy>
  </scstep>
  <scstep>
   <time name="total">    3.80    3.80</time>
   <energy>
    <i name="e_fr_energy"> -68375.99638987 </i>
    <i name="e_wo_entrp"> -68375.94492200 </i>
    <i name="e_0_energy"> -68375.97065593 </i>
   </energy>
  </scstep>
  <scstep>
   <time name="total">  438.78  438.73</time>
   <energy>
    <i name="e_fr_energy"> -38164.68748037 </i>
    <i name="e_wo_entrp"> -38164.68704518 </i>
    <i name="e_0_energy"> -38164.68726277 </i>
   </energy>
  </scstep>
  <scstep>
   <time name="total"> 1278.07 1278.22</time>
   <energy>
    <i name="e_fr_energy">  22704.10083033 </i>
    <i name="e_wo_entrp">  22704.11959821 </i>
    <i name="e_0_energy">  22704.11021427 </i>
   </energy>
  </scstep>
  <scstep>
   <time name="total"> 1265.57 1265.41</time>
   <energy>
    <i name="e_fr_energy">   5228.61231687 </i>
    <i name="e_wo_entrp">   5228.65239161 </i>
    <i name="e_0_energy">   5228.63235424 </i>
   </energy>
  </scstep>
  <scstep>
   <time name="total"> 1259.42 1259.26</time>
   <energy>
    <i name="e_fr_energy">   2309.04076915 </i>
    <i name="e_wo_entrp">   2309.09309401 </i>
    <i name="e_0_energy">   2309.06693158 </i>
   </energy>
  </scstep>
  <scstep>
   <time name="total"> 1260.19 1260.02</time>
   <energy>
    <i name="e_fr_energy">   1267.54115717 </i>
    <i name="e_wo_entrp">   1267.57845347 </i>
    <i name="e_0_energy">   1267.55980532 </i>
   </energy>
  </scstep>
  <scstep>
   <time name="total"> 1255.84 1255.67</time>
   <energy>
    <i name="e_fr_energy">    520.36950770 </i>
    <i name="e_wo_entrp">    520.37903431 </i>
    <i name="e_0_energy">    520.37427100 </i>
   </energy>
  </scstep>
  <scstep>
   <time name="total"> 1255.37 1255.20</time>
   <energy>
    <i name="e_fr_energy">    -99.28572786 </i>
    <i name="e_wo_entrp">    -99.25992866 </i>
    <i name="e_0_energy">    -99.27282826 </i>
   </energy>
  </scstep>
  <scstep>
   <time name="total"> 1259.15 1258.98</time>
   <energy>
    <i name="e_fr_energy">   -510.10056471 </i>
    <i name="e_wo_entrp">   -510.08612122 </i>
    <i name="e_0_energy">   -510.09334296 </i>
   </energy>
  </scstep>
  <scstep>
   <time name="total"> 1039.01 1038.88</time>
   <energy>
    <i name="e_fr_energy">   -648.25792370 </i>
    <i name="e_wo_entrp">   -648.24905696 </i>
    <i name="e_0_energy">   -648.25349033 </i>
   </energy>
  </scstep>
  <scstep>
   <time name="total">  470.41  470.35</time>
   <energy>
    <i name="e_fr_energy">   -804.34701787 </i>
    <i name="e_wo_entrp">   -804.34524224 </i>
    <i name="e_0_energy">   -804.34613006 </i>
   </energy>
  </scstep>
  <scstep>
   <time name="total">  469.88  469.83</time>
   <energy>
    <i name="e_fr_energy">   -878.32181678 </i>
    <i name="e_wo_entrp">   -878.32174772 </i>
    <i name="e_0_energy">   -878.32178225 </i>
   </energy>
  </scstep>
  <scstep>
   <time name="total">  469.75  469.70</time>
   <energy>
    <i name="e_fr_energy">   -915.09007594 </i>
    <i name="e_wo_entrp">   -915.09007594 </i>
    <i name="e_0_energy">   -915.09007594 </i>
   </energy>
  </scstep>
  <scstep>
   <time name="total">  469.65  469.60</time>
   <energy>
    <i name="e_fr_energy">   -930.26813475 </i>
    <i name="e_wo_entrp">   -930.26813475 </i>
    <i name="e_0_energy">   -930.26813475 </i>
   </energy>
  </scstep>
  <scstep>
   <time name="total">  469.55  469.49</time>
   <energy>
    <i name="e_fr_energy">   -938.24429013 </i>
    <i name="e_wo_entrp">   -938.24429013 </i>
    <i name="e_0_energy">   -938.24429013 </i>
   </energy>
  </scstep>
  <scstep>
   <time name="total">  469.83  469.77</time>
   <energy>
    <i name="e_fr_energy">   -942.19068255 </i>
    <i name="e_wo_entrp">   -942.19068255 </i>
    <i name="e_0_energy">   -942.19068255 </i>
   </energy>
  </scstep>
  <scstep>
   <time name="total">  469.85  469.80</time>
   <energy>
    <i name="e_fr_energy">   -944.19722321 </i>
    <i name="e_wo_entrp">   -944.19722321 </i>
    <i name="e_0_energy">   -944.19722321 </i>
   </energy>
  </scstep>
  <scstep>
   <time name="total">  469.70  469.65</time>
   <energy>
    <i name="e_fr_energy">   -945.19977614 </i>
    <i name="e_wo_entrp">   -945.19977614 </i>
    <i name="e_0_energy">   -945.19977614 </i>
   </energy>
  </scstep>
  <scstep>
   <time name="total">  470.08  470.03</time>
   <energy>
    <i name="e_fr_energy">   -945.65048505 </i>
    <i name="e_wo_entrp">   -945.65048505 </i>
    <i name="e_0_energy">   -945.65048505 </i>
   </energy>
  </scstep>
  <scstep>
   <time name="total">  469.49  469.44</time>
   <energy>
    <i name="e_fr_energy">   -945.85477631 </i>
    <i name="e_wo_entrp">   -945.85477631 </i>
    <i name="e_0_energy">   -945.85477631 </i>
   </energy>
  </scstep>
  <scstep>
   <time name="total">  469.95  469.90</time>
   <energy>
    <i name="e_fr_energy">   -945.94514331 </i>
    <i name="e_wo_entrp">   -945.94514331 </i>
    <i name="e_0_energy">   -945.94514331 </i>
   </energy>
  </scstep>
  <scstep>
   <time name="total">  469.82  469.77</time>
   <energy>
    <i name="e_fr_energy">   -945.98520385 </i>
    <i name="e_wo_entrp">   -945.98520385 </i>
    <i name="e_0_energy">   -945.98520385 </i>
   </energy>
  </scstep>
  <scstep>
   <time name="total">  469.41  469.35</time>
   <energy>
    <i name="e_fr_energy">   -946.00560202 </i>
    <i name="e_wo_entrp">   -946.00560202 </i>
    <i name="e_0_energy">   -946.00560202 </i>
   </energy>
  </scstep>
  <scstep>
   <time name="total">  469.59  469.52</time>
   <energy>
    <i name="e_fr_energy">   -946.01502767 </i>
    <i name="e_wo_entrp">   -946.01502767 </i>
    <i name="e_0_energy">   -946.01502767 </i>
   </energy>
  </scstep>
  <scstep>
   <time name="total">  469.38  469.32</time>
   <energy>
    <i name="e_fr_energy">   -946.01985434 </i>
    <i name="e_wo_entrp">   -946.01985434 </i>
    <i name="e_0_energy">   -946.01985434 </i>
   </energy>
  </scstep>
  <scstep>
   <time name="total">  469.54  469.48</time>
   <energy>
    <i name="e_fr_energy">   -946.02197665 </i>
    <i name="e_wo_entrp">   -946.02197665 </i>
    <i name="e_0_energy">   -946.02197665 </i>
   </energy>
  </scstep>
  <scstep>
   <time name="total">  469.73  469.68</time>
   <energy>
    <i name="e_fr_energy">   -946.02301517 </i>
    <i name="e_wo_entrp">   -946.02301517 </i>
    <i name="e_0_energy">   -946.02301517 </i>
   </energy>
  </scstep>
  <scstep>
   <time name="total">  469.59  469.54</time>
   <energy>
    <i name="e_fr_energy">   -946.02348862 </i>
    <i name="e_wo_entrp">   -946.02348862 </i>
    <i name="e_0_energy">   -946.02348862 </i>
   </energy>
  </scstep>
  <scstep>
   <time name="total">  469.90  469.85</time>
   <energy>
    <i name="e_fr_energy">   -946.02372976 </i>
    <i name="e_wo_entrp">   -946.02372976 </i>
    <i name="e_0_energy">   -946.02372976 </i>
   </energy>
  </scstep>
  <scstep>
   <time name="total">  469.75  469.70</time>
   <energy>
    <i name="e_fr_energy">   -946.02385454 </i>
    <i name="e_wo_entrp">   -946.02385454 </i>
    <i name="e_0_energy">   -946.02385454 </i>
   </energy>
  </scstep>
  <scstep>
   <time name="total">  469.81  469.75</time>
   <energy>
    <i name="e_fr_energy">   -946.02391337 </i>
    <i name="e_wo_entrp">   -946.02391337 </i>
    <i name="e_0_energy">   -946.02391337 </i>
   </energy>
  </scstep>
  <scstep>
   <time name="total">  469.54  469.49</time>
   <energy>
    <i name="e_fr_energy">   -946.02394078 </i>
    <i name="e_wo_entrp">   -946.02394078 </i>
    <i name="e_0_energy">   -946.02394078 </i>
   </energy>
  </scstep>
  <scstep>
   <time name="total">  469.75  469.68</time>
   <energy>
    <i name="e_fr_energy">   -946.02395321 </i>
    <i name="e_wo_entrp">   -946.02395321 </i>
    <i name="e_0_energy">   -946.02395321 </i>
   </energy>
  </scstep>
  <scstep>
   <time name="total">  700.38  700.30</time>
   <energy>
    <i name="alphaZ">   5529.70323211 </i>
    <i name="ewald"> -88683.86560705 </i>
    <i name="hartreedc"> -33922.01130951 </i>
    <i name="XCdc">   2904.51516694 </i>
    <i name="pawpsdc"> 122303.74776224 </i>
    <i name="pawaedc">-137873.77840647 </i>
    <i name="eentropy">     -0.00000000 </i>
    <i name="bandstr">  -8735.81134479 </i>
    <i name="atom"> 133646.93285989 </i>
    <i name="e_fr_energy">   -946.02395935 </i>
    <i name="e_wo_entrp">   -946.02395935 </i>
    <i name="e_0_energy">   -946.02395935 </i>
   </energy>
  </scstep>
  <structure>
   <crystal>
    <varray name="basis" >
     <v>       0.00000000      12.28047342       0.00000000 </v>
     <v>       9.14270205       0.00000000       0.00000000 </v>
     <v>       0.00000000      -2.76826177     -11.30069772 </v>
    </varray>
    <i name="volume">   1268.80515525 </i>
    <varray name="rec_basis" >
     <v>       0.00000000       0.08143009      -0.01994742 </v>
     <v>       0.10937686      -0.00000000       0.00000000 </v>
     <v>       0.00000000       0.00000000      -0.08849011 </v>
    </varray>
   </crystal>
   <varray name="positions" >
    <v>       0.66049639       0.00000000       0.15639329 </v>
    <v>       0.65643737       0.00000000       0.65542243 </v>
    <v>       0.66067274       0.33341592       0.15689050 </v>
    <v>       0.65437469       0.33256098       0.65609938 </v>
    <v>       0.66067274       0.66658408       0.15689050 </v>
    <v>       0.65437469       0.66743902       0.65609938 </v>
    <v>       0.83925189       0.16750052       0.34319112 </v>
    <v>       0.83790536       0.16712163       0.84208700 </v>
    <v>       0.84254304       0.50000000       0.34262216 </v>
    <v>       0.83837300       0.50000000       0.84182081 </v>
    <v>       0.83925189       0.83249948       0.34319112 </v>
    <v>       0.83790536       0.83287837       0.84208700 </v>
    <v>       0.59015885       0.16723807       0.39739394 </v>
    <v>       0.59024951       0.16666492       0.89819656 </v>
    <v>       0.59478373       0.50000000       0.39766374 </v>
    <v>       0.59473272       0.50000000       0.90052082 </v>
    <v>       0.59015885       0.83276193       0.39739394 </v>
    <v>       0.59024951       0.83333508       0.89819656 </v>
    <v>       0.90768376       0.00000000       0.10056464 </v>
    <v>       0.90754956       0.00000000       0.60226327 </v>
    <v>       0.90809928       0.33280611       0.10159025 </v>
    <v>       0.90567710       0.33404634       0.60229757 </v>
    <v>       0.90809928       0.66719389       0.10159025 </v>
    <v>       0.90567710       0.66595366       0.60229757 </v>
    <v>       0.15967355       0.16652082       0.15393778 </v>
    <v>       0.15735287       0.17294761       0.66228444 </v>
    <v>       0.15722538       0.50000000       0.15807204 </v>
    <v>       0.15801256       0.50000000       0.65821769 </v>
    <v>       0.15967355       0.83347918       0.15393778 </v>
    <v>       0.15735287       0.82705239       0.66228444 </v>
    <v>       0.34156199       0.00000000       0.34089427 </v>
    <v>       0.34012563       0.00000000       0.84806986 </v>
    <v>       0.34315911       0.33592182       0.34119376 </v>
    <v>       0.34379225       0.33423310       0.84666661 </v>
    <v>       0.34315911       0.66407818       0.34119376 </v>
    <v>       0.34379225       0.66576690       0.84666661 </v>
    <v>       0.08399303       0.00000000       0.38273439 </v>
    <v>       0.08714133       0.00000000       0.89811704 </v>
    <v>       0.09177316       0.33260573       0.39897000 </v>
    <v>       0.08812392       0.33328929       0.89780328 </v>
    <v>       0.09177316       0.66739427       0.39897000 </v>
    <v>       0.08812392       0.66671071       0.89780328 </v>
    <v>       0.41191394       0.16681160       0.10391322 </v>
    <v>       0.40154393       0.16168913       0.60292702 </v>
    <v>       0.41079190       0.50000000       0.10298223 </v>
    <v>       0.40760331       0.50000000       0.60311756 </v>
    <v>       0.41191394       0.83318840       0.10391322 </v>
    <v>       0.40154393       0.83831087       0.60292702 </v>
    <v>       0.99561844       0.16635496       0.12435898 </v>
    <v>       0.99321939       0.16783842       0.62752206 </v>
    <v>       0.99482780       0.50000000       0.12654432 </v>
    <v>       0.99376828       0.50000000       0.62844333 </v>
    <v>       0.99561844       0.83364504       0.12435898 </v>
    <v>       0.99321939       0.83216158       0.62752206 </v>
    <v>       0.50479882       0.00000000       0.36910298 </v>
    <v>       0.50402731       0.00000000       0.87771646 </v>
    <v>       0.50622301       0.33577890       0.36914532 </v>
    <v>       0.50680123       0.33562191       0.87880384 </v>
    <v>       0.50622301       0.66422110       0.36914532 </v>
    <v>       0.50680123       0.66437809       0.87880384 </v>
    <v>       0.67290351       0.16674526       0.28048922 </v>
    <v>       0.67058458       0.16688150       0.78018832 </v>
    <v>       0.67487841       0.50000000       0.28012892 </v>
    <v>       0.67051837       0.50000000       0.77952483 </v>
    <v>       0.67290351       0.83325474       0.28048922 </v>
    <v>       0.67058458       0.83311850       0.78018832 </v>
    <v>       0.82762045       0.00000000       0.21892872 </v>
    <v>       0.82496664       0.00000000       0.71867153 </v>
    <v>       0.82770389       0.33345443       0.21923836 </v>
    <v>       0.82429043       0.33358416       0.71918886 </v>
    <v>       0.82770389       0.66654557       0.21923836 </v>
    <v>       0.82429043       0.66641584       0.71918886 </v>
    <v>       0.83191730       0.00000000       0.44532089 </v>
    <v>       0.82981283       0.00000000       0.94451602 </v>
    <v>       0.83052579       0.33441440       0.44540078 </v>
    <v>       0.83007467       0.33374470       0.94524834 </v>
    <v>       0.83052579       0.66558560       0.44540078 </v>
    <v>       0.83007467       0.66625530       0.94524834 </v>
    <v>       0.66950726       0.16676280       0.05450864 </v>
    <v>       0.66746550       0.16711544       0.55369720 </v>
    <v>       0.67242700       0.50000000       0.05613976 </v>
    <v>       0.66645011       0.50000000       0.55532637 </v>
    <v>       0.66950726       0.83323720       0.05450864 </v>
    <v>       0.66746550       0.83288456       0.55369720 </v>
    <v>       0.49891286       0.00000000       0.12821402 </v>
    <v>       0.49664105       0.00000000       0.62852197 </v>
    <v>       0.49866900       0.33424731       0.12778754 </v>
    <v>       0.49268162       0.33080269       0.62696137 </v>
    <v>       0.49866900       0.66575269       0.12778754 </v>
    <v>       0.49268162       0.66919731       0.62696137 </v>
    <v>       0.99932794       0.16988675       0.36605688 </v>
    <v>       0.00012175       0.16731549       0.87175811 </v>
    <v>       0.00393735       0.50000000       0.37199065 </v>
    <v>       0.00091152       0.50000000       0.87248077 </v>
    <v>       0.99932794       0.83011325       0.36605688 </v>
    <v>       0.00012175       0.83268451       0.87175811 </v>
    <v>       0.17192381       0.00000000       0.27021892 </v>
    <v>       0.17319015       0.00000000       0.78866843 </v>
    <v>       0.17254567       0.33299957       0.28038479 </v>
    <v>       0.17065028       0.33442681       0.78198060 </v>
    <v>       0.17254567       0.66700043       0.28038479 </v>
    <v>       0.17065028       0.66557319       0.78198060 </v>
    <v>       0.32771951       0.16807608       0.21693792 </v>
    <v>       0.33661785       0.17483031       0.73388034 </v>
    <v>       0.32704338       0.50000000       0.21782965 </v>
    <v>       0.32755113       0.50000000       0.72215808 </v>
    <v>       0.32771951       0.83192392       0.21693792 </v>
    <v>       0.33661785       0.82516969       0.73388034 </v>
    <v>       0.34343489       0.17157955       0.44005818 </v>
    <v>       0.33207333       0.16848661       0.95037424 </v>
    <v>       0.33374513       0.50000000       0.44490085 </v>
    <v>       0.33162968       0.50000000       0.94759625 </v>
    <v>       0.34343489       0.82842045       0.44005818 </v>
    <v>       0.33207333       0.83151339       0.95037424 </v>
    <v>       0.16684174       0.00000000       0.05156765 </v>
    <v>       0.16540185       0.33484203       0.05372453 </v>
    <v>       0.16744500       0.33968379       0.55514004 </v>
    <v>       0.16540185       0.66515797       0.05372453 </v>
    <v>       0.16744500       0.66031621       0.55514004 </v>
    <v>       0.21194708       0.00000000       0.54945865 </v>
   </varray>
  </structure>
  <varray name="forces" >
   <v>       0.00000000       0.06037961       0.01218841 </v>
   <v>       0.00000000       0.01902480       0.01775063 </v>
   <v>       0.00795950       0.07420067       0.00295756 </v>
   <v>      -0.00743312       0.04497355       0.01101503 </v>
   <v>      -0.00795950       0.07420067       0.00295756 </v>
   <v>       0.00743312       0.04497355       0.01101503 </v>
   <v>       0.00965713      -0.03761561       0.00978497 </v>
   <v>       0.00229863      -0.07408250      -0.00467389 </v>
   <v>       0.00000000      -0.07042063       0.00547362 </v>
   <v>       0.00000000      -0.06993042      -0.00422347 </v>
   <v>      -0.00965713      -0.03761561       0.00978497 </v>
   <v>      -0.00229863      -0.07408250      -0.00467389 </v>
   <v>      -0.00858640      -0.04346889       0.02978018 </v>
   <v>       0.00172202      -0.04487634       0.00749495 </v>
   <v>       0.00000000      -0.07729518       0.04769262 </v>
   <v>       0.00000000      -0.07059967       0.01209961 </v>
   <v>       0.00858640      -0.04346889       0.02978018 </v>
   <v>      -0.00172202      -0.04487634       0.00749495 </v>
   <v>       0.00000000       0.02546344      -0.00567247 </v>
   <v>       0.00000000       0.02190404      -0.01179464 </v>
   <v>       0.00798001       0.02234506      -0.02270994 </v>
   <v>      -0.00657856       0.03323821      -0.02118262 </v>
   <v>      -0.00798001       0.02234506      -0.02270994 </v>
   <v>       0.00657856       0.03323821      -0.02118262 </v>
   <v>      -0.04062753       0.09025939      -0.01714482 </v>
   <v>       0.20534014      -0.00139136      -0.06870935 </v>
   <v>       0.00000000       0.07150429       0.02131061 </v>
   <v>       0.00000000       0.10969607       0.07817264 </v>
   <v>       0.04062753       0.09025939      -0.01714482 </v>
   <v>      -0.20534014      -0.00139136      -0.06870935 </v>
   <v>       0.00000000      -0.01615130      -0.07131787 </v>
   <v>       0.00000000      -0.06781297       0.00426114 </v>
   <v>      -0.07022134      -0.04615480      -0.08725593 </v>
   <v>      -0.08808709      -0.00864012       0.05453746 </v>
   <v>       0.07022134      -0.04615480      -0.08725593 </v>
   <v>       0.08808709      -0.00864012       0.05453746 </v>
   <v>       0.00000000      -0.02270568       0.26866169 </v>
   <v>       0.00000000       0.07319790       0.00925523 </v>
   <v>       0.01747015      -0.01935152       0.02461001 </v>
   <v>       0.01547212       0.00189751       0.00338057 </v>
   <v>      -0.01747015      -0.01935152       0.02461001 </v>
   <v>      -0.01547212       0.00189751       0.00338057 </v>
   <v>       0.00701999      -0.03583292       0.01166082 </v>
   <v>      -0.02154478       0.08212755      -0.00061598 </v>
   <v>       0.00000000       0.00139512      -0.00173237 </v>
   <v>       0.00000000       0.01578361      -0.00468500 </v>
   <v>      -0.00701999      -0.03583292       0.01166082 </v>
   <v>       0.02154478       0.08212755      -0.00061598 </v>
   <v>       0.00088086      -0.20430245       0.11352778 </v>
   <v>       0.02292633      -0.21867272       0.09028470 </v>
   <v>       0.00000000      -0.16959222       0.11626790 </v>
   <v>       0.00000000      -0.21354669       0.12125688 </v>
   <v>      -0.00088086      -0.20430245       0.11352778 </v>
   <v>      -0.02292633      -0.21867272       0.09028470 </v>
   <v>       0.00000000       0.20789748      -0.13549378 </v>
   <v>       0.00000000       0.21699327      -0.10714123 </v>
   <v>      -0.00517062       0.20166668      -0.13957256 </v>
   <v>      -0.00657979       0.20657917      -0.09752050 </v>
   <v>       0.00517062       0.20166668      -0.13957256 </v>
   <v>       0.00657979       0.20657917      -0.09752050 </v>
   <v>       0.00799355       0.00645704      -0.11004879 </v>
   <v>       0.01132706      -0.01462134      -0.12128401 </v>
   <v>       0.00000000      -0.03009477      -0.12214386 </v>
   <v>       0.00000000      -0.02333394      -0.14172942 </v>
   <v>      -0.00799355       0.00645704      -0.11004879 </v>
   <v>      -0.01132706      -0.01462134      -0.12128401 </v>
   <v>       0.00000000       0.01573779       0.14755232 </v>
   <v>       0.00000000       0.03946141       0.10981624 </v>
   <v>       0.00540528       0.01783786       0.12482331 </v>
   <v>       0.00294422       0.06017642       0.10039824 </v>
   <v>      -0.00540528       0.01783786       0.12482331 </v>
   <v>      -0.00294422       0.06017642       0.10039824 </v>
   <v>       0.00000000       0.37936417      -0.07802632 </v>
   <v>       0.00000000       0.39960181      -0.07531003 </v>
   <v>      -0.00725698       0.39532176      -0.08417909 </v>
   <v>      -0.00559226       0.39513699      -0.06435859 </v>
   <v>       0.00725698       0.39532176      -0.08417909 </v>
   <v>       0.00559226       0.39513699      -0.06435859 </v>
   <v>      -0.00259740      -0.39907603       0.05503842 </v>
   <v>      -0.00033942      -0.40577407       0.07453440 </v>
   <v>       0.00000000      -0.41771309       0.08146345 </v>
   <v>       0.00000000      -0.38454805       0.09479102 </v>
   <v>       0.00259740      -0.39907603       0.05503842 </v>
   <v>       0.00033942      -0.40577407       0.07453440 </v>
   <v>       0.00000000      -0.15186136       0.11494121 </v>
   <v>       0.00000000      -0.13157676       0.09508659 </v>
   <v>       0.00053549      -0.15600086       0.11117526 </v>
   <v>       0.08350093      -0.09598718       0.08378114 </v>
   <v>      -0.00053549      -0.15600086       0.11117526 </v>
   <v>      -0.08350093      -0.09598718       0.08378114 </v>
   <v>      -0.02112763       0.12529466      -0.10257996 </v>
   <v>       0.00108918       0.16317153      -0.12956689 </v>
   <v>       0.00000000       0.12837757      -0.11914304 </v>
   <v>       0.00000000       0.15889816      -0.11415235 </v>
   <v>       0.02112763       0.12529466      -0.10257996 </v>
   <v>      -0.00108918       0.16317153      -0.12956689 </v>
   <v>       0.00000000      -0.05223536       0.00785787 </v>
   <v>       0.00000000      -0.08773990      -0.22128800 </v>
   <v>       0.03675201      -0.05538932      -0.09120216 </v>
   <v>      -0.05968718      -0.10926159      -0.04236441 </v>
   <v>      -0.03675201      -0.05538932      -0.09120216 </v>
   <v>       0.05968718      -0.10926159      -0.04236441 </v>
   <v>      -0.00846709       0.07363127       0.14972125 </v>
   <v>       0.06164013       0.04704193       0.02444064 </v>
   <v>       0.00000000       0.06649207       0.06311161 </v>
   <v>       0.00000000       0.04860264       0.08709826 </v>
   <v>       0.00846709       0.07363127       0.14972125 </v>
   <v>      -0.06164013       0.04704193       0.02444064 </v>
   <v>       0.04726788       0.28003490       0.01167381 </v>
   <v>      -0.01330704       0.42753456      -0.12578825 </v>
   <v>       0.00000000       0.38704407      -0.03693132 </v>
   <v>       0.00000000       0.44050692      -0.07325326 </v>
   <v>      -0.04726788       0.28003490       0.01167381 </v>
   <v>       0.01330704       0.42753456      -0.12578825 </v>
   <v>       0.00000000      -0.42248827       0.10180228 </v>
   <v>      -0.03268906      -0.40375249       0.07513948 </v>
   <v>       0.07803625      -0.40745810       0.06290431 </v>
   <v>       0.03268906      -0.40375249       0.07513948 </v>
   <v>      -0.07803625      -0.40745810       0.06290431 </v>
   <v>       0.00000000      -0.34211299      -0.09768652 </v>
  </varray>
  <varray name="stress" >
   <v>     -20.61334626       0.00000000       0.00000000 </v>
   <v>       0.00000000     -19.17530149       3.48246246 </v>
   <v>       0.00000000       3.48246268      -0.04362965 </v>
  </varray>
  <energy>
   <i name="e_fr_energy">   -946.02395935 </i>
   <i name="e_wo_entrp">   -946.02395935 </i>
   <i name="e_0_energy">   -946.02395935 </i>
  </energy>
  <time name="totalsc">22420.9622418.77</time>
  <eigenvalues>
   <array>
    <dimension dim="1">band</dimension>
    <dimension dim="2">kpoint</dimension>
    <dimension dim="3">spin</dimension>
    <field>eigene</field>
    <field>occ</field>
    <set>
     <set comment="spin 1">
      <set comment="kpoint 1">
       <r>  -18.6108    1.0000 </r>
       <r>  -18.3435    1.0000 </r>
       <r>  -18.2638    1.0000 </r>
       <r>  -18.1453    1.0000 </r>
       <r>  -18.0607    1.0000 </r>
       <r>  -17.9174    1.0000 </r>
       <r>  -17.9139    1.0000 </r>
       <r>  -17.8265    1.0000 </r>
       <r>  -17.7616    1.0000 </r>
       <r>  -17.7505    1.0000 </r>
       <r>  -17.7496    1.0000 </r>
       <r>  -17.6830    1.0000 </r>
       <r>  -17.6332    1.0000 </r>
       <r>  -17.6124    1.0000 </r>
       <r>  -17.6080    1.0000 </r>
       <r>  -17.5881    1.0000 </r>
       <r>  -17.5727    1.0000 </r>
       <r>  -17.5224    1.0000 </r>
       <r>  -17.4604    1.0000 </r>
       <r>  -17.4474    1.0000 </r>
       <r>  -17.4388    1.0000 </r>
       <r>  -17.4368    1.0000 </r>
       <r>  -17.4244    1.0000 </r>
       <r>  -17.4172    1.0000 </r>
       <r>  -17.3928    1.0000 </r>
       <r>  -17.3256    1.0000 </r>
       <r>  -17.3135    1.0000 </r>
       <r>  -17.3017    1.0000 </r>
       <r>  -17.2865    1.0000 </r>
       <r>  -17.2721    1.0000 </r>
       <r>  -17.2588    1.0000 </r>
       <r>  -17.2438    1.0000 </r>
       <r>  -17.2234    1.0000 </r>
       <r>  -17.2202    1.0000 </r>
       <r>  -17.2066    1.0000 </r>
       <r>  -17.1804    1.0000 </r>
       <r>  -17.1376    1.0000 </r>
       <r>  -17.1307    1.0000 </r>
       <r>  -17.1231    1.0000 </r>
       <r>  -17.1190    1.0000 </r>
       <r>  -17.1074    1.0000 </r>
       <r>  -17.1044    1.0000 </r>
       <r>  -17.0740    1.0000 </r>
       <r>  -17.0633    1.0000 </r>
       <r>  -17.0629    1.0000 </r>
       <r>  -17.0112    1.0000 </r>
       <r>  -17.0098    1.0000 </r>
       <r>  -16.9910    1.0000 </r>
       <r>  -16.9809    1.0000 </r>
       <r>  -16.9354    1.0000 </r>
       <r>  -16.9220    1.0000 </r>
       <r>  -16.9118    1.0000 </r>
       <r>  -16.8867    1.0000 </r>
       <r>  -16.8778    1.0000 </r>
       <r>  -16.8627    1.0000 </r>
       <r>  -16.8544    1.0000 </r>
       <r>  -16.8449    1.0000 </r>
       <r>  -16.8402    1.0000 </r>
       <r>  -16.8384    1.0000 </r>
       <r>  -16.8371    1.0000 </r>
       <r>  -16.8288    1.0000 </r>
       <r>  -16.8288    1.0000 </r>
       <r>  -16.8155    1.0000 </r>
       <r>  -16.7591    1.0000 </r>
       <r>  -16.7518    1.0000 </r>
       <r>  -16.7383    1.0000 </r>
       <r>  -16.7283    1.0000 </r>
       <r>  -16.7101    1.0000 </r>
       <r>  -16.6590    1.0000 </r>
       <r>  -16.6378    1.0000 </r>
       <r>  -16.5608    1.0000 </r>
       <r>  -12.9938    1.0000 </r>
       <r>  -12.9774    1.0000 </r>
       <r>  -12.9617    1.0000 </r>
       <r>  -12.9518    1.0000 </r>
       <r>  -12.9455    1.0000 </r>
       <r>  -12.9419    1.0000 </r>
       <r>  -12.9261    1.0000 </r>
       <r>  -12.9098    1.0000 </r>
       <r>  -12.9015    1.0000 </r>
       <r>  -12.9014    1.0000 </r>
       <r>  -12.8939    1.0000 </r>
       <r>  -12.8904    1.0000 </r>
       <r>  -12.8880    1.0000 </r>
       <r>  -12.8878    1.0000 </r>
       <r>  -12.8871    1.0000 </r>
       <r>  -12.8792    1.0000 </r>
       <r>  -12.8775    1.0000 </r>
       <r>  -12.8760    1.0000 </r>
       <r>  -12.8634    1.0000 </r>
       <r>  -12.8603    1.0000 </r>
       <r>  -12.8590    1.0000 </r>
       <r>  -12.8562    1.0000 </r>
       <r>  -12.8492    1.0000 </r>
       <r>  -12.8469    1.0000 </r>
       <r>  -12.8460    1.0000 </r>
       <r>  -12.8387    1.0000 </r>
       <r>  -12.8381    1.0000 </r>
       <r>  -12.8301    1.0000 </r>
       <r>  -12.8287    1.0000 </r>
       <r>  -12.8252    1.0000 </r>
       <r>  -12.8207    1.0000 </r>
       <r>  -12.8193    1.0000 </r>
       <r>  -12.8161    1.0000 </r>
       <r>  -12.8136    1.0000 </r>
       <r>  -12.8130    1.0000 </r>
       <r>  -12.8115    1.0000 </r>
       <r>  -12.8093    1.0000 </r>
       <r>  -12.8053    1.0000 </r>
       <r>  -12.8024    1.0000 </r>
       <r>  -12.7981    1.0000 </r>
       <r>  -12.7952    1.0000 </r>
       <r>  -12.7945    1.0000 </r>
       <r>  -12.7930    1.0000 </r>
       <r>  -12.7925    1.0000 </r>
       <r>  -12.7801    1.0000 </r>
       <r>  -12.7784    1.0000 </r>
       <r>  -12.7776    1.0000 </r>
       <r>  -12.7689    1.0000 </r>
       <r>  -12.7639    1.0000 </r>
       <r>  -12.7638    1.0000 </r>
       <r>  -12.7624    1.0000 </r>
       <r>  -12.7585    1.0000 </r>
       <r>  -12.7528    1.0000 </r>
       <r>  -12.7520    1.0000 </r>
       <r>  -12.7504    1.0000 </r>
       <r>  -12.7436    1.0000 </r>
       <r>  -12.7412    1.0000 </r>
       <r>  -12.7404    1.0000 </r>
       <r>  -12.7362    1.0000 </r>
       <r>  -12.7344    1.0000 </r>
       <r>  -12.7310    1.0000 </r>
       <r>  -12.7281    1.0000 </r>
       <r>  -12.7261    1.0000 </r>
       <r>  -12.7237    1.0000 </r>
       <r>  -12.7180    1.0000 </r>
       <r>  -12.7156    1.0000 </r>
       <r>  -12.7143    1.0000 </r>
       <r>  -12.7101    1.0000 </r>
       <r>  -12.7077    1.0000 </r>
       <r>  -12.7055    1.0000 </r>
       <r>  -12.7042    1.0000 </r>
       <r>  -12.7008    1.0000 </r>
       <r>  -12.6985    1.0000 </r>
       <r>  -12.6961    1.0000 </r>
       <r>  -12.6944    1.0000 </r>
       <r>  -12.6877    1.0000 </r>
       <r>  -12.6846    1.0000 </r>
       <r>  -12.6833    1.0000 </r>
       <r>  -12.6773    1.0000 </r>
       <r>  -12.6760    1.0000 </r>
       <r>  -12.6718    1.0000 </r>
       <r>  -12.6694    1.0000 </r>
       <r>  -12.6674    1.0000 </r>
       <r>  -12.6657    1.0000 </r>
       <r>  -12.6650    1.0000 </r>
       <r>  -12.6605    1.0000 </r>
       <r>  -12.6589    1.0000 </r>
       <r>  -12.6544    1.0000 </r>
       <r>  -12.6485    1.0000 </r>
       <r>  -12.6477    1.0000 </r>
       <r>  -12.6416    1.0000 </r>
       <r>  -12.6409    1.0000 </r>
       <r>  -12.6382    1.0000 </r>
       <r>  -12.6358    1.0000 </r>
       <r>  -12.6342    1.0000 </r>
       <r>  -12.6337    1.0000 </r>
       <r>  -12.6292    1.0000 </r>
       <r>  -12.6275    1.0000 </r>
       <r>  -12.6235    1.0000 </r>
       <r>  -12.6217    1.0000 </r>
       <r>  -12.6203    1.0000 </r>
       <r>  -12.6180    1.0000 </r>
       <r>  -12.6153    1.0000 </r>
       <r>  -12.6144    1.0000 </r>
       <r>  -12.6113    1.0000 </r>
       <r>  -12.6096    1.0000 </r>
       <r>  -12.6076    1.0000 </r>
       <r>  -12.6003    1.0000 </r>
       <r>  -12.5997    1.0000 </r>
       <r>  -12.5947    1.0000 </r>
       <r>  -12.5941    1.0000 </r>
       <r>  -12.5878    1.0000 </r>
       <r>  -12.5807    1.0000 </r>
       <r>  -12.5798    1.0000 </r>
       <r>  -12.5779    1.0000 </r>
       <r>  -12.5752    1.0000 </r>
       <r>  -12.5749    1.0000 </r>
       <r>  -12.5681    1.0000 </r>
       <r>  -12.5651    1.0000 </r>
       <r>  -12.5632    1.0000 </r>
       <r>  -12.5598    1.0000 </r>
       <r>  -12.5563    1.0000 </r>
       <r>  -12.5510    1.0000 </r>
       <r>  -12.5488    1.0000 </r>
       <r>  -12.5456    1.0000 </r>
       <r>  -12.5454    1.0000 </r>
       <r>  -12.5449    1.0000 </r>
       <r>  -12.5381    1.0000 </r>
       <r>  -12.5333    1.0000 </r>
       <r>  -12.5318    1.0000 </r>
       <r>  -12.5294    1.0000 </r>
       <r>  -12.5283    1.0000 </r>
       <r>  -12.5242    1.0000 </r>
       <r>  -12.5229    1.0000 </r>
       <r>  -12.5215    1.0000 </r>
       <r>  -12.5203    1.0000 </r>
       <r>  -12.5189    1.0000 </r>
       <r>  -12.5155    1.0000 </r>
       <r>  -12.5151    1.0000 </r>
       <r>  -12.5125    1.0000 </r>
       <r>  -12.5068    1.0000 </r>
       <r>  -12.5050    1.0000 </r>
       <r>  -12.5038    1.0000 </r>
       <r>  -12.5005    1.0000 </r>
       <r>  -12.4987    1.0000 </r>
       <r>  -12.4975    1.0000 </r>
       <r>  -12.4937    1.0000 </r>
       <r>  -12.4923    1.0000 </r>
       <r>  -12.4910    1.0000 </r>
       <r>  -12.4882    1.0000 </r>
       <r>  -12.4864    1.0000 </r>
       <r>  -12.4802    1.0000 </r>
       <r>  -12.4771    1.0000 </r>
       <r>  -12.4678    1.0000 </r>
       <r>  -12.4665    1.0000 </r>
       <r>  -12.4644    1.0000 </r>
       <r>  -12.4615    1.0000 </r>
       <r>  -12.4560    1.0000 </r>
       <r>  -12.4545    1.0000 </r>
       <r>  -12.4518    1.0000 </r>
       <r>  -12.4510    1.0000 </r>
       <r>  -12.4488    1.0000 </r>
       <r>  -12.4432    1.0000 </r>
       <r>  -12.4409    1.0000 </r>
       <r>  -12.4396    1.0000 </r>
       <r>  -12.4360    1.0000 </r>
       <r>  -12.4311    1.0000 </r>
       <r>  -12.4292    1.0000 </r>
       <r>  -12.4234    1.0000 </r>
       <r>  -12.4140    1.0000 </r>
       <r>  -12.4107    1.0000 </r>
       <r>  -12.4077    1.0000 </r>
       <r>  -12.3946    1.0000 </r>
       <r>  -12.3922    1.0000 </r>
       <r>  -12.3893    1.0000 </r>
       <r>  -12.3886    1.0000 </r>
       <r>  -12.3839    1.0000 </r>
       <r>  -12.3787    1.0000 </r>
       <r>  -12.3693    1.0000 </r>
       <r>  -12.3665    1.0000 </r>
       <r>  -12.3642    1.0000 </r>
       <r>  -12.3565    1.0000 </r>
       <r>  -12.3507    1.0000 </r>
       <r>  -12.3487    1.0000 </r>
       <r>  -12.3424    1.0000 </r>
       <r>  -12.3352    1.0000 </r>
       <r>  -12.3309    1.0000 </r>
       <r>  -12.3245    1.0000 </r>
       <r>  -12.3164    1.0000 </r>
       <r>  -12.3114    1.0000 </r>
       <r>  -12.3022    1.0000 </r>
       <r>  -12.3010    1.0000 </r>
       <r>  -12.2902    1.0000 </r>
       <r>  -12.2788    1.0000 </r>
       <r>  -12.2767    1.0000 </r>
       <r>  -12.2708    1.0000 </r>
       <r>  -12.2525    1.0000 </r>
       <r>  -12.2512    1.0000 </r>
       <r>  -12.2461    1.0000 </r>
       <r>  -12.2411    1.0000 </r>
       <r>  -12.2347    1.0000 </r>
       <r>  -12.2300    1.0000 </r>
       <r>  -12.2182    1.0000 </r>
       <r>  -12.1903    1.0000 </r>
       <r>  -12.1417    1.0000 </r>
       <r>  -12.1405    1.0000 </r>
       <r>  -12.1070    1.0000 </r>
[...]
       <r>   -12.0282   118.6362   567.2174 </r>
       <r>   -11.8921   102.7217   581.1986 </r>
       <r>   -11.7560   109.7473   596.1360 </r>
       <r>   -11.6199   106.8434   610.6782 </r>
       <r>   -11.4838    70.6953   620.3003 </r>
       <r>   -11.3477    12.4406   621.9936 </r>
       <r>   -11.2116     0.0471   622.0000 </r>
       <r>   -11.0755     0.0000   622.0000 </r>
       <r>   -10.9393     0.0000   622.0000 </r>
       <r>   -10.8032     0.0000   622.0000 </r>
       <r>   -10.6671     0.0000   622.0000 </r>
       <r>   -10.5310     0.0000   622.0000 </r>
       <r>   -10.3949     0.0000   622.0000 </r>
       <r>   -10.2588     0.0000   622.0000 </r>
       <r>   -10.1227     0.0000   622.0000 </r>
       <r>    -9.9866     0.0000   622.0000 </r>
       <r>    -9.8505     0.0000   622.0000 </r>
       <r>    -9.7144     0.0000   622.0000 </r>
       <r>    -9.5783     0.0000   622.0000 </r>
       <r>    -9.4422     0.0000   622.0000 </r>
       <r>    -9.3061     0.0000   622.0000 </r>
       <r>    -9.1699     0.0000   622.0000 </r>
       <r>    -9.0338     0.0000   622.0000 </r>
       <r>    -8.8977     0.0000   622.0000 </r>
       <r>    -8.7616     0.0000   622.0000 </r>
       <r>    -8.6255     0.0000   622.0000 </r>
       <r>    -8.4894     0.0000   622.0000 </r>
       <r>    -8.3533     0.0000   622.0000 </r>
       <r>    -8.2172     0.0000   622.0000 </r>
       <r>    -8.0811     0.0000   622.0000 </r>
       <r>    -7.9450     0.0000   622.0000 </r>
       <r>    -7.8089     0.0000   622.0000 </r>
       <r>    -7.6728     0.0000   622.0000 </r>
       <r>    -7.5367     0.0000   622.0000 </r>
       <r>    -7.4006     0.0000   622.0000 </r>
       <r>    -7.2644     0.0000   622.0000 </r>
       <r>    -7.1283     0.0000   622.0000 </r>
       <r>    -6.9922     0.0000   622.0000 </r>
       <r>    -6.8561     0.9621   622.1310 </r>
       <r>    -6.7200    13.5536   623.9757 </r>
       <r>    -6.5839     0.1785   624.0000 </r>
       <r>    -6.4478     0.0000   624.0000 </r>
       <r>    -6.3117     0.0000   624.0000 </r>
       <r>    -6.1756     0.0000   624.0000 </r>
       <r>    -6.0395     0.0000   624.0000 </r>
       <r>    -5.9034     0.0000   624.0000 </r>
       <r>    -5.7673     0.0000   624.0000 </r>
       <r>    -5.6312     0.0000   624.0000 </r>
       <r>    -5.4951     0.0000   624.0000 </r>
       <r>    -5.3589     0.0000   624.0000 </r>
       <r>    -5.2228     0.0000   624.0000 </r>
       <r>    -5.0867     1.2839   624.1748 </r>
       <r>    -4.9506     8.5250   625.3351 </r>
       <r>    -4.8145    17.7166   627.7464 </r>
       <r>    -4.6784    27.6975   631.5163 </r>
       <r>    -4.5423    32.3584   635.9205 </r>
       <r>    -4.4062    32.8928   640.3974 </r>
       <r>    -4.2701    41.8245   646.0900 </r>
       <r>    -4.1340    48.9378   652.7508 </r>
       <r>    -3.9979    56.6804   660.4655 </r>
       <r>    -3.8618    45.1845   666.6154 </r>
       <r>    -3.7257    40.5122   672.1294 </r>
       <r>    -3.5895    54.1280   679.4966 </r>
       <r>    -3.4534    37.8977   684.6548 </r>
       <r>    -3.3173    29.1428   688.6213 </r>
       <r>    -3.1812    30.3738   692.7554 </r>
       <r>    -3.0451    32.8741   697.2298 </r>
       <r>    -2.9090    38.1404   702.4210 </r>
       <r>    -2.7729    40.3902   707.9184 </r>
       <r>    -2.6368    32.2244   712.3044 </r>
       <r>    -2.5007    29.2263   716.2823 </r>
       <r>    -2.3646    39.6234   721.6753 </r>
       <r>    -2.2285    35.3318   726.4842 </r>
       <r>    -2.0924    49.7802   733.2597 </r>
       <r>    -1.9563    35.7277   738.1225 </r>
       <r>    -1.8202    43.3481   744.0225 </r>
       <r>    -1.6840    61.9209   752.4504 </r>
       <r>    -1.5479    69.6158   761.9256 </r>
       <r>    -1.4118    58.4450   769.8804 </r>
       <r>    -1.2757    63.3820   778.5071 </r>
       <r>    -1.1396    65.5379   787.4273 </r>
       <r>    -1.0035    51.8795   794.4885 </r>
       <r>    -0.8674    47.3920   800.9389 </r>
       <r>    -0.7313    70.8239   810.5785 </r>
       <r>    -0.5952    67.5053   819.7665 </r>
       <r>    -0.4591    77.7708   830.3517 </r>
       <r>    -0.3230    66.8556   839.4512 </r>
       <r>    -0.1869    55.7147   847.0344 </r>
       <r>    -0.0508    68.5510   856.3647 </r>
       <r>     0.0853    72.4361   866.2238 </r>
       <r>     0.2215    81.7883   877.3558 </r>
       <r>     0.3576    75.6035   887.6459 </r>
       <r>     0.4937    67.3447   896.8121 </r>
       <r>     0.6298    66.4690   905.8590 </r>
       <r>     0.7659    91.8412   918.3592 </r>
       <r>     0.9020    90.7002   930.7042 </r>
       <r>     1.0381    90.0104   942.9553 </r>
       <r>     1.1742    88.0651   954.9416 </r>
       <r>     1.3103   109.8480   969.8927 </r>
       <r>     1.4464   118.8009   986.0624 </r>
       <r>     1.5825   124.0464  1002.9460 </r>
       <r>     1.7186   122.2506  1019.5852 </r>
       <r>     1.8547    89.7445  1031.8001 </r>
       <r>     1.9909    57.2394  1039.5908 </r>
       <r>     2.1270    53.8588  1046.9214 </r>
       <r>     2.2631    22.5241  1049.9870 </r>
       <r>     2.3992     0.0952  1050.0000 </r>
       <r>     2.5353     0.0000  1050.0000 </r>
       <r>     2.6714     0.0000  1050.0000 </r>
       <r>     2.8075     0.0000  1050.0000 </r>
       <r>     2.9436     0.0000  1050.0000 </r>
       <r>     3.0797     0.0000  1050.0000 </r>
       <r>     3.2158     0.0000  1050.0000 </r>
       <r>     3.3519     0.1180  1050.0161 </r>
       <r>     3.4880     7.9657  1051.1002 </r>
       <r>     3.6241     6.5884  1051.9970 </r>
       <r>     3.7602     0.0222  1052.0000 </r>
       <r>     3.8964     2.1308  1052.2900 </r>
       <r>     4.0325     5.2241  1053.0011 </r>
       <r>     4.1686     9.8742  1054.3450 </r>
       <r>     4.3047    12.1430  1055.9978 </r>
       <r>     4.4408     0.0164  1056.0000 </r>
       <r>     4.5769     0.0000  1056.0000 </r>
       <r>     4.7130     0.0000  1056.0000 </r>
       <r>     4.8491     0.0000  1056.0000 </r>
       <r>     4.9852     0.0000  1056.0000 </r>
       <r>     5.1213     0.0000  1056.0000 </r>
       <r>     5.2574     0.0000  1056.0000 </r>
       <r>     5.3935     0.0000  1056.0000 </r>
       <r>     5.5296     0.0000  1056.0000 </r>
       <r>     5.6657     0.0000  1056.0000 </r>
       <r>     5.8019     0.0000  1056.0000 </r>
       <r>     5.9380     0.0000  1056.0000 </r>
       <r>     6.0741     0.0000  1056.0000 </r>
       <r>     6.2102     0.0000  1056.0000 </r>
       <r>     6.3463     0.0000  1056.0000 </r>
       <r>     6.4824     0.0000  1056.0000 </r>
       <r>     6.6185     0.0000  1056.0000 </r>
       <r>     6.7546     0.0000  1056.0000 </r>
       <r>     6.8907     0.0628  1056.0086 </r>
       <r>     7.0268     1.7348  1056.2447 </r>
       <r>     7.1629     0.0391  1056.2500 </r>
       <r>     7.2990     0.0000  1056.2500 </r>
       <r>     7.4351     0.0000  1056.2500 </r>
       <r>     7.5713     0.0000  1056.2500 </r>
       <r>     7.7074     0.4476  1056.3109 </r>
       <r>     7.8435     3.8586  1056.8361 </r>
       <r>     7.9796     3.0371  1057.2495 </r>
       <r>     8.1157     0.7021  1057.3450 </r>
       <r>     8.2518     4.8940  1058.0112 </r>
       <r>     8.3879     1.7539  1058.2499 </r>
       <r>     8.5240     0.0461  1058.2561 </r>
       <r>     8.6601     2.6936  1058.6228 </r>
       <r>     8.7962     6.9971  1059.5751 </r>
       <r>     8.9323     7.0382  1060.5331 </r>
       <r>     9.0684     3.9894  1061.0761 </r>
       <r>     9.2045     5.6549  1061.8457 </r>
       <r>     9.3406     3.8031  1062.3634 </r>
       <r>     9.4768     9.9800  1063.7217 </r>
       <r>     9.6129     8.6777  1064.9028 </r>
       <r>     9.7490     1.8128  1065.1495 </r>
       <r>     9.8851     9.3124  1066.4170 </r>
       <r>    10.0212    14.2824  1068.3610 </r>
       <r>    10.1573    21.8283  1071.3320 </r>
       <r>    10.2934    16.4368  1073.5691 </r>
       <r>    10.4295    16.1145  1075.7624 </r>
       <r>    10.5656    27.6920  1079.5315 </r>
       <r>    10.7017    24.7995  1082.9069 </r>
       <r>    10.8378    40.9734  1088.4837 </r>
       <r>    10.9739    35.0472  1093.2539 </r>
       <r>    11.1100    36.4252  1098.2116 </r>
       <r>    11.2461    30.6468  1102.3829 </r>
       <r>    11.3823    33.8848  1106.9948 </r>
       <r>    11.5184    24.0601  1110.2696 </r>
       <r>    11.6545    36.1333  1115.1876 </r>
       <r>    11.7906    32.2899  1119.5825 </r>
       <r>    11.9267    41.8656  1125.2807 </r>
       <r>    12.0628    33.8457  1129.8873 </r>
       <r>    12.1989    36.1463  1134.8071 </r>
       <r>    12.3350    22.8855  1137.9220 </r>
       <r>    12.4711    33.5470  1142.4880 </r>
       <r>    12.6072    39.5103  1147.8656 </r>
       <r>    12.7433    40.8294  1153.4228 </r>
       <r>    12.8794    31.8050  1157.7517 </r>
       <r>    13.0155    19.2983  1160.3783 </r>
       <r>    13.1517    20.2844  1163.1392 </r>
       <r>    13.2878    28.0774  1166.9607 </r>
       <r>    13.4239    24.7087  1170.3238 </r>
       <r>    13.5600    23.3080  1173.4962 </r>
       <r>    13.6961    29.3037  1177.4846 </r>
       <r>    13.8322    29.0410  1181.4373 </r>
       <r>    13.9683    28.0221  1185.2513 </r>
       <r>    14.1044    28.7691  1189.1670 </r>
       <r>    14.2405    22.3936  1192.2149 </r>
       <r>    14.3766    25.3946  1195.6713 </r>
       <r>    14.5127    24.1351  1198.9563 </r>
       <r>    14.6488    21.2115  1201.8433 </r>
       <r>    14.7849    21.7620  1204.8053 </r>
       <r>    14.9210    26.3145  1208.3869 </r>
       <r>    15.0572    22.5573  1211.4571 </r>
       <r>    15.1933    24.2579  1214.7588 </r>
       <r>    15.3294    21.1526  1217.6378 </r>
       <r>    15.4655    26.6099  1221.2596 </r>
       <r>    15.6016    23.9315  1224.5168 </r>
       <r>    15.7377    24.4685  1227.8472 </r>
       <r>    15.8738    21.1531  1230.7263 </r>
       <r>    16.0099    22.8862  1233.8413 </r>
       <r>    16.1460    19.4689  1236.4911 </r>
       <r>    16.2821    21.0393  1239.3547 </r>
       <r>    16.4182    21.3760  1242.2642 </r>
       <r>    16.5543    21.9990  1245.2584 </r>
       <r>    16.6904    19.1948  1247.8709 </r>
       <r>    16.8265    21.0692  1250.7386 </r>
       <r>    16.9627    19.9724  1253.4570 </r>
       <r>    17.0988    18.0536  1255.9142 </r>
       <r>    17.2349    16.0965  1258.1051 </r>
       <r>    17.3710    11.6179  1259.6863 </r>
       <r>    17.5071    12.2464  1261.3532 </r>
       <r>    17.6432     6.7599  1262.2732 </r>
       <r>    17.7793     7.4545  1263.2879 </r>
       <r>    17.9154     7.2818  1264.2790 </r>
       <r>    18.0515     3.9859  1264.8215 </r>
       <r>    18.1876     1.3132  1265.0002 </r>
       <r>    18.3237     1.4789  1265.2015 </r>
       <r>    18.4598     2.3702  1265.5241 </r>
       <r>    18.5959     3.4721  1265.9967 </r>
       <r>    18.7321     0.0244  1266.0000 </r>
       <r>    18.8682     0.0000  1266.0000 </r>
       <r>    19.0043     0.0000  1266.0000 </r>
       <r>    19.1404     0.0000  1266.0000 </r>
       <r>    19.2765     0.0000  1266.0000 </r>
       <r>    19.4126     0.0000  1266.0000 </r>
       <r>    19.5487     0.0000  1266.0000 </r>
       <r>    19.6848     0.0000  1266.0000 </r>
       <r>    19.8209     0.0000  1266.0000 </r>
       <r>    19.9570     0.0000  1266.0000 </r>
       <r>    20.0931     0.0000  1266.0000 </r>
       <r>    20.2292     0.0000  1266.0000 </r>
       <r>    20.3653     0.0000  1266.0000 </r>
      </set>
     </set>
    </array>
   </total>
  </dos>
 </calculation>
 <structure name="finalpos" >
  <crystal>
   <varray name="basis" >
    <v>       0.00000000      12.28047342       0.00000000 </v>
    <v>       9.14270205       0.00000000       0.00000000 </v>
    <v>       0.00000000      -2.76826177     -11.30069772 </v>
   </varray>
   <i name="volume">   1268.80515525 </i>
   <varray name="rec_basis" >
    <v>       0.00000000       0.08143009      -0.01994742 </v>
    <v>       0.10937686      -0.00000000       0.00000000 </v>
    <v>       0.00000000       0.00000000      -0.08849011 </v>
   </varray>
  </crystal>
  <varray name="positions" >
   <v>       0.66049639       0.00000000       0.15639329 </v>
   <v>       0.65643737       0.00000000       0.65542243 </v>
   <v>       0.66067274       0.33341592       0.15689050 </v>
   <v>       0.65437469       0.33256098       0.65609938 </v>
   <v>       0.66067274       0.66658408       0.15689050 </v>
   <v>       0.65437469       0.66743902       0.65609938 </v>
   <v>       0.83925189       0.16750052       0.34319112 </v>
   <v>       0.83790536       0.16712163       0.84208700 </v>
   <v>       0.84254304       0.50000000       0.34262216 </v>
   <v>       0.83837300       0.50000000       0.84182081 </v>
   <v>       0.83925189       0.83249948       0.34319112 </v>
   <v>       0.83790536       0.83287837       0.84208700 </v>
   <v>       0.59015885       0.16723807       0.39739394 </v>
   <v>       0.59024951       0.16666492       0.89819656 </v>
   <v>       0.59478373       0.50000000       0.39766374 </v>
   <v>       0.59473272       0.50000000       0.90052082 </v>
   <v>       0.59015885       0.83276193       0.39739394 </v>
   <v>       0.59024951       0.83333508       0.89819656 </v>
   <v>       0.90768376       0.00000000       0.10056464 </v>
   <v>       0.90754956       0.00000000       0.60226327 </v>
   <v>       0.90809928       0.33280611       0.10159025 </v>
   <v>       0.90567710       0.33404634       0.60229757 </v>
   <v>       0.90809928       0.66719389       0.10159025 </v>
   <v>       0.90567710       0.66595366       0.60229757 </v>
   <v>       0.15967355       0.16652082       0.15393778 </v>
   <v>       0.15735287       0.17294761       0.66228444 </v>
   <v>       0.15722538       0.50000000       0.15807204 </v>
   <v>       0.15801256       0.50000000       0.65821769 </v>
   <v>       0.15967355       0.83347918       0.15393778 </v>
   <v>       0.15735287       0.82705239       0.66228444 </v>
   <v>       0.34156199       0.00000000       0.34089427 </v>
   <v>       0.34012563       0.00000000       0.84806986 </v>
   <v>       0.34315911       0.33592182       0.34119376 </v>
   <v>       0.34379225       0.33423310       0.84666661 </v>
   <v>       0.34315911       0.66407818       0.34119376 </v>
   <v>       0.34379225       0.66576690       0.84666661 </v>
   <v>       0.08399303       0.00000000       0.38273439 </v>
   <v>       0.08714133       0.00000000       0.89811704 </v>
   <v>       0.09177316       0.33260573       0.39897000 </v>
   <v>       0.08812392       0.33328929       0.89780328 </v>
   <v>       0.09177316       0.66739427       0.39897000 </v>
   <v>       0.08812392       0.66671071       0.89780328 </v>
   <v>       0.41191394       0.16681160       0.10391322 </v>
   <v>       0.40154393       0.16168913       0.60292702 </v>
   <v>       0.41079190       0.50000000       0.10298223 </v>
   <v>       0.40760331       0.50000000       0.60311756 </v>
   <v>       0.41191394       0.83318840       0.10391322 </v>
   <v>       0.40154393       0.83831087       0.60292702 </v>
   <v>       0.99561844       0.16635496       0.12435898 </v>
   <v>       0.99321939       0.16783842       0.62752206 </v>
   <v>       0.99482780       0.50000000       0.12654432 </v>
   <v>       0.99376828       0.50000000       0.62844333 </v>
   <v>       0.99561844       0.83364504       0.12435898 </v>
   <v>       0.99321939       0.83216158       0.62752206 </v>
   <v>       0.50479882       0.00000000       0.36910298 </v>
   <v>       0.50402731       0.00000000       0.87771646 </v>
   <v>       0.50622301       0.33577890       0.36914532 </v>
   <v>       0.50680123       0.33562191       0.87880384 </v>
   <v>       0.50622301       0.66422110       0.36914532 </v>
   <v>       0.50680123       0.66437809       0.87880384 </v>
   <v>       0.67290351       0.16674526       0.28048922 </v>
   <v>       0.67058458       0.16688150       0.78018832 </v>
   <v>       0.67487841       0.50000000       0.28012892 </v>
   <v>       0.67051837       0.50000000       0.77952483 </v>
   <v>       0.67290351       0.83325474       0.28048922 </v>
   <v>       0.67058458       0.83311850       0.78018832 </v>
   <v>       0.82762045       0.00000000       0.21892872 </v>
   <v>       0.82496664       0.00000000       0.71867153 </v>
   <v>       0.82770389       0.33345443       0.21923836 </v>
   <v>       0.82429043       0.33358416       0.71918886 </v>
   <v>       0.82770389       0.66654557       0.21923836 </v>
   <v>       0.82429043       0.66641584       0.71918886 </v>
   <v>       0.83191730       0.00000000       0.44532089 </v>
   <v>       0.82981283       0.00000000       0.94451602 </v>
   <v>       0.83052579       0.33441440       0.44540078 </v>
   <v>       0.83007467       0.33374470       0.94524834 </v>
   <v>       0.83052579       0.66558560       0.44540078 </v>
   <v>       0.83007467       0.66625530       0.94524834 </v>
   <v>       0.66950726       0.16676280       0.05450864 </v>
   <v>       0.66746550       0.16711544       0.55369720 </v>
   <v>       0.67242700       0.50000000       0.05613976 </v>
   <v>       0.66645011       0.50000000       0.55532637 </v>
   <v>       0.66950726       0.83323720       0.05450864 </v>
   <v>       0.66746550       0.83288456       0.55369720 </v>
   <v>       0.49891286       0.00000000       0.12821402 </v>
   <v>       0.49664105       0.00000000       0.62852197 </v>
   <v>       0.49866900       0.33424731       0.12778754 </v>
   <v>       0.49268162       0.33080269       0.62696137 </v>
   <v>       0.49866900       0.66575269       0.12778754 </v>
   <v>       0.49268162       0.66919731       0.62696137 </v>
   <v>       0.99932794       0.16988675       0.36605688 </v>
   <v>       0.00012175       0.16731549       0.87175811 </v>
   <v>       0.00393735       0.50000000       0.37199065 </v>
   <v>       0.00091152       0.50000000       0.87248077 </v>
   <v>       0.99932794       0.83011325       0.36605688 </v>
   <v>       0.00012175       0.83268451       0.87175811 </v>
   <v>       0.17192381       0.00000000       0.27021892 </v>
   <v>       0.17319015       0.00000000       0.78866843 </v>
   <v>       0.17254567       0.33299957       0.28038479 </v>
   <v>       0.17065028       0.33442681       0.78198060 </v>
   <v>       0.17254567       0.66700043       0.28038479 </v>
   <v>       0.17065028       0.66557319       0.78198060 </v>
   <v>       0.32771951       0.16807608       0.21693792 </v>
   <v>       0.33661785       0.17483031       0.73388034 </v>
   <v>       0.32704338       0.50000000       0.21782965 </v>
   <v>       0.32755113       0.50000000       0.72215808 </v>
   <v>       0.32771951       0.83192392       0.21693792 </v>
   <v>       0.33661785       0.82516969       0.73388034 </v>
   <v>       0.34343489       0.17157955       0.44005818 </v>
   <v>       0.33207333       0.16848661       0.95037424 </v>
   <v>       0.33374513       0.50000000       0.44490085 </v>
   <v>       0.33162968       0.50000000       0.94759625 </v>
   <v>       0.34343489       0.82842045       0.44005818 </v>
   <v>       0.33207333       0.83151339       0.95037424 </v>
   <v>       0.16684174       0.00000000       0.05156765 </v>
   <v>       0.16540185       0.33484203       0.05372453 </v>
   <v>       0.16744500       0.33968379       0.55514004 </v>
   <v>       0.16540185       0.66515797       0.05372453 </v>
   <v>       0.16744500       0.66031621       0.55514004 </v>
   <v>       0.21194708       0.00000000       0.54945865 </v>
  </varray>
 </structure>
</modeling>
