 running    4 mpi-ranks, on    1 nodes
 distrk:  each k-point on    1 cores,    4 groups
 distr:  one band on    1 cores,    1 groups
 OpenACC runtime initialized ...    4 GPUs detected
 vasp.6.4.2 20Jul23 (build Nov 12 2023 22:16:35) complex                         
 POSCAR found type information on POSCAR GaO P 
 POSCAR found :  3 types and     119 ions
 scaLAPACK will be used selectively (only on CPU)
 LDA part: xc-table for Pade appr. of Perdew
 POSCAR, INCAR and KPOINTS ok, starting setup
 FFT: planning ... GRIDC
 FFT: planning ... GRID_SOFT
 FFT: planning ... GRID
 WAVECAR not read
 initial charge from wavefunction
 entering main loop
       N       E                     dE             d eps       ncg     rms          ort
DAV:   1    -0.179276682076E+05   -0.17928E+05   -0.54363E+05  5064   0.751E+03
DAV:   2    -0.636152472256E+05   -0.45688E+05   -0.43980E+05  5064   0.126E+03
DAV:   3    -0.694336369926E+05   -0.58184E+04   -0.52439E+04  5064   0.394E+02
DAV:   4    -0.703598517075E+05   -0.92621E+03   -0.84757E+03  5064   0.132E+02
DAV:   5    -0.407761213254E+05    0.29584E+05   -0.70834E+02  5064   0.576E+01
 gam= 0.000 g(H,U,f)=  0.939E+05 0.374E+05 0.811E+01 ort(H,U,f) = 0.000E+00 0.000E+00 0.000E+00
SDA:   6     0.444769760779E+05    0.85253E+05   -0.70834E+02  5064   0.131E+06 0.000E+00
 gam= 0.000 trial= 0.400  step= 0.565 mean= 0.400
 gam= 0.607 g(H,U,f)=  0.518E+05 0.198E+05 0.803E+04 ort(H,U,f) =-0.141E+05-0.152E+05-0.605E+04
CGA:   7     0.147264961153E+05   -0.29750E+05   -0.37062E+05  5064   0.796E+05-0.354E+05
 gam= 0.607 trial= 0.408  step= 0.276 mean= 0.408
 gam= 0.360 g(H,U,f)=  0.206E+05 0.728E+04 0.785E+03 ort(H,U,f) = 0.505E+04 0.268E+04-0.104E+04
CGA:   8     0.855533793882E+04   -0.61712E+04   -0.80178E+04  5064   0.287E+05 0.669E+04
 gam= 0.360 trial= 0.402  step= 0.258 mean= 0.402
 gam= 0.745 g(H,U,f)=  0.159E+05 0.518E+04 0.262E+03 ort(H,U,f) = 0.184E+04-0.316E+04-0.248E+03
CGA:   9     0.503395109519E+04   -0.35214E+04   -0.40097E+04  5064   0.214E+05-0.157E+04
 gam= 0.745 trial= 0.394  step= 0.257 mean= 0.394
 gam= 0.438 g(H,U,f)=  0.788E+04 0.145E+04 0.163E+02 ort(H,U,f) = 0.302E+04-0.454E+03-0.166E+02
CGA:  10     0.310632184413E+04   -0.19276E+04   -0.25969E+04  5064   0.935E+04 0.255E+04
 gam= 0.438 trial= 0.388  step= 0.308 mean= 0.388
 gam= 0.628 g(H,U,f)=  0.501E+04 0.837E+03 0.260E+02 ort(H,U,f) = 0.792E+03 0.432E+03-0.635E+01
CGA:  11     0.163528565583E+04   -0.14710E+04   -0.16122E+04  5064   0.587E+04 0.122E+04
 gam= 0.628 trial= 0.384  step= 0.327 mean= 0.384
 gam= 0.444 g(H,U,f)=  0.199E+04 0.581E+03 0.361E+02 ort(H,U,f) = 0.459E+03 0.305E+03-0.753E+00
CGA:  12     0.606108671931E+03   -0.10292E+04   -0.10855E+04  5064   0.261E+04 0.763E+03
 gam= 0.444 trial= 0.381  step= 0.408 mean= 0.381
 gam= 0.490 g(H,U,f)=  0.108E+04 0.191E+03 0.117E+01 ort(H,U,f) = 0.139E+03 0.290E+03-0.191E+01
CGA:  13    -0.595122673987E+01   -0.61206E+03   -0.60061E+03  5064   0.128E+04 0.427E+03
 gam= 0.490 trial= 0.382  step= 0.549 mean= 0.382
 gam= 0.599 g(H,U,f)=  0.662E+03 0.101E+03 0.103E+01 ort(H,U,f) =-0.201E+03 0.225E+03 0.164E+01
CGA:  14    -0.421067290671E+03   -0.41512E+03   -0.40799E+03  5064   0.764E+03 0.256E+02
 gam= 0.599 trial= 0.390  step= 0.448 mean= 0.390
 gam= 0.718 g(H,U,f)=  0.365E+03 0.178E+03 0.579E+01 ort(H,U,f) = 0.150E+02-0.142E+03-0.499E+01
CGA:  15    -0.590311753773E+03   -0.16924E+03   -0.17464E+03  5064   0.549E+03-0.132E+03
 gam= 0.718 trial= 0.393  step= 0.316 mean= 0.393
 gam= 0.716 g(H,U,f)=  0.233E+03 0.153E+03 0.656E+01 ort(H,U,f) = 0.429E+02-0.615E+02 0.847E+01
CGA:  16    -0.663089891526E+03   -0.72778E+02   -0.71754E+02  5064   0.393E+03-0.101E+02
 gam= 0.716 trial= 0.389  step= 0.276 mean= 0.389
 gam= 0.548 g(H,U,f)=  0.155E+03 0.592E+02 0.561E+00 ort(H,U,f) = 0.311E+02-0.222E+02 0.880E-01
CGA:  17    -0.713285156312E+03   -0.50195E+02   -0.53283E+02  5064   0.215E+03 0.893E+01
 gam= 0.548 trial= 0.384  step= 0.354 mean= 0.384
 gam= 0.609 g(H,U,f)=  0.911E+02 0.395E+02 0.488E+00 ort(H,U,f) = 0.409E+01 0.158E+01-0.269E+00
CGA:  18    -0.752043471267E+03   -0.38758E+02   -0.38932E+02  5064   0.131E+03 0.540E+01
 gam= 0.609 trial= 0.382  step= 0.417 mean= 0.382
 gam= 0.701 g(H,U,f)=  0.657E+02 0.260E+02 0.172E+00 ort(H,U,f) =-0.189E+02 0.218E+02-0.591E-01
CGA:  19    -0.780139475046E+03   -0.28096E+02   -0.28033E+02  5064   0.919E+02 0.283E+01
 gam= 0.701 trial= 0.384  step= 0.428 mean= 0.384
 gam= 0.705 g(H,U,f)=  0.478E+02 0.168E+02 0.166E+00 ort(H,U,f) =-0.197E+02 0.214E+02-0.659E-01
CGA:  20    -0.800261986102E+03   -0.20123E+02   -0.20090E+02  5064   0.648E+02 0.166E+01
 gam= 0.705 trial= 0.386  step= 0.419 mean= 0.386
 gam= 0.681 g(H,U,f)=  0.342E+02 0.959E+01 0.315E+00 ort(H,U,f) =-0.128E+02 0.143E+02 0.666E-01
CGA:  21    -0.814097618484E+03   -0.13836E+02   -0.13812E+02  5064   0.441E+02 0.150E+01
 gam= 0.681 trial= 0.388  step= 0.401 mean= 0.388
 gam= 0.580 g(H,U,f)=  0.210E+02 0.458E+01 0.323E-02 ort(H,U,f) =-0.347E+01 0.489E+01-0.138E-02
CGA:  22    -0.823163199146E+03   -0.90656E+01   -0.90538E+01  5064   0.256E+02 0.141E+01
 gam= 0.580 trial= 0.389  step= 0.417 mean= 0.389
 gam= 0.589 g(H,U,f)=  0.114E+02 0.364E+01 0.113E-01 ort(H,U,f) = 0.626E-01 0.617E+00-0.130E-01
CGA:  23    -0.828685932712E+03   -0.55227E+01   -0.55117E+01  5064   0.151E+02 0.667E+00
 gam= 0.589 trial= 0.390  step= 0.429 mean= 0.390
 gam= 0.620 g(H,U,f)=  0.697E+01 0.234E+01 0.313E-01 ort(H,U,f) =-0.217E+00 0.538E+00 0.320E-02
CGA:  24    -0.832013633999E+03   -0.33277E+01   -0.33205E+01  5064   0.934E+01 0.324E+00
 gam= 0.620 trial= 0.392  step= 0.416 mean= 0.392
 gam= 0.680 g(H,U,f)=  0.464E+01 0.168E+01 0.294E-01 ort(H,U,f) =-0.346E+00 0.447E+00-0.318E-01
CGA:  25    -0.834001293156E+03   -0.19877E+01   -0.19873E+01  5064   0.635E+01 0.694E-01
 gam= 0.680 trial= 0.393  step= 0.413 mean= 0.393
 gam= 0.685 g(H,U,f)=  0.303E+01 0.128E+01 0.425E-01 ort(H,U,f) =-0.667E+00 0.772E+00-0.420E-01
CGA:  26    -0.835324724945E+03   -0.13234E+01   -0.13227E+01  5064   0.435E+01 0.623E-01
 gam= 0.685 trial= 0.394  step= 0.386 mean= 0.394
 gam= 0.608 g(H,U,f)=  0.196E+01 0.688E+00 0.837E-03 ort(H,U,f) =-0.829E+00 0.851E+00-0.111E-02
CGA:  27    -0.836173474381E+03   -0.84875E+00   -0.84882E+00  5064   0.265E+01 0.207E-01
 gam= 0.608 trial= 0.394  step= 0.444 mean= 0.394
 gam= 0.705 g(H,U,f)=  0.145E+01 0.405E+00 0.109E-01 ort(H,U,f) =-0.442E+00 0.454E+00-0.325E-02
CGA:  28    -0.836764066679E+03   -0.59059E+00   -0.59044E+00  5064   0.186E+01 0.856E-02
 gam= 0.705 trial= 0.396  step= 0.436 mean= 0.396
 gam= 0.570 g(H,U,f)=  0.849E+00 0.213E+00 0.100E-02 ort(H,U,f) =-0.172E+00 0.176E+00 0.180E-02
CGA:  29    -0.837172453005E+03   -0.40839E+00   -0.40828E+00  5064   0.106E+01 0.628E-02
 gam= 0.570 trial= 0.398  step= 0.445 mean= 0.398
 gam= 0.641 g(H,U,f)=  0.515E+00 0.161E+00 0.536E-02 ort(H,U,f) =-0.290E-01 0.367E-01-0.413E-02
CGA:  30    -0.837409589719E+03   -0.23714E+00   -0.23705E+00  5064   0.681E+00 0.359E-02
 gam= 0.641 trial= 0.401  step= 0.466 mean= 0.401
 gam= 0.699 g(H,U,f)=  0.349E+00 0.125E+00 0.216E-02 ort(H,U,f) =-0.339E-01 0.347E-01 0.142E-02
CGA:  31    -0.837568964524E+03   -0.15937E+00   -0.15929E+00  5064   0.476E+00 0.225E-02
 gam= 0.699 trial= 0.404  step= 0.426 mean= 0.404
 gam= 0.654 g(H,U,f)=  0.230E+00 0.814E-01 0.443E-03 ort(H,U,f) =-0.313E-01 0.338E-01-0.111E-02
CGA:  32    -0.837670621669E+03   -0.10166E+00   -0.10164E+00  5064   0.311E+00 0.138E-02
 gam= 0.654 trial= 0.405  step= 0.414 mean= 0.405
 gam= 0.662 g(H,U,f)=  0.145E+00 0.599E-01 0.876E-03 ort(H,U,f) =-0.305E-01 0.315E-01-0.506E-03
CGA:  33    -0.837735330373E+03   -0.64709E-01   -0.64706E-01  5064   0.206E+00 0.487E-03
 gam= 0.662 trial= 0.405  step= 0.429 mean= 0.405
 gam= 0.667 g(H,U,f)=  0.101E+00 0.364E-01 0.670E-05 ort(H,U,f) =-0.298E-01 0.302E-01-0.267E-04
CGA:  34    -0.837779633953E+03   -0.44304E-01   -0.44300E-01  5064   0.138E+00 0.294E-03
 gam= 0.667 trial= 0.407  step= 0.450 mean= 0.407
 gam= 0.656 g(H,U,f)=  0.674E-01 0.223E-01 0.523E-03 ort(H,U,f) =-0.178E-01 0.184E-01-0.258E-03
CGA:  35    -0.837810645603E+03   -0.31012E-01   -0.31006E-01  5064   0.903E-01 0.266E-03
 gam= 0.656 trial= 0.409  step= 0.461 mean= 0.409
 gam= 0.616 g(H,U,f)=  0.431E-01 0.124E-01 0.827E-04 ort(H,U,f) =-0.949E-02 0.961E-02 0.133E-03
CGA:  36    -0.837831487486E+03   -0.20842E-01   -0.20835E-01  5064   0.556E-01 0.256E-03
 gam= 0.616 trial= 0.411  step= 0.468 mean= 0.411
 gam= 0.000 g(H,U,f)=  0.296E-01 0.769E-02 0.828E-04 ort(H,U,f) =-0.280E-02 0.311E-02-0.156E-03
SDA:  37    -0.837844531918E+03   -0.13044E-01   -0.13040E-01  5064   0.374E-01 0.161E-03
 gam= 0.000 trial= 0.414  step= 0.887 mean= 0.414
 gam= 0.416 g(H,U,f)=  0.111E-01 0.421E-02 0.241E-03 ort(H,U,f) =-0.365E-02 0.368E-02-0.145E-03
CGA:  38    -0.837861084771E+03   -0.16553E-01   -0.16581E-01  5064   0.156E-01-0.121E-03
 gam= 0.416 trial= 0.438  step= 0.776 mean= 0.438
 gam= 0.299 g(H,U,f)=  0.347E-02 0.112E-02 0.625E-04 ort(H,U,f) =-0.216E-02 0.226E-02-0.860E-04
CGA:  39    -0.837867105627E+03   -0.60209E-02   -0.60185E-02  5064   0.465E-02 0.128E-04
 gam= 0.299 trial= 0.455  step= 0.756 mean= 0.455
 gam= 0.337 g(H,U,f)=  0.136E-02 0.205E-03 0.541E-05 ort(H,U,f) =-0.484E-03 0.497E-03-0.103E-04
CGA:  40    -0.837868866099E+03   -0.17605E-02   -0.17601E-02  5064   0.157E-02 0.294E-05
 gam= 0.337 trial= 0.470  step= 0.660 mean= 0.470
 gam= 0.309 g(H,U,f)=  0.453E-03 0.311E-04 0.714E-06 ort(H,U,f) =-0.112E-03 0.106E-03 0.459E-06
CGA:  41    -0.837869384369E+03   -0.51827E-03   -0.51891E-03  5064   0.485E-03-0.607E-05
 gam= 0.309 trial= 0.479  step= 0.588 mean= 0.479
 gam= 0.247 g(H,U,f)=  0.110E-03 0.870E-05 0.851E-06 ort(H,U,f) =-0.141E-04 0.964E-05-0.818E-06
CGA:  42    -0.837869526263E+03   -0.14189E-03   -0.14219E-03  5064   0.120E-03-0.529E-05
 gam= 0.247 trial= 0.485  step= 0.636 mean= 0.485
 gam= 0.318 g(H,U,f)=  0.348E-04 0.301E-05 0.229E-06 ort(H,U,f) = 0.922E-06-0.102E-05-0.323E-06
CGA:  43    -0.837869563871E+03   -0.37607E-04   -0.37638E-04  5064   0.381E-04-0.424E-06
 gam= 0.318 trial= 0.492  step= 0.649 mean= 0.492
 gam= 0.283 g(H,U,f)=  0.997E-05 0.785E-06 0.517E-08 ort(H,U,f) = 0.632E-06 0.414E-06 0.187E-07
CGA:  44    -0.837869576272E+03   -0.12401E-04   -0.12317E-04  5064   0.108E-04 0.106E-05
 gam= 0.283 trial= 0.500  step= 0.830 mean= 0.500
 gam= 0.523 g(H,U,f)=  0.508E-05 0.514E-06 0.358E-07 ort(H,U,f) =-0.290E-06 0.195E-06-0.240E-07
CGA:  45    -0.837869580842E+03   -0.45698E-05   -0.45898E-05  5064   0.563E-05-0.120E-06
 gam= 0.523 trial= 0.517  step= 0.829 mean= 0.517
 final diagonalization
   1 F= -.83786958E+03 E0= -.83786607E+03  d E =-.703116E-02
 writing wavefunctions
Warning: ieee_invalid is signaling
Warning: ieee_divide_by_zero is signaling
Warning: ieee_underflow is signaling
Warning: ieee_inexact is signaling
FORTRAN STOP
Warning: ieee_invalid is signaling
Warning: ieee_divide_by_zero is signaling
Warning: ieee_underflow is signaling
Warning: ieee_inexact is signaling
FORTRAN STOP
Warning: ieee_invalid is signaling
Warning: ieee_divide_by_zero is signaling
Warning: ieee_underflow is signaling
Warning: ieee_inexact is signaling
FORTRAN STOP
Warning: ieee_invalid is signaling
Warning: ieee_divide_by_zero is signaling
Warning: ieee_underflow is signaling
Warning: ieee_inexact is signaling
FORTRAN STOP
