 running    4 mpi-ranks, on    1 nodes
 distrk:  each k-point on    1 cores,    4 groups
 distr:  one band on    1 cores,    1 groups
 OpenACC runtime initialized ...    4 GPUs detected
 vasp.6.4.2 20Jul23 (build Nov 12 2023 22:16:35) complex                         
 POSCAR found type information on POSCAR GaO P 
 POSCAR found :  3 types and     119 ions
 scaLAPACK will be used selectively (only on CPU)
 LDA part: xc-table for Pade appr. of Perdew
 POSCAR, INCAR and KPOINTS ok, starting setup
 FFT: planning ... GRIDC
 FFT: planning ... GRID_SOFT
 FFT: planning ... GRID
 WAVECAR not read
 initial charge from wavefunction
 entering main loop
       N       E                     dE             d eps       ncg     rms          ort
DAV:   1    -0.183756760077E+05   -0.18376E+05   -0.54327E+05  5000   0.750E+03
DAV:   2    -0.628458635945E+05   -0.44470E+05   -0.42956E+05  5000   0.123E+03
DAV:   3    -0.678631962744E+05   -0.50173E+04   -0.45665E+04  5000   0.375E+02
DAV:   4    -0.685838516693E+05   -0.72066E+03   -0.64027E+03  5000   0.118E+02
DAV:   5    -0.390279028002E+05    0.29556E+05   -0.68976E+02  5000   0.564E+01
 gam= 0.000 g(H,U,f)=  0.818E+05 0.829E+04 0.383E+04 ort(H,U,f) = 0.000E+00 0.000E+00 0.000E+00
SDA:   6     0.340524008679E+05    0.73080E+05   -0.68976E+02  5000   0.939E+05 0.000E+00
 gam= 0.000 trial= 0.400  step= 0.530 mean= 0.400
 gam= 0.723 g(H,U,f)=  0.506E+05 0.169E+05 0.372E+03 ort(H,U,f) =-0.127E+05-0.376E+04 0.242E+03
CGA:   7     0.137963199325E+05   -0.20256E+05   -0.24903E+05  5000   0.679E+05-0.162E+05
 gam= 0.723 trial= 0.407  step= 0.254 mean= 0.407
 gam= 0.413 g(H,U,f)=  0.208E+05 0.699E+04 0.261E+03 ort(H,U,f) = 0.447E+04 0.559E+04-0.157E+03
CGA:   8     0.732203442027E+04   -0.64743E+04   -0.71363E+04  5000   0.281E+05 0.990E+04
 gam= 0.413 trial= 0.399  step= 0.207 mean= 0.399
 gam= 1.209 g(H,U,f)=  0.196E+05 0.134E+05 0.953E+03 ort(H,U,f) = 0.442E+04-0.773E+04-0.663E+03
CGA:   9     0.564479846291E+04   -0.16772E+04   -0.33311E+04  5000   0.339E+05-0.397E+04
 gam= 1.209 trial= 0.389  step= 0.210 mean= 0.389
 gam= 0.525 g(H,U,f)=  0.139E+05 0.370E+04 0.185E+03 ort(H,U,f) = 0.471E+04 0.992E+02-0.560E+02
CGA:  10     0.401395475768E+04   -0.16308E+04   -0.30617E+04  5000   0.178E+05 0.475E+04
 gam= 0.525 trial= 0.380  step= 0.239 mean= 0.380
 gam= 0.356 g(H,U,f)=  0.565E+04 0.674E+03 0.118E+02 ort(H,U,f) = 0.117E+04 0.452E+03 0.697E+01
CGA:  11     0.212925640052E+04   -0.18847E+04   -0.24300E+04  5000   0.634E+04 0.163E+04
 gam= 0.356 trial= 0.373  step= 0.371 mean= 0.373
 gam= 0.555 g(H,U,f)=  0.310E+04 0.420E+03 0.102E+01 ort(H,U,f) = 0.556E+03 0.206E+03 0.137E+01
CGA:  12     0.846887040734E+03   -0.12824E+04   -0.12840E+04  5000   0.352E+04 0.764E+03
 gam= 0.555 trial= 0.373  step= 0.408 mean= 0.373
 gam= 0.472 g(H,U,f)=  0.148E+04 0.175E+03 0.340E+01 ort(H,U,f) = 0.181E+03 0.216E+03-0.344E+00
CGA:  13     0.308156191600E+02   -0.81607E+03   -0.80326E+03  5000   0.166E+04 0.397E+03
 gam= 0.472 trial= 0.375  step= 0.509 mean= 0.375
 gam= 0.479 g(H,U,f)=  0.680E+03 0.115E+03 0.130E+01 ort(H,U,f) =-0.142E+03 0.225E+03 0.288E+00
CGA:  14    -0.448885306679E+03   -0.47970E+03   -0.47027E+03  5000   0.796E+03 0.834E+02
 gam= 0.479 trial= 0.382  step= 0.604 mean= 0.382
 gam= 0.567 g(H,U,f)=  0.403E+03 0.477E+02 0.416E-01 ort(H,U,f) =-0.121E+03 0.844E+02 0.144E+00
CGA:  15    -0.699010481117E+03   -0.25013E+03   -0.25223E+03  5000   0.451E+03-0.366E+02
 gam= 0.567 trial= 0.393  step= 0.477 mean= 0.393
 gam= 0.580 g(H,U,f)=  0.199E+03 0.603E+02 0.233E+01 ort(H,U,f) = 0.178E+02-0.357E+02-0.131E+01
CGA:  16    -0.800672258281E+03   -0.10166E+03   -0.10262E+03  5000   0.262E+03-0.192E+02
 gam= 0.580 trial= 0.397  step= 0.432 mean= 0.397
 gam= 0.553 g(H,U,f)=  0.104E+03 0.384E+02 0.180E+01 ort(H,U,f) = 0.690E+01-0.255E+01 0.131E+01
CGA:  17    -0.854977586935E+03   -0.54305E+02   -0.54089E+02  5000   0.145E+03 0.565E+01
 gam= 0.553 trial= 0.399  step= 0.455 mean= 0.399
 gam= 0.551 g(H,U,f)=  0.625E+02 0.173E+02 0.578E-04 ort(H,U,f) =-0.688E+01 0.740E+01-0.140E-03
CGA:  18    -0.888594504812E+03   -0.33617E+02   -0.33640E+02  5000   0.798E+02 0.527E+00
 gam= 0.551 trial= 0.402  step= 0.506 mean= 0.402
 gam= 0.609 g(H,U,f)=  0.376E+02 0.109E+02 0.141E-03 ort(H,U,f) =-0.824E+01 0.958E+01-0.813E-03
CGA:  19    -0.908946892749E+03   -0.20352E+02   -0.20268E+02  5000   0.486E+02 0.134E+01
 gam= 0.609 trial= 0.407  step= 0.523 mean= 0.407
 gam= 0.583 g(H,U,f)=  0.222E+02 0.614E+01 0.389E-02 ort(H,U,f) =-0.714E+01 0.733E+01-0.848E-02
CGA:  20    -0.921859517810E+03   -0.12913E+02   -0.12905E+02  5000   0.283E+02 0.184E+00
 gam= 0.583 trial= 0.413  step= 0.503 mean= 0.413
 gam= 0.604 g(H,U,f)=  0.133E+02 0.372E+01 0.363E-01 ort(H,U,f) =-0.406E+01 0.426E+01-0.138E-01
CGA:  21    -0.929008346741E+03   -0.71488E+01   -0.71435E+01  5000   0.171E+02 0.185E+00
 gam= 0.604 trial= 0.417  step= 0.513 mean= 0.417
 gam= 0.559 g(H,U,f)=  0.794E+01 0.161E+01 0.949E-03 ort(H,U,f) =-0.154E+01 0.186E+01-0.255E-03
CGA:  22    -0.933438969754E+03   -0.44306E+01   -0.44124E+01  5000   0.955E+01 0.324E+00
 gam= 0.559 trial= 0.422  step= 0.496 mean= 0.422
 gam= 0.515 g(H,U,f)=  0.404E+01 0.872E+00 0.780E-04 ort(H,U,f) =-0.233E+00 0.379E+00 0.133E-03
CGA:  23    -0.935858103944E+03   -0.24191E+01   -0.24126E+01  5000   0.491E+01 0.146E+00
 gam= 0.515 trial= 0.426  step= 0.526 mean= 0.426
 gam= 0.634 g(H,U,f)=  0.248E+01 0.639E+00 0.363E-03 ort(H,U,f) =-0.167E+00 0.217E+00-0.201E-03
CGA:  24    -0.937172148873E+03   -0.13140E+01   -0.13112E+01  5000   0.311E+01 0.499E-01
 gam= 0.634 trial= 0.431  step= 0.500 mean= 0.431
 gam= 0.582 g(H,U,f)=  0.143E+01 0.385E+00 0.556E-03 ort(H,U,f) =-0.245E+00 0.258E+00-0.740E-04
CGA:  25    -0.937958980051E+03   -0.78683E+00   -0.78636E+00  5000   0.181E+01 0.130E-01
 gam= 0.582 trial= 0.434  step= 0.468 mean= 0.434
 gam= 0.532 g(H,U,f)=  0.727E+00 0.236E+00 0.952E-03 ort(H,U,f) =-0.223E+00 0.224E+00 0.113E-03
CGA:  26    -0.938384219136E+03   -0.42524E+00   -0.42527E+00  5000   0.964E+00 0.413E-03
 gam= 0.532 trial= 0.436  step= 0.535 mean= 0.436
 gam= 0.619 g(H,U,f)=  0.470E+00 0.126E+00 0.309E-03 ort(H,U,f) =-0.156E+00 0.155E+00 0.432E-03
CGA:  27    -0.938641928989E+03   -0.25771E+00   -0.25777E+00  5000   0.596E+00-0.248E-03
 gam= 0.619 trial= 0.441  step= 0.565 mean= 0.441
 gam= 0.539 g(H,U,f)=  0.265E+00 0.568E-01 0.189E-04 ort(H,U,f) =-0.642E-01 0.650E-01 0.503E-04
CGA:  28    -0.938810243128E+03   -0.16831E+00   -0.16826E+00  5000   0.322E+00 0.892E-03
 gam= 0.539 trial= 0.447  step= 0.553 mean= 0.447
 gam= 0.543 g(H,U,f)=  0.142E+00 0.328E-01 0.695E-05 ort(H,U,f) =-0.180E-01 0.185E-01-0.199E-04
CGA:  29    -0.938899373164E+03   -0.89130E-01   -0.89105E-01  5000   0.175E+00 0.500E-03
 gam= 0.543 trial= 0.452  step= 0.583 mean= 0.452
 gam= 0.660 g(H,U,f)=  0.945E-01 0.209E-01 0.770E-05 ort(H,U,f) =-0.665E-02 0.679E-02-0.159E-04
CGA:  30    -0.938950382402E+03   -0.51009E-01   -0.51002E-01  5000   0.115E+00 0.127E-03
 gam= 0.660 trial= 0.459  step= 0.531 mean= 0.459
 gam= 0.571 g(H,U,f)=  0.508E-01 0.151E-01 0.120E-04 ort(H,U,f) =-0.393E-02 0.396E-02-0.494E-05
CGA:  31    -0.938981082680E+03   -0.30700E-01   -0.30700E-01  5000   0.659E-01 0.213E-04
 gam= 0.571 trial= 0.462  step= 0.496 mean= 0.462
 gam= 0.579 g(H,U,f)=  0.282E-01 0.100E-01 0.556E-05 ort(H,U,f) =-0.647E-02 0.650E-02 0.498E-05
CGA:  32    -0.938997442418E+03   -0.16360E-01   -0.16359E-01  5000   0.382E-01 0.378E-04
 gam= 0.579 trial= 0.464  step= 0.547 mean= 0.464
 gam= 0.632 g(H,U,f)=  0.186E-01 0.554E-02 0.398E-05 ort(H,U,f) =-0.533E-02 0.542E-02 0.258E-05
CGA:  33    -0.939007889827E+03   -0.10447E-01   -0.10443E-01  5000   0.241E-01 0.931E-04
 gam= 0.632 trial= 0.468  step= 0.551 mean= 0.468
 gam= 0.564 g(H,U,f)=  0.107E-01 0.290E-02 0.316E-05 ort(H,U,f) =-0.280E-02 0.290E-02 0.387E-05
CGA:  34    -0.939014565702E+03   -0.66759E-02   -0.66712E-02  5000   0.136E-01 0.110E-03
 gam= 0.564 trial= 0.472  step= 0.554 mean= 0.472
 gam= 0.582 g(H,U,f)=  0.649E-02 0.143E-02 0.544E-06 ort(H,U,f) =-0.111E-02 0.119E-02 0.213E-05
CGA:  35    -0.939018352381E+03   -0.37867E-02   -0.37835E-02  5000   0.792E-02 0.775E-04
 gam= 0.582 trial= 0.476  step= 0.565 mean= 0.476
 gam= 0.624 g(H,U,f)=  0.410E-02 0.839E-03 0.496E-06 ort(H,U,f) =-0.222E-03 0.253E-03-0.739E-06
CGA:  36    -0.939020604177E+03   -0.22518E-02   -0.22504E-02  5000   0.494E-02 0.310E-04
 gam= 0.624 trial= 0.481  step= 0.530 mean= 0.481
 gam= 0.000 g(H,U,f)=  0.224E-02 0.588E-03 0.447E-06 ort(H,U,f) =-0.104E-03 0.951E-04-0.672E-06
SDA:  37    -0.939021919088E+03   -0.13149E-02   -0.13151E-02  5000   0.283E-02-0.922E-05
 gam= 0.000 trial= 0.483  step= 0.848 mean= 0.483
 gam= 0.441 g(H,U,f)=  0.974E-03 0.271E-03 0.112E-06 ort(H,U,f) =-0.348E-03 0.325E-03-0.494E-07
CGA:  38    -0.939023113405E+03   -0.11943E-02   -0.11985E-02  5000   0.125E-02-0.231E-04
 gam= 0.441 trial= 0.502  step= 0.785 mean= 0.502
 gam= 0.326 g(H,U,f)=  0.339E-03 0.668E-04 0.220E-07 ort(H,U,f) =-0.209E-03 0.202E-03 0.442E-07
CGA:  39    -0.939023597007E+03   -0.48360E-03   -0.48457E-03  5000   0.405E-03-0.677E-05
 gam= 0.326 trial= 0.516  step= 0.728 mean= 0.516
 gam= 0.304 g(H,U,f)=  0.112E-03 0.116E-04 0.172E-07 ort(H,U,f) =-0.480E-04 0.433E-04 0.362E-08
CGA:  40    -0.939023743245E+03   -0.14624E-03   -0.14673E-03  5000   0.123E-03-0.464E-05
 gam= 0.304 trial= 0.526  step= 0.682 mean= 0.526
 gam= 0.338 g(H,U,f)=  0.397E-04 0.198E-05 0.377E-08 ort(H,U,f) =-0.962E-05 0.776E-05 0.931E-08
CGA:  41    -0.939023784612E+03   -0.41368E-04   -0.41511E-04  5000   0.417E-04-0.185E-05
 gam= 0.338 trial= 0.534  step= 0.584 mean= 0.534
 gam= 0.257 g(H,U,f)=  0.105E-04 0.198E-06 0.748E-09 ort(H,U,f) =-0.116E-05 0.512E-06 0.635E-09
CGA:  42    -0.939023796576E+03   -0.11964E-04   -0.11980E-04  5000   0.107E-04-0.649E-06
 gam= 0.257 trial= 0.537  step= 0.638 mean= 0.537
 gam= 0.364 g(H,U,f)=  0.379E-05 0.116E-06 0.152E-09 ort(H,U,f) =-0.558E-06-0.391E-07 0.408E-09
CGA:  43    -0.939023799909E+03   -0.33328E-05   -0.33624E-05  5000   0.390E-05-0.597E-06
 gam= 0.364 trial= 0.542  step= 0.614 mean= 0.542
 final diagonalization
   1 F= -.93902380E+03 E0= -.93902227E+03  d E =-.306819E-02
 writing wavefunctions
Warning: ieee_invalid is signaling
Warning: ieee_divide_by_zero is signaling
Warning: ieee_underflow is signaling
Warning: ieee_inexact is signaling
FORTRAN STOP
Warning: ieee_invalid is signaling
Warning: ieee_divide_by_zero is signaling
Warning: ieee_underflow is signaling
Warning: ieee_inexact is signaling
FORTRAN STOP
Warning: ieee_invalid is signaling
Warning: ieee_divide_by_zero is signaling
Warning: ieee_underflow is signaling
Warning: ieee_inexact is signaling
FORTRAN STOP
Warning: ieee_invalid is signaling
Warning: ieee_divide_by_zero is signaling
Warning: ieee_underflow is signaling
Warning: ieee_inexact is signaling
FORTRAN STOP
