       N       E                     dE             d eps       ncg     rms          ort
DAV:   1    -0.183756760077E+05   -0.18376E+05   -0.54327E+05  5000   0.750E+03
DAV:   2    -0.628458635945E+05   -0.44470E+05   -0.42956E+05  5000   0.123E+03
DAV:   3    -0.678631962744E+05   -0.50173E+04   -0.45665E+04  5000   0.375E+02
DAV:   4    -0.685838516693E+05   -0.72066E+03   -0.64027E+03  5000   0.118E+02
DAV:   5    -0.390279028002E+05    0.29556E+05   -0.68976E+02  5000   0.564E+01
SDA:   6     0.340524008679E+05    0.73080E+05   -0.68976E+02  5000   0.939E+05 0.000E+00
CGA:   7     0.137963199325E+05   -0.20256E+05   -0.24903E+05  5000   0.679E+05-0.162E+05
CGA:   8     0.732203442027E+04   -0.64743E+04   -0.71363E+04  5000   0.281E+05 0.990E+04
CGA:   9     0.564479846291E+04   -0.16772E+04   -0.33311E+04  5000   0.339E+05-0.397E+04
CGA:  10     0.401395475768E+04   -0.16308E+04   -0.30617E+04  5000   0.178E+05 0.475E+04
CGA:  11     0.212925640052E+04   -0.18847E+04   -0.24300E+04  5000   0.634E+04 0.163E+04
CGA:  12     0.846887040734E+03   -0.12824E+04   -0.12840E+04  5000   0.352E+04 0.764E+03
CGA:  13     0.308156191600E+02   -0.81607E+03   -0.80326E+03  5000   0.166E+04 0.397E+03
CGA:  14    -0.448885306679E+03   -0.47970E+03   -0.47027E+03  5000   0.796E+03 0.834E+02
CGA:  15    -0.699010481117E+03   -0.25013E+03   -0.25223E+03  5000   0.451E+03-0.366E+02
CGA:  16    -0.800672258281E+03   -0.10166E+03   -0.10262E+03  5000   0.262E+03-0.192E+02
CGA:  17    -0.854977586935E+03   -0.54305E+02   -0.54089E+02  5000   0.145E+03 0.565E+01
CGA:  18    -0.888594504812E+03   -0.33617E+02   -0.33640E+02  5000   0.798E+02 0.527E+00
CGA:  19    -0.908946892749E+03   -0.20352E+02   -0.20268E+02  5000   0.486E+02 0.134E+01
CGA:  20    -0.921859517810E+03   -0.12913E+02   -0.12905E+02  5000   0.283E+02 0.184E+00
CGA:  21    -0.929008346741E+03   -0.71488E+01   -0.71435E+01  5000   0.171E+02 0.185E+00
CGA:  22    -0.933438969754E+03   -0.44306E+01   -0.44124E+01  5000   0.955E+01 0.324E+00
CGA:  23    -0.935858103944E+03   -0.24191E+01   -0.24126E+01  5000   0.491E+01 0.146E+00
CGA:  24    -0.937172148873E+03   -0.13140E+01   -0.13112E+01  5000   0.311E+01 0.499E-01
CGA:  25    -0.937958980051E+03   -0.78683E+00   -0.78636E+00  5000   0.181E+01 0.130E-01
CGA:  26    -0.938384219136E+03   -0.42524E+00   -0.42527E+00  5000   0.964E+00 0.413E-03
CGA:  27    -0.938641928989E+03   -0.25771E+00   -0.25777E+00  5000   0.596E+00-0.248E-03
CGA:  28    -0.938810243128E+03   -0.16831E+00   -0.16826E+00  5000   0.322E+00 0.892E-03
CGA:  29    -0.938899373164E+03   -0.89130E-01   -0.89105E-01  5000   0.175E+00 0.500E-03
CGA:  30    -0.938950382402E+03   -0.51009E-01   -0.51002E-01  5000   0.115E+00 0.127E-03
CGA:  31    -0.938981082680E+03   -0.30700E-01   -0.30700E-01  5000   0.659E-01 0.213E-04
CGA:  32    -0.938997442418E+03   -0.16360E-01   -0.16359E-01  5000   0.382E-01 0.378E-04
CGA:  33    -0.939007889827E+03   -0.10447E-01   -0.10443E-01  5000   0.241E-01 0.931E-04
CGA:  34    -0.939014565702E+03   -0.66759E-02   -0.66712E-02  5000   0.136E-01 0.110E-03
CGA:  35    -0.939018352381E+03   -0.37867E-02   -0.37835E-02  5000   0.792E-02 0.775E-04
CGA:  36    -0.939020604177E+03   -0.22518E-02   -0.22504E-02  5000   0.494E-02 0.310E-04
SDA:  37    -0.939021919088E+03   -0.13149E-02   -0.13151E-02  5000   0.283E-02-0.922E-05
CGA:  38    -0.939023113405E+03   -0.11943E-02   -0.11985E-02  5000   0.125E-02-0.231E-04
CGA:  39    -0.939023597007E+03   -0.48360E-03   -0.48457E-03  5000   0.405E-03-0.677E-05
CGA:  40    -0.939023743245E+03   -0.14624E-03   -0.14673E-03  5000   0.123E-03-0.464E-05
CGA:  41    -0.939023784612E+03   -0.41368E-04   -0.41511E-04  5000   0.417E-04-0.185E-05
CGA:  42    -0.939023796576E+03   -0.11964E-04   -0.11980E-04  5000   0.107E-04-0.649E-06
CGA:  43    -0.939023799909E+03   -0.33328E-05   -0.33624E-05  5000   0.390E-05-0.597E-06
   1 F= -.93902380E+03 E0= -.93902227E+03  d E =-.306819E-02
