       N       E                     dE             d eps       ncg     rms          ort
DAV:   1    -0.179276682076E+05   -0.17928E+05   -0.54363E+05  5064   0.751E+03
DAV:   2    -0.636152472256E+05   -0.45688E+05   -0.43980E+05  5064   0.126E+03
DAV:   3    -0.694336369926E+05   -0.58184E+04   -0.52439E+04  5064   0.394E+02
DAV:   4    -0.703598517075E+05   -0.92621E+03   -0.84757E+03  5064   0.132E+02
DAV:   5    -0.407761213254E+05    0.29584E+05   -0.70834E+02  5064   0.576E+01
SDA:   6     0.444769760779E+05    0.85253E+05   -0.70834E+02  5064   0.131E+06 0.000E+00
CGA:   7     0.147264961153E+05   -0.29750E+05   -0.37062E+05  5064   0.796E+05-0.354E+05
CGA:   8     0.855533793882E+04   -0.61712E+04   -0.80178E+04  5064   0.287E+05 0.669E+04
CGA:   9     0.503395109519E+04   -0.35214E+04   -0.40097E+04  5064   0.214E+05-0.157E+04
CGA:  10     0.310632184413E+04   -0.19276E+04   -0.25969E+04  5064   0.935E+04 0.255E+04
CGA:  11     0.163528565583E+04   -0.14710E+04   -0.16122E+04  5064   0.587E+04 0.122E+04
CGA:  12     0.606108671931E+03   -0.10292E+04   -0.10855E+04  5064   0.261E+04 0.763E+03
CGA:  13    -0.595122673987E+01   -0.61206E+03   -0.60061E+03  5064   0.128E+04 0.427E+03
CGA:  14    -0.421067290671E+03   -0.41512E+03   -0.40799E+03  5064   0.764E+03 0.256E+02
CGA:  15    -0.590311753773E+03   -0.16924E+03   -0.17464E+03  5064   0.549E+03-0.132E+03
CGA:  16    -0.663089891526E+03   -0.72778E+02   -0.71754E+02  5064   0.393E+03-0.101E+02
CGA:  17    -0.713285156312E+03   -0.50195E+02   -0.53283E+02  5064   0.215E+03 0.893E+01
CGA:  18    -0.752043471267E+03   -0.38758E+02   -0.38932E+02  5064   0.131E+03 0.540E+01
CGA:  19    -0.780139475046E+03   -0.28096E+02   -0.28033E+02  5064   0.919E+02 0.283E+01
CGA:  20    -0.800261986102E+03   -0.20123E+02   -0.20090E+02  5064   0.648E+02 0.166E+01
CGA:  21    -0.814097618484E+03   -0.13836E+02   -0.13812E+02  5064   0.441E+02 0.150E+01
CGA:  22    -0.823163199146E+03   -0.90656E+01   -0.90538E+01  5064   0.256E+02 0.141E+01
CGA:  23    -0.828685932712E+03   -0.55227E+01   -0.55117E+01  5064   0.151E+02 0.667E+00
CGA:  24    -0.832013633999E+03   -0.33277E+01   -0.33205E+01  5064   0.934E+01 0.324E+00
CGA:  25    -0.834001293156E+03   -0.19877E+01   -0.19873E+01  5064   0.635E+01 0.694E-01
CGA:  26    -0.835324724945E+03   -0.13234E+01   -0.13227E+01  5064   0.435E+01 0.623E-01
CGA:  27    -0.836173474381E+03   -0.84875E+00   -0.84882E+00  5064   0.265E+01 0.207E-01
CGA:  28    -0.836764066679E+03   -0.59059E+00   -0.59044E+00  5064   0.186E+01 0.856E-02
CGA:  29    -0.837172453005E+03   -0.40839E+00   -0.40828E+00  5064   0.106E+01 0.628E-02
CGA:  30    -0.837409589719E+03   -0.23714E+00   -0.23705E+00  5064   0.681E+00 0.359E-02
CGA:  31    -0.837568964524E+03   -0.15937E+00   -0.15929E+00  5064   0.476E+00 0.225E-02
CGA:  32    -0.837670621669E+03   -0.10166E+00   -0.10164E+00  5064   0.311E+00 0.138E-02
CGA:  33    -0.837735330373E+03   -0.64709E-01   -0.64706E-01  5064   0.206E+00 0.487E-03
CGA:  34    -0.837779633953E+03   -0.44304E-01   -0.44300E-01  5064   0.138E+00 0.294E-03
CGA:  35    -0.837810645603E+03   -0.31012E-01   -0.31006E-01  5064   0.903E-01 0.266E-03
CGA:  36    -0.837831487486E+03   -0.20842E-01   -0.20835E-01  5064   0.556E-01 0.256E-03
SDA:  37    -0.837844531918E+03   -0.13044E-01   -0.13040E-01  5064   0.374E-01 0.161E-03
CGA:  38    -0.837861084771E+03   -0.16553E-01   -0.16581E-01  5064   0.156E-01-0.121E-03
CGA:  39    -0.837867105627E+03   -0.60209E-02   -0.60185E-02  5064   0.465E-02 0.128E-04
CGA:  40    -0.837868866099E+03   -0.17605E-02   -0.17601E-02  5064   0.157E-02 0.294E-05
CGA:  41    -0.837869384369E+03   -0.51827E-03   -0.51891E-03  5064   0.485E-03-0.607E-05
CGA:  42    -0.837869526263E+03   -0.14189E-03   -0.14219E-03  5064   0.120E-03-0.529E-05
CGA:  43    -0.837869563871E+03   -0.37607E-04   -0.37638E-04  5064   0.381E-04-0.424E-06
CGA:  44    -0.837869576272E+03   -0.12401E-04   -0.12317E-04  5064   0.108E-04 0.106E-05
CGA:  45    -0.837869580842E+03   -0.45698E-05   -0.45898E-05  5064   0.563E-05-0.120E-06
   1 F= -.83786958E+03 E0= -.83786607E+03  d E =-.703116E-02
