 vasp.6.4.2 20Jul23 (build Nov 12 2023 22:16:35) complex                         
 executed on              LinuxNV date 2025.03.16  07:20:20
 running    4 mpi-ranks, on    1 nodes
 distrk:  each k-point on    1 cores,    4 groups
 distr:  one band on NCORE=   1 cores,    1 groups
 OpenACC runtime initialized ...    4 GPUs detected


--------------------------------------------------------------------------------------------------------


 INCAR:
   PREC = Normal
   ENCUT = 450
   NELM = 500
   IBRION = -1
   ISPIN = 1
   NSW = 0
   ISIF = 2
   EDIFF = 1E-5
   EDIFFG = -5E-3
   ISTART = 0
   ICHARG = 0
   ISMEAR = 0
   SIGMA = 0.05
   LWAVE = .T.
   LCHARG = .T.
   LREAL = Auto
   LPLANE = .TRUE.
   NPAR = 1
   KPAR = 4
   NCORE = 1
   ALGO = All
   LHFCALC = .TRUE.
   HSE06 = .TRUE.
   HFSCREEN = 0.2
   TIME = 0.4
   AEXX = 0.32
   LMAXFOCK = 4
   PRECFOCK = Fast
   NELECT = 1056

 POTCAR:    PAW_PBE Ga_d 06Jul2010                
 POTCAR:     PAW_PBE O 08Apr2002                  
 POTCAR:    PAW_PBE P 06Sep2000                   
 POTCAR:    PAW_PBE Ga_d 06Jul2010                
   SHA256 =  a60ddf36e14f00ea098d9e3914b3745f1b7105e68786148f49ae384e44b4226c Ga_d/POTCAR           
   COPYR  = (c) Copyright 06Jul2010 Georg Kresse                                                    
   COPYR  = This file is part of the software VASP. Any use, copying, and all other rights are regul
   COPYR  = If you do not have a valid VASP license, you may not use, copy or distribute this file. 
   VRHFIN =Ga: s2p1                                                                                 
   LEXCH  = PE                                                                                      
   EATOM  =  2148.8298 eV,  157.9345 Ry                                                             
                                                                                                    
   TITEL  = PAW_PBE Ga_d 06Jul2010                                                                  
   LULTRA =        F    use ultrasoft PP ?                                                          
   IUNSCR =        1    unscreen: 0-lin 1-nonlin 2-no                                               
   RPACOR =    1.700    partial core radius                                                         
   POMASS =   69.723; ZVAL   =   13.000    mass and valenz                                          
   RCORE  =    2.300    outmost cutoff radius                                                       
   RWIGS  =    2.300; RWIGS  =    1.217    wigner-seitz radius (au A)                               
   ENMAX  =  282.691; ENMIN  =  212.018 eV                                                          
   ICORE  =        3    local potential                                                             
   LCOR   =        T    correct aug charges                                                         
   LPAW   =        T    paw PP                                                                      
   EAUG   =  490.690                                                                                
   DEXC   =    0.000                                                                                
   RMAX   =    2.341    core radius for proj-oper                                                   
   RAUG   =    1.300    factor for augmentation sphere                                              
   RDEP   =    2.413    radius for radial grids                                                     
   RDEPT  =    1.856    core radius for aug-charge                                                  
                                                                                                    
   Atomic configuration                                                                             
    9 entries                                                                                       
     n  l   j            E        occ.                                                              
     1  0  0.50    -10228.7831   2.0000                                                             
     2  0  0.50     -1262.1604   2.0000                                                             
     2  1  1.50     -1098.6333   6.0000                                                             
     3  0  0.50      -148.1110   2.0000                                                             
     3  1  1.50       -98.8436   6.0000                                                             
     3  2  2.50       -19.1549  10.0000                                                             
     4  0  0.50        -8.9483   2.0000                                                             
     4  1  0.50        -2.5791   1.0000                                                             
     4  3  2.50        -2.7416   0.0000                                                             
   Description                                                                                      
     l       E           TYP  RCUT    TYP  RCUT                                                     
     2    -19.1549037     23  2.300                                                                 
     2     -5.4423304     23  2.300                                                                 
     0     -8.9483111     23  2.300                                                                 
     0     68.0291300     23  2.300                                                                 
     1     -2.5790802     23  2.100                                                                 
     1     81.6349560     23  2.300                                                                 
     3      6.8029130     23  2.300                                                                 
  local pseudopotential read in
  partial core-charges read in
  partial kinetic energy density read in
  atomic valenz-charges read in
  non local Contribution for L=            2  read in
    real space projection operators read in
  non local Contribution for L=            2  read in
    real space projection operators read in
  non local Contribution for L=            0  read in
    real space projection operators read in
  non local Contribution for L=            0  read in
    real space projection operators read in
  non local Contribution for L=            1  read in
    real space projection operators read in
  non local Contribution for L=            1  read in
    real space projection operators read in
    PAW grid and wavefunctions read in
 
   number of l-projection  operators is LMAX  =            6
   number of lm-projection operators is LMMAX =           18
 
 POTCAR:     PAW_PBE O 08Apr2002                  
   SHA256 =  818f92134a0a090dccd8ba1447fa70422a3b330e708bb4f08108d8ae51209ddf O/POTCAR              
   COPYR  = (c) Copyright 08Apr2002 Georg Kresse                                                    
   COPYR  = This file is part of the software VASP. Any use, copying, and all other rights are regul
   COPYR  = If you do not have a valid VASP license, you may not use, copy or distribute this file. 
   VRHFIN =O: s2p4                                                                                  
   LEXCH  = PE                                                                                      
   EATOM  =   432.3788 eV,   31.7789 Ry                                                             
                                                                                                    
   TITEL  = PAW_PBE O 08Apr2002                                                                     
   LULTRA =        F    use ultrasoft PP ?                                                          
   IUNSCR =        1    unscreen: 0-lin 1-nonlin 2-no                                               
   RPACOR =    1.200    partial core radius                                                         
   POMASS =   16.000; ZVAL   =    6.000    mass and valenz                                          
   RCORE  =    1.520    outmost cutoff radius                                                       
   RWIGS  =    1.550; RWIGS  =    0.820    wigner-seitz radius (au A)                               
   ENMAX  =  400.000; ENMIN  =  300.000 eV                                                          
   ICORE  =        2    local potential                                                             
   LCOR   =        T    correct aug charges                                                         
   LPAW   =        T    paw PP                                                                      
   EAUG   =  605.392                                                                                
   DEXC   =    0.000                                                                                
   RMAX   =    1.553    core radius for proj-oper                                                   
   RAUG   =    1.300    factor for augmentation sphere                                              
   RDEP   =    1.550    radius for radial grids                                                     
   RDEPT  =    1.329    core radius for aug-charge                                                  
                                                                                                    
   Atomic configuration                                                                             
    4 entries                                                                                       
     n  l   j            E        occ.                                                              
     1  0  0.50      -514.6923   2.0000                                                             
     2  0  0.50       -23.9615   2.0000                                                             
     2  1  0.50        -9.0305   4.0000                                                             
     3  2  1.50        -9.5241   0.0000                                                             
   Description                                                                                      
     l       E           TYP  RCUT    TYP  RCUT                                                     
     0    -23.9615318     23  1.200                                                                 
     0     -9.5240782     23  1.200                                                                 
     1     -9.0304911     23  1.520                                                                 
     1      8.1634956     23  1.520                                                                 
     2     -9.5240782      7  1.500                                                                 
  local pseudopotential read in
  partial core-charges read in
  partial kinetic energy density read in
  kinetic energy density of atom read in
  atomic valenz-charges read in
  non local Contribution for L=            0  read in
    real space projection operators read in
  non local Contribution for L=            0  read in
    real space projection operators read in
  non local Contribution for L=            1  read in
    real space projection operators read in
  non local Contribution for L=            1  read in
    real space projection operators read in
    PAW grid and wavefunctions read in
 
   number of l-projection  operators is LMAX  =            4
   number of lm-projection operators is LMMAX =            8
 
 POTCAR:    PAW_PBE P 06Sep2000                   
   SHA256 =  df60c54a93efe35c9e85ae94c010c75e9f6960a95d5595d7cdba4096d109af88 P/POTCAR              
   COPYR  = (c) Copyright 06Sep2000 Georg Kresse                                                    
   COPYR  = This file is part of the software VASP. Any use, copying, and all other rights are regul
   COPYR  = If you do not have a valid VASP license, you may not use, copy or distribute this file. 
   VRHFIN =P : s2p3                                                                                 
   LEXCH  = PE                                                                                      
   EATOM  =   176.0430 eV,   12.9388 Ry                                                             
                                                                                                    
   TITEL  = PAW_PBE P 06Sep2000                                                                     
   LULTRA =        F    use ultrasoft PP ?                                                          
   IUNSCR =        1    unscreen: 0-lin 1-nonlin 2-no                                               
   RPACOR =    1.500    partial core radius                                                         
   POMASS =   30.974; ZVAL   =    5.000    mass and valenz                                          
   RCORE  =    1.900    outmost cutoff radius                                                       
   RWIGS  =    2.330; RWIGS  =    1.233    wigner-seitz radius (au A)                               
   ENMAX  =  255.040; ENMIN  =  191.280 eV                                                          
   ICORE  =        2    local potential                                                             
   LCOR   =        T    correct aug charges                                                         
   LPAW   =        T    paw PP                                                                      
   EAUG   =  342.924                                                                                
   DEXC   =    0.000                                                                                
   RMAX   =    1.935    core radius for proj-oper                                                   
   RAUG   =    1.300    factor for augmentation sphere                                              
   RDEP   =    1.931    radius for radial grids                                                     
   RDEPT  =    1.794    core radius for aug-charge                                                  
                                                                                                    
   Atomic configuration                                                                             
    6 entries                                                                                       
     n  l   j            E        occ.                                                              
     1  0  0.50     -2084.0982   2.0000                                                             
     2  0  0.50      -173.9859   2.0000                                                             
     2  1  1.50      -124.4865   6.0000                                                             
     3  0  0.50       -13.9692   2.0000                                                             
     3  1  0.50        -5.5067   3.0000                                                             
     3  2  1.50        -5.4423   0.0000                                                             
   Description                                                                                      
     l       E           TYP  RCUT    TYP  RCUT                                                     
     0    -13.9691527     23  1.900                                                                 
     0    -11.7794650     23  1.900                                                                 
     1     -5.5066937     23  1.900                                                                 
     1     -0.2556953     23  1.900                                                                 
     2     -5.4423304     23  1.900                                                                 
  local pseudopotential read in
  partial core-charges read in
  partial kinetic energy density read in
  atomic valenz-charges read in
  non local Contribution for L=            0  read in
    real space projection operators read in
  non local Contribution for L=            0  read in
    real space projection operators read in
  non local Contribution for L=            1  read in
    real space projection operators read in
  non local Contribution for L=            1  read in
    real space projection operators read in
    PAW grid and wavefunctions read in
 
   number of l-projection  operators is LMAX  =            4
   number of lm-projection operators is LMMAX =            8
 
 Optimization of the real space projectors (new method)

 maximal supplied QI-value         = 16.25
 optimisation between [QCUT,QGAM] = [ 10.73, 21.61] = [ 32.22,130.83] Ry 
 Optimized for a Real-space Cutoff    1.42 Angstroem

   l    n(q)    QCUT    max X(q) W(low)/X(q) W(high)/X(q)  e(spline) 
   2      8    10.726     7.143    0.22E-03    0.16E-03    0.73E-07
   2      8    10.726     5.586    0.40E-03    0.26E-03    0.10E-06
   0      9    10.726    12.382    0.25E-04    0.21E-05    0.37E-07
   0      9    10.726     6.622    0.42E-04    0.48E-05    0.77E-07
   1      9    10.726     7.935    0.27E-03    0.13E-04    0.16E-06
   1      9    10.726     2.425    0.23E-03    0.15E-04    0.14E-06
 Optimization of the real space projectors (new method)

 maximal supplied QI-value         = 24.76
 optimisation between [QCUT,QGAM] = [ 10.64, 21.54] = [ 31.73,129.89] Ry 
 Optimized for a Real-space Cutoff    1.23 Angstroem

   l    n(q)    QCUT    max X(q) W(low)/X(q) W(high)/X(q)  e(spline) 
   0      8    10.645    20.381    0.38E-03    0.60E-03    0.15E-06
   0      8    10.645    15.268    0.40E-03    0.65E-03    0.17E-06
   1      7    10.645     5.964    0.30E-03    0.63E-03    0.18E-06
   1      7    10.645     5.382    0.24E-03    0.53E-03    0.16E-06
 Optimization of the real space projectors (new method)

 maximal supplied QI-value         = 19.84
 optimisation between [QCUT,QGAM] = [ 10.71, 21.63] = [ 32.15,130.99] Ry 
 Optimized for a Real-space Cutoff    1.19 Angstroem

   l    n(q)    QCUT    max X(q) W(low)/X(q) W(high)/X(q)  e(spline) 
   0      8    10.715   160.924    0.37E-03    0.37E-04    0.63E-07
   0      8    10.715   130.086    0.37E-03    0.36E-04    0.63E-07
   1      7    10.715    74.434    0.19E-03    0.56E-03    0.65E-07
   1      7    10.715    49.120    0.19E-03    0.55E-03    0.63E-07
  PAW_PBE Ga_d 06Jul2010                :
 energy of atom  1       EATOM=-2148.8298
 kinetic energy error for atom=    0.0038 (will be added to EATOM!!)
   PAW_PBE O 08Apr2002                  :
 energy of atom  2       EATOM= -432.3788
 kinetic energy error for atom=    0.0389 (will be added to EATOM!!)
  PAW_PBE P 06Sep2000                   :
 energy of atom  3       EATOM= -176.0430
 kinetic energy error for atom=    0.0019 (will be added to EATOM!!)
 
 
 POSCAR: Ga48 O72
  positions in direct lattice
  velocities in cartesian coordinates
 exchange correlation table for  LEXCH =        8
   RHO(1)=    0.500       N(1)  =     2000
   RHO(2)=  100.500       N(2)  =     4000
 


--------------------------------------------------------------------------------------------------------


 ion  position               nearest neighbor table
   1  0.659  0.000  0.158-  78 1.92  82 1.92  84 1.96  66 2.02  60 2.05  64 2.05
   2  0.665  0.000  0.652-  79 1.93  83 1.93  85 1.97  65 1.97  61 1.97  67 2.06
   3  0.659  0.333  0.157-  86 1.93  78 1.94  80 1.95  68 1.99  62 2.06  60 2.08
   4  0.668  0.330  0.658-  69 1.91  81 1.95  87 1.95  79 1.98  61 2.04  63 2.11
   5  0.659  0.667  0.157-  88 1.93  82 1.94  80 1.95  70 1.99  62 2.06  64 2.08
   6  0.668  0.670  0.658-  71 1.91  81 1.95  89 1.95  83 1.98  65 2.04  63 2.11
   7  0.842  0.168  0.343-  90 1.81  72 1.97  74 2.01  60 2.05  68 2.07  66 2.10
   8  0.853  0.166  0.838-  75 1.89  91 1.93  73 1.96  69 1.97  67 2.06  61 2.19
   9  0.841  0.500  0.344-  92 1.93  76 1.96  74 1.96  70 2.06  68 2.06  62 2.06
  10  0.819  0.500  0.897-  93 1.81  63 1.95  77 1.96  75 1.96  21 2.58  23 2.58  16 2.92
  11  0.842  0.832  0.343-  94 1.81  72 1.97  76 2.01  64 2.05  70 2.07  66 2.10
  12  0.853  0.834  0.838-  77 1.89  95 1.93  73 1.96  71 1.97  67 2.06  65 2.19
  13  0.586  0.164  0.394-  79 1.83  56 1.85  54 1.85  60 1.87
  14  0.602  0.164  0.896-  78 1.85  61 1.87  57 1.89  55 1.89
  15  0.597  0.500  0.401-  81 1.84  58 1.86  56 1.86  62 1.87
  16  0.580  0.500  0.892-  57 1.85  59 1.85  80 1.86  63 1.92  10 2.92
  17  0.586  0.836  0.394-  83 1.83  58 1.85  54 1.85  64 1.87
  18  0.602  0.836  0.896-  82 1.85  65 1.87  59 1.89  55 1.89
  19  0.917  0.000  0.105-  48 1.87  52 1.87  66 1.89  73 1.89
  20  0.916  0.000  0.593-  72 1.85  53 1.85  49 1.85  67 1.91
  21  0.897  0.362  0.092-  48 1.89  68 1.93  50 1.96  75 1.98  23 2.53  10 2.58
  22  0.911  0.333  0.600-  69 1.84  49 1.86  74 1.87  51 1.87
  23  0.897  0.638  0.092-  52 1.89  70 1.93  50 1.96  77 1.98  21 2.53  10 2.58
  24  0.911  0.667  0.600-  71 1.84  53 1.86  76 1.87  51 1.87
  25  0.150  0.164  0.157- 115 1.91  48 2.02 113 2.03 101 2.21  97 2.22 119 2.28
  26  0.164  0.162  0.646- 114 1.85  49 1.95 116 1.97  98 2.05 102 2.08  96 2.14
  27  0.168  0.500  0.161-  50 1.83 115 1.97 117 1.97 103 1.98  99 2.08  97 2.08
  28  0.164  0.500  0.653-  51 1.95 116 1.96 118 1.96 104 2.03 100 2.08  98 2.08
  29  0.150  0.836  0.157- 117 1.91  52 2.02 113 2.03 105 2.21  99 2.22 119 2.28
  30  0.164  0.838  0.646- 114 1.85  53 1.95 118 1.97 100 2.05 106 2.08  96 2.14
  31  0.326  0.000  0.345- 107 1.99 111 1.99  54 2.02 101 2.13 105 2.13 119 2.28
  32  0.342  0.000  0.844- 108 1.95 112 1.95  55 1.96  96 1.99 102 2.07 106 2.07
  33  0.342  0.332  0.345- 107 1.91  97 1.95 109 1.95  56 1.96 101 2.01 103 2.07
  34  0.339  0.330  0.841- 108 1.95 110 1.95  57 1.96  98 1.97 102 2.02 104 2.09
  35  0.342  0.668  0.345- 111 1.91  99 1.95 109 1.95  58 1.96 105 2.01 103 2.07
  36  0.339  0.670  0.841- 112 1.95 110 1.95  59 1.96 100 1.97 106 2.02 104 2.09
  37  0.089  0.000  0.892- 113 1.82  96 1.86  91 1.89  95 1.89
  38  0.086  0.326  0.394-  90 1.77  97 1.85 116 1.87  92 1.88
  39  0.097  0.369  0.899- 115 1.95  91 1.98  98 2.02  93 2.05  41 2.40
  40  0.086  0.674  0.394-  94 1.77  99 1.85 118 1.87  92 1.88
  41  0.097  0.631  0.899- 117 1.95  95 1.98 100 2.02  93 2.05  39 2.40
  42  0.405  0.167  0.103- 101 1.83 108 1.84  86 1.86  84 1.87
  43  0.416  0.168  0.607- 107 1.81  85 1.84 102 1.85  87 1.86
  44  0.410  0.500  0.102- 110 1.85  88 1.86  86 1.86 103 1.88
  45  0.416  0.500  0.604- 109 1.82  89 1.86  87 1.86 104 1.87
  46  0.405  0.833  0.103- 105 1.83 112 1.84  88 1.86  84 1.87
  47  0.416  0.832  0.607- 111 1.81  85 1.84 106 1.85  89 1.86
  48  0.981  0.187  0.112-  19 1.87  21 1.89  25 2.02
  49  0.002  0.168  0.627-  20 1.85  22 1.86  26 1.95
  50  0.018  0.500  0.156-  27 1.83  23 1.96  21 1.96
  51  0.002  0.500  0.629-  22 1.87  24 1.87  28 1.95
  52  0.981  0.813  0.112-  19 1.87  23 1.89  29 2.02
  53  0.002  0.832  0.627-  20 1.85  24 1.86  30 1.95
  54  0.495  0.000  0.370-  13 1.85  17 1.85  31 2.02
  55  0.505  0.000  0.875-  14 1.89  18 1.89  32 1.96
  56  0.505  0.336  0.374-  13 1.85  15 1.86  33 1.96
  57  0.503  0.325  0.872-  16 1.85  14 1.89  34 1.96
  58  0.505  0.664  0.374-  17 1.85  15 1.86  35 1.96
  59  0.503  0.675  0.872-  16 1.85  18 1.89  36 1.96
  60  0.671  0.165  0.279-  13 1.87   1 2.05   7 2.05   3 2.08
  61  0.671  0.158  0.769-  14 1.87   2 1.97   4 2.04   8 2.19
  62  0.669  0.500  0.277-  15 1.87   5 2.06   3 2.06   9 2.06
  63  0.674  0.500  0.782-  16 1.92  10 1.95   4 2.11   6 2.11
  64  0.671  0.835  0.279-  17 1.87   1 2.05  11 2.05   5 2.08
  65  0.671  0.842  0.769-  18 1.87   2 1.97   6 2.04  12 2.19
  66  0.827  0.000  0.217-  19 1.89   1 2.02  11 2.10   7 2.10
  67  0.836  0.000  0.716-  20 1.91   2 2.06  12 2.06   8 2.06
  68  0.824  0.335  0.221-  21 1.93   3 1.99   9 2.06   7 2.07
  69  0.828  0.313  0.711-  22 1.84   4 1.91   8 1.97
  70  0.824  0.665  0.221-  23 1.93   5 1.99   9 2.06  11 2.07
  71  0.828  0.687  0.711-  24 1.84   6 1.91  12 1.97
  72  0.823  0.000  0.443-  20 1.85  11 1.97   7 1.97
  73  0.845  0.000  0.942-  19 1.89  12 1.96   8 1.96
  74  0.820  0.337  0.446-  22 1.87   9 1.96   7 2.01
  75  0.800  0.296  0.940-   8 1.89  10 1.96  21 1.98
  76  0.820  0.663  0.446-  24 1.87   9 1.96  11 2.01
  77  0.800  0.704  0.940-  12 1.89  10 1.96  23 1.98
  78  0.664  0.164  0.058-  14 1.85   1 1.92   3 1.94
  79  0.666  0.165  0.548-  13 1.83   2 1.93   4 1.98
  80  0.654  0.500  0.051-  16 1.86   5 1.95   3 1.95
  81  0.673  0.500  0.558-  15 1.84   6 1.95   4 1.95
  82  0.664  0.836  0.058-  18 1.85   1 1.92   5 1.94
  83  0.666  0.835  0.548-  17 1.83   2 1.93   6 1.98
  84  0.495  0.000  0.127-  42 1.87  46 1.87   1 1.96
  85  0.500  0.000  0.626-  43 1.84  47 1.84   2 1.97
  86  0.497  0.332  0.128-  44 1.86  42 1.86   3 1.93
  87  0.505  0.334  0.631-  45 1.86  43 1.86   4 1.95
  88  0.497  0.668  0.128-  44 1.86  46 1.86   5 1.93
  89  0.505  0.666  0.631-  45 1.86  47 1.86   6 1.95
  90  0.993  0.176  0.385-  38 1.77   7 1.81
  91  0.014  0.181  0.873-  37 1.89   8 1.93  39 1.98
  92  0.002  0.500  0.385-  38 1.88  40 1.88   9 1.93
  93  0.958  0.500  0.868-  10 1.81  39 2.05  41 2.05
  94  0.993  0.824  0.385-  40 1.77  11 1.81
  95  0.014  0.819  0.873-  37 1.89  12 1.93  41 1.98
  96  0.176  0.000  0.781-  37 1.86  32 1.99  26 2.14  30 2.14
  97  0.179  0.342  0.291-  38 1.85  33 1.95  27 2.08  25 2.22
  98  0.176  0.325  0.769-  34 1.97  39 2.02  26 2.05  28 2.08
  99  0.179  0.658  0.291-  40 1.85  35 1.95  27 2.08  29 2.22
 100  0.176  0.675  0.769-  36 1.97  41 2.02  30 2.05  28 2.08
 101  0.334  0.173  0.225-  42 1.83  33 2.01  31 2.13  25 2.21
 102  0.335  0.166  0.723-  43 1.85  34 2.02  32 2.07  26 2.08
 103  0.333  0.500  0.224-  44 1.88  27 1.98  35 2.07  33 2.07
 104  0.332  0.500  0.719-  45 1.87  28 2.03  36 2.09  34 2.09
 105  0.334  0.827  0.225-  46 1.83  35 2.01  31 2.13  29 2.21
 106  0.335  0.834  0.723-  47 1.85  36 2.02  32 2.07  30 2.08
 107  0.344  0.173  0.452-  43 1.81  33 1.91  31 1.99
 108  0.331  0.167  0.946-  42 1.84  34 1.95  32 1.95
 109  0.342  0.500  0.448-  45 1.82  35 1.95  33 1.95
 110  0.341  0.500  0.942-  44 1.85  36 1.95  34 1.95
 111  0.344  0.827  0.452-  47 1.81  35 1.91  31 1.99
 112  0.331  0.833  0.946-  46 1.84  36 1.95  32 1.95
 113  0.169  0.000  0.046-  37 1.82  29 2.03  25 2.03
 114  0.184  0.000  0.559-  26 1.85  30 1.85
 115  0.173  0.326  0.063-  25 1.91  39 1.95  27 1.97
 116  0.175  0.335  0.548-  38 1.87  28 1.96  26 1.97
 117  0.173  0.674  0.063-  29 1.91  41 1.95  27 1.97
 118  0.175  0.665  0.548-  40 1.87  28 1.96  30 1.97
 119  0.135  0.000  0.300-  25 2.28  29 2.28  31 2.28
 
  LATTYP: Found a simple monoclinic cell.
 ALAT       =    11.6348202465
 B/A-ratio  =     0.7858051831
 C/A-ratio  =     1.0554931797
 COS(beta)  =    -0.2379290539
  
  Lattice vectors:
  
 A1 = (   0.0000000000,  -2.7682617730, -11.3006977184)
 A2 = (  -9.1427020537,   0.0000000000,   0.0000000000)
 A3 = (   0.0000000000,  12.2804734172,   0.0000000000)


Analysis of symmetry for initial positions (statically):
=====================================================================
 Subroutine PRICEL returns:
 Original cell was already a primitive cell.
 

 Routine SETGRP: Setting up the symmetry group for a 
 simple monoclinic supercell.


 Subroutine GETGRP returns: Found  2 space group operations
 (whereof  2 operations were pure point group operations)
 out of a pool of  4 trial point group operations.


The static configuration has the point symmetry C_1h.


Analysis of symmetry for dynamics (positions and initial velocities):
=====================================================================
 Subroutine PRICEL returns:
 Original cell was already a primitive cell.
 

 Routine SETGRP: Setting up the symmetry group for a 
 simple monoclinic supercell.


 Subroutine GETGRP returns: Found  2 space group operations
 (whereof  2 operations were pure point group operations)
 out of a pool of  4 trial point group operations.


The dynamic configuration has the point symmetry C_1h.


 Subroutine INISYM returns: Found  2 space group operations
 (whereof  2 operations are pure point group operations),
 and found     1 'primitive' translations


----------------------------------------------------------------------------------------

                                     Primitive cell                                     

  volume of cell :    1268.8052

  direct lattice vectors                    reciprocal lattice vectors
     0.000000000 12.280473417  0.000000000     0.000000000  0.081430085 -0.019947423
     9.142702054  0.000000000  0.000000000     0.109376855 -0.000000000  0.000000000
     0.000000000 -2.768261773-11.300697718     0.000000000  0.000000000 -0.088490111

  length of vectors
    12.280473417  9.142702054 11.634820246     0.083837691  0.109376855  0.088490111

  position of ions in fractional coordinates (direct lattice)
     0.658663206  0.000000000  0.158307608
     0.664594368  0.000000000  0.652213729
     0.658796538  0.332948191  0.156506072
     0.668443105  0.330050846  0.657900211
     0.658796538  0.667051809  0.156506072
     0.668443105  0.669949154  0.657900211
     0.841603417  0.167765823  0.343111747
     0.852718682  0.166073968  0.838394628
     0.840567435  0.500000000  0.344422556
     0.818702923  0.500000000  0.896672098
     0.841603417  0.832234177  0.343111747
     0.852718682  0.833926032  0.838394628
     0.586110243  0.163911730  0.393577966
     0.601600466  0.164035522  0.896297340
     0.597478636  0.500000000  0.401237031
     0.580188473  0.500000000  0.891894868
     0.586110243  0.836088270  0.393577966
     0.601600466  0.835964478  0.896297340
     0.917109452  0.000000000  0.105225163
     0.916420242  0.000000000  0.593107085
     0.896750802  0.361649098  0.092202705
     0.911089559  0.333240567  0.599827296
     0.896750802  0.638350902  0.092202705
     0.911089559  0.666759433  0.599827296
     0.149577351  0.163602375  0.157136380
     0.163812463  0.162338613  0.646044919
     0.167873087  0.500000000  0.160618573
     0.163881799  0.500000000  0.652597269
     0.149577351  0.836397625  0.157136380
     0.163812463  0.837661387  0.646044919
     0.326268797  0.000000000  0.345051445
     0.341567600  0.000000000  0.844050240
     0.341668810  0.332141405  0.345178806
     0.338518642  0.329845190  0.840603393
     0.341668810  0.667858595  0.345178806
     0.338518642  0.670154810  0.840603393
     0.089420905  0.000000000  0.891911099
     0.086385132  0.326234466  0.394203321
     0.096635469  0.368928908  0.899480767
     0.086385132  0.673765534  0.394203321
     0.096635469  0.631071092  0.899480767
     0.404821877  0.167047003  0.103160280
     0.415593183  0.168175122  0.606838163
     0.409515113  0.500000000  0.102191105
     0.415650604  0.500000000  0.604061832
     0.404821877  0.832952997  0.103160280
     0.415593183  0.831824878  0.606838163
     0.981265711  0.186682764  0.112119768
     0.002094118  0.167800608  0.626510633
     0.017702015  0.500000000  0.155677350
     0.001622001  0.500000000  0.629487797
     0.981265711  0.813317236  0.112119768
     0.002094118  0.832199392  0.626510633
     0.495092126  0.000000000  0.370051198
     0.505204300  0.000000000  0.874776743
     0.505394224  0.336471635  0.373675475
     0.502905978  0.325098263  0.871744358
     0.505394224  0.663528365  0.373675475
     0.502905978  0.674901737  0.871744358
     0.670786734  0.165055553  0.279328903
     0.670707825  0.157820122  0.769460331
     0.669490823  0.500000000  0.277002283
     0.674059455  0.500000000  0.781675437
     0.670786734  0.834944447  0.279328903
     0.670707825  0.842179878  0.769460331
     0.827299056  0.000000000  0.216907852
     0.836330567  0.000000000  0.715500710
     0.823951325  0.335239844  0.220904387
     0.827714909  0.313003854  0.711181516
     0.823951325  0.664760156  0.220904387
     0.827714909  0.686996146  0.711181516
     0.822593896  0.000000000  0.443324481
     0.844887399  0.000000000  0.942027594
     0.820386567  0.336987686  0.446441739
     0.800424741  0.296035121  0.939501517
     0.820386567  0.663012314  0.446441739
     0.800424741  0.703964879  0.939501517
     0.664140067  0.164081605  0.057512960
     0.665835469  0.164615975  0.548070177
     0.654418664  0.500000000  0.051033292
     0.673010633  0.500000000  0.558276570
     0.664140067  0.835918395  0.057512960
     0.665835469  0.835384025  0.548070177
     0.494625779  0.000000000  0.126550791
     0.500295721  0.000000000  0.625598184
     0.497116430  0.331606803  0.127521243
     0.505446156  0.334355005  0.630581694
     0.497116430  0.668393197  0.127521243
     0.505446156  0.665644995  0.630581694
     0.993335633  0.175808877  0.384576289
     0.014190870  0.181347378  0.873107239
     0.002309926  0.500000000  0.384925021
     0.957548057  0.500000000  0.867883315
     0.993335633  0.824191123  0.384576289
     0.014190870  0.818652622  0.873107239
     0.175740251  0.000000000  0.780855346
     0.179139628  0.341531844  0.290698025
     0.175669650  0.325109295  0.769386712
     0.179139628  0.658468156  0.290698025
     0.175669650  0.674890705  0.769386712
     0.333668484  0.172840388  0.225005415
     0.335230425  0.166483440  0.722505148
     0.332818512  0.500000000  0.223992264
     0.332241709  0.500000000  0.719091123
     0.333668484  0.827159612  0.225005415
     0.335230425  0.833516560  0.722505148
     0.344057088  0.172539954  0.451794149
     0.330584486  0.166760328  0.945724062
     0.341701514  0.500000000  0.448330033
     0.341175151  0.500000000  0.942391685
     0.344057088  0.827460046  0.451794149
     0.330584486  0.833239672  0.945724062
     0.169088102  0.000000000  0.045807787
     0.184077290  0.000000000  0.558923217
     0.173212065  0.325863366  0.062986632
     0.175135461  0.335055153  0.548484256
     0.173212065  0.674136634  0.062986632
     0.175135461  0.664944847  0.548484256
     0.135250452  0.000000000  0.300381980

  ion indices of the primitive-cell ions
   primitive index   ion index
                 1           1
                 2           2
                 3           3
                 4           4
                 5           5
                 6           6
                 7           7
                 8           8
                 9           9
                10          10
                11          11
                12          12
                13          13
                14          14
                15          15
                16          16
                17          17
                18          18
                19          19
                20          20
                21          21
                22          22
                23          23
                24          24
                25          25
                26          26
                27          27
                28          28
                29          29
                30          30
                31          31
                32          32
                33          33
                34          34
                35          35
                36          36
                37          37
                38          38
                39          39
                40          40
                41          41
                42          42
                43          43
                44          44
                45          45
                46          46
                47          47
                48          48
                49          49
                50          50
                51          51
                52          52
                53          53
                54          54
                55          55
                56          56
                57          57
                58          58
                59          59
                60          60
                61          61
                62          62
                63          63
                64          64
                65          65
                66          66
                67          67
                68          68
                69          69
                70          70
                71          71
                72          72
                73          73
                74          74
                75          75
                76          76
                77          77
                78          78
                79          79
                80          80
                81          81
                82          82
                83          83
                84          84
                85          85
                86          86
                87          87
                88          88
                89          89
                90          90
                91          91
                92          92
                93          93
                94          94
                95          95
                96          96
                97          97
                98          98
                99          99
               100         100
               101         101
               102         102
               103         103
               104         104
               105         105
               106         106
               107         107
               108         108
               109         109
               110         110
               111         111
               112         112
               113         113
               114         114
               115         115
               116         116
               117         117
               118         118
               119         119

----------------------------------------------------------------------------------------

 
 
 KPOINTS: Automatic mesh                          

Automatic generation of k-mesh.
 Grid dimensions read from file:
 generate k-points for:    2    2    2

 Generating k-lattice:

  Cartesian coordinates                     Fractional coordinates (reciprocal lattice)
     0.000000000  0.040715043 -0.009973711     0.500000000  0.000000000  0.000000000
     0.054688428 -0.000000000  0.000000000     0.000000000  0.500000000  0.000000000
     0.000000000  0.000000000 -0.044245056     0.000000000  0.000000000  0.500000000

  Length of vectors
     0.041918846  0.054688428  0.044245056

  Shift w.r.t. Gamma in fractional coordinates (k-lattice)
     0.000000000  0.000000000  0.000000000

 
 Subroutine IBZKPT returns following result:
 ===========================================
 
 Found      8 irreducible k-points:
 
 Following reciprocal coordinates:
            Coordinates               Weight
  0.000000  0.000000  0.000000      1.000000
  0.500000  0.000000  0.000000      1.000000
  0.000000  0.500000  0.000000      1.000000
  0.500000  0.500000  0.000000      1.000000
  0.000000  0.000000  0.500000      1.000000
  0.500000  0.000000  0.500000      1.000000
  0.000000  0.500000  0.500000      1.000000
  0.500000  0.500000  0.500000      1.000000
 
 Following cartesian coordinates:
            Coordinates               Weight
  0.000000  0.000000 -0.000000      1.000000
  0.000000  0.040715 -0.009974      1.000000
  0.054688  0.000000 -0.000000      1.000000
  0.054688  0.040715 -0.009974      1.000000
  0.000000  0.000000 -0.044245      1.000000
  0.000000  0.040715 -0.054219      1.000000
  0.054688  0.000000 -0.044245      1.000000
  0.054688  0.040715 -0.054219      1.000000
 
 
 Subroutine IBZKPT_HF returns following result:
 ==============================================
 
 Found      8 k-points in 1st BZ
 the following      8 k-points will be used (e.g. in the exchange kernel)
 Following reciprocal coordinates:   # in IRBZ
  0.000000  0.000000  0.000000    0.12500000   1 t-inv F
  0.500000  0.000000  0.000000    0.12500000   2 t-inv F
  0.000000  0.500000  0.000000    0.12500000   3 t-inv F
  0.500000  0.500000  0.000000    0.12500000   4 t-inv F
  0.000000  0.000000  0.500000    0.12500000   5 t-inv F
  0.500000  0.000000  0.500000    0.12500000   6 t-inv F
  0.000000  0.500000  0.500000    0.12500000   7 t-inv F
  0.500000  0.500000  0.500000    0.12500000   8 t-inv F


--------------------------------------------------------------------------------------------------------




 Dimension of arrays:
   k-points           NKPTS =      8   k-points in BZ     NKDIM =      8   number of bands    NBANDS=    633
   number of dos      NEDOS =    301   number of ions     NIONS =    119
   non local maximal  LDIM  =      6   non local SUM 2l+1 LMDIM =     18
   total plane-waves  NPLWV = 184320
   max r-space proj   IRMAX =   1800   max aug-charges    IRDMAX=   5704
   dimension x,y,z NGX =    64 NGY =   48 NGZ =   60
   dimension x,y,z NGXF=   128 NGYF=   96 NGZF=  120
   support grid    NGXF=   128 NGYF=   96 NGZF=  120
   ions per type =              47  71   1
   NGX,Y,Z   is equivalent  to a cutoff of   8.66,  8.73,  8.57 a.u.
   NGXF,Y,Z  is equivalent  to a cutoff of  17.33, 17.46, 17.15 a.u.

 SYSTEM =  unknown system                          
 POSCAR =  Ga48 O72                                

 Startparameter for this run:
   NWRITE =      2    write-flag & timer
   PREC   = normal    normal or accurate (medium, high low for compatibility)
   ISTART =      0    job   : 0-new  1-cont  2-samecut
   ICHARG =      0    charge: 1-file 2-atom 10-const
   ISPIN  =      1    spin polarized calculation?
   LNONCOLLINEAR =      F non collinear calculations
   LSORBIT =      F    spin-orbit coupling
   INIWAV =      1    electr: 0-lowe 1-rand  2-diag
   LASPH  =      F    aspherical Exc in radial PAW
 Electronic Relaxation 1
   ENCUT  =  450.0 eV  33.07 Ry    5.75 a.u.  21.24 15.81 20.12*2*pi/ulx,y,z
   ENINI  =  450.0     initial cutoff
   ENAUG  =  605.4 eV  augmentation charge cutoff
   NELM   =    500;   NELMIN=  2; NELMDL= -5     # of ELM steps 
   EDIFF  = 0.1E-04   stopping-criterion for ELM
   LREAL  =      T    real-space projection
   NLSPLINE    = F    spline interpolate recip. space projectors
   LCOMPAT=      F    compatible to vasp.4.4
   GGA_COMPAT  = T    GGA compatible to vasp.4.4-vasp.4.6
   LMAXPAW     = -100 max onsite density
   LMAXMIX     =    2 max onsite mixed and CHGCAR
   VOSKOWN=      0    Vosko Wilk Nusair interpolation
   ROPT   =   -0.00050  -0.00050  -0.00050
 Ionic relaxation
   EDIFFG = -.5E-02   stopping-criterion for IOM
   NSW    =      0    number of steps for IOM
   NBLOCK =      1;   KBLOCK =      1    inner block; outer block 
   IBRION =     -1    ionic relax: 0-MD 1-quasi-New 2-CG
   NFREE  =      0    steps in history (QN), initial steepest desc. (CG)
   ISIF   =      2    stress and relaxation
   IWAVPR =     10    prediction:  0-non 1-charg 2-wave 3-comb
   ISYM   =      3    0-nonsym 1-usesym 2-fastsym
   LCORR  =      T    Harris-Foulkes like correction to forces

   POTIM  = 0.5000    time-step for ionic-motion
   TEIN   =    0.0    initial temperature
   TEBEG  =    0.0;   TEEND  =   0.0 temperature during run
   SMASS  =  -3.00    Nose mass-parameter (am)
   estimated Nose-frequenzy (Omega)   =  0.10E-29 period in steps = 0.13E+47 mass=  -0.345E-26a.u.
   SCALEE = 1.0000    scale energy and forces
   NPACO  =    256;   APACO  = 10.0  distance and # of slots for P.C.
   PSTRESS=    0.0 pullay stress

  Mass of Ions in am
   POMASS =  69.72 16.00 30.97
  Ionic Valenz
   ZVAL   =  13.00  6.00  5.00
  Atomic Wigner-Seitz radii
   RWIGS  =  -1.00 -1.00 -1.00
  virtual crystal weights 
   VCA    =   1.00  1.00  1.00
   NELECT =    1056.0000    total number of electrons
   NUPDOWN=      -1.0000    fix difference up-down

 DOS related values:
   EMIN   =  10.00;   EMAX   =-10.00  energy-range for DOS
   EFERMI =   0.00;   METHOD = LEGACY      
   ISMEAR =     0;   SIGMA  =   0.05  broadening in eV -4-tet -1-fermi 0-gaus

 Electronic relaxation 2 (details)
   IALGO  =     58    algorithm
   LDIAG  =      T    sub-space diagonalisation (order eigenvalues)
   LSUBROT=      F    optimize rotation matrix (better conditioning)
   TURBO    =      0    0=normal 1=particle mesh
   IRESTART =      0    0=no restart 2=restart with 2 vectors
   NREBOOT  =      0    no. of reboots
   NMIN     =      0    reboot dimension
   EREF     =   0.00    reference energy to select bands
   IMIX   =      4    mixing-type and parameters
     AMIX     =   0.40;   BMIX     =  1.00
     AMIX_MAG =   1.60;   BMIX_MAG =  1.00
     AMIN     =   0.10
     WC   =   100.;   INIMIX=   1;  MIXPRE=   1;  MAXMIX= -45

 Intra band minimization:
   WEIMIN = 0.0000     energy-eigenvalue tresh-hold
   EBREAK =  0.39E-08  absolut break condition
   DEPER  =   0.30     relativ break condition  

   TIME   =   0.40     timestep for ELM

  volume/ion in A,a.u.               =      10.66        71.95
  Fermi-wavevector in a.u.,A,eV,Ry     =   1.539919  2.910025 32.264175  2.371350
  Thomas-Fermi vector in A             =   2.646079
 
 Write flags
   LWAVE        =      T    write WAVECAR
   LDOWNSAMPLE  =      F    k-point downsampling of WAVECAR
   LCHARG       =      T    write CHGCAR
   LVTOT        =      F    write LOCPOT, total local potential
   LVHAR        =      F    write LOCPOT, Hartree potential only
   LELF         =      F    write electronic localiz. function (ELF)
   LORBIT       =      0    0 simple, 1 ext, 2 COOP (PROOUT), +10 PAW based schemes


 Dipole corrections
   LMONO  =      F    monopole corrections only (constant potential shift)
   LDIPOL =      F    correct potential (dipole corrections)
   IDIPOL =      0    1-x, 2-y, 3-z, 4-all directions 
   EPSILON=  1.0000000 bulk dielectric constant

 Exchange correlation treatment:
   GGA     =    --    GGA type
   LEXCH   =     8    internal setting for exchange type
   LIBXC   =     F    Libxc                    
   VOSKOWN =     0    Vosko Wilk Nusair interpolation
   EXXOEP  =     0    0=HF, 1=EXX-LHF (local Hartree Fock) 2=EXX OEP
   LHFCALC =     T    Hartree Fock is set to
   LSYMGRAD=     F    symmetrize gradient (conserves proper symmetry)
   PRECFOCK=fast      Normal, Fast or Accurate (Low or Medium for compatibility)
   LRHFCALC=     F    long range Hartree Fock
   LRSCOR  =     F    long range correlation only (use DFT for short range part)
   LTHOMAS =     F    Thomas Fermi screening in HF
   LMODELHF=     F    short range full HF, long range fraction AEXX
   FOCKCORR=     1    mode to apply convergence corrections
   LFOCKACE=     T    use Adeptively-Compressed-Exchange operator
   ENCUT4O =  -1.0   cutoff for four orbital integrals eV
   LMAXFOCK=     4    L truncation for augmentation on plane wave grid
   LMAXFOCKAE=  -1    L truncation for all-electron charge restoration on plane wave grid
   NMAXFOCKAE=   1    number of basis functions for all-electron charge restoration
   LFOCKAEDFT=     F  apply the AE augmentation even for DFT
   NKREDX  =     1    reduce k-point grid by
   NKREDY  =     1    reduce k-point grid by
   NKREDZ  =     1    reduce k-point grid by
   SHIFTRED=     F    shift reduced grid of Gamma
   HFKIDENT=     F    idential grid for each k-point
   ODDONLY =     F    use only odd q-grid points
   EVENONLY=     F    use only even q-grid points
   HFALPHA =   -1.0000 decay constant for conv. correction
   MCALPHA =    0.0000 extent of test-charge in conv. correction in multipole expansion
   AEXX    =    0.3200 exact exchange contribution
   HFSCREEN=    0.2000 screening length (either q_TF or 0.3 A-1)
   HFSCREENC=   0.2000 screening length for correlation (either q_TF or 0.3 A-1)
   HFRCUT  =    0.0000 spherical cutoff for potential kernel
   ALDAX   =    0.6800 LDA exchange part
   AGGAX   =    0.6800 GGA exchange part
   ALDAC   =    1.0000 LDA correlation
   AGGAC   =    1.0000 GGA correlation
   ENCUTFOCK=  -1.0 apply spherical cutoff to Coloumb kernel
   NBANDSGWLOW=     1    first orbital included in HF term
   NBLOCK_FOCK=    64    blocking factor in FOCK_ACC

 Linear response parameters
   LEPSILON=     F    determine dielectric tensor
   LRPA    =     F    only Hartree local field effects (RPA)
   LNABLA  =     F    use nabla operator in PAW spheres
   LVEL    =     F    velocity operator in full k-point grid
   CSHIFT  =0.1000    complex shift for real part using Kramers Kronig
   OMEGAMAX=  -1.0    maximum frequency
   DEG_THRESHOLD= 0.2000000E-02 threshold for treating states as degnerate
   RTIME   =   -0.100 relaxation time in fs
  (WPLASMAI=    0.000 imaginary part of plasma frequency in eV, 0.658/RTIME)
   DFIELD  = 0.0000000 0.0000000 0.0000000 field for delta impulse in time
 
  Optional k-point grid parameters
   LKPOINTS_OPT  =     F    use optional k-point grid
   KPOINTS_OPT_MODE=     1    mode for optional k-point grid
 
 Orbital magnetization related:
   ORBITALMAG=     F  switch on orbital magnetization
   LCHIMAG   =     F  perturbation theory with respect to B field
   DQ        =  0.001000  dq finite difference perturbation B field
   LLRAUG    =     F  two centre corrections for induced B field
   LBONE     =     F  B-component reconstruction in AE one-centre
   LVGVCALC  =     T  calculate vGv susceptibility
   LVGVAPPL  =     F  apply vGv susceptibility instead of pGv for G=0

 Random number generation:
   RANDOM_GENERATOR = DEFAULT
   PCG_SEED         = not used


--------------------------------------------------------------------------------------------------------


 Static calculation
 charge density and potential will be updated during run
 non-spin polarized calculation
 Conjugate gradient for all bands (Freysoldt, et al. PRB 79, 241103 (2009))
 preconditioned conjugated gradient                                        
 perform sub-space diagonalisation
    before iterative eigenvector-optimisation
 modified Broyden-mixing scheme, WC =      100.0
 initial mixing is a Kerker type mixing with AMIX =  0.4000 and BMIX =      1.0000
 Hartree-type preconditioning will be used
 using additional bands           105
 real space projection scheme for non local part
 use partial core corrections
 no Harris-corrections to forces 
 use gradient corrections 
 use of overlap-Matrix (Vanderbilt PP)
 Gauss-broadening in eV      SIGMA  =   0.05


--------------------------------------------------------------------------------------------------------


  energy-cutoff  :      450.00
  volume of cell :     1268.81
      direct lattice vectors                 reciprocal lattice vectors
     0.000000000 12.280473417  0.000000000     0.000000000  0.081430085 -0.019947423
     9.142702054  0.000000000  0.000000000     0.109376855 -0.000000000  0.000000000
     0.000000000 -2.768261773-11.300697718     0.000000000  0.000000000 -0.088490111

  length of vectors
    12.280473417  9.142702054 11.634820246     0.083837691  0.109376855  0.088490111


 
 k-points in units of 2pi/SCALE and weight: Automatic mesh                          
   0.00000000  0.00000000 -0.00000000       0.125
   0.00000000  0.04071504 -0.00997371       0.125
   0.05468843  0.00000000 -0.00000000       0.125
   0.05468843  0.04071504 -0.00997371       0.125
   0.00000000  0.00000000 -0.04424506       0.125
   0.00000000  0.04071504 -0.05421877       0.125
   0.05468843  0.00000000 -0.04424506       0.125
   0.05468843  0.04071504 -0.05421877       0.125
 
 k-points in reciprocal lattice and weights: Automatic mesh                          
   0.00000000  0.00000000  0.00000000       0.125
   0.50000000  0.00000000  0.00000000       0.125
   0.00000000  0.50000000  0.00000000       0.125
   0.50000000  0.50000000  0.00000000       0.125
   0.00000000  0.00000000  0.50000000       0.125
   0.50000000  0.00000000  0.50000000       0.125
   0.00000000  0.50000000  0.50000000       0.125
   0.50000000  0.50000000  0.50000000       0.125
 
 position of ions in fractional coordinates (direct lattice) 
   0.65866321  0.00000000  0.15830761
   0.66459437  0.00000000  0.65221373
   0.65879654  0.33294819  0.15650607
   0.66844310  0.33005085  0.65790021
   0.65879654  0.66705181  0.15650607
   0.66844310  0.66994915  0.65790021
   0.84160342  0.16776582  0.34311175
   0.85271868  0.16607397  0.83839463
   0.84056743  0.50000000  0.34442256
   0.81870292  0.50000000  0.89667210
   0.84160342  0.83223418  0.34311175
   0.85271868  0.83392603  0.83839463
   0.58611024  0.16391173  0.39357797
   0.60160047  0.16403552  0.89629734
   0.59747864  0.50000000  0.40123703
   0.58018847  0.50000000  0.89189487
   0.58611024  0.83608827  0.39357797
   0.60160047  0.83596448  0.89629734
   0.91710945  0.00000000  0.10522516
   0.91642024  0.00000000  0.59310708
   0.89675080  0.36164910  0.09220271
   0.91108956  0.33324057  0.59982730
   0.89675080  0.63835090  0.09220271
   0.91108956  0.66675943  0.59982730
   0.14957735  0.16360237  0.15713638
   0.16381246  0.16233861  0.64604492
   0.16787309  0.50000000  0.16061857
   0.16388180  0.50000000  0.65259727
   0.14957735  0.83639763  0.15713638
   0.16381246  0.83766139  0.64604492
   0.32626880  0.00000000  0.34505144
   0.34156760  0.00000000  0.84405024
   0.34166881  0.33214140  0.34517881
   0.33851864  0.32984519  0.84060339
   0.34166881  0.66785860  0.34517881
   0.33851864  0.67015481  0.84060339
   0.08942091  0.00000000  0.89191110
   0.08638513  0.32623447  0.39420332
   0.09663547  0.36892891  0.89948077
   0.08638513  0.67376553  0.39420332
   0.09663547  0.63107109  0.89948077
   0.40482188  0.16704700  0.10316028
   0.41559318  0.16817512  0.60683816
   0.40951511  0.50000000  0.10219110
   0.41565060  0.50000000  0.60406183
   0.40482188  0.83295300  0.10316028
   0.41559318  0.83182488  0.60683816
   0.98126571  0.18668276  0.11211977
   0.00209412  0.16780061  0.62651063
   0.01770201  0.50000000  0.15567735
   0.00162200  0.50000000  0.62948780
   0.98126571  0.81331724  0.11211977
   0.00209412  0.83219939  0.62651063
   0.49509213  0.00000000  0.37005120
   0.50520430  0.00000000  0.87477674
   0.50539422  0.33647164  0.37367547
   0.50290598  0.32509826  0.87174436
   0.50539422  0.66352836  0.37367547
   0.50290598  0.67490174  0.87174436
   0.67078673  0.16505555  0.27932890
   0.67070782  0.15782012  0.76946033
   0.66949082  0.50000000  0.27700228
   0.67405945  0.50000000  0.78167544
   0.67078673  0.83494445  0.27932890
   0.67070782  0.84217988  0.76946033
   0.82729906  0.00000000  0.21690785
   0.83633057  0.00000000  0.71550071
   0.82395132  0.33523984  0.22090439
   0.82771491  0.31300385  0.71118152
   0.82395132  0.66476016  0.22090439
   0.82771491  0.68699615  0.71118152
   0.82259390  0.00000000  0.44332448
   0.84488740  0.00000000  0.94202759
   0.82038657  0.33698769  0.44644174
   0.80042474  0.29603512  0.93950152
   0.82038657  0.66301231  0.44644174
   0.80042474  0.70396488  0.93950152
   0.66414007  0.16408160  0.05751296
   0.66583547  0.16461598  0.54807018
   0.65441866  0.50000000  0.05103329
   0.67301063  0.50000000  0.55827657
   0.66414007  0.83591840  0.05751296
   0.66583547  0.83538402  0.54807018
   0.49462578  0.00000000  0.12655079
   0.50029572  0.00000000  0.62559818
   0.49711643  0.33160680  0.12752124
   0.50544616  0.33435501  0.63058169
   0.49711643  0.66839320  0.12752124
   0.50544616  0.66564499  0.63058169
   0.99333563  0.17580888  0.38457629
   0.01419087  0.18134738  0.87310724
   0.00230993  0.50000000  0.38492502
   0.95754806  0.50000000  0.86788332
   0.99333563  0.82419112  0.38457629
   0.01419087  0.81865262  0.87310724
   0.17574025  0.00000000  0.78085535
   0.17913963  0.34153184  0.29069803
   0.17566965  0.32510930  0.76938671
   0.17913963  0.65846816  0.29069803
   0.17566965  0.67489070  0.76938671
   0.33366848  0.17284039  0.22500542
   0.33523042  0.16648344  0.72250515
   0.33281851  0.50000000  0.22399226
   0.33224171  0.50000000  0.71909112
   0.33366848  0.82715961  0.22500542
   0.33523042  0.83351656  0.72250515
   0.34405709  0.17253995  0.45179415
   0.33058449  0.16676033  0.94572406
   0.34170151  0.50000000  0.44833003
   0.34117515  0.50000000  0.94239168
   0.34405709  0.82746005  0.45179415
   0.33058449  0.83323967  0.94572406
   0.16908810  0.00000000  0.04580779
   0.18407729  0.00000000  0.55892322
   0.17321206  0.32586337  0.06298663
   0.17513546  0.33505515  0.54848426
   0.17321206  0.67413663  0.06298663
   0.17513546  0.66494485  0.54848426
   0.13525045  0.00000000  0.30038198
 
 position of ions in cartesian coordinates  (Angst):
   0.00000000  7.65045909 -1.78898642
   0.00000000  6.35603514 -7.37047020
   3.04404611  7.65708359 -1.76862781
   3.01755655  6.38755777 -7.43473142
   6.09865595  7.65708359 -1.76862781
   6.12514550  6.38755777 -7.43473142
   1.53383293  9.38546525 -3.87740213
   1.51836481  8.15089331 -9.47444426
   4.57135103  9.36911424 -3.89221519
   4.57135103  7.57183640-10.13302033
   7.60886912  9.38546525 -3.87740213
   7.62433725  8.15089331 -9.47444426
   1.49859611  6.10818442 -4.44770562
   1.49972791  4.90675287-10.12878531
   4.57135103  6.22659137 -4.53425840
   4.57135103  4.65599065-10.07903430
   7.64410595  6.10818442 -4.44770562
   7.64297415  4.90675287-10.12878531
   0.00000000 10.97124745 -1.18911776
   0.00000000  9.61219876 -6.70252388
   3.30644995 10.75728316 -1.04195490
   3.04671921  9.52813214 -6.77846695
   5.83625211 10.75728316 -1.04195490
   6.09598284  9.52813214 -6.77846695
   1.49576777  1.40188605 -1.77575073
   1.48421357  0.22327315 -7.30075834
   4.57135103  1.61692672 -1.81510195
   4.57135103  0.20598601 -7.37480447
   7.64693429  1.40188605 -1.77575073
   7.65848848  0.22327315 -7.30075834
   0.00000000  3.05154256 -3.89932207
   0.00000000  1.85805982 -9.53835662
   3.03666990  3.24030945 -3.90076135
   3.01567629  1.83015895 -9.49940485
   6.10603215  3.24030945 -3.90076135
   6.12702576  1.83015895 -9.49940485
   0.00000000 -1.37091235-10.07921772
   2.98266452 -0.03040767 -4.45477257
   3.37300708 -1.30326892-10.16476025
   6.16003754 -0.03040767 -4.45477257
   5.76969497 -1.30326892-10.16476025
   1.52726098  4.68582964 -1.16578314
   1.53757503  3.42379415 -6.85769464
   4.57135103  4.74614773 -1.15483078
   4.57135103  3.43218492 -6.82632016
   7.61544107  4.68582964 -1.16578314
   7.60512702  3.42379415 -6.85769464
   1.70678489 11.74003061 -1.26703161
   1.53415096 -1.70862867 -7.08000728
   4.57135103 -0.21356654 -1.75926268
   4.57135103 -1.72266806 -7.11365131
   7.43591716 11.74003061 -1.26703161
   7.60855109 -1.70862867 -7.08000728
   0.00000000  5.05556710 -4.18183673
   0.00000000  3.78253696 -9.88558755
   3.07625991  5.17204880 -4.22279359
   2.97227656  3.76270691 -9.85131948
   6.06644214  5.17204880 -4.22279359
   6.17042550  3.76270691 -9.85131948
   1.50905374  7.46432313 -3.15661150
   1.44290236  6.10654199 -8.69543861
   4.57135103  7.45484942 -3.13031907
   4.57135103  6.11388699 -8.83347782
   7.63364831  7.46432313 -3.15661150
   7.69979970  6.10654199 -8.69543861
   0.00000000  9.55916635 -2.45121007
   0.00000000  8.28984203 -8.08565724
   3.06499801  9.50699117 -2.49637370
   2.86170097  8.19599433 -8.03684734
   6.07770405  9.50699117 -2.49637370
   6.28100108  8.19599433 -8.03684734
   0.00000000  8.87460426 -5.00987595
   0.00000000  7.76783826-10.64556908
   3.08097801  8.83886783 -5.04510314
   2.70656091  7.22880862-10.61702265
   6.06172404  8.83886783 -5.04510314
   6.43614114  7.22880862-10.61702265
   1.50014923  7.99674351 -0.64993657
   1.50503482  6.65957305 -6.19357540
   4.57135103  7.89529750 -0.57671180
   4.57135103  6.71943351 -6.30891476
   7.64255283  7.99674351 -0.64993657
   7.63766724  6.65957305 -6.19357540
   0.00000000  5.72391302 -1.43011223
   0.00000000  4.41204876 -7.06969597
   3.03178220  5.75181292 -1.44107902
   3.05690819  4.46150288 -7.12601311
   6.11091986  5.75181292 -1.44107902
   6.08579386  4.46150288 -7.12601311
   1.60736818 11.13402400 -4.34598040
   1.65800505 -2.24271879 -9.86672099
   4.57135103 -1.03720624 -4.34992131
   4.57135103  9.35661526 -9.80768700
   7.53533387 11.13402400 -4.34598040
   7.48469701 -2.24271879 -9.86672099
   0.00000000 -0.00343853 -8.82421022
   3.12252389  1.39519121 -3.28509051
   2.97237742  0.02744264 -8.69460666
   6.02017817  1.39519121 -3.28509051
   6.17032463  0.02744264 -8.69460666
   1.58022817  3.47473305 -2.54271818
   1.52210849  2.11670494 -8.16481228
   4.57135103  3.46709967 -2.53126887
   4.57135103  2.08945300 -8.12623142
   7.56247388  3.47473305 -2.54271818
   7.62059356  2.11670494 -8.16481228
   1.57748139  2.97449945 -5.10558911
   1.52463999  1.44172223-10.68734175
   4.57135103  2.95516146 -5.06644218
   4.57135103  1.58100550-10.64968356
   7.56522066  2.97449945 -5.10558911
   7.61806206  1.44172223-10.68734175
   0.00000000  1.94967400 -0.51765996
   0.00000000  0.71331050 -6.31622232
   2.97927166  1.95276267 -0.71179288
   3.06330944  0.63239837 -6.19825478
   6.16343039  1.95276267 -0.71179288
   6.07939262  0.63239837 -6.19825478
   0.00000000  0.82940363 -3.39452596
 


--------------------------------------------------------------------------------------------------------


 k-point   1 :   0.0000 0.0000 0.0000  plane waves:   27533
 k-point   2 :   0.5000 0.0000 0.0000  plane waves:   27522
 k-point   3 :   0.0000 0.5000 0.0000  plane waves:   27488
 k-point   4 :   0.5000 0.5000 0.0000  plane waves:   27488
 k-point   5 :   0.0000 0.0000 0.5000  plane waves:   27482
 k-point   6 :   0.5000 0.0000 0.5000  plane waves:   27476
 k-point   7 :   0.0000 0.5000 0.5000  plane waves:   27468
 k-point   8 :   0.5000 0.5000 0.5000  plane waves:   27564

 maximum and minimum number of plane-waves per node :     27564    27468

 maximum number of plane-waves:     27564
 maximum index in each direction: 
   IXMAX=   21   IYMAX=   15   IZMAX=   20
   IXMIN=  -21   IYMIN=  -16   IZMIN=  -20


 serial   3D FFT for wavefunctions
 parallel 3D FFT for charge:
    minimum data exchange during FFTs selected (reduces bandwidth)


 FFT grid for exact exchange (Hartree Fock) 
  NGX = 48; NGY = 36; NGZ = 48

 
 Radii for the augmentation spheres in the non-local exchange
 for species   1 augmentation radius   1.392 (default was   1.031)
       energy cutoff for augmentation   1800.0
 for species   2 augmentation radius   0.974 (default was   0.722)
       energy cutoff for augmentation   1800.0
 for species   3 augmentation radius   1.294 (default was   0.959)
       energy cutoff for augmentation   1800.0
 Maximum index for augmentation-charges in exchange           753
  SETUP_FOCK is finished

 total amount of memory used by VASP MPI-rank0  7264197. kBytes
=======================================================================

   base      :      30000. kBytes
   nonlr-proj:      32485. kBytes
   fftplans  :      51012. kBytes
   grid      :     102973. kBytes
   one-center:       1850. kBytes
   HF        :        194. kBytes
   wavefun   :    7045683. kBytes
 
     INWAV:  cpu time      0.0001: real time      0.0001
 Broyden mixing: mesh for mixing (old mesh)
   NGX = 43   NGY = 31   NGZ = 41
  (NGX  =128   NGY  = 96   NGZ  =120)
  gives a total of  54653 points

 charge density for first step will be calculated from the start-wavefunctions


--------------------------------------------------------------------------------------------------------


 Maximum index for non-local projection operator          1725
 Maximum index for augmentation-charges          5354 (set IRDMAX)


--------------------------------------------------------------------------------------------------------


 initial charge from wavefunction
 First call to EWALD:  gamma=   0.164
 Maximum number of real-space cells 3x 3x 3
 Maximum number of reciprocal cells 3x 2x 3

    FEWALD:  cpu time      0.0726: real time      0.0725


--------------------------------------- Ionic step        1  -------------------------------------------




--------------------------------------- Iteration      1(   1)  ---------------------------------------


    POTLOK:  cpu time      0.0320: real time      0.0319
    SETDIJ:  cpu time      0.1333: real time      0.1333
    TRIAL :  cpu time      2.9730: real time      2.9772
    CORREC:  cpu time      0.0015: real time      0.0015
    --------------------------------------------
      LOOP:  cpu time      4.0081: real time      4.0120

 eigenvalue-minimisations  : 10672
 total energy-change (2. order) :-0.1792767E+05  (-0.5436275E+05)
 number of electron    1055.9999774 magnetization 
 augmentation part      119.6400103 magnetization 

 Free energy of the ion-electron system (eV)
  ---------------------------------------------------
  alpha Z        PSCENC =      5376.25786726
  Ewald energy   TEWEN  =    -86518.53378655
  -Hartree energ DENC   =     -2122.00725277
  -exchange      EXHF   =         0.00000000
  -V(xc)+E(xc)   XCENC  =      2816.07368616
  PAW double counting   =    350390.65296678  -379191.90577097
  entropy T*S    EENTRO =        -0.00778177
  eigenvalues    EBANDS =    -40178.43709694
  atomic energy  EATOM  =    131500.23896116
  ---------------------------------------------------
  free energy    TOTEN  =    -17927.66820765 eV

  energy without entropy =   -17927.66042587  energy(sigma->0) =   -17927.66431676
  exchange ACFDT corr.  =         0.00000000  see jH, gK, PRB 81, 115126


--------------------------------------------------------------------------------------------------------




--------------------------------------- Iteration      1(   2)  ---------------------------------------


    TRIAL :  cpu time      3.2126: real time      3.2122
    CORREC:  cpu time      0.0015: real time      0.0015
    --------------------------------------------
      LOOP:  cpu time      3.2143: real time      3.2147

 eigenvalue-minimisations  : 13224
 total energy-change (2. order) :-0.4568758E+05  (-0.4398020E+05)
 number of electron    1055.9999774 magnetization 
 augmentation part      119.6400103 magnetization 

 Free energy of the ion-electron system (eV)
  ---------------------------------------------------
  alpha Z        PSCENC =      5376.25786726
  Ewald energy   TEWEN  =    -86518.53378655
  -Hartree energ DENC   =     -2122.00725277
  -exchange      EXHF   =         0.00000000
  -V(xc)+E(xc)   XCENC  =      2816.07368616
  PAW double counting   =    350390.65296678  -379191.90577097
  entropy T*S    EENTRO =        -0.01691351
  eigenvalues    EBANDS =    -85866.00698310
  atomic energy  EATOM  =    131500.23896116
  ---------------------------------------------------
  free energy    TOTEN  =    -63615.24722555 eV

  energy without entropy =   -63615.23031204  energy(sigma->0) =   -63615.23876880
  exchange ACFDT corr.  =         0.00000000  see jH, gK, PRB 81, 115126


--------------------------------------------------------------------------------------------------------




--------------------------------------- Iteration      1(   3)  ---------------------------------------


    TRIAL :  cpu time      3.5041: real time      3.5036
    CORREC:  cpu time      0.0016: real time      0.0016
    --------------------------------------------
      LOOP:  cpu time      3.5058: real time      3.5058

 eigenvalue-minimisations  : 15176
 total energy-change (2. order) :-0.5818390E+04  (-0.5243901E+04)
 number of electron    1055.9999774 magnetization 
 augmentation part      119.6400103 magnetization 

 Free energy of the ion-electron system (eV)
  ---------------------------------------------------
  alpha Z        PSCENC =      5376.25786726
  Ewald energy   TEWEN  =    -86518.53378655
  -Hartree energ DENC   =     -2122.00725277
  -exchange      EXHF   =         0.00000000
  -V(xc)+E(xc)   XCENC  =      2816.07368616
  PAW double counting   =    350390.65296678  -379191.90577097
  entropy T*S    EENTRO =        -0.02338796
  eigenvalues    EBANDS =    -91684.39027574
  atomic energy  EATOM  =    131500.23896116
  ---------------------------------------------------
  free energy    TOTEN  =    -69433.63699263 eV

  energy without entropy =   -69433.61360468  energy(sigma->0) =   -69433.62529866
  exchange ACFDT corr.  =         0.00000000  see jH, gK, PRB 81, 115126


--------------------------------------------------------------------------------------------------------




--------------------------------------- Iteration      1(   4)  ---------------------------------------


    TRIAL :  cpu time      4.0297: real time      4.0342
    CORREC:  cpu time      0.0016: real time      0.0016
    --------------------------------------------
      LOOP:  cpu time      4.0314: real time      4.0365

 eigenvalue-minimisations  : 18792
 total energy-change (2. order) :-0.9262147E+03  (-0.8475700E+03)
 number of electron    1055.9999774 magnetization 
 augmentation part      119.6400103 magnetization 

 Free energy of the ion-electron system (eV)
  ---------------------------------------------------
  alpha Z        PSCENC =      5376.25786726
  Ewald energy   TEWEN  =    -86518.53378655
  -Hartree energ DENC   =     -2122.00725277
  -exchange      EXHF   =         0.00000000
  -V(xc)+E(xc)   XCENC  =      2816.07368616
  PAW double counting   =    350390.65296678  -379191.90577097
  entropy T*S    EENTRO =        -0.01771591
  eigenvalues    EBANDS =    -92610.61066262
  atomic energy  EATOM  =    131500.23896116
  ---------------------------------------------------
  free energy    TOTEN  =    -70359.85170747 eV

  energy without entropy =   -70359.83399156  energy(sigma->0) =   -70359.84284952
  exchange ACFDT corr.  =         0.00000000  see jH, gK, PRB 81, 115126


--------------------------------------------------------------------------------------------------------




--------------------------------------- Iteration      1(   5)  ---------------------------------------


    POTLOK:  cpu time      1.3534: real time      1.3533
    SETDIJ:  cpu time      0.4735: real time      0.4734
    TRIAL :  cpu time    232.7734: real time    232.7777
    CORREC:  cpu time      0.0012: real time      0.0012
    CHARGE:  cpu time      0.2072: real time      0.2071
    --------------------------------------------
      LOOP:  cpu time    234.8088: real time    234.8134

 eigenvalue-minimisations  : 17408
 total energy-change (2. order) : 0.2958373E+05  (-0.7083418E+02)
 number of electron    1055.9999310 magnetization 
 augmentation part      452.6593236 magnetization 

 Free energy of the ion-electron system (eV)
  ---------------------------------------------------
  alpha Z        PSCENC =      5376.25786726
  Ewald energy   TEWEN  =    -86518.53378655
  -Hartree energ DENC   =     -2122.00725277
  -exchange      EXHF   =      4834.78475514
  -V(xc)+E(xc)   XCENC  =      1946.93020539
  PAW double counting   =    351638.41222137  -353678.75463448
  entropy T*S    EENTRO =        -0.00000415
  eigenvalues    EBANDS =    -93753.44965777
  atomic energy  EATOM  =    131500.23896116
  ---------------------------------------------------
  free energy    TOTEN  =    -40776.12132539 eV

  energy without entropy =   -40776.12132124  energy(sigma->0) =   -40776.12132332
  exchange ACFDT corr.  =        -0.07860709  see jH, gK, PRB 81, 115126


--------------------------------------------------------------------------------------------------------




--------------------------------------- Iteration      1(   6)  ---------------------------------------


    POTLOK:  cpu time      1.3829: real time      1.3827
    SETDIJ:  cpu time      0.4701: real time      0.4701
    TRIAL :  cpu time    233.1660: real time    233.1533
    CORREC:  cpu time    234.7418: real time    234.7324
    CHARGE:  cpu time      0.2155: real time      0.2154
    --------------------------------------------
      LOOP:  cpu time    469.9766: real time    469.9545

 eigenvalue-minimisations  :     0
 total energy-change (2. order) : 0.8525310E+05  (-0.3706173E+05)
 number of electron    1055.9999151 magnetization 
 augmentation part      438.4346062 magnetization 

 Free energy of the ion-electron system (eV)
  ---------------------------------------------------
  alpha Z        PSCENC =      5376.25786726
  Ewald energy   TEWEN  =    -86518.53378655
  -Hartree energ DENC   =    -94648.45372420
  -exchange      EXHF   =      4898.16769891
  -V(xc)+E(xc)   XCENC  =      3804.10407002
  PAW double counting   =    161752.74371319  -187902.51143943
  entropy T*S    EENTRO =        -0.03766951
  eigenvalues    EBANDS =    106214.96272166
  atomic energy  EATOM  =    131500.23896116
  ---------------------------------------------------
  free energy    TOTEN  =     44476.97607787 eV

  energy without entropy =    44477.01374738  energy(sigma->0) =    44476.99491262
  exchange ACFDT corr.  =        -0.00001424  see jH, gK, PRB 81, 115126


--------------------------------------------------------------------------------------------------------




--------------------------------------- Iteration      1(   7)  ---------------------------------------


    POTLOK:  cpu time      1.5186: real time      1.5184
    SETDIJ:  cpu time      0.4420: real time      0.4420
    TRIAL :  cpu time    233.4242: real time    233.4307
    CORREC:  cpu time    234.6397: real time    234.6668
    CHARGE:  cpu time      0.2156: real time      0.2155
    --------------------------------------------
      LOOP:  cpu time    470.2403: real time    470.2740

 eigenvalue-minimisations  :     0
 total energy-change (2. order) :-0.2975048E+05  (-0.8017752E+04)
 number of electron    1055.9999213 magnetization 
 augmentation part      407.5141572 magnetization 

 Free energy of the ion-electron system (eV)
  ---------------------------------------------------
  alpha Z        PSCENC =      5376.25786726
  Ewald energy   TEWEN  =    -86518.53378655
  -Hartree energ DENC   =    -39904.48847139
  -exchange      EXHF   =      3577.34336079
  -V(xc)+E(xc)   XCENC  =      2828.45903658
  PAW double counting   =    165677.03768957  -181560.26115324
  entropy T*S    EENTRO =        -0.02718917
  eigenvalues    EBANDS =     13750.48028068
  atomic energy  EATOM  =    131500.23896116
  ---------------------------------------------------
  free energy    TOTEN  =     14726.49611535 eV

  energy without entropy =    14726.52330452  energy(sigma->0) =    14726.50970993
  exchange ACFDT corr.  =      -144.16111786  see jH, gK, PRB 81, 115126


--------------------------------------------------------------------------------------------------------




--------------------------------------- Iteration      1(   8)  ---------------------------------------


    POTLOK:  cpu time      1.5378: real time      1.5376
    SETDIJ:  cpu time      0.4166: real time      0.4165
    TRIAL :  cpu time    232.9248: real time    232.9310
    CORREC:  cpu time    234.5579: real time    234.5582
    CHARGE:  cpu time      0.2156: real time      0.2155
    --------------------------------------------
      LOOP:  cpu time    469.6529: real time    469.6654

 eigenvalue-minimisations  :     0
 total energy-change (2. order) :-0.6171158E+04  (-0.4009652E+04)
 number of electron    1055.9999219 magnetization 
 augmentation part      426.2335057 magnetization 

 Free energy of the ion-electron system (eV)
  ---------------------------------------------------
  alpha Z        PSCENC =      5376.25786726
  Ewald energy   TEWEN  =    -86518.53378655
  -Hartree energ DENC   =    -29760.07645998
  -exchange      EXHF   =      3293.38283013
  -V(xc)+E(xc)   XCENC  =      2637.19058678
  PAW double counting   =    154054.07981988  -167508.72612562
  entropy T*S    EENTRO =        -0.03764259
  eigenvalues    EBANDS =     -4518.44856507
  atomic energy  EATOM  =    131500.23896116
  ---------------------------------------------------
  free energy    TOTEN  =      8555.33793882 eV

  energy without entropy =     8555.37558140  energy(sigma->0) =     8555.35676011
  exchange ACFDT corr.  =       -97.24648824  see jH, gK, PRB 81, 115126


--------------------------------------------------------------------------------------------------------




--------------------------------------- Iteration      1(   9)  ---------------------------------------


    POTLOK:  cpu time      1.5019: real time      1.5018
    SETDIJ:  cpu time      0.4381: real time      0.4380
    TRIAL :  cpu time    233.2096: real time    233.2141
    CORREC:  cpu time    234.4037: real time    234.4068
    CHARGE:  cpu time      0.2204: real time      0.2204
    --------------------------------------------
      LOOP:  cpu time    469.7740: real time    469.7819

 eigenvalue-minimisations  :     0
 total energy-change (2. order) :-0.3521387E+04  (-0.2596911E+04)
 number of electron    1055.9999136 magnetization 
 augmentation part      445.6678158 magnetization 

 Free energy of the ion-electron system (eV)
  ---------------------------------------------------
  alpha Z        PSCENC =      5376.25786726
  Ewald energy   TEWEN  =    -86518.53378655
  -Hartree energ DENC   =    -30649.43092448
  -exchange      EXHF   =      3343.84237507
  -V(xc)+E(xc)   XCENC  =      2674.27827711
  PAW double counting   =    139946.85799398  -154829.79534493
  entropy T*S    EENTRO =        -0.02193363
  eigenvalues    EBANDS =     -5809.72668085
  atomic energy  EATOM  =    131500.23896116
  ---------------------------------------------------
  free energy    TOTEN  =      5033.95109519 eV

  energy without entropy =     5033.97302882  energy(sigma->0) =     5033.96206200
  exchange ACFDT corr.  =       -71.52137805  see jH, gK, PRB 81, 115126


--------------------------------------------------------------------------------------------------------




--------------------------------------- Iteration      1(  10)  ---------------------------------------


    POTLOK:  cpu time      1.4855: real time      1.4854
    SETDIJ:  cpu time      0.4371: real time      0.4371
    TRIAL :  cpu time    232.8572: real time    232.8819
    CORREC:  cpu time    234.3507: real time    234.3531
    CHARGE:  cpu time      0.2084: real time      0.2084
    --------------------------------------------
      LOOP:  cpu time    469.3391: real time    469.3664

 eigenvalue-minimisations  :     0
 total energy-change (2. order) :-0.1927629E+04  (-0.1612233E+04)
 number of electron    1055.9999041 magnetization 
 augmentation part      448.8073254 magnetization 

 Free energy of the ion-electron system (eV)
  ---------------------------------------------------
  alpha Z        PSCENC =      5376.25786726
  Ewald energy   TEWEN  =    -86518.53378655
  -Hartree energ DENC   =    -32644.91383585
  -exchange      EXHF   =      3496.27884886
  -V(xc)+E(xc)   XCENC  =      2778.81816197
  PAW double counting   =    138849.85099381  -155018.72671439
  entropy T*S    EENTRO =        -0.02688214
  eigenvalues    EBANDS =     -4712.92671852
  atomic energy  EATOM  =    131500.23896116
  ---------------------------------------------------
  free energy    TOTEN  =      3106.32184413 eV

  energy without entropy =     3106.34872627  energy(sigma->0) =     3106.33528520
  exchange ACFDT corr.  =       -29.17210289  see jH, gK, PRB 81, 115126


--------------------------------------------------------------------------------------------------------




--------------------------------------- Iteration      1(  11)  ---------------------------------------


    POTLOK:  cpu time      1.4786: real time      1.4784
    SETDIJ:  cpu time      0.5085: real time      0.5084
    TRIAL :  cpu time    232.2286: real time    232.2319
    CORREC:  cpu time    234.4411: real time    234.4193
    CHARGE:  cpu time      0.2185: real time      0.2184
    --------------------------------------------
      LOOP:  cpu time    468.8755: real time    468.8572

 eigenvalue-minimisations  :     0
[...]
   0.268E+02 0.132E+03 -.849E+02   -.268E+02 -.133E+03 0.881E+02   -.599E-01 0.277E+00 -.294E+01
   -.117E-03 0.121E+03 -.368E+02   -.242E-12 -.121E+03 0.386E+02   0.000E+00 0.213E+00 -.166E+01
   -.738E-05 0.975E+02 -.599E+02   -.511E-11 -.978E+02 0.620E+02   0.000E+00 0.316E+00 -.191E+01
   -.423E+02 0.136E+03 -.384E+02   0.418E+02 -.137E+03 0.379E+02   0.423E+00 0.109E+01 0.399E+00
   -.268E+02 0.132E+03 -.849E+02   0.268E+02 -.133E+03 0.881E+02   0.599E-01 0.277E+00 -.294E+01
   0.257E+02 -.580E+02 0.598E+02   -.229E+02 0.643E+02 -.606E+02   -.247E+01 -.550E+01 0.716E+00
   0.136E+02 -.588E+02 0.269E+01   -.125E+02 0.647E+02 -.832E+01   -.952E+00 -.505E+01 0.482E+01
   -.916E-04 -.123E+02 0.871E+02   0.856E-12 0.779E+01 -.944E+02   0.000E+00 0.403E+01 0.614E+01
   0.169E-04 -.126E+02 0.440E+02   0.122E-11 0.176E+02 -.485E+02   0.000E+00 -.420E+01 0.388E+01
   -.257E+02 -.580E+02 0.598E+02   0.229E+02 0.643E+02 -.606E+02   0.247E+01 -.550E+01 0.716E+00
   -.136E+02 -.588E+02 0.269E+01   0.125E+02 0.647E+02 -.832E+01   0.952E+00 -.505E+01 0.482E+01
   -.268E-04 0.828E+02 -.339E+02   -.388E-12 -.933E+02 0.383E+02   0.000E+00 0.905E+01 -.375E+01
   0.244E-04 0.438E+02 0.401E+01   -.365E-12 -.493E+02 -.236E+01   0.000E+00 0.461E+01 -.140E+01
   -.236E+01 0.363E+02 -.191E+02   0.381E+01 -.432E+02 0.227E+02   -.125E+01 0.588E+01 -.307E+01
   0.366E+02 0.381E+02 -.632E+01   -.395E+02 -.445E+02 0.887E+01   0.242E+01 0.549E+01 -.220E+01
   0.236E+01 0.363E+02 -.191E+02   -.381E+01 -.432E+02 0.227E+02   0.125E+01 0.588E+01 -.307E+01
   -.366E+02 0.381E+02 -.632E+01   0.395E+02 -.445E+02 0.887E+01   -.242E+01 0.549E+01 -.220E+01
   0.924E+01 0.359E+02 0.476E+02   -.848E+01 -.336E+02 -.446E+02   -.654E+00 -.191E+01 -.253E+01
   0.880E+01 0.449E+02 0.498E+02   -.832E+01 -.416E+02 -.490E+02   -.414E+00 -.277E+01 -.646E+00
   -.274E-04 0.629E+02 0.380E+02   0.433E-13 -.614E+02 -.342E+02   0.000E+00 -.122E+01 -.328E+01
   0.466E-04 0.204E+02 -.375E+02   0.392E-11 -.213E+02 0.455E+02   0.000E+00 0.859E+00 -.687E+01
   -.924E+01 0.359E+02 0.476E+02   0.848E+01 -.336E+02 -.446E+02   0.654E+00 -.191E+01 -.253E+01
   -.880E+01 0.449E+02 0.498E+02   0.832E+01 -.416E+02 -.490E+02   0.414E+00 -.277E+01 -.646E+00
   0.373E-04 -.167E+03 -.659E+01   -.424E-12 0.166E+03 0.234E+01   0.000E+00 0.113E+01 0.369E+01
   -.186E-04 -.104E+03 -.431E+02   0.115E-10 0.103E+03 0.413E+02   0.000E+00 0.839E+00 0.151E+01
   0.605E+02 -.139E+03 -.914E+01   -.626E+02 0.141E+03 0.604E+01   0.182E+01 -.204E+01 0.267E+01
   -.850E+02 -.116E+03 0.175E+02   0.908E+02 0.117E+03 -.257E+02   -.501E+01 -.496E+00 0.700E+01
   -.605E+02 -.139E+03 -.914E+01   0.626E+02 0.141E+03 0.604E+01   -.182E+01 -.204E+01 0.267E+01
   0.850E+02 -.116E+03 0.175E+02   -.908E+02 0.117E+03 -.257E+02   0.501E+01 -.496E+00 0.700E+01
   -.362E-04 0.574E+02 0.459E+02   -.301E-12 -.726E+02 -.431E+02   0.000E+00 0.130E+02 -.241E+01
   0.488E-06 0.708E+02 0.111E+03   0.169E-10 -.808E+02 -.110E+03   0.000E+00 0.867E+01 -.999E+00
   0.274E+02 0.955E+02 0.678E+02   -.286E+02 -.110E+03 -.657E+02   0.100E+01 0.122E+02 -.178E+01
   0.830E+02 0.844E+02 0.755E+02   -.873E+02 -.982E+02 -.792E+02   0.354E+01 0.120E+02 0.329E+01
   -.274E+02 0.955E+02 0.678E+02   0.286E+02 -.110E+03 -.657E+02   -.100E+01 0.122E+02 -.178E+01
   -.830E+02 0.844E+02 0.755E+02   0.873E+02 -.982E+02 -.792E+02   -.354E+01 0.120E+02 0.329E+01
   0.247E+02 -.112E+03 -.511E+02   -.243E+02 0.121E+03 0.501E+02   -.266E+00 -.774E+01 0.846E+00
   -.736E+01 -.125E+03 -.719E+02   0.901E+01 0.136E+03 0.691E+02   -.142E+01 -.986E+01 0.244E+01
   -.303E-04 -.660E+02 -.465E+02   0.821E-12 0.732E+02 0.450E+02   0.000E+00 -.625E+01 0.122E+01
   0.360E-04 -.125E+03 -.398E+02   0.940E-12 0.136E+03 0.369E+02   0.000E+00 -.963E+01 0.243E+01
   -.247E+02 -.112E+03 -.511E+02   0.243E+02 0.121E+03 0.501E+02   0.266E+00 -.774E+01 0.846E+00
   0.736E+01 -.125E+03 -.719E+02   -.901E+01 0.136E+03 0.691E+02   0.142E+01 -.986E+01 0.244E+01
   0.472E-04 0.114E+02 0.687E+01   -.405E-13 -.470E+01 -.943E+01   0.000E+00 -.577E+01 0.220E+01
   -.270E-04 0.155E+02 -.145E+02   -.427E-12 -.687E+01 0.114E+02   0.000E+00 -.742E+01 0.263E+01
   0.189E+02 0.139E+02 0.112E+02   -.193E+02 -.828E+01 -.141E+02   0.327E+00 -.484E+01 0.249E+01
   -.643E+00 -.108E+01 -.289E+00   0.979E+00 0.806E+01 -.378E+01   -.314E+00 -.600E+01 0.351E+01
   -.189E+02 0.139E+02 0.112E+02   0.193E+02 -.828E+01 -.141E+02   -.327E+00 -.484E+01 0.249E+01
   0.643E+00 -.108E+01 -.289E+00   -.979E+00 0.806E+01 -.378E+01   0.314E+00 -.600E+01 0.351E+01
   0.244E+03 -.178E+03 0.153E+02   -.265E+03 0.184E+03 -.200E+02   0.179E+02 -.578E+01 0.409E+01
   -.352E+02 -.522E+02 0.176E+02   0.401E+02 0.521E+02 -.161E+02   -.421E+01 0.785E-01 -.132E+01
   -.474E-04 -.291E+02 0.219E+02   -.250E-13 0.252E+02 -.240E+02   0.000E+00 0.341E+01 0.182E+01
   -.385E-04 -.630E+02 -.857E+02   0.776E-11 0.725E+02 0.929E+02   0.000E+00 -.850E+01 -.620E+01
   -.244E+03 -.178E+03 0.153E+02   0.265E+03 0.184E+03 -.200E+02   -.179E+02 -.578E+01 0.409E+01
   0.352E+02 -.522E+02 0.176E+02   -.401E+02 0.521E+02 -.161E+02   0.421E+01 0.785E-01 -.132E+01
   0.310E-04 0.932E+02 0.118E+02   -.352E-12 -.918E+02 -.454E+01   0.000E+00 -.126E+01 -.627E+01
   0.816E+02 0.101E+03 0.381E+02   -.819E+02 -.996E+02 -.313E+02   0.301E+00 -.105E+01 -.587E+01
   0.358E+02 0.138E+03 0.430E+02   -.377E+02 -.144E+03 -.423E+02   0.155E+01 0.535E+01 -.482E+00
   -.816E+02 0.101E+03 0.381E+02   0.819E+02 -.996E+02 -.313E+02   -.301E+00 -.105E+01 -.587E+01
   -.358E+02 0.138E+03 0.430E+02   0.377E+02 -.144E+03 -.423E+02   -.155E+01 0.535E+01 -.482E+00
   0.604E+02 0.437E+02 -.295E+02   -.629E+02 -.493E+02 0.251E+02   0.219E+01 0.484E+01 0.374E+01
   0.190E+02 -.193E+02 -.581E+02   -.199E+02 0.160E+02 0.538E+02   0.785E+00 0.290E+01 0.375E+01
   -.245E-04 -.503E+02 -.361E+02   -.112E-11 0.519E+02 0.312E+02   0.000E+00 -.136E+01 0.416E+01
   -.881E-05 -.317E+02 -.451E+02   -.551E-12 0.308E+02 0.398E+02   0.000E+00 0.732E+00 0.461E+01
   -.604E+02 0.437E+02 -.295E+02   0.629E+02 -.493E+02 0.251E+02   -.219E+01 0.484E+01 0.374E+01
   -.190E+02 -.193E+02 -.581E+02   0.199E+02 0.160E+02 0.538E+02   -.785E+00 0.290E+01 0.375E+01
   0.571E+02 0.188E+03 0.957E+01   -.593E+02 -.198E+03 -.511E+01   0.190E+01 0.817E+01 -.386E+01
   0.746E+01 0.160E+03 0.704E+02   -.764E+01 -.171E+03 -.678E+02   0.147E+00 0.962E+01 -.219E+01
   -.307E-05 0.148E+03 0.488E+02   -.559E-11 -.158E+03 -.450E+02   0.000E+00 0.907E+01 -.326E+01
   0.192E-04 0.129E+03 0.631E+02   0.112E-12 -.136E+03 -.608E+02   0.000E+00 0.636E+01 -.192E+01
   -.571E+02 0.188E+03 0.957E+01   0.593E+02 -.198E+03 -.511E+01   -.190E+01 0.817E+01 -.386E+01
   -.746E+01 0.160E+03 0.704E+02   0.764E+01 -.171E+03 -.678E+02   -.147E+00 0.962E+01 -.219E+01
   0.119E-04 -.989E+02 0.246E+02   -.423E-12 0.111E+03 -.322E+02   0.000E+00 -.105E+02 0.660E+01
   0.492E-04 -.485E+02 -.370E+03   -.128E-12 0.581E+02 0.393E+03   0.000E+00 -.831E+01 -.198E+02
   0.545E+02 -.879E+02 -.836E+02   -.553E+02 0.989E+02 0.874E+02   0.605E+00 -.947E+01 -.346E+01
   0.369E+02 -.110E+03 -.102E+03   -.363E+02 0.123E+03 0.100E+03   -.494E+00 -.110E+02 0.161E+01
   -.545E+02 -.879E+02 -.836E+02   0.553E+02 0.989E+02 0.874E+02   -.605E+00 -.947E+01 -.346E+01
   -.369E+02 -.110E+03 -.102E+03   0.363E+02 0.123E+03 0.100E+03   0.494E+00 -.110E+02 0.161E+01
   0.269E-05 0.149E+03 0.151E+03   -.124E-13 -.151E+03 -.153E+03   0.000E+00 0.172E+01 0.165E+01
 -----------------------------------------------------------------------------------------------
   -.587E-04 0.957E+01 -.411E+02   -.906E-13 -.966E-12 0.313E-12   0.333E-15 -.688E+01 0.363E+02
 
 
 POSITION                                       TOTAL-FORCE (eV/Angst)
 -----------------------------------------------------------------------------------
      0.00000      7.65046     -1.78899         0.000000      0.053523      0.068062
      0.00000      6.35604     -7.37047         0.000000     -0.015036     -0.091257
      3.04405      7.65708     -1.76863        -0.011339      0.013997      0.024309
      3.01756      6.38756     -7.43473        -0.063274      0.139576     -0.006471
      6.09866      7.65708     -1.76863         0.011339      0.013997      0.024309
      6.12515      6.38756     -7.43473         0.063274      0.139576     -0.006471
      1.53383      9.38547     -3.87740        -0.005467      0.114388     -0.118525
      1.51836      8.15089     -9.47444         0.108093     -0.138583     -0.058391
      4.57135      9.36911     -3.89222         0.000000     -0.108161     -0.072750
      4.57135      7.57184    -10.13302         0.000000      0.191543      0.039951
      7.60887      9.38547     -3.87740         0.005467      0.114388     -0.118525
      7.62434      8.15089     -9.47444        -0.108093     -0.138583     -0.058391
      1.49860      6.10818     -4.44771         0.042055      0.025016     -0.029034
      1.49973      4.90675    -10.12879        -0.022527     -0.081094     -0.004227
      4.57135      6.22659     -4.53426         0.000000     -0.045854      0.046670
      4.57135      4.65599    -10.07903         0.000000     -0.063669     -0.049860
      7.64411      6.10818     -4.44771        -0.042055      0.025016     -0.029034
      7.64297      4.90675    -10.12879         0.022527     -0.081094     -0.004227
      0.00000     10.97125     -1.18912         0.000000     -0.124313      0.086843
      0.00000      9.61220     -6.70252         0.000000      0.006610     -0.025669
      3.30645     10.75728     -1.04195        -0.112620      0.006016     -0.083277
      3.04672      9.52813     -6.77847        -0.037705     -0.055128     -0.098001
      5.83625     10.75728     -1.04195         0.112620      0.006016     -0.083277
      6.09598      9.52813     -6.77847         0.037705     -0.055128     -0.098001
      1.49577      1.40189     -1.77575         0.154781      0.067919      0.169698
      1.48421      0.22327     -7.30076        -0.046706      0.019099      0.061070
      4.57135      1.61693     -1.81510         0.000000     -0.138387     -0.070947
      4.57135      0.20599     -7.37480         0.000000      0.032915     -0.017716
      7.64693      1.40189     -1.77575        -0.154781      0.067919      0.169698
      7.65849      0.22327     -7.30076         0.046706      0.019099      0.061070
      0.00000      3.05154     -3.89932         0.000000      0.112866     -0.105449
      0.00000      1.85806     -9.53836         0.000000     -0.069124     -0.019850
      3.03667      3.24031     -3.90076        -0.042575     -0.091883      0.004969
      3.01568      1.83016     -9.49940        -0.037381     -0.079782     -0.002756
      6.10603      3.24031     -3.90076         0.042575     -0.091883      0.004969
      6.12703      1.83016     -9.49940         0.037381     -0.079782     -0.002756
      0.00000     -1.37091    -10.07922         0.000000      0.185157     -0.040926
      2.98266     -0.03041     -4.45477        -0.091784     -0.018444     -0.076823
      3.37301     -1.30327    -10.16476         0.013104      0.032074     -0.007915
      6.16004     -0.03041     -4.45477         0.091784     -0.018444     -0.076823
      5.76969     -1.30327    -10.16476        -0.013104      0.032074     -0.007915
      1.52726      4.68583     -1.16578         0.020562      0.050670     -0.035540
      1.53758      3.42379     -6.85769        -0.015437      0.028549      0.034504
      4.57135      4.74615     -1.15483         0.000000      0.081907     -0.001407
      4.57135      3.43218     -6.82632         0.000000      0.032409     -0.006258
      7.61544      4.68583     -1.16578        -0.020562      0.050670     -0.035540
      7.60513      3.42379     -6.85769         0.015437      0.028549      0.034504
      1.70678     11.74003     -1.26703        -0.112135     -0.163230      0.052605
      1.53415     -1.70863     -7.08001        -0.048025     -0.151495      0.175269
      4.57135     -0.21357     -1.75926         0.000000      0.161560      0.164923
      4.57135     -1.72267     -7.11365         0.000000     -0.095482      0.167398
      7.43592     11.74003     -1.26703         0.112135     -0.163230      0.052605
      7.60855     -1.70863     -7.08001         0.048025     -0.151495      0.175269
      0.00000      5.05557     -4.18184         0.000000      0.277761     -0.129352
      0.00000      3.78254     -9.88559         0.000000      0.110867     -0.038943
      3.07626      5.17205     -4.22279        -0.056000      0.151007     -0.101915
      2.97228      3.76271     -9.85132         0.077659      0.163553     -0.075595
      6.06644      5.17205     -4.22279         0.056000      0.151007     -0.101915
      6.17043      3.76271     -9.85132        -0.077659      0.163553     -0.075595
      1.50905      7.46432     -3.15661        -0.024013     -0.015362     -0.055894
      1.44290      6.10654     -8.69544         0.007297     -0.070780      0.004441
      4.57135      7.45485     -3.13032         0.000000      0.012624     -0.078729
      4.57135      6.11389     -8.83348         0.000000      0.085116     -0.334974
      7.63365      7.46432     -3.15661         0.024013     -0.015362     -0.055894
      7.69980      6.10654     -8.69544        -0.007297     -0.070780      0.004441
      0.00000      9.55917     -2.45121         0.000000      0.060534      0.129659
      0.00000      8.28984     -8.08566         0.000000      0.021932      0.006959
      3.06500      9.50699     -2.49637         0.070082     -0.063821      0.083304
      2.86170      8.19599     -8.03685        -0.235858     -0.050815      0.205155
      6.07770      9.50699     -2.49637        -0.070082     -0.063821      0.083304
      6.28100      8.19599     -8.03685         0.235858     -0.050815      0.205155
      0.00000      8.87460     -5.00988         0.000000      0.481308     -0.051814
      0.00000      7.76784    -10.64557         0.000000      0.391080     -0.023055
      3.08098      8.83887     -5.04510         0.002307      0.484749      0.004477
      2.70656      7.22881    -10.61702         0.145004      0.514938      0.121978
      6.06172      8.83887     -5.04510        -0.002307      0.484749      0.004477
      6.43614      7.22881    -10.61702        -0.145004      0.514938      0.121978
      1.50015      7.99674     -0.64994         0.021587     -0.272451     -0.026140
      1.50503      6.65957     -6.19358        -0.047149     -0.372925      0.053092
      4.57135      7.89530     -0.57671         0.000000     -0.250544      0.012727
      4.57135      6.71943     -6.30891         0.000000     -0.377931      0.078560
      7.64255      7.99674     -0.64994        -0.021587     -0.272451     -0.026140
      7.63767      6.65957     -6.19358         0.047149     -0.372925      0.053092
      0.00000      5.72391     -1.43011         0.000000     -0.178767      0.068058
      0.00000      4.41205     -7.06970         0.000000     -0.256443      0.104317
      3.03178      5.75181     -1.44108         0.014937     -0.155143      0.083310
      3.05691      4.46150     -7.12601        -0.027663     -0.218886      0.138836
      6.11092      5.75181     -1.44108        -0.014937     -0.155143      0.083310
      6.08579      4.46150     -7.12601         0.027663     -0.218886      0.138836
      1.60737     11.13402     -4.34598         0.660845     -0.298563      0.124033
      1.65801     -2.24272     -9.86672        -0.141978      0.011543     -0.067621
      4.57135     -1.03721     -4.34992         0.000000      0.096098      0.064988
      4.57135      9.35662     -9.80769         0.000000     -0.459230     -0.222413
      7.53533     11.13402     -4.34598        -0.660845     -0.298563      0.124033
      7.48470     -2.24272     -9.86672         0.141978      0.011543     -0.067621
      0.00000     -0.00344     -8.82421         0.000000     -0.006125     -0.188213
      3.12252      1.39519     -3.28509         0.020188     -0.010853     -0.154472
      2.97238      0.02744     -8.69461        -0.003364      0.250742      0.034907
      6.02018      1.39519     -3.28509        -0.020188     -0.010853     -0.154472
      6.17032      0.02744     -8.69461         0.003364      0.250742      0.034907
      1.58023      3.47473     -2.54272         0.062125      0.124179      0.110476
      1.52211      2.11670     -8.16481         0.009456      0.051433      0.158782
      4.57135      3.46710     -2.53127         0.000000     -0.090890      0.138452
      4.57135      2.08945     -8.12623         0.000000     -0.023498      0.179740
      7.56247      3.47473     -2.54272        -0.062125      0.124179      0.110476
      7.62059      2.11670     -8.16481        -0.009456      0.051433      0.158782
      1.57748      2.97450     -5.10559         0.052252      0.317417     -0.125790
      1.52464      1.44172    -10.68734        -0.006478      0.349610     -0.040337
      4.57135      2.95516     -5.06644         0.000000      0.331835     -0.095359
      4.57135      1.58101    -10.64968         0.000000      0.287462     -0.053361
      7.56522      2.97450     -5.10559        -0.052252      0.317417     -0.125790
      7.61806      1.44172    -10.68734         0.006478      0.349610     -0.040337
      0.00000      1.94967     -0.51766         0.000000     -0.447874      0.197521
      0.00000      0.71331     -6.31622         0.000000     -0.304743     -0.818462
      2.97927      1.95276     -0.71179        -0.049917     -0.414803     -0.222749
      3.06331      0.63240     -6.19825        -0.011224     -0.420742      0.015939
      6.16343      1.95276     -0.71179         0.049917     -0.414803     -0.222749
      6.07939      0.63240     -6.19825         0.011224     -0.420742      0.015939
      0.00000      0.82940     -3.39453         0.000000      0.497580      0.442573
 -----------------------------------------------------------------------------------
    total drift:                               -0.000059     -0.064023      0.168794


--------------------------------------------------------------------------------------------------------



  FREE ENERGIE OF THE ION-ELECTRON SYSTEM (eV)
  ---------------------------------------------------
  free  energy   TOTEN  =      -837.86958084 eV

  energy  without entropy=     -837.86254968  energy(sigma->0) =     -837.86606526
 


--------------------------------------------------------------------------------------------------------


    POTLOK:  cpu time      1.9758: real time      1.9834


--------------------------------------------------------------------------------------------------------


 writing wavefunctions
     LOOP+:  cpu time  19820.1373: real time  19822.3435
    4ORBIT:  cpu time      0.0000: real time      0.0000

 total amount of memory used by VASP MPI-rank0  7507614. kBytes
=======================================================================

   base      :      30000. kBytes
   nonlr-proj:      46669. kBytes
   fftplans  :      51012. kBytes
   grid      :     102973. kBytes
   one-center:       1850. kBytes
   HF        :        194. kBytes
   wavefun   :    7045683. kBytes
   fock_wrk  :     229233. kBytes
 
  
  
 General timing and accounting informations for this job:
 ========================================================
  
                  Total CPU time used (sec):    19851.789
                            User time (sec):    19833.629
                          System time (sec):       18.160
                         Elapsed time (sec):    19856.482
  
                   Maximum memory used (kb):    13313792.
                   Average memory used (kb):          N/A
  
                          Minor page faults:      7970213
                          Major page faults:            2
                 Voluntary context switches:       379733
