<?xml version="1.0" encoding="ISO-8859-1"?>
<modeling>
 <generator>
  <i name="program" type="string">vasp </i>
  <i name="version" type="string">6.4.2  </i>
  <i name="subversion" type="string">20Jul23 (build Nov 12 2023 22:16:35) complex                          parallel </i>
  <i name="platform" type="string">LinuxNV </i>
  <i name="date" type="string">2025 03 29 </i>
  <i name="time" type="string">10:59:53 </i>
 </generator>
 <incar>
  <i type="int" name="ISTART">     0</i>
  <i type="string" name="PREC">Normal</i>
  <i type="string" name="ALGO">All</i>
  <i type="int" name="ISPIN">     1</i>
  <i type="int" name="ICHARG">     0</i>
  <i type="int" name="NELM">   500</i>
  <i type="int" name="IBRION">    -1</i>
  <i name="EDIFF">      0.00001000</i>
  <i name="EDIFFG">     -0.00500000</i>
  <i type="int" name="NSW">     0</i>
  <i type="int" name="ISIF">     2</i>
  <i name="ENCUT">    450.00000000</i>
  <i name="NELECT">   1043.00000000</i>
  <i type="string" name="LREAL">Auto</i>
  <i type="logical" name="LPLANE"> T  </i>
  <i name="TIME">      0.40000000</i>
  <i type="int" name="ISMEAR">     0</i>
  <i name="SIGMA">      0.05000000</i>
  <i type="logical" name="LWAVE"> T  </i>
  <i type="logical" name="LCHARG"> T  </i>
  <i name="HFSCREEN">      0.20000000</i>
  <i type="logical" name="LHFCALC"> T  </i>
  <i type="int" name="LMAXFOCK">     4</i>
  <i name="AEXX">      0.32000000</i>
  <i type="string" name="PRECFOCK">Fast</i>
 </incar>
 <primitive_cell>
  <structure name="primitive_cell" >
   <crystal>
    <varray name="basis" >
     <v>       0.00000000      12.28047342       0.00000000 </v>
     <v>       9.14270205       0.00000000       0.00000000 </v>
     <v>       0.00000000      -2.76826177     -11.30069772 </v>
    </varray>
    <i name="volume">   1268.80515525 </i>
    <varray name="rec_basis" >
     <v>       0.00000000       0.08143009      -0.01994742 </v>
     <v>       0.10937686      -0.00000000       0.00000000 </v>
     <v>       0.00000000       0.00000000      -0.08849011 </v>
    </varray>
   </crystal>
   <varray name="positions" >
    <v>       0.66005308       0.00000000       0.15539002 </v>
    <v>       0.65823297       0.00000000       0.65431527 </v>
    <v>       0.66305670       0.33365077       0.15619252 </v>
    <v>       0.65858663       0.33293403       0.65503283 </v>
    <v>       0.66305670       0.66634923       0.15619252 </v>
    <v>       0.65858663       0.66706597       0.65503283 </v>
    <v>       0.83839071       0.16403093       0.34403691 </v>
    <v>       0.83994371       0.16632719       0.84312908 </v>
    <v>       0.84566542       0.50000000       0.34316423 </v>
    <v>       0.84024911       0.50000000       0.84384658 </v>
    <v>       0.83839071       0.83596907       0.34403691 </v>
    <v>       0.83994371       0.83367281       0.84312908 </v>
    <v>       0.58574052       0.16369506       0.39491403 </v>
    <v>       0.59188698       0.16690253       0.89684545 </v>
    <v>       0.59447780       0.50000000       0.39689698 </v>
    <v>       0.59306322       0.50000000       0.89851450 </v>
    <v>       0.58574052       0.83630494       0.39491403 </v>
    <v>       0.59188698       0.83309747       0.89684545 </v>
    <v>       0.91108068       0.00000000       0.10340499 </v>
    <v>       0.90851390       0.00000000       0.60337812 </v>
    <v>       0.91303591       0.33100731       0.10210497 </v>
    <v>       0.90834065       0.33397570       0.60396788 </v>
    <v>       0.91303591       0.66899269       0.10210497 </v>
    <v>       0.90834065       0.66602430       0.60396788 </v>
    <v>       0.16650520       0.15858963       0.15529819 </v>
    <v>       0.15675612       0.17060917       0.66027787 </v>
    <v>       0.15970825       0.50000000       0.15548321 </v>
    <v>       0.15811174       0.50000000       0.65576165 </v>
    <v>       0.16650520       0.84141037       0.15529819 </v>
    <v>       0.15675612       0.82939083       0.66027787 </v>
    <v>       0.32235899       0.00000000       0.33004779 </v>
    <v>       0.34214782       0.00000000       0.83936339 </v>
    <v>       0.34203839       0.33398597       0.34045201 </v>
    <v>       0.34205394       0.33430252       0.84146214 </v>
    <v>       0.34203839       0.66601403       0.34045201 </v>
    <v>       0.34205394       0.66569748       0.84146214 </v>
    <v>       0.08911813       0.00000000       0.89231585 </v>
    <v>       0.09431671       0.32875365       0.39652868 </v>
    <v>       0.09058557       0.33336540       0.89842368 </v>
    <v>       0.09431671       0.67124635       0.39652868 </v>
    <v>       0.09058557       0.66663460       0.89842368 </v>
    <v>       0.41366786       0.16900382       0.09768991 </v>
    <v>       0.40774673       0.16639259       0.59690327 </v>
    <v>       0.41046941       0.50000000       0.10168484 </v>
    <v>       0.40864801       0.50000000       0.59971141 </v>
    <v>       0.41366786       0.83099618       0.09768991 </v>
    <v>       0.40774673       0.83360741       0.59690327 </v>
    <v>       0.00097367       0.16394202       0.13238068 </v>
    <v>       0.99512929       0.16721502       0.63004772 </v>
    <v>       0.99740578       0.50000000       0.12712429 </v>
    <v>       0.99634973       0.50000000       0.62840521 </v>
    <v>       0.00097367       0.83605798       0.13238068 </v>
    <v>       0.99512929       0.83278498       0.63004772 </v>
    <v>       0.49546573       0.00000000       0.36928243 </v>
    <v>       0.50461178       0.00000000       0.87047075 </v>
    <v>       0.50478901       0.33562389       0.37264282 </v>
    <v>       0.50450024       0.33392594       0.87094389 </v>
    <v>       0.50478901       0.66437611       0.37264282 </v>
    <v>       0.50450024       0.66607406       0.87094389 </v>
    <v>       0.67183536       0.16645352       0.28004532 </v>
    <v>       0.67224915       0.16646867       0.77899731 </v>
    <v>       0.67777570       0.50000000       0.28065272 </v>
    <v>       0.67238611       0.50000000       0.77950494 </v>
    <v>       0.67183536       0.83354648       0.28004532 </v>
    <v>       0.67224915       0.83353133       0.77899731 </v>
    <v>       0.82871708       0.00000000       0.22132208 </v>
    <v>       0.82647343       0.00000000       0.71952746 </v>
    <v>       0.83298033       0.32887540       0.22180262 </v>
    <v>       0.82643852       0.33315614       0.71975368 </v>
    <v>       0.83298033       0.67112460       0.22180262 </v>
    <v>       0.82643852       0.66684386       0.71975368 </v>
    <v>       0.83047389       0.00000000       0.44712888 </v>
    <v>       0.83295487       0.00000000       0.94686786 </v>
    <v>       0.83886042       0.33192735       0.44514700 </v>
    <v>       0.83321870       0.33239044       0.94648937 </v>
    <v>       0.83886042       0.66807265       0.44514700 </v>
    <v>       0.83321870       0.66760956       0.94648937 </v>
    <v>       0.67021864       0.16656261       0.05348645 </v>
    <v>       0.66669694       0.16641904       0.55140042 </v>
    <v>       0.67486181       0.50000000       0.05414348 </v>
    <v>       0.67126141       0.50000000       0.55369086 </v>
    <v>       0.67021864       0.83343739       0.05348645 </v>
    <v>       0.66669694       0.83358096       0.55140042 </v>
    <v>       0.49846361       0.00000000       0.12341265 </v>
    <v>       0.49553358       0.00000000       0.62510857 </v>
    <v>       0.50133916       0.33616483       0.12362386 </v>
    <v>       0.49581257       0.33293581       0.62507259 </v>
    <v>       0.50133916       0.66383517       0.12362386 </v>
    <v>       0.49581257       0.66706419       0.62507259 </v>
    <v>       0.01244741       0.14387165       0.38418440 </v>
    <v>       0.00242625       0.16701476       0.87195790 </v>
    <v>       0.00807744       0.50000000       0.37285291 </v>
    <v>       0.00296127       0.50000000       0.87191575 </v>
    <v>       0.01244741       0.85612835       0.38418440 </v>
    <v>       0.00242625       0.83298524       0.87195790 </v>
    <v>       0.17191425       0.00000000       0.77563143 </v>
    <v>       0.17257203       0.33155436       0.27918993 </v>
    <v>       0.17268158       0.33404496       0.78100312 </v>
    <v>       0.17257203       0.66844564       0.27918993 </v>
    <v>       0.17268158       0.66595504       0.78100312 </v>
    <v>       0.33464253       0.17977468       0.21442810 </v>
    <v>       0.32478556       0.16479174       0.71379954 </v>
    <v>       0.32771985       0.50000000       0.21762235 </v>
    <v>       0.32658213       0.50000000       0.71726810 </v>
    <v>       0.33464253       0.82022532       0.21442810 </v>
    <v>       0.32478556       0.83520826       0.71379954 </v>
    <v>       0.32740381       0.16730656       0.44159713 </v>
    <v>       0.33520073       0.16693857       0.94146332 </v>
    <v>       0.33036406       0.50000000       0.44372500 </v>
    <v>       0.33298929       0.50000000       0.94471370 </v>
    <v>       0.32740381       0.83269344       0.44159713 </v>
    <v>       0.33520073       0.83306143       0.94146332 </v>
    <v>       0.17535955       0.00000000       0.04380784 </v>
    <v>       0.14650320       0.00000000       0.54819037 </v>
    <v>       0.16694608       0.33194240       0.05401105 </v>
    <v>       0.16485252       0.33191424       0.55425359 </v>
    <v>       0.16694608       0.66805760       0.05401105 </v>
    <v>       0.16485252       0.66808576       0.55425359 </v>
    <v>       0.09911586       0.00000000       0.40499605 </v>
   </varray>
  </structure>
  <varray name="primitive_index" >
   <v type="int" >        1 </v>
   <v type="int" >        2 </v>
   <v type="int" >        3 </v>
   <v type="int" >        4 </v>
   <v type="int" >        5 </v>
   <v type="int" >        6 </v>
   <v type="int" >        7 </v>
   <v type="int" >        8 </v>
   <v type="int" >        9 </v>
   <v type="int" >       10 </v>
   <v type="int" >       11 </v>
   <v type="int" >       12 </v>
   <v type="int" >       13 </v>
   <v type="int" >       14 </v>
   <v type="int" >       15 </v>
   <v type="int" >       16 </v>
   <v type="int" >       17 </v>
   <v type="int" >       18 </v>
   <v type="int" >       19 </v>
   <v type="int" >       20 </v>
   <v type="int" >       21 </v>
   <v type="int" >       22 </v>
   <v type="int" >       23 </v>
   <v type="int" >       24 </v>
   <v type="int" >       25 </v>
   <v type="int" >       26 </v>
   <v type="int" >       27 </v>
   <v type="int" >       28 </v>
   <v type="int" >       29 </v>
   <v type="int" >       30 </v>
   <v type="int" >       31 </v>
   <v type="int" >       32 </v>
   <v type="int" >       33 </v>
   <v type="int" >       34 </v>
   <v type="int" >       35 </v>
   <v type="int" >       36 </v>
   <v type="int" >       37 </v>
   <v type="int" >       38 </v>
   <v type="int" >       39 </v>
   <v type="int" >       40 </v>
   <v type="int" >       41 </v>
   <v type="int" >       42 </v>
   <v type="int" >       43 </v>
   <v type="int" >       44 </v>
   <v type="int" >       45 </v>
   <v type="int" >       46 </v>
   <v type="int" >       47 </v>
   <v type="int" >       48 </v>
   <v type="int" >       49 </v>
   <v type="int" >       50 </v>
   <v type="int" >       51 </v>
   <v type="int" >       52 </v>
   <v type="int" >       53 </v>
   <v type="int" >       54 </v>
   <v type="int" >       55 </v>
   <v type="int" >       56 </v>
   <v type="int" >       57 </v>
   <v type="int" >       58 </v>
   <v type="int" >       59 </v>
   <v type="int" >       60 </v>
   <v type="int" >       61 </v>
   <v type="int" >       62 </v>
   <v type="int" >       63 </v>
   <v type="int" >       64 </v>
   <v type="int" >       65 </v>
   <v type="int" >       66 </v>
   <v type="int" >       67 </v>
   <v type="int" >       68 </v>
   <v type="int" >       69 </v>
   <v type="int" >       70 </v>
   <v type="int" >       71 </v>
   <v type="int" >       72 </v>
   <v type="int" >       73 </v>
   <v type="int" >       74 </v>
   <v type="int" >       75 </v>
   <v type="int" >       76 </v>
   <v type="int" >       77 </v>
   <v type="int" >       78 </v>
   <v type="int" >       79 </v>
   <v type="int" >       80 </v>
   <v type="int" >       81 </v>
   <v type="int" >       82 </v>
   <v type="int" >       83 </v>
   <v type="int" >       84 </v>
   <v type="int" >       85 </v>
   <v type="int" >       86 </v>
   <v type="int" >       87 </v>
   <v type="int" >       88 </v>
   <v type="int" >       89 </v>
   <v type="int" >       90 </v>
   <v type="int" >       91 </v>
   <v type="int" >       92 </v>
   <v type="int" >       93 </v>
   <v type="int" >       94 </v>
   <v type="int" >       95 </v>
   <v type="int" >       96 </v>
   <v type="int" >       97 </v>
   <v type="int" >       98 </v>
   <v type="int" >       99 </v>
   <v type="int" >      100 </v>
   <v type="int" >      101 </v>
   <v type="int" >      102 </v>
   <v type="int" >      103 </v>
   <v type="int" >      104 </v>
   <v type="int" >      105 </v>
   <v type="int" >      106 </v>
   <v type="int" >      107 </v>
   <v type="int" >      108 </v>
   <v type="int" >      109 </v>
   <v type="int" >      110 </v>
   <v type="int" >      111 </v>
   <v type="int" >      112 </v>
   <v type="int" >      113 </v>
   <v type="int" >      114 </v>
   <v type="int" >      115 </v>
   <v type="int" >      116 </v>
   <v type="int" >      117 </v>
   <v type="int" >      118 </v>
   <v type="int" >      119 </v>
  </varray>
 </primitive_cell>
 <kpoints>
  <generation param="Gamma">
   <v type="int" name="divisions">       2        2        2 </v>
   <v name="usershift">      0.00000000       0.00000000       0.00000000 </v>
   <v name="genvec1">      0.50000000       0.00000000       0.00000000 </v>
   <v name="genvec2">      0.00000000       0.50000000       0.00000000 </v>
   <v name="genvec3">      0.00000000       0.00000000       0.50000000 </v>
   <v name="shift">      0.00000000       0.00000000       0.00000000 </v>
  </generation>
  <varray name="kpointlist" >
   <v>       0.00000000       0.00000000       0.00000000 </v>
   <v>       0.50000000       0.00000000       0.00000000 </v>
   <v>       0.00000000       0.50000000       0.00000000 </v>
   <v>       0.50000000       0.50000000       0.00000000 </v>
   <v>       0.00000000       0.00000000       0.50000000 </v>
   <v>       0.50000000       0.00000000       0.50000000 </v>
   <v>       0.00000000       0.50000000       0.50000000 </v>
   <v>       0.50000000       0.50000000       0.50000000 </v>
  </varray>
  <varray name="weights" >
   <v>       0.12500000 </v>
   <v>       0.12500000 </v>
   <v>       0.12500000 </v>
   <v>       0.12500000 </v>
   <v>       0.12500000 </v>
   <v>       0.12500000 </v>
   <v>       0.12500000 </v>
   <v>       0.12500000 </v>
  </varray>
 </kpoints>
 <parameters>
  <separator name="general" >
   <i type="string" name="SYSTEM">unknown system</i>
   <i type="logical" name="LCOMPAT"> F  </i>
  </separator>
  <separator name="electronic" >
   <i type="string" name="PREC">normal</i>
   <i name="ENMAX">    450.00000000</i>
   <i name="ENAUG">    605.39200000</i>
   <i name="EDIFF">      0.00001000</i>
   <i type="int" name="IALGO">    58</i>
   <i type="int" name="IWAVPR">    10</i>
   <i type="int" name="NBANDS">   625</i>
   <i type="int" name="NBANDSLOW">    -1</i>
   <i type="int" name="NBANDSHIGH">    -1</i>
   <i name="NELECT">   1043.00000000</i>
   <i type="int" name="TURBO">     0</i>
   <i type="int" name="IRESTART">     0</i>
   <i type="int" name="NREBOOT">     0</i>
   <i type="int" name="NMIN">     0</i>
   <i name="EREF">      0.00000000</i>
   <separator name="electronic smearing" >
    <i type="int" name="ISMEAR">     0</i>
    <i name="SIGMA">      0.05000000</i>
    <i name="KSPACING">      0.50000000</i>
    <i type="logical" name="KGAMMA"> T  </i>
    <i type="logical" name="KBLOWUP"> T  </i>
   </separator>
   <separator name="electronic projectors" >
    <i type="logical" name="LREAL"> T  </i>
    <v name="ROPT">     -0.00050000     -0.00050000     -0.00050000</v>
    <i type="int" name="LMAXPAW">  -100</i>
    <i type="int" name="LMAXMIX">     2</i>
    <i type="logical" name="NLSPLINE"> F  </i>
   </separator>
   <separator name="electronic startup" >
    <i type="int" name="ISTART">     0</i>
    <i type="int" name="ICHARG">     0</i>
    <i type="int" name="INIWAV">     1</i>
   </separator>
   <separator name="electronic spin" >
    <i type="int" name="ISPIN">     1</i>
    <i type="logical" name="LNONCOLLINEAR"> F  </i>
    <v name="MAGMOM">      1.00000000      1.00000000      1.00000000      1.00000000      1.00000000      1.00000000      1.00000000      1.00000000      1.00000000      1.00000000      1.00000000      1.00000000      1.00000000      1.00000000      1.00000000      1.00000000      1.00000000      1.00000000      1.00000000      1.00000000
      1.00000000      1.00000000      1.00000000      1.00000000      1.00000000      1.00000000      1.00000000      1.00000000      1.00000000      1.00000000      1.00000000      1.00000000      1.00000000      1.00000000      1.00000000      1.00000000      1.00000000      1.00000000      1.00000000      1.00000000
      1.00000000      1.00000000      1.00000000      1.00000000      1.00000000      1.00000000      1.00000000      1.00000000      1.00000000      1.00000000      1.00000000      1.00000000      1.00000000      1.00000000      1.00000000      1.00000000      1.00000000      1.00000000      1.00000000      1.00000000
      1.00000000      1.00000000      1.00000000      1.00000000      1.00000000      1.00000000      1.00000000      1.00000000      1.00000000      1.00000000      1.00000000      1.00000000      1.00000000      1.00000000      1.00000000      1.00000000      1.00000000      1.00000000      1.00000000      1.00000000
      1.00000000      1.00000000      1.00000000      1.00000000      1.00000000      1.00000000      1.00000000      1.00000000      1.00000000      1.00000000      1.00000000      1.00000000      1.00000000      1.00000000      1.00000000      1.00000000      1.00000000      1.00000000      1.00000000      1.00000000
      1.00000000      1.00000000      1.00000000      1.00000000      1.00000000      1.00000000      1.00000000      1.00000000      1.00000000      1.00000000      1.00000000      1.00000000      1.00000000      1.00000000      1.00000000      1.00000000      1.00000000      1.00000000      1.00000000</v>
    <i name="NUPDOWN">     -1.00000000</i>
    <i type="logical" name="LSORBIT"> F  </i>
    <v name="SAXIS">      0.00000000      0.00000000      1.00000000</v>
    <i type="logical" name="LSPIRAL"> F  </i>
    <v name="QSPIRAL">      0.00000000      0.00000000      0.00000000</v>
    <i type="logical" name="LZEROZ"> F  </i>
   </separator>
   <separator name="electronic exchange-correlation" >
    <i type="logical" name="LASPH"> F  </i>
    <i type="logical" name="LMETAGGA"> F  </i>
   </separator>
   <separator name="electronic convergence" >
    <i type="int" name="NELM">   500</i>
    <i type="int" name="NELMDL">    -5</i>
    <i type="int" name="NELMIN">     2</i>
    <i name="ENINI">    450.00000000</i>
    <separator name="electronic convergence detail" >
     <i type="logical" name="LDIAG"> T  </i>
     <i type="logical" name="LSUBROT"> F  </i>
     <i name="WEIMIN">      0.00000000</i>
     <i name="EBREAK">      0.00000000</i>
     <i name="DEPER">      0.30000000</i>
     <i type="int" name="NRMM">     4</i>
     <i name="TIME">      0.40000000</i>
    </separator>
   </separator>
   <separator name="electronic mixer" >
    <i name="AMIX">      0.40000000</i>
    <i name="BMIX">      1.00000000</i>
    <i name="AMIN">      0.10000000</i>
    <i name="AMIX_MAG">      1.60000000</i>
    <i name="BMIX_MAG">      1.00000000</i>
    <separator name="electronic mixer details" >
     <i type="int" name="IMIX">     4</i>
     <i type="logical" name="MIXFIRST"> F  </i>
     <i type="int" name="MAXMIX">   -45</i>
     <i name="WC">    100.00000000</i>
     <i type="int" name="INIMIX">     1</i>
     <i type="int" name="MIXPRE">     1</i>
     <i type="int" name="MREMOVE">     5</i>
    </separator>
   </separator>
   <separator name="electronic dipolcorrection" >
    <i type="logical" name="LDIPOL"> F  </i>
    <i type="logical" name="LMONO"> F  </i>
    <i type="int" name="IDIPOL">     0</i>
    <i name="EPSILON">      1.00000000</i>
    <v name="DIPOL">   -100.00000000   -100.00000000   -100.00000000</v>
    <i name="EFIELD">      0.00000000</i>
   </separator>
  </separator>
  <separator name="grids" >
   <i type="int" name="NGX">    64</i>
   <i type="int" name="NGY">    48</i>
   <i type="int" name="NGZ">    60</i>
   <i type="int" name="NGXF">   128</i>
   <i type="int" name="NGYF">    96</i>
   <i type="int" name="NGZF">   120</i>
   <i type="logical" name="ADDGRID"> F  </i>
  </separator>
  <separator name="ionic" >
   <i type="int" name="NSW">     0</i>
   <i type="int" name="IBRION">    -1</i>
   <i type="int" name="MDALGO">     0</i>
   <i type="int" name="ISIF">     2</i>
   <i name="PSTRESS">      0.00000000</i>
   <i name="EDIFFG">     -0.00500000</i>
   <i type="int" name="NFREE">     0</i>
   <i name="POTIM">      0.50000000</i>
   <i name="SMASS">     -3.00000000</i>
   <i name="SCALEE">      1.00000000</i>
  </separator>
  <separator name="ionic md" >
   <i name="TEBEG">      0.00010000</i>
   <i name="TEEND">      0.00010000</i>
   <i type="int" name="NBLOCK">     1</i>
   <i type="int" name="KBLOCK">     1</i>
   <i type="int" name="NPACO">   256</i>
   <i name="APACO">     10.00000000</i>
  </separator>
  <separator name="symmetry" >
   <i type="int" name="ISYM">     3</i>
   <i name="SYMPREC">      0.00001000</i>
  </separator>
  <separator name="dos" >
   <i type="int" name="LORBIT">     0</i>
   <v name="RWIGS">     -1.00000000     -1.00000000     -1.00000000</v>
   <i type="int" name="NEDOS">   301</i>
   <i name="EMIN">     10.00000000</i>
   <i name="EMAX">    -10.00000000</i>
   <i name="EFERMI">      0.00000000</i>
  </separator>
  <separator name="writing" >
   <i type="int" name="NWRITE">     2</i>
   <i type="logical" name="LWAVE"> T  </i>
   <i type="logical" name="LDOWNSAMPLE"> F  </i>
   <i type="logical" name="LCHARG"> T  </i>
   <i type="logical" name="LPARD"> F  </i>
   <i type="logical" name="LVTOT"> F  </i>
   <i type="logical" name="LVHAR"> F  </i>
   <i type="logical" name="LELF"> F  </i>
   <i type="logical" name="LOPTICS"> F  </i>
   <v name="STM">      0.00000000      0.00000000      0.00000000      0.00000000      0.00000000      0.00000000      0.00000000</v>
  </separator>
  <separator name="performance" >
   <i type="int" name="NPAR">     1</i>
   <i type="int" name="NSIM">     4</i>
   <i type="int" name="NBLK">    -1</i>
   <i type="logical" name="LPLANE"> T  </i>
   <i type="logical" name="LSCALAPACK"> T  </i>
   <i type="logical" name="LSCAAWARE"> F  </i>
   <i type="logical" name="LSCALU"> F  </i>
   <i type="logical" name="LASYNC"> F  </i>
   <i type="logical" name="LORBITALREAL"> F  </i>
  </separator>
  <separator name="miscellaneous" >
   <i type="int" name="IDIOT">     3</i>
   <i type="int" name="PHON_NSTRUCT">    -1</i>
   <i type="logical" name="LMUSIC"> F  </i>
   <v name="POMASS">     69.72300000     16.00000000     30.97400000</v>
   <v name="DARWINR">      0.00000000      0.00000000      0.00000000</v>
   <v name="DARWINV">      1.00000000      1.00000000      1.00000000</v>
   <i type="logical" name="LCORR"> T  </i>
  </separator>
  <i type="logical" name="GGA_COMPAT"> T  </i>
  <i type="logical" name="LBERRY"> F  </i>
  <i type="int" name="ICORELEVEL">     0</i>
  <i type="logical" name="LDAU"> F  </i>
  <i type="int" name="I_CONSTRAINED_M">     0</i>
  <separator name="electronic exchange-correlation" >
   <i type="string" name="GGA">--</i>
   <i type="int" name="VOSKOWN">     0</i>
   <i type="logical" name="LHFCALC"> T  </i>
   <i type="string" name="PRECFOCK">fast</i>
   <i type="logical" name="LSYMGRAD"> F  </i>
   <i type="logical" name="LHFONE"> F  </i>
   <i type="logical" name="LRHFCALC"> F  </i>
   <i type="logical" name="LTHOMAS"> F  </i>
   <i type="logical" name="LMODELHF"> F  </i>
   <i type="logical" name="LFOCKACE"> T  </i>
   <i name="ENCUT4O">     -1.00000000</i>
   <i type="int" name="EXXOEP">     0</i>
   <i type="int" name="FOURORBIT">     0</i>
   <i name="AEXX">      0.32000000</i>
   <i name="HFALPHA">     -1.00000000</i>
   <i name="MCALPHA">      0.00000000</i>
   <i name="ALDAX">      0.68000000</i>
   <i name="AGGAX">      0.68000000</i>
   <i name="ALDAC">      1.00000000</i>
   <i name="AGGAC">      1.00000000</i>
   <i type="int" name="NKREDX">     1</i>
   <i type="int" name="NKREDY">     1</i>
   <i type="int" name="NKREDZ">     1</i>
   <i type="logical" name="SHIFTRED"> F  </i>
   <i type="logical" name="ODDONLY"> F  </i>
   <i type="logical" name="EVENONLY"> F  </i>
   <i type="int" name="LMAXFOCK">     4</i>
   <i type="int" name="NMAXFOCKAE">     1</i>
   <i type="logical" name="LFOCKAEDFT"> F  </i>
   <i name="HFSCREEN">      0.20000000</i>
   <i name="HFSCREENC">      0.20000000</i>
   <i type="int" name="NBANDSGWLOW">     1</i>
  </separator>
  <separator name="vdW DFT" >
   <i type="logical" name="LUSE_VDW"> F  </i>
   <i type="int" name="IVDW_NL">     1</i>
   <i type="logical" name="LSPIN_VDW"> F  </i>
   <i name="Zab_VDW">     -0.84910000</i>
   <i name="PARAM1">      0.12340000</i>
   <i name="PARAM2">      1.00000000</i>
   <i name="PARAM3">      0.00000000</i>
  </separator>
  <separator name="model GW" >
   <i type="int" name="MODEL_GW">     0</i>
   <i name="MODEL_EPS0">      6.39733692</i>
   <i name="MODEL_ALPHA">      1.00000000</i>
  </separator>
  <separator name="linear response parameters" >
   <i type="logical" name="LEPSILON"> F  </i>
   <i type="logical" name="LRPA"> F  </i>
   <i type="logical" name="LNABLA"> F  </i>
   <i type="logical" name="LVEL"> F  </i>
   <i name="CSHIFT">      0.10000000</i>
   <i name="OMEGAMAX">     -1.00000000</i>
   <i name="DEG_THRESHOLD">      0.00200000</i>
   <i name="RTIME">     -0.10000000</i>
   <i name="WPLASMAI">      0.00000000</i>
   <v name="DFIELD">      0.00000000      0.00000000      0.00000000</v>
   <v name="WPLASMA">      0.00000000      0.00000000      0.00000000      0.00000000      0.00000000      0.00000000      0.00000000      0.00000000      0.00000000</v>
  </separator>
  <separator name="orbital magnetization" >
   <i type="logical" name="NUCIND"> F  </i>
   <v name="MAGPOS">      0.00000000      0.00000000      0.00000000</v>
   <i type="logical" name="LNICSALL"> T  </i>
   <i type="logical" name="ORBITALMAG"> F  </i>
   <i type="logical" name="LMAGBLOCH"> F  </i>
   <i type="logical" name="LCHIMAG"> F  </i>
   <i type="logical" name="LGAUGE"> T  </i>
   <i type="int" name="MAGATOM">     0</i>
   <v name="MAGDIPOL">      0.00000000      0.00000000      0.00000000</v>
   <v name="AVECCONST">      0.00000000      0.00000000      0.00000000</v>
  </separator>
  <separator name="response functions" >
   <i type="logical" name="LALL_IN_ONE"> F  </i>
   <i type="int" name="IALL_IN_ONE">    -1</i>
   <i type="int" name="NBANDS_WAVE">    -1</i>
   <i type="logical" name="LFINITE_TEMPERATURE"> F  </i>
   <i type="logical" name="LADDER"> F  </i>
   <i type="logical" name="LRPAFORCE"> F  </i>
   <i type="logical" name="LFXC"> F  </i>
   <i type="logical" name="LHARTREE"> T  </i>
   <i type="int" name="IBSE">     0</i>
   <v type="int" name="KPOINT">    -1     0     0     0</v>
   <i type="logical" name="LTCTC"> F  </i>
   <i type="logical" name="LTCTE"> F  </i>
   <i type="logical" name="LTETE"> F  </i>
   <i type="logical" name="LTRIPLET"> F  </i>
   <i type="logical" name="LFXCEPS"> F  </i>
   <i type="logical" name="LFXHEG"> F  </i>
   <i type="int" name="NATURALO">     2</i>
   <i type="logical" name="LHOLEGF"> F  </i>
   <i type="logical" name="L2ORDER"> F  </i>
   <i type="logical" name="LDMP1"> F  </i>
   <i type="logical" name="LMP2LT"> F  </i>
   <i type="logical" name="LSMP2LT"> F  </i>
   <i type="logical" name="LGWLF"> F  </i>
   <i name="ENCUTGW">     -1.60000002</i>
   <i name="ENCUTGWSOFT">     -1.60000002</i>
   <i name="ENCUTLF">     -1.00000000</i>
   <i type="logical" name="LESF_SPLINES"> F  </i>
   <i type="int" name="LMAXMP2">    -1</i>
   <i name="SCISSOR">      0.00000000</i>
   <i type="int" name="NOMEGA">     0</i>
   <i type="int" name="NOMEGAR">     0</i>
   <i type="int" name="NBANDSGW">    -1</i>
   <i type="int" name="NBANDSO">    -1</i>
   <i type="int" name="NBANDSV">    -1</i>
   <i type="int" name="NELMGW">     1</i>
   <i type="int" name="NELMHF">     1</i>
   <i type="int" name="DIM">     3</i>
   <i type="int" name="IESPILON">     4</i>
   <i type="int" name="ANTIRES">     0</i>
   <i name="OMEGAMAX">    -30.00000000</i>
   <i name="OMEGAMIN">    -30.00000000</i>
   <i name="OMEGATL">   -200.00000000</i>
   <i type="int" name="OMEGAGRID">     0</i>
   <i name="CSHIFT">     -0.10000000</i>
   <i type="logical" name="LSELFENERGY"> F  </i>
   <i type="logical" name="LSPECTRAL"> F  </i>
   <i type="logical" name="LSPECTRALGW"> F  </i>
   <i type="logical" name="LSINGLES"> F  </i>
   <i type="logical" name="LFERMIGW"> F  </i>
   <i type="logical" name="ODDONLYGW"> F  </i>
   <i type="logical" name="EVENONLYGW"> F  </i>
   <i type="int" name="NKREDLFX">     1</i>
   <i type="int" name="NKREDLFY">     1</i>
   <i type="int" name="NKREDLFZ">     1</i>
   <i type="int" name="MAXMEM">  2800</i>
   <i type="int" name="TELESCOPE">     0</i>
   <i type="int" name="NTAUPAR">    -1</i>
   <i type="int" name="NOMEGAPAR">    -1</i>
   <i name="DAMP_NEWTON">      0.80000001</i>
   <i name="LAMBDA">      1.00000000</i>
  </separator>
  <separator name="External order field" >
   <i name="OFIELD_KAPPA">      0.00000000</i>
   <v name="OFIELD_K">      0.00000000      0.00000000      0.00000000</v>
   <i name="OFIELD_Q6_NEAR">      0.00000000</i>
   <i name="OFIELD_Q6_FAR">      0.00000000</i>
   <i name="OFIELD_A">      0.00000000</i>
  </separator>
  <separator name="optional k-points parameters" >
   <i type="int" name="KPOINTS_OPT_MODE">     1</i>
   <i type="logical" name="LKPOINTS_OPT"> F  </i>
  </separator>
 </parameters>
 <atominfo>
  <atoms>     119 </atoms>
  <types>       3 </types>
  <array name="atoms" >
   <dimension dim="1">ion</dimension>
   <field type="string">element</field>
   <field type="int">atomtype</field>
   <set>
    <rc><c>Ga</c><c>   1</c></rc>
    <rc><c>Ga</c><c>   1</c></rc>
    <rc><c>Ga</c><c>   1</c></rc>
    <rc><c>Ga</c><c>   1</c></rc>
    <rc><c>Ga</c><c>   1</c></rc>
    <rc><c>Ga</c><c>   1</c></rc>
    <rc><c>Ga</c><c>   1</c></rc>
    <rc><c>Ga</c><c>   1</c></rc>
    <rc><c>Ga</c><c>   1</c></rc>
    <rc><c>Ga</c><c>   1</c></rc>
    <rc><c>Ga</c><c>   1</c></rc>
    <rc><c>Ga</c><c>   1</c></rc>
    <rc><c>Ga</c><c>   1</c></rc>
    <rc><c>Ga</c><c>   1</c></rc>
    <rc><c>Ga</c><c>   1</c></rc>
    <rc><c>Ga</c><c>   1</c></rc>
    <rc><c>Ga</c><c>   1</c></rc>
    <rc><c>Ga</c><c>   1</c></rc>
    <rc><c>Ga</c><c>   1</c></rc>
    <rc><c>Ga</c><c>   1</c></rc>
    <rc><c>Ga</c><c>   1</c></rc>
    <rc><c>Ga</c><c>   1</c></rc>
    <rc><c>Ga</c><c>   1</c></rc>
    <rc><c>Ga</c><c>   1</c></rc>
    <rc><c>Ga</c><c>   1</c></rc>
    <rc><c>Ga</c><c>   1</c></rc>
    <rc><c>Ga</c><c>   1</c></rc>
    <rc><c>Ga</c><c>   1</c></rc>
    <rc><c>Ga</c><c>   1</c></rc>
    <rc><c>Ga</c><c>   1</c></rc>
    <rc><c>Ga</c><c>   1</c></rc>
    <rc><c>Ga</c><c>   1</c></rc>
    <rc><c>Ga</c><c>   1</c></rc>
    <rc><c>Ga</c><c>   1</c></rc>
    <rc><c>Ga</c><c>   1</c></rc>
    <rc><c>Ga</c><c>   1</c></rc>
    <rc><c>Ga</c><c>   1</c></rc>
    <rc><c>Ga</c><c>   1</c></rc>
    <rc><c>Ga</c><c>   1</c></rc>
    <rc><c>Ga</c><c>   1</c></rc>
    <rc><c>Ga</c><c>   1</c></rc>
    <rc><c>Ga</c><c>   1</c></rc>
    <rc><c>Ga</c><c>   1</c></rc>
    <rc><c>Ga</c><c>   1</c></rc>
    <rc><c>Ga</c><c>   1</c></rc>
    <rc><c>Ga</c><c>   1</c></rc>
    <rc><c>Ga</c><c>   1</c></rc>
    <rc><c>O </c><c>   2</c></rc>
    <rc><c>O </c><c>   2</c></rc>
    <rc><c>O </c><c>   2</c></rc>
    <rc><c>O </c><c>   2</c></rc>
    <rc><c>O </c><c>   2</c></rc>
    <rc><c>O </c><c>   2</c></rc>
    <rc><c>O </c><c>   2</c></rc>
    <rc><c>O </c><c>   2</c></rc>
    <rc><c>O </c><c>   2</c></rc>
    <rc><c>O </c><c>   2</c></rc>
    <rc><c>O </c><c>   2</c></rc>
    <rc><c>O </c><c>   2</c></rc>
    <rc><c>O </c><c>   2</c></rc>
    <rc><c>O </c><c>   2</c></rc>
    <rc><c>O </c><c>   2</c></rc>
    <rc><c>O </c><c>   2</c></rc>
    <rc><c>O </c><c>   2</c></rc>
    <rc><c>O </c><c>   2</c></rc>
    <rc><c>O </c><c>   2</c></rc>
    <rc><c>O </c><c>   2</c></rc>
    <rc><c>O </c><c>   2</c></rc>
    <rc><c>O </c><c>   2</c></rc>
    <rc><c>O </c><c>   2</c></rc>
    <rc><c>O </c><c>   2</c></rc>
    <rc><c>O </c><c>   2</c></rc>
    <rc><c>O </c><c>   2</c></rc>
    <rc><c>O </c><c>   2</c></rc>
    <rc><c>O </c><c>   2</c></rc>
    <rc><c>O </c><c>   2</c></rc>
    <rc><c>O </c><c>   2</c></rc>
    <rc><c>O </c><c>   2</c></rc>
    <rc><c>O </c><c>   2</c></rc>
    <rc><c>O </c><c>   2</c></rc>
    <rc><c>O </c><c>   2</c></rc>
    <rc><c>O </c><c>   2</c></rc>
    <rc><c>O </c><c>   2</c></rc>
    <rc><c>O </c><c>   2</c></rc>
    <rc><c>O </c><c>   2</c></rc>
    <rc><c>O </c><c>   2</c></rc>
    <rc><c>O </c><c>   2</c></rc>
    <rc><c>O </c><c>   2</c></rc>
    <rc><c>O </c><c>   2</c></rc>
    <rc><c>O </c><c>   2</c></rc>
    <rc><c>O </c><c>   2</c></rc>
    <rc><c>O </c><c>   2</c></rc>
    <rc><c>O </c><c>   2</c></rc>
    <rc><c>O </c><c>   2</c></rc>
    <rc><c>O </c><c>   2</c></rc>
    <rc><c>O </c><c>   2</c></rc>
    <rc><c>O </c><c>   2</c></rc>
    <rc><c>O </c><c>   2</c></rc>
    <rc><c>O </c><c>   2</c></rc>
    <rc><c>O </c><c>   2</c></rc>
    <rc><c>O </c><c>   2</c></rc>
    <rc><c>O </c><c>   2</c></rc>
    <rc><c>O </c><c>   2</c></rc>
    <rc><c>O </c><c>   2</c></rc>
    <rc><c>O </c><c>   2</c></rc>
    <rc><c>O </c><c>   2</c></rc>
    <rc><c>O </c><c>   2</c></rc>
    <rc><c>O </c><c>   2</c></rc>
    <rc><c>O </c><c>   2</c></rc>
    <rc><c>O </c><c>   2</c></rc>
    <rc><c>O </c><c>   2</c></rc>
    <rc><c>O </c><c>   2</c></rc>
    <rc><c>O </c><c>   2</c></rc>
    <rc><c>O </c><c>   2</c></rc>
    <rc><c>O </c><c>   2</c></rc>
    <rc><c>O </c><c>   2</c></rc>
    <rc><c>O </c><c>   2</c></rc>
    <rc><c>O </c><c>   2</c></rc>
    <rc><c>P </c><c>   3</c></rc>
   </set>
  </array>
  <array name="atomtypes" >
   <dimension dim="1">type</dimension>
   <field type="int">atomspertype</field>
   <field type="string">element</field>
   <field>mass</field>
   <field>valence</field>
   <field type="string">pseudopotential</field>
   <set>
    <rc><c>  47</c><c>Ga</c><c>     69.72300000</c><c>     13.00000000</c><c>  PAW_PBE Ga_d 06Jul2010                </c></rc>
    <rc><c>  71</c><c>O </c><c>     16.00000000</c><c>      6.00000000</c><c>   PAW_PBE O 08Apr2002                  </c></rc>
    <rc><c>   1</c><c>P </c><c>     30.97400000</c><c>      5.00000000</c><c>  PAW_PBE P 06Sep2000                   </c></rc>
   </set>
  </array>
 </atominfo>
 <structure name="initialpos" >
  <crystal>
   <varray name="basis" >
    <v>       0.00000000      12.28047342       0.00000000 </v>
    <v>       9.14270205       0.00000000       0.00000000 </v>
    <v>       0.00000000      -2.76826177     -11.30069772 </v>
   </varray>
   <i name="volume">   1268.80515525 </i>
   <varray name="rec_basis" >
    <v>       0.00000000       0.08143009      -0.01994742 </v>
    <v>       0.10937686      -0.00000000       0.00000000 </v>
    <v>       0.00000000       0.00000000      -0.08849011 </v>
   </varray>
  </crystal>
  <varray name="positions" >
   <v>       0.66005308       0.00000000       0.15539002 </v>
   <v>       0.65823297       0.00000000       0.65431527 </v>
   <v>       0.66305670       0.33365077       0.15619252 </v>
   <v>       0.65858663       0.33293403       0.65503283 </v>
   <v>       0.66305670       0.66634923       0.15619252 </v>
   <v>       0.65858663       0.66706597       0.65503283 </v>
   <v>       0.83839071       0.16403093       0.34403691 </v>
   <v>       0.83994371       0.16632719       0.84312908 </v>
   <v>       0.84566542       0.50000000       0.34316423 </v>
   <v>       0.84024911       0.50000000       0.84384658 </v>
   <v>       0.83839071       0.83596907       0.34403691 </v>
   <v>       0.83994371       0.83367281       0.84312908 </v>
   <v>       0.58574052       0.16369506       0.39491403 </v>
   <v>       0.59188698       0.16690253       0.89684545 </v>
   <v>       0.59447780       0.50000000       0.39689698 </v>
   <v>       0.59306322       0.50000000       0.89851450 </v>
   <v>       0.58574052       0.83630494       0.39491403 </v>
   <v>       0.59188698       0.83309747       0.89684545 </v>
   <v>       0.91108068       0.00000000       0.10340499 </v>
   <v>       0.90851390       0.00000000       0.60337812 </v>
   <v>       0.91303591       0.33100731       0.10210497 </v>
   <v>       0.90834065       0.33397570       0.60396788 </v>
   <v>       0.91303591       0.66899269       0.10210497 </v>
   <v>       0.90834065       0.66602430       0.60396788 </v>
   <v>       0.16650520       0.15858963       0.15529819 </v>
   <v>       0.15675612       0.17060917       0.66027787 </v>
   <v>       0.15970825       0.50000000       0.15548321 </v>
   <v>       0.15811174       0.50000000       0.65576165 </v>
   <v>       0.16650520       0.84141037       0.15529819 </v>
   <v>       0.15675612       0.82939083       0.66027787 </v>
   <v>       0.32235899       0.00000000       0.33004779 </v>
   <v>       0.34214782       0.00000000       0.83936339 </v>
   <v>       0.34203839       0.33398597       0.34045201 </v>
   <v>       0.34205394       0.33430252       0.84146214 </v>
   <v>       0.34203839       0.66601403       0.34045201 </v>
   <v>       0.34205394       0.66569748       0.84146214 </v>
   <v>       0.08911813       0.00000000       0.89231585 </v>
   <v>       0.09431671       0.32875365       0.39652868 </v>
   <v>       0.09058557       0.33336540       0.89842368 </v>
   <v>       0.09431671       0.67124635       0.39652868 </v>
   <v>       0.09058557       0.66663460       0.89842368 </v>
   <v>       0.41366786       0.16900382       0.09768991 </v>
   <v>       0.40774673       0.16639259       0.59690327 </v>
   <v>       0.41046941       0.50000000       0.10168484 </v>
   <v>       0.40864801       0.50000000       0.59971141 </v>
   <v>       0.41366786       0.83099618       0.09768991 </v>
   <v>       0.40774673       0.83360741       0.59690327 </v>
   <v>       0.00097367       0.16394202       0.13238068 </v>
   <v>       0.99512929       0.16721502       0.63004772 </v>
   <v>       0.99740578       0.50000000       0.12712429 </v>
   <v>       0.99634973       0.50000000       0.62840521 </v>
   <v>       0.00097367       0.83605798       0.13238068 </v>
   <v>       0.99512929       0.83278498       0.63004772 </v>
   <v>       0.49546573       0.00000000       0.36928243 </v>
   <v>       0.50461178       0.00000000       0.87047075 </v>
   <v>       0.50478901       0.33562389       0.37264282 </v>
   <v>       0.50450024       0.33392594       0.87094389 </v>
   <v>       0.50478901       0.66437611       0.37264282 </v>
   <v>       0.50450024       0.66607406       0.87094389 </v>
   <v>       0.67183536       0.16645352       0.28004532 </v>
   <v>       0.67224915       0.16646867       0.77899731 </v>
   <v>       0.67777570       0.50000000       0.28065272 </v>
   <v>       0.67238611       0.50000000       0.77950494 </v>
   <v>       0.67183536       0.83354648       0.28004532 </v>
   <v>       0.67224915       0.83353133       0.77899731 </v>
   <v>       0.82871708       0.00000000       0.22132208 </v>
   <v>       0.82647343       0.00000000       0.71952746 </v>
   <v>       0.83298033       0.32887540       0.22180262 </v>
   <v>       0.82643852       0.33315614       0.71975368 </v>
   <v>       0.83298033       0.67112460       0.22180262 </v>
   <v>       0.82643852       0.66684386       0.71975368 </v>
   <v>       0.83047389       0.00000000       0.44712888 </v>
   <v>       0.83295487       0.00000000       0.94686786 </v>
   <v>       0.83886042       0.33192735       0.44514700 </v>
   <v>       0.83321870       0.33239044       0.94648937 </v>
   <v>       0.83886042       0.66807265       0.44514700 </v>
   <v>       0.83321870       0.66760956       0.94648937 </v>
   <v>       0.67021864       0.16656261       0.05348645 </v>
   <v>       0.66669694       0.16641904       0.55140042 </v>
   <v>       0.67486181       0.50000000       0.05414348 </v>
   <v>       0.67126141       0.50000000       0.55369086 </v>
   <v>       0.67021864       0.83343739       0.05348645 </v>
   <v>       0.66669694       0.83358096       0.55140042 </v>
   <v>       0.49846361       0.00000000       0.12341265 </v>
   <v>       0.49553358       0.00000000       0.62510857 </v>
   <v>       0.50133916       0.33616483       0.12362386 </v>
   <v>       0.49581257       0.33293581       0.62507259 </v>
   <v>       0.50133916       0.66383517       0.12362386 </v>
   <v>       0.49581257       0.66706419       0.62507259 </v>
   <v>       0.01244741       0.14387165       0.38418440 </v>
   <v>       0.00242625       0.16701476       0.87195790 </v>
   <v>       0.00807744       0.50000000       0.37285291 </v>
   <v>       0.00296127       0.50000000       0.87191575 </v>
   <v>       0.01244741       0.85612835       0.38418440 </v>
   <v>       0.00242625       0.83298524       0.87195790 </v>
   <v>       0.17191425       0.00000000       0.77563143 </v>
   <v>       0.17257203       0.33155436       0.27918993 </v>
   <v>       0.17268158       0.33404496       0.78100312 </v>
   <v>       0.17257203       0.66844564       0.27918993 </v>
   <v>       0.17268158       0.66595504       0.78100312 </v>
   <v>       0.33464253       0.17977468       0.21442810 </v>
   <v>       0.32478556       0.16479174       0.71379954 </v>
   <v>       0.32771985       0.50000000       0.21762235 </v>
   <v>       0.32658213       0.50000000       0.71726810 </v>
   <v>       0.33464253       0.82022532       0.21442810 </v>
   <v>       0.32478556       0.83520826       0.71379954 </v>
   <v>       0.32740381       0.16730656       0.44159713 </v>
   <v>       0.33520073       0.16693857       0.94146332 </v>
   <v>       0.33036406       0.50000000       0.44372500 </v>
   <v>       0.33298929       0.50000000       0.94471370 </v>
   <v>       0.32740381       0.83269344       0.44159713 </v>
   <v>       0.33520073       0.83306143       0.94146332 </v>
   <v>       0.17535955       0.00000000       0.04380784 </v>
   <v>       0.14650320       0.00000000       0.54819037 </v>
   <v>       0.16694608       0.33194240       0.05401105 </v>
   <v>       0.16485252       0.33191424       0.55425359 </v>
   <v>       0.16694608       0.66805760       0.05401105 </v>
   <v>       0.16485252       0.66808576       0.55425359 </v>
   <v>       0.09911586       0.00000000       0.40499605 </v>
  </varray>
 </structure>
 <calculation>
  <scstep>
   <time name="total">    4.09    4.10</time>
   <energy>
    <i name="alphaZ">   5376.25786726 </i>
    <i name="ewald"> -86682.86344620 </i>
    <i name="hartreedc">  -2080.93073589 </i>
    <i name="XCdc">   2756.15112011 </i>
    <i name="pawpsdc"> 333220.31180881 </i>
    <i name="pawaedc">-361972.35995132 </i>
    <i name="eentropy">     -0.00609146 </i>
    <i name="bandstr"> -40492.47554017 </i>
    <i name="atom"> 131500.23896116 </i>
    <i name="e_fr_energy"> -18375.67600772 </i>
    <i name="e_wo_entrp"> -18375.66991626 </i>
    <i name="e_0_energy"> -18375.67296199 </i>
   </energy>
  </scstep>
  <scstep>
   <time name="total">    3.14    3.14</time>
   <energy>
    <i name="e_fr_energy"> -62845.86359453 </i>
    <i name="e_wo_entrp"> -62845.85213093 </i>
    <i name="e_0_energy"> -62845.85786273 </i>
   </energy>
  </scstep>
  <scstep>
   <time name="total">    3.35    3.35</time>
   <energy>
    <i name="e_fr_energy"> -67863.19627441 </i>
    <i name="e_wo_entrp"> -67863.15683366 </i>
    <i name="e_0_energy"> -67863.17655404 </i>
   </energy>
  </scstep>
  <scstep>
   <time name="total">    3.86    3.86</time>
   <energy>
    <i name="e_fr_energy"> -68583.85166934 </i>
    <i name="e_wo_entrp"> -68583.81312235 </i>
    <i name="e_0_energy"> -68583.83239585 </i>
   </energy>
  </scstep>
  <scstep>
   <time name="total">  230.50  230.80</time>
   <energy>
    <i name="e_fr_energy"> -39027.90280021 </i>
    <i name="e_wo_entrp"> -39027.87230928 </i>
    <i name="e_0_energy"> -39027.88755475 </i>
   </energy>
  </scstep>
  <scstep>
   <time name="total">  460.10  460.13</time>
   <energy>
    <i name="e_fr_energy">  34052.40086786 </i>
    <i name="e_wo_entrp">  34052.42624744 </i>
    <i name="e_0_energy">  34052.41355765 </i>
   </energy>
  </scstep>
  <scstep>
   <time name="total">  460.12  460.06</time>
   <energy>
    <i name="e_fr_energy">  13796.31993250 </i>
    <i name="e_wo_entrp">  13796.34213487 </i>
    <i name="e_0_energy">  13796.33103369 </i>
   </energy>
  </scstep>
  <scstep>
   <time name="total">  460.65  460.60</time>
   <energy>
    <i name="e_fr_energy">   7322.03442027 </i>
    <i name="e_wo_entrp">   7322.06353056 </i>
    <i name="e_0_energy">   7322.04897541 </i>
   </energy>
  </scstep>
  <scstep>
   <time name="total">  460.71  460.64</time>
   <energy>
    <i name="e_fr_energy">   5644.79846291 </i>
    <i name="e_wo_entrp">   5644.81480502 </i>
    <i name="e_0_energy">   5644.80663397 </i>
   </energy>
  </scstep>
  <scstep>
   <time name="total">  459.69  459.61</time>
   <energy>
    <i name="e_fr_energy">   4013.95475768 </i>
    <i name="e_wo_entrp">   4013.96995918 </i>
    <i name="e_0_energy">   4013.96235843 </i>
   </energy>
  </scstep>
  <scstep>
   <time name="total">  459.11  459.04</time>
   <energy>
    <i name="e_fr_energy">   2129.25640052 </i>
    <i name="e_wo_entrp">   2129.26722348 </i>
    <i name="e_0_energy">   2129.26181200 </i>
   </energy>
  </scstep>
  <scstep>
   <time name="total">  459.69  459.64</time>
   <energy>
    <i name="e_fr_energy">    846.88704073 </i>
    <i name="e_wo_entrp">    846.89721669 </i>
    <i name="e_0_energy">    846.89212871 </i>
   </energy>
  </scstep>
  <scstep>
   <time name="total">  459.13  459.08</time>
   <energy>
    <i name="e_fr_energy">     30.81561916 </i>
    <i name="e_wo_entrp">     30.83317048 </i>
    <i name="e_0_energy">     30.82439482 </i>
   </energy>
  </scstep>
  <scstep>
   <time name="total">  458.96  458.90</time>
   <energy>
    <i name="e_fr_energy">   -448.88530668 </i>
    <i name="e_wo_entrp">   -448.88324349 </i>
    <i name="e_0_energy">   -448.88427508 </i>
   </energy>
  </scstep>
  <scstep>
   <time name="total">  459.06  459.00</time>
   <energy>
    <i name="e_fr_energy">   -699.01048112 </i>
    <i name="e_wo_entrp">   -699.00001506 </i>
    <i name="e_0_energy">   -699.00524809 </i>
   </energy>
  </scstep>
  <scstep>
   <time name="total">  459.16  459.09</time>
   <energy>
    <i name="e_fr_energy">   -800.67225828 </i>
    <i name="e_wo_entrp">   -800.66324499 </i>
    <i name="e_0_energy">   -800.66775164 </i>
   </energy>
  </scstep>
  <scstep>
   <time name="total">  458.99  458.93</time>
   <energy>
    <i name="e_fr_energy">   -854.97758694 </i>
    <i name="e_wo_entrp">   -854.97758236 </i>
    <i name="e_0_energy">   -854.97758465 </i>
   </energy>
  </scstep>
  <scstep>
   <time name="total">  458.68  458.62</time>
   <energy>
    <i name="e_fr_energy">   -888.59450481 </i>
    <i name="e_wo_entrp">   -888.59428901 </i>
    <i name="e_0_energy">   -888.59439691 </i>
   </energy>
  </scstep>
  <scstep>
   <time name="total">  458.75  458.68</time>
   <energy>
    <i name="e_fr_energy">   -908.94689275 </i>
    <i name="e_wo_entrp">   -908.94524751 </i>
    <i name="e_0_energy">   -908.94607013 </i>
   </energy>
  </scstep>
  <scstep>
   <time name="total">  458.87  458.81</time>
   <energy>
    <i name="e_fr_energy">   -921.85951781 </i>
    <i name="e_wo_entrp">   -921.85529276 </i>
    <i name="e_0_energy">   -921.85740529 </i>
   </energy>
  </scstep>
  <scstep>
   <time name="total">  458.87  458.81</time>
   <energy>
    <i name="e_fr_energy">   -929.00834674 </i>
    <i name="e_wo_entrp">   -929.00270332 </i>
    <i name="e_0_energy">   -929.00552503 </i>
   </energy>
  </scstep>
  <scstep>
   <time name="total">  458.95  458.88</time>
   <energy>
    <i name="e_fr_energy">   -933.43896975 </i>
    <i name="e_wo_entrp">   -933.43319724 </i>
    <i name="e_0_energy">   -933.43608350 </i>
   </energy>
  </scstep>
  <scstep>
   <time name="total">  458.66  458.59</time>
   <energy>
    <i name="e_fr_energy">   -935.85810394 </i>
    <i name="e_wo_entrp">   -935.85251725 </i>
    <i name="e_0_energy">   -935.85531060 </i>
   </energy>
  </scstep>
  <scstep>
   <time name="total">  458.85  458.79</time>
   <energy>
    <i name="e_fr_energy">   -937.17214887 </i>
    <i name="e_wo_entrp">   -937.16651676 </i>
    <i name="e_0_energy">   -937.16933282 </i>
   </energy>
  </scstep>
  <scstep>
   <time name="total">  458.84  458.77</time>
   <energy>
    <i name="e_fr_energy">   -937.95898005 </i>
    <i name="e_wo_entrp">   -937.95382018 </i>
    <i name="e_0_energy">   -937.95640012 </i>
   </energy>
  </scstep>
  <scstep>
   <time name="total">  459.00  458.94</time>
   <energy>
    <i name="e_fr_energy">   -938.38421914 </i>
    <i name="e_wo_entrp">   -938.38002796 </i>
    <i name="e_0_energy">   -938.38212355 </i>
   </energy>
  </scstep>
  <scstep>
   <time name="total">  458.80  458.74</time>
   <energy>
    <i name="e_fr_energy">   -938.64192899 </i>
    <i name="e_wo_entrp">   -938.63860398 </i>
    <i name="e_0_energy">   -938.64026649 </i>
   </energy>
  </scstep>
  <scstep>
   <time name="total">  458.63  458.57</time>
   <energy>
    <i name="e_fr_energy">   -938.81024313 </i>
    <i name="e_wo_entrp">   -938.80734995 </i>
    <i name="e_0_energy">   -938.80879654 </i>
   </energy>
  </scstep>
  <scstep>
   <time name="total">  458.86  458.80</time>
   <energy>
    <i name="e_fr_energy">   -938.89937316 </i>
    <i name="e_wo_entrp">   -938.89666273 </i>
    <i name="e_0_energy">   -938.89801795 </i>
   </energy>
  </scstep>
  <scstep>
   <time name="total">  458.81  458.75</time>
   <energy>
    <i name="e_fr_energy">   -938.95038240 </i>
    <i name="e_wo_entrp">   -938.94771071 </i>
    <i name="e_0_energy">   -938.94904655 </i>
   </energy>
  </scstep>
  <scstep>
   <time name="total">  458.68  458.62</time>
   <energy>
    <i name="e_fr_energy">   -938.98108268 </i>
    <i name="e_wo_entrp">   -938.97836743 </i>
    <i name="e_0_energy">   -938.97972506 </i>
   </energy>
  </scstep>
  <scstep>
   <time name="total">  459.02  458.99</time>
   <energy>
    <i name="e_fr_energy">   -938.99744242 </i>
    <i name="e_wo_entrp">   -938.99463961 </i>
    <i name="e_0_energy">   -938.99604101 </i>
   </energy>
  </scstep>
  <scstep>
   <time name="total">  458.91  458.85</time>
   <energy>
    <i name="e_fr_energy">   -939.00788983 </i>
    <i name="e_wo_entrp">   -939.00498486 </i>
    <i name="e_0_energy">   -939.00643734 </i>
   </energy>
  </scstep>
  <scstep>
   <time name="total">  458.95  458.89</time>
   <energy>
    <i name="e_fr_energy">   -939.01456570 </i>
    <i name="e_wo_entrp">   -939.01156692 </i>
    <i name="e_0_energy">   -939.01306631 </i>
   </energy>
  </scstep>
  <scstep>
   <time name="total">  458.88  458.81</time>
   <energy>
    <i name="e_fr_energy">   -939.01835238 </i>
    <i name="e_wo_entrp">   -939.01527639 </i>
    <i name="e_0_energy">   -939.01681438 </i>
   </energy>
  </scstep>
  <scstep>
   <time name="total">  459.04  458.98</time>
   <energy>
    <i name="e_fr_energy">   -939.02060418 </i>
    <i name="e_wo_entrp">   -939.01748186 </i>
    <i name="e_0_energy">   -939.01904302 </i>
   </energy>
  </scstep>
  <scstep>
   <time name="total">  459.06  459.00</time>
   <energy>
    <i name="e_fr_energy">   -939.02191909 </i>
    <i name="e_wo_entrp">   -939.01881544 </i>
    <i name="e_0_energy">   -939.02036726 </i>
   </energy>
  </scstep>
  <scstep>
   <time name="total">  458.82  458.76</time>
   <energy>
    <i name="e_fr_energy">   -939.02311340 </i>
    <i name="e_wo_entrp">   -939.02002570 </i>
    <i name="e_0_energy">   -939.02156955 </i>
   </energy>
  </scstep>
  <scstep>
   <time name="total">  458.73  458.66</time>
   <energy>
    <i name="e_fr_energy">   -939.02359701 </i>
    <i name="e_wo_entrp">   -939.02051822 </i>
    <i name="e_0_energy">   -939.02205761 </i>
   </energy>
  </scstep>
  <scstep>
   <time name="total">  458.80  458.75</time>
   <energy>
    <i name="e_fr_energy">   -939.02374324 </i>
    <i name="e_wo_entrp">   -939.02066978 </i>
    <i name="e_0_energy">   -939.02220651 </i>
   </energy>
  </scstep>
  <scstep>
   <time name="total">  458.97  458.91</time>
   <energy>
    <i name="e_fr_energy">   -939.02378461 </i>
    <i name="e_wo_entrp">   -939.02071409 </i>
    <i name="e_0_energy">   -939.02224935 </i>
   </energy>
  </scstep>
  <scstep>
   <time name="total">  459.04  458.97</time>
   <energy>
    <i name="e_fr_energy">   -939.02379658 </i>
    <i name="e_wo_entrp">   -939.02072756 </i>
    <i name="e_0_energy">   -939.02226207 </i>
   </energy>
  </scstep>
  <scstep>
   <time name="total">  684.20  684.09</time>
   <energy>
    <i name="alphaZ">   5376.25786726 </i>
    <i name="ewald"> -86682.86344620 </i>
    <i name="hartreedc"> -33861.35935386 </i>
    <i name="XCdc">   2871.86217374 </i>
    <i name="pawpsdc"> 120588.66073722 </i>
    <i name="pawaedc">-135827.36296810 </i>
    <i name="eentropy">     -0.00306819 </i>
    <i name="bandstr">  -8740.90618981 </i>
    <i name="atom"> 131500.23896116 </i>
    <i name="e_fr_energy">   -939.02379991 </i>
    <i name="e_wo_entrp">   -939.02073172 </i>
    <i name="e_0_energy">   -939.02226581 </i>
   </energy>
  </scstep>
  <structure>
   <crystal>
    <varray name="basis" >
     <v>       0.00000000      12.28047342       0.00000000 </v>
     <v>       9.14270205       0.00000000       0.00000000 </v>
     <v>       0.00000000      -2.76826177     -11.30069772 </v>
    </varray>
    <i name="volume">   1268.80515525 </i>
    <varray name="rec_basis" >
     <v>       0.00000000       0.08143009      -0.01994742 </v>
     <v>       0.10937686      -0.00000000       0.00000000 </v>
     <v>       0.00000000       0.00000000      -0.08849011 </v>
    </varray>
   </crystal>
   <varray name="positions" >
    <v>       0.66005308       0.00000000       0.15539002 </v>
    <v>       0.65823297       0.00000000       0.65431527 </v>
    <v>       0.66305670       0.33365077       0.15619252 </v>
    <v>       0.65858663       0.33293403       0.65503283 </v>
    <v>       0.66305670       0.66634923       0.15619252 </v>
    <v>       0.65858663       0.66706597       0.65503283 </v>
    <v>       0.83839071       0.16403093       0.34403691 </v>
    <v>       0.83994371       0.16632719       0.84312908 </v>
    <v>       0.84566542       0.50000000       0.34316423 </v>
    <v>       0.84024911       0.50000000       0.84384658 </v>
    <v>       0.83839071       0.83596907       0.34403691 </v>
    <v>       0.83994371       0.83367281       0.84312908 </v>
    <v>       0.58574052       0.16369506       0.39491403 </v>
    <v>       0.59188698       0.16690253       0.89684545 </v>
    <v>       0.59447780       0.50000000       0.39689698 </v>
    <v>       0.59306322       0.50000000       0.89851450 </v>
    <v>       0.58574052       0.83630494       0.39491403 </v>
    <v>       0.59188698       0.83309747       0.89684545 </v>
    <v>       0.91108068       0.00000000       0.10340499 </v>
    <v>       0.90851390       0.00000000       0.60337812 </v>
    <v>       0.91303591       0.33100731       0.10210497 </v>
    <v>       0.90834065       0.33397570       0.60396788 </v>
    <v>       0.91303591       0.66899269       0.10210497 </v>
    <v>       0.90834065       0.66602430       0.60396788 </v>
    <v>       0.16650520       0.15858963       0.15529819 </v>
    <v>       0.15675612       0.17060917       0.66027787 </v>
    <v>       0.15970825       0.50000000       0.15548321 </v>
    <v>       0.15811174       0.50000000       0.65576165 </v>
    <v>       0.16650520       0.84141037       0.15529819 </v>
    <v>       0.15675612       0.82939083       0.66027787 </v>
    <v>       0.32235899       0.00000000       0.33004779 </v>
    <v>       0.34214782       0.00000000       0.83936339 </v>
    <v>       0.34203839       0.33398597       0.34045201 </v>
    <v>       0.34205394       0.33430252       0.84146214 </v>
    <v>       0.34203839       0.66601403       0.34045201 </v>
    <v>       0.34205394       0.66569748       0.84146214 </v>
    <v>       0.08911813       0.00000000       0.89231585 </v>
    <v>       0.09431671       0.32875365       0.39652868 </v>
    <v>       0.09058557       0.33336540       0.89842368 </v>
    <v>       0.09431671       0.67124635       0.39652868 </v>
    <v>       0.09058557       0.66663460       0.89842368 </v>
    <v>       0.41366786       0.16900382       0.09768991 </v>
    <v>       0.40774673       0.16639259       0.59690327 </v>
    <v>       0.41046941       0.50000000       0.10168484 </v>
    <v>       0.40864801       0.50000000       0.59971141 </v>
    <v>       0.41366786       0.83099618       0.09768991 </v>
    <v>       0.40774673       0.83360741       0.59690327 </v>
    <v>       0.00097367       0.16394202       0.13238068 </v>
    <v>       0.99512929       0.16721502       0.63004772 </v>
    <v>       0.99740578       0.50000000       0.12712429 </v>
    <v>       0.99634973       0.50000000       0.62840521 </v>
    <v>       0.00097367       0.83605798       0.13238068 </v>
    <v>       0.99512929       0.83278498       0.63004772 </v>
    <v>       0.49546573       0.00000000       0.36928243 </v>
    <v>       0.50461178       0.00000000       0.87047075 </v>
    <v>       0.50478901       0.33562389       0.37264282 </v>
    <v>       0.50450024       0.33392594       0.87094389 </v>
    <v>       0.50478901       0.66437611       0.37264282 </v>
    <v>       0.50450024       0.66607406       0.87094389 </v>
    <v>       0.67183536       0.16645352       0.28004532 </v>
    <v>       0.67224915       0.16646867       0.77899731 </v>
    <v>       0.67777570       0.50000000       0.28065272 </v>
    <v>       0.67238611       0.50000000       0.77950494 </v>
    <v>       0.67183536       0.83354648       0.28004532 </v>
    <v>       0.67224915       0.83353133       0.77899731 </v>
    <v>       0.82871708       0.00000000       0.22132208 </v>
    <v>       0.82647343       0.00000000       0.71952746 </v>
    <v>       0.83298033       0.32887540       0.22180262 </v>
    <v>       0.82643852       0.33315614       0.71975368 </v>
    <v>       0.83298033       0.67112460       0.22180262 </v>
    <v>       0.82643852       0.66684386       0.71975368 </v>
    <v>       0.83047389       0.00000000       0.44712888 </v>
    <v>       0.83295487       0.00000000       0.94686786 </v>
    <v>       0.83886042       0.33192735       0.44514700 </v>
    <v>       0.83321870       0.33239044       0.94648937 </v>
    <v>       0.83886042       0.66807265       0.44514700 </v>
    <v>       0.83321870       0.66760956       0.94648937 </v>
    <v>       0.67021864       0.16656261       0.05348645 </v>
    <v>       0.66669694       0.16641904       0.55140042 </v>
    <v>       0.67486181       0.50000000       0.05414348 </v>
    <v>       0.67126141       0.50000000       0.55369086 </v>
    <v>       0.67021864       0.83343739       0.05348645 </v>
    <v>       0.66669694       0.83358096       0.55140042 </v>
    <v>       0.49846361       0.00000000       0.12341265 </v>
    <v>       0.49553358       0.00000000       0.62510857 </v>
    <v>       0.50133916       0.33616483       0.12362386 </v>
    <v>       0.49581257       0.33293581       0.62507259 </v>
    <v>       0.50133916       0.66383517       0.12362386 </v>
    <v>       0.49581257       0.66706419       0.62507259 </v>
    <v>       0.01244741       0.14387165       0.38418440 </v>
    <v>       0.00242625       0.16701476       0.87195790 </v>
    <v>       0.00807744       0.50000000       0.37285291 </v>
    <v>       0.00296127       0.50000000       0.87191575 </v>
    <v>       0.01244741       0.85612835       0.38418440 </v>
    <v>       0.00242625       0.83298524       0.87195790 </v>
    <v>       0.17191425       0.00000000       0.77563143 </v>
    <v>       0.17257203       0.33155436       0.27918993 </v>
    <v>       0.17268158       0.33404496       0.78100312 </v>
    <v>       0.17257203       0.66844564       0.27918993 </v>
    <v>       0.17268158       0.66595504       0.78100312 </v>
    <v>       0.33464253       0.17977468       0.21442810 </v>
    <v>       0.32478556       0.16479174       0.71379954 </v>
    <v>       0.32771985       0.50000000       0.21762235 </v>
    <v>       0.32658213       0.50000000       0.71726810 </v>
    <v>       0.33464253       0.82022532       0.21442810 </v>
    <v>       0.32478556       0.83520826       0.71379954 </v>
    <v>       0.32740381       0.16730656       0.44159713 </v>
    <v>       0.33520073       0.16693857       0.94146332 </v>
    <v>       0.33036406       0.50000000       0.44372500 </v>
    <v>       0.33298929       0.50000000       0.94471370 </v>
    <v>       0.32740381       0.83269344       0.44159713 </v>
    <v>       0.33520073       0.83306143       0.94146332 </v>
    <v>       0.17535955       0.00000000       0.04380784 </v>
    <v>       0.14650320       0.00000000       0.54819037 </v>
    <v>       0.16694608       0.33194240       0.05401105 </v>
    <v>       0.16485252       0.33191424       0.55425359 </v>
    <v>       0.16694608       0.66805760       0.05401105 </v>
    <v>       0.16485252       0.66808576       0.55425359 </v>
    <v>       0.09911586       0.00000000       0.40499605 </v>
   </varray>
  </structure>
  <varray name="forces" >
   <v>       0.00000000       0.03931584       0.03210913 </v>
   <v>       0.00000000       0.05289758       0.00585577 </v>
   <v>       0.00242670       0.02144888       0.03762596 </v>
   <v>       0.00051575       0.06492045      -0.00206783 </v>
   <v>      -0.00242670       0.02144888       0.03762596 </v>
   <v>      -0.00051575       0.06492045      -0.00206783 </v>
   <v>      -0.03543071      -0.14880895      -0.00717235 </v>
   <v>       0.00969687      -0.06263960      -0.01090194 </v>
   <v>       0.00000000      -0.05177800      -0.02783482 </v>
   <v>       0.00000000      -0.07313848      -0.00472400 </v>
   <v>       0.03543071      -0.14880895      -0.00717235 </v>
   <v>      -0.00969687      -0.06263960      -0.01090194 </v>
   <v>       0.04186019      -0.05672297       0.01069155 </v>
   <v>      -0.00156950      -0.00963400       0.04322227 </v>
   <v>       0.00000000      -0.06806926      -0.00520637 </v>
   <v>       0.00000000      -0.00227803       0.05578201 </v>
   <v>      -0.04186019      -0.05672297       0.01069155 </v>
   <v>       0.00156950      -0.00963400       0.04322227 </v>
   <v>       0.00000000       0.09877032      -0.05632485 </v>
   <v>       0.00000000       0.03422497      -0.01347665 </v>
   <v>       0.00344205       0.03997375      -0.02321910 </v>
   <v>      -0.01948418       0.05203701      -0.02449337 </v>
   <v>      -0.00344205       0.03997375      -0.02321910 </v>
   <v>       0.01948418       0.05203701      -0.02449337 </v>
   <v>      -0.10740834       0.18928358      -0.00383784 </v>
   <v>       0.03593015       0.02877070       0.00985704 </v>
   <v>       0.00000000       0.07649160      -0.03013851 </v>
   <v>       0.00000000       0.06175292       0.02049525 </v>
   <v>       0.10740834       0.18928358      -0.00383784 </v>
   <v>      -0.03593015       0.02877070       0.00985704 </v>
   <v>       0.00000000      -0.06539770       0.06291855 </v>
   <v>       0.00000000      -0.05150125      -0.04216733 </v>
   <v>      -0.08979185      -0.07737700       0.09700243 </v>
   <v>       0.00503366      -0.06595863      -0.05223498 </v>
   <v>       0.08979185      -0.07737700       0.09700243 </v>
   <v>      -0.00503366      -0.06595863      -0.05223498 </v>
   <v>       0.00000000       0.06061387      -0.13017076 </v>
   <v>       0.05645817       0.11614276      -0.00856416 </v>
   <v>      -0.00611598      -0.02252718      -0.01913495 </v>
   <v>      -0.05645817       0.11614276      -0.00856416 </v>
   <v>       0.00611598      -0.02252718      -0.01913495 </v>
   <v>       0.01103565      -0.09433720      -0.12175539 </v>
   <v>      -0.00098362       0.00463641       0.01246116 </v>
   <v>       0.00000000       0.02408409      -0.02682673 </v>
   <v>       0.00000000       0.02324297       0.00513799 </v>
   <v>      -0.01103565      -0.09433720      -0.12175539 </v>
   <v>       0.00098362       0.00463641       0.01246116 </v>
   <v>       0.04019583      -0.30985702       0.21756277 </v>
   <v>       0.01519094      -0.17308635       0.11001126 </v>
   <v>       0.00000000      -0.16246452       0.12687953 </v>
   <v>       0.00000000      -0.17567460       0.11662316 </v>
   <v>      -0.04019583      -0.30985702       0.21756277 </v>
   <v>      -0.01519094      -0.17308635       0.11001126 </v>
   <v>       0.00000000       0.38398856      -0.15017743 </v>
   <v>       0.00000000       0.15774357      -0.12876058 </v>
   <v>      -0.01571255       0.19327126      -0.11398307 </v>
   <v>      -0.00920576       0.15251247      -0.13406738 </v>
   <v>       0.01571255       0.19327126      -0.11398307 </v>
   <v>       0.00920576       0.15251247      -0.13406738 </v>
   <v>      -0.01609478       0.00125820      -0.10426426 </v>
   <v>       0.00253456      -0.02146916      -0.11993588 </v>
   <v>       0.00000000      -0.00927441      -0.10192545 </v>
   <v>       0.00000000      -0.01865076      -0.12420372 </v>
   <v>       0.01609478       0.00125820      -0.10426426 </v>
   <v>      -0.00253456      -0.02146916      -0.11993588 </v>
   <v>       0.00000000       0.00554606       0.05471570 </v>
   <v>       0.00000000       0.04635129       0.10858631 </v>
   <v>      -0.00564579       0.01809618       0.08225908 </v>
   <v>      -0.00403240       0.05462047       0.13087277 </v>
   <v>       0.00564579       0.01809618       0.08225908 </v>
   <v>       0.00403240       0.05462047       0.13087277 </v>
   <v>       0.00000000       0.40428023      -0.02667503 </v>
   <v>       0.00000000       0.38345070      -0.07434625 </v>
   <v>      -0.02263675       0.32472607      -0.05664329 </v>
   <v>      -0.00750984       0.39494907      -0.06555754 </v>
   <v>       0.02263675       0.32472607      -0.05664329 </v>
   <v>       0.00750984       0.39494907      -0.06555754 </v>
   <v>      -0.00071963      -0.39776878       0.04710868 </v>
   <v>      -0.01821311      -0.39855920       0.05826667 </v>
   <v>       0.00000000      -0.43862016       0.04478671 </v>
   <v>       0.00000000      -0.41201020       0.09110379 </v>
   <v>       0.00071963      -0.39776878       0.04710868 </v>
   <v>       0.01821311      -0.39855920       0.05826667 </v>
   <v>       0.00000000      -0.09272455       0.12265687 </v>
   <v>       0.00000000      -0.16159933       0.13554264 </v>
   <v>      -0.00964782      -0.15662661       0.10843043 </v>
   <v>       0.01140195      -0.15894025       0.12454845 </v>
   <v>       0.00964782      -0.15662661       0.10843043 </v>
   <v>      -0.01140195      -0.15894025       0.12454845 </v>
   <v>      -0.18669498       0.31188623      -0.12881784 </v>
   <v>      -0.01125037       0.17879829      -0.08183891 </v>
   <v>       0.00000000       0.11945562      -0.08878348 </v>
   <v>       0.00000000       0.16784650      -0.12815445 </v>
   <v>       0.18669498       0.31188623      -0.12881784 </v>
   <v>       0.01125037       0.17879829      -0.08183891 </v>
   <v>       0.00000000      -0.07175673      -0.06101159 </v>
   <v>       0.08481666      -0.08841518      -0.20132840 </v>
   <v>      -0.04865348      -0.03825792      -0.06634867 </v>
   <v>      -0.08481666      -0.08841518      -0.20132840 </v>
   <v>       0.04865348      -0.03825792      -0.06634867 </v>
   <v>       0.21634378       0.22971086       0.22919492 </v>
   <v>      -0.01351522       0.01241896       0.10271973 </v>
   <v>       0.00000000       0.06444506       0.11734551 </v>
   <v>       0.00000000       0.02442090       0.08709735 </v>
   <v>      -0.21634378       0.22971086       0.22919492 </v>
   <v>       0.01351522       0.01241896       0.10271973 </v>
   <v>       0.05087364       0.41020590      -0.16374987 </v>
   <v>       0.03139158       0.40960198      -0.03483088 </v>
   <v>       0.00000000       0.42229114      -0.09416207 </v>
   <v>       0.00000000       0.40275806      -0.05872565 </v>
   <v>      -0.05087364       0.41020590      -0.16374987 </v>
   <v>      -0.03139158       0.40960198      -0.03483088 </v>
   <v>       0.00000000      -0.46451737       0.41750805 </v>
   <v>       0.00000000      -0.30373500       0.32511737 </v>
   <v>       0.04502083      -0.37615725       0.13905602 </v>
   <v>      -0.00252649      -0.36186062       0.06135926 </v>
   <v>      -0.04502083      -0.37615725       0.13905602 </v>
   <v>       0.00252649      -0.36186062       0.06135926 </v>
   <v>       0.00000000      -0.81131269      -0.71147108 </v>
  </varray>
  <varray name="stress" >
   <v>     -36.81614578       0.00000000       0.00000000 </v>
   <v>       0.00000000     -19.15399385      10.68479854 </v>
   <v>       0.00000000      10.68479820     -16.68100726 </v>
  </varray>
  <energy>
   <i name="e_fr_energy">   -939.02379991 </i>
   <i name="e_wo_entrp">   -939.02073172 </i>
   <i name="e_0_energy">   -939.02226581 </i>
  </energy>
  <time name="totalsc">18488.6318486.74</time>
  <eigenvalues>
   <array>
    <dimension dim="1">band</dimension>
    <dimension dim="2">kpoint</dimension>
    <dimension dim="3">spin</dimension>
    <field>eigene</field>
    <field>occ</field>
    <set>
     <set comment="spin 1">
      <set comment="kpoint 1">
       <r>  -19.7008    1.0000 </r>
       <r>  -18.6353    1.0000 </r>
       <r>  -18.4968    1.0000 </r>
       <r>  -18.3175    1.0000 </r>
       <r>  -18.2542    1.0000 </r>
       <r>  -18.1533    1.0000 </r>
       <r>  -18.0991    1.0000 </r>
       <r>  -18.0621    1.0000 </r>
       <r>  -17.9570    1.0000 </r>
       <r>  -17.9522    1.0000 </r>
       <r>  -17.8637    1.0000 </r>
       <r>  -17.8271    1.0000 </r>
       <r>  -17.7964    1.0000 </r>
       <r>  -17.7555    1.0000 </r>
       <r>  -17.7350    1.0000 </r>
       <r>  -17.7260    1.0000 </r>
       <r>  -17.6854    1.0000 </r>
       <r>  -17.6482    1.0000 </r>
       <r>  -17.6316    1.0000 </r>
       <r>  -17.6028    1.0000 </r>
       <r>  -17.5404    1.0000 </r>
       <r>  -17.5298    1.0000 </r>
       <r>  -17.5185    1.0000 </r>
       <r>  -17.5091    1.0000 </r>
       <r>  -17.4803    1.0000 </r>
       <r>  -17.4446    1.0000 </r>
       <r>  -17.4377    1.0000 </r>
       <r>  -17.4369    1.0000 </r>
       <r>  -17.4067    1.0000 </r>
       <r>  -17.4062    1.0000 </r>
       <r>  -17.3826    1.0000 </r>
       <r>  -17.3520    1.0000 </r>
       <r>  -17.3446    1.0000 </r>
       <r>  -17.3249    1.0000 </r>
       <r>  -17.3160    1.0000 </r>
       <r>  -17.2822    1.0000 </r>
       <r>  -17.2710    1.0000 </r>
       <r>  -17.2588    1.0000 </r>
       <r>  -17.2467    1.0000 </r>
       <r>  -17.2230    1.0000 </r>
       <r>  -17.1957    1.0000 </r>
       <r>  -17.1952    1.0000 </r>
       <r>  -17.1925    1.0000 </r>
       <r>  -17.1839    1.0000 </r>
       <r>  -17.1727    1.0000 </r>
       <r>  -17.1381    1.0000 </r>
       <r>  -17.1325    1.0000 </r>
       <r>  -17.1183    1.0000 </r>
       <r>  -17.1098    1.0000 </r>
       <r>  -17.0909    1.0000 </r>
       <r>  -17.0676    1.0000 </r>
       <r>  -16.9977    1.0000 </r>
       <r>  -16.9901    1.0000 </r>
       <r>  -16.9880    1.0000 </r>
       <r>  -16.9777    1.0000 </r>
       <r>  -16.9613    1.0000 </r>
       <r>  -16.9296    1.0000 </r>
       <r>  -16.9202    1.0000 </r>
       <r>  -16.9113    1.0000 </r>
       <r>  -16.9081    1.0000 </r>
       <r>  -16.9055    1.0000 </r>
       <r>  -16.8882    1.0000 </r>
       <r>  -16.8602    1.0000 </r>
       <r>  -16.8513    1.0000 </r>
       <r>  -16.8417    1.0000 </r>
       <r>  -16.7867    1.0000 </r>
       <r>  -16.7863    1.0000 </r>
       <r>  -16.7681    1.0000 </r>
       <r>  -16.7409    1.0000 </r>
       <r>  -16.6867    1.0000 </r>
       <r>  -16.6633    1.0000 </r>
       <r>  -13.2834    1.0000 </r>
       <r>  -13.2453    1.0000 </r>
       <r>  -13.1881    1.0000 </r>
       <r>  -13.1718    1.0000 </r>
       <r>  -13.1532    1.0000 </r>
       <r>  -13.1454    1.0000 </r>
       <r>  -13.1143    1.0000 </r>
       <r>  -13.1105    1.0000 </r>
       <r>  -13.1019    1.0000 </r>
       <r>  -13.0965    1.0000 </r>
       <r>  -13.0765    1.0000 </r>
       <r>  -13.0652    1.0000 </r>
       <r>  -13.0534    1.0000 </r>
       <r>  -13.0456    1.0000 </r>
       <r>  -13.0420    1.0000 </r>
       <r>  -13.0403    1.0000 </r>
       <r>  -13.0262    1.0000 </r>
       <r>  -13.0132    1.0000 </r>
       <r>  -13.0087    1.0000 </r>
       <r>  -12.9996    1.0000 </r>
       <r>  -12.9993    1.0000 </r>
       <r>  -12.9934    1.0000 </r>
       <r>  -12.9854    1.0000 </r>
       <r>  -12.9826    1.0000 </r>
       <r>  -12.9812    1.0000 </r>
       <r>  -12.9762    1.0000 </r>
       <r>  -12.9760    1.0000 </r>
       <r>  -12.9748    1.0000 </r>
       <r>  -12.9653    1.0000 </r>
       <r>  -12.9648    1.0000 </r>
       <r>  -12.9584    1.0000 </r>
       <r>  -12.9535    1.0000 </r>
       <r>  -12.9458    1.0000 </r>
       <r>  -12.9456    1.0000 </r>
       <r>  -12.9430    1.0000 </r>
       <r>  -12.9426    1.0000 </r>
       <r>  -12.9358    1.0000 </r>
       <r>  -12.9321    1.0000 </r>
       <r>  -12.9292    1.0000 </r>
       <r>  -12.9269    1.0000 </r>
       <r>  -12.9249    1.0000 </r>
       <r>  -12.9234    1.0000 </r>
       <r>  -12.9174    1.0000 </r>
       <r>  -12.9171    1.0000 </r>
       <r>  -12.9110    1.0000 </r>
       <r>  -12.9097    1.0000 </r>
       <r>  -12.9092    1.0000 </r>
       <r>  -12.9029    1.0000 </r>
       <r>  -12.8988    1.0000 </r>
       <r>  -12.8963    1.0000 </r>
       <r>  -12.8944    1.0000 </r>
       <r>  -12.8890    1.0000 </r>
       <r>  -12.8849    1.0000 </r>
       <r>  -12.8831    1.0000 </r>
       <r>  -12.8798    1.0000 </r>
       <r>  -12.8795    1.0000 </r>
       <r>  -12.8762    1.0000 </r>
       <r>  -12.8729    1.0000 </r>
       <r>  -12.8688    1.0000 </r>
       <r>  -12.8638    1.0000 </r>
       <r>  -12.8628    1.0000 </r>
       <r>  -12.8541    1.0000 </r>
       <r>  -12.8502    1.0000 </r>
       <r>  -12.8468    1.0000 </r>
       <r>  -12.8413    1.0000 </r>
       <r>  -12.8398    1.0000 </r>
       <r>  -12.8328    1.0000 </r>
       <r>  -12.8293    1.0000 </r>
       <r>  -12.8253    1.0000 </r>
       <r>  -12.8245    1.0000 </r>
       <r>  -12.8202    1.0000 </r>
       <r>  -12.8201    1.0000 </r>
       <r>  -12.8126    1.0000 </r>
       <r>  -12.8122    1.0000 </r>
       <r>  -12.8117    1.0000 </r>
       <r>  -12.8029    1.0000 </r>
       <r>  -12.8016    1.0000 </r>
       <r>  -12.7968    1.0000 </r>
       <r>  -12.7953    1.0000 </r>
       <r>  -12.7909    1.0000 </r>
       <r>  -12.7881    1.0000 </r>
       <r>  -12.7876    1.0000 </r>
       <r>  -12.7807    1.0000 </r>
       <r>  -12.7801    1.0000 </r>
       <r>  -12.7762    1.0000 </r>
       <r>  -12.7759    1.0000 </r>
       <r>  -12.7727    1.0000 </r>
       <r>  -12.7700    1.0000 </r>
       <r>  -12.7686    1.0000 </r>
       <r>  -12.7655    1.0000 </r>
       <r>  -12.7584    1.0000 </r>
       <r>  -12.7573    1.0000 </r>
       <r>  -12.7550    1.0000 </r>
       <r>  -12.7550    1.0000 </r>
       <r>  -12.7505    1.0000 </r>
       <r>  -12.7490    1.0000 </r>
       <r>  -12.7446    1.0000 </r>
       <r>  -12.7443    1.0000 </r>
       <r>  -12.7362    1.0000 </r>
       <r>  -12.7358    1.0000 </r>
       <r>  -12.7325    1.0000 </r>
       <r>  -12.7299    1.0000 </r>
       <r>  -12.7286    1.0000 </r>
       <r>  -12.7272    1.0000 </r>
       <r>  -12.7242    1.0000 </r>
       <r>  -12.7226    1.0000 </r>
       <r>  -12.7157    1.0000 </r>
       <r>  -12.7155    1.0000 </r>
       <r>  -12.7129    1.0000 </r>
       <r>  -12.7118    1.0000 </r>
       <r>  -12.7108    1.0000 </r>
       <r>  -12.7073    1.0000 </r>
       <r>  -12.7056    1.0000 </r>
       <r>  -12.6984    1.0000 </r>
       <r>  -12.6973    1.0000 </r>
       <r>  -12.6969    1.0000 </r>
       <r>  -12.6955    1.0000 </r>
       <r>  -12.6939    1.0000 </r>
       <r>  -12.6886    1.0000 </r>
       <r>  -12.6871    1.0000 </r>
       <r>  -12.6833    1.0000 </r>
       <r>  -12.6778    1.0000 </r>
       <r>  -12.6776    1.0000 </r>
       <r>  -12.6743    1.0000 </r>
       <r>  -12.6722    1.0000 </r>
       <r>  -12.6691    1.0000 </r>
       <r>  -12.6690    1.0000 </r>
       <r>  -12.6678    1.0000 </r>
       <r>  -12.6638    1.0000 </r>
       <r>  -12.6633    1.0000 </r>
       <r>  -12.6610    1.0000 </r>
       <r>  -12.6594    1.0000 </r>
       <r>  -12.6535    1.0000 </r>
       <r>  -12.6534    1.0000 </r>
       <r>  -12.6512    1.0000 </r>
       <r>  -12.6471    1.0000 </r>
       <r>  -12.6452    1.0000 </r>
       <r>  -12.6398    1.0000 </r>
       <r>  -12.6354    1.0000 </r>
       <r>  -12.6319    1.0000 </r>
       <r>  -12.6294    1.0000 </r>
       <r>  -12.6286    1.0000 </r>
       <r>  -12.6216    1.0000 </r>
       <r>  -12.6182    1.0000 </r>
       <r>  -12.6161    1.0000 </r>
       <r>  -12.6055    1.0000 </r>
       <r>  -12.6039    1.0000 </r>
       <r>  -12.6018    1.0000 </r>
       <r>  -12.5995    1.0000 </r>
       <r>  -12.5993    1.0000 </r>
       <r>  -12.5957    1.0000 </r>
       <r>  -12.5913    1.0000 </r>
       <r>  -12.5880    1.0000 </r>
       <r>  -12.5860    1.0000 </r>
       <r>  -12.5824    1.0000 </r>
       <r>  -12.5792    1.0000 </r>
       <r>  -12.5771    1.0000 </r>
       <r>  -12.5712    1.0000 </r>
       <r>  -12.5698    1.0000 </r>
       <r>  -12.5623    1.0000 </r>
       <r>  -12.5604    1.0000 </r>
       <r>  -12.5549    1.0000 </r>
       <r>  -12.5548    1.0000 </r>
       <r>  -12.5524    1.0000 </r>
       <r>  -12.5488    1.0000 </r>
       <r>  -12.5463    1.0000 </r>
       <r>  -12.5371    1.0000 </r>
       <r>  -12.5300    1.0000 </r>
       <r>  -12.5272    1.0000 </r>
       <r>  -12.5212    1.0000 </r>
       <r>  -12.5205    1.0000 </r>
       <r>  -12.5039    1.0000 </r>
       <r>  -12.5023    1.0000 </r>
       <r>  -12.5009    1.0000 </r>
       <r>  -12.4906    1.0000 </r>
       <r>  -12.4741    1.0000 </r>
       <r>  -12.4655    1.0000 </r>
[...]
       <r>   -13.3260     2.9372   142.3953 </r>
       <r>   -13.1914    39.8645   147.7608 </r>
       <r>   -13.0568   149.7223   167.9124 </r>
       <r>   -12.9223   424.9813   225.1119 </r>
       <r>   -12.7877   604.8109   306.5152 </r>
       <r>   -12.6531   739.1210   405.9957 </r>
       <r>   -12.5185   550.0719   480.0316 </r>
       <r>   -12.3839   256.7575   514.5893 </r>
       <r>   -12.2493   190.5220   540.2323 </r>
       <r>   -12.1147   156.0355   561.2335 </r>
       <r>   -11.9801   103.7192   575.1934 </r>
       <r>   -11.8455   116.1821   590.8307 </r>
       <r>   -11.7109    99.5641   604.2314 </r>
       <r>   -11.5763    48.4961   610.7586 </r>
       <r>   -11.4417     9.2143   611.9988 </r>
       <r>   -11.3071     0.0091   612.0000 </r>
       <r>   -11.1725     0.0000   612.0000 </r>
       <r>   -11.0380     0.0000   612.0000 </r>
       <r>   -10.9034     0.0000   612.0000 </r>
       <r>   -10.7688     0.0000   612.0000 </r>
       <r>   -10.6342     0.0000   612.0000 </r>
       <r>   -10.4996     0.0000   612.0000 </r>
       <r>   -10.3650     0.0000   612.0000 </r>
       <r>   -10.2304     0.0000   612.0000 </r>
       <r>   -10.0958     0.0000   612.0000 </r>
       <r>    -9.9612     0.0000   612.0000 </r>
       <r>    -9.8266     0.0000   612.0000 </r>
       <r>    -9.6920     0.0000   612.0000 </r>
       <r>    -9.5574     0.0000   612.0000 </r>
       <r>    -9.4228     0.0000   612.0000 </r>
       <r>    -9.2882     0.0000   612.0000 </r>
       <r>    -9.1537     0.0000   612.0000 </r>
       <r>    -9.0191     0.0000   612.0000 </r>
       <r>    -8.8845     0.0000   612.0000 </r>
       <r>    -8.7499     0.0000   612.0000 </r>
       <r>    -8.6153     0.0000   612.0000 </r>
       <r>    -8.4807     0.0000   612.0000 </r>
       <r>    -8.3461     0.0000   612.0000 </r>
       <r>    -8.2115     0.0000   612.0000 </r>
       <r>    -8.0769     0.0000   612.0000 </r>
       <r>    -7.9423     0.0000   612.0000 </r>
       <r>    -7.8077     0.0000   612.0000 </r>
       <r>    -7.6731     0.0000   612.0000 </r>
       <r>    -7.5385     0.0000   612.0000 </r>
       <r>    -7.4039     0.0000   612.0000 </r>
       <r>    -7.2693     0.7347   612.0989 </r>
       <r>    -7.1348    13.5709   613.9254 </r>
       <r>    -7.0002     0.5540   614.0000 </r>
       <r>    -6.8656     0.0000   614.0000 </r>
       <r>    -6.7310     0.0000   614.0000 </r>
       <r>    -6.5964     0.0000   614.0000 </r>
       <r>    -6.4618     0.0000   614.0000 </r>
       <r>    -6.3272     0.0000   614.0000 </r>
       <r>    -6.1926     0.0000   614.0000 </r>
       <r>    -6.0580     0.0000   614.0000 </r>
       <r>    -5.9234     0.0000   614.0000 </r>
       <r>    -5.7888     0.0000   614.0000 </r>
       <r>    -5.6542     0.0000   614.0000 </r>
       <r>    -5.5196     0.0000   614.0000 </r>
       <r>    -5.3850     0.0000   614.0000 </r>
       <r>    -5.2505     0.2374   614.0320 </r>
       <r>    -5.1159     9.9209   615.3672 </r>
       <r>    -4.9813    18.6053   617.8714 </r>
       <r>    -4.8467    19.5705   620.5054 </r>
       <r>    -4.7121    26.7153   624.1011 </r>
       <r>    -4.5775    40.0874   629.4966 </r>
       <r>    -4.4429    34.8859   634.1920 </r>
       <r>    -4.3083    43.6308   640.0644 </r>
       <r>    -4.1737    49.2510   646.6932 </r>
       <r>    -4.0391    47.4058   653.0737 </r>
       <r>    -3.9045    47.1761   659.4233 </r>
       <r>    -3.7699    44.8583   665.4609 </r>
       <r>    -3.6353    44.7226   671.4803 </r>
       <r>    -3.5007    38.9289   676.7198 </r>
       <r>    -3.3662    26.0916   680.2316 </r>
       <r>    -3.2316    35.0991   684.9557 </r>
       <r>    -3.0970    39.2062   690.2326 </r>
       <r>    -2.9624    31.3904   694.4575 </r>
       <r>    -2.8278    35.0662   699.1772 </r>
       <r>    -2.6932    38.8600   704.4075 </r>
       <r>    -2.5586    41.7483   710.0265 </r>
       <r>    -2.4240    38.7014   715.2354 </r>
       <r>    -2.2894    33.9214   719.8010 </r>
       <r>    -2.1548    53.4241   726.9915 </r>
       <r>    -2.0202    37.7652   732.0745 </r>
       <r>    -1.8856    39.9424   737.4504 </r>
       <r>    -1.7510    59.3387   745.4370 </r>
       <r>    -1.6164    74.5826   755.4753 </r>
       <r>    -1.4818    50.5797   762.2830 </r>
       <r>    -1.3473    60.9200   770.4824 </r>
       <r>    -1.2127    61.7827   778.7979 </r>
       <r>    -1.0781    55.8850   786.3196 </r>
       <r>    -0.9435    54.2296   793.6186 </r>
       <r>    -0.8089    68.6545   802.8590 </r>
       <r>    -0.6743    65.9228   811.7317 </r>
       <r>    -0.5397    71.6222   821.3716 </r>
       <r>    -0.4051    66.6148   830.3375 </r>
       <r>    -0.2705    64.3021   838.9921 </r>
       <r>    -0.1359    68.9445   848.2715 </r>
       <r>    -0.0013    76.9655   858.6305 </r>
       <r>     0.1333    79.7107   869.3591 </r>
       <r>     0.2679    77.0605   879.7309 </r>
       <r>     0.4025    67.8522   888.8633 </r>
       <r>     0.5370    75.6217   899.0414 </r>
       <r>     0.6716    87.8985   910.8720 </r>
       <r>     0.8062    91.3004   923.1603 </r>
       <r>     0.9408    87.4882   934.9356 </r>
       <r>     1.0754    85.4183   946.4324 </r>
       <r>     1.2100   111.2829   961.4103 </r>
       <r>     1.3446   116.8378   977.1358 </r>
       <r>     1.4792   121.4626   993.4838 </r>
       <r>     1.6138   112.1410  1008.5772 </r>
       <r>     1.7484    84.0270  1019.8867 </r>
       <r>     1.8830    58.9998  1027.8276 </r>
       <r>     2.0176    49.9057  1034.5446 </r>
       <r>     2.1522    24.8984  1037.8957 </r>
       <r>     2.2868     0.7746  1038.0000 </r>
       <r>     2.4213     0.0000  1038.0000 </r>
       <r>     2.5559     0.0000  1038.0000 </r>
       <r>     2.6905     0.0000  1038.0000 </r>
       <r>     2.8251     0.0478  1038.0064 </r>
       <r>     2.9597     4.0775  1038.5552 </r>
       <r>     3.0943    10.5363  1039.9734 </r>
       <r>     3.2289     0.1979  1040.0000 </r>
       <r>     3.3635     0.0000  1040.0000 </r>
       <r>     3.4981     0.0000  1040.0000 </r>
       <r>     3.6327     0.0000  1040.0000 </r>
       <r>     3.7673     0.0000  1040.0000 </r>
       <r>     3.9019     0.0000  1040.0000 </r>
       <r>     4.0365     0.0000  1040.0000 </r>
       <r>     4.1711     0.0000  1040.0000 </r>
       <r>     4.3057     0.0000  1040.0000 </r>
       <r>     4.4402     0.0000  1040.0000 </r>
       <r>     4.5748     0.0000  1040.0000 </r>
       <r>     4.7094     0.0000  1040.0000 </r>
       <r>     4.8440     0.0000  1040.0000 </r>
       <r>     4.9786     0.0000  1040.0000 </r>
       <r>     5.1132     0.0000  1040.0000 </r>
       <r>     5.2478     0.0000  1040.0000 </r>
       <r>     5.3824     0.0000  1040.0000 </r>
       <r>     5.5170     0.0000  1040.0000 </r>
       <r>     5.6516     0.0000  1040.0000 </r>
       <r>     5.7862     0.0804  1040.0108 </r>
       <r>     5.9208     5.9258  1040.8084 </r>
       <r>     6.0554     6.4826  1041.6809 </r>
       <r>     6.1900     2.3701  1041.9999 </r>
       <r>     6.3245     0.0007  1042.0000 </r>
       <r>     6.4591     0.0000  1042.0000 </r>
       <r>     6.5937     0.0000  1042.0000 </r>
       <r>     6.7283     0.0000  1042.0000 </r>
       <r>     6.8629     0.0310  1042.0042 </r>
       <r>     6.9975     1.7400  1042.2384 </r>
       <r>     7.1321     0.0864  1042.2500 </r>
       <r>     7.2667     0.0974  1042.2631 </r>
       <r>     7.4013     1.7356  1042.4967 </r>
       <r>     7.5359     1.4863  1042.6968 </r>
       <r>     7.6705     0.7151  1042.7930 </r>
       <r>     7.8051     3.2496  1043.2304 </r>
       <r>     7.9397     3.8537  1043.7491 </r>
       <r>     8.0743     1.8225  1043.9944 </r>
       <r>     8.2088     6.0783  1044.8125 </r>
       <r>     8.3434     5.0889  1045.4974 </r>
       <r>     8.4780     2.3320  1045.8113 </r>
       <r>     8.6126     4.8307  1046.4614 </r>
       <r>     8.7472     4.6770  1047.0909 </r>
       <r>     8.8818     5.4748  1047.8278 </r>
       <r>     9.0164     7.0473  1048.7763 </r>
       <r>     9.1510    12.4934  1050.4578 </r>
       <r>     9.2856    11.2221  1051.9683 </r>
       <r>     9.4202     7.0124  1052.9121 </r>
       <r>     9.5548     7.8069  1053.9628 </r>
       <r>     9.6894    12.4723  1055.6415 </r>
       <r>     9.8240     8.0513  1056.7252 </r>
       <r>     9.9586    16.5746  1058.9560 </r>
       <r>    10.0931    19.9193  1061.6370 </r>
       <r>    10.2277    19.0966  1064.2073 </r>
       <r>    10.3623    19.8887  1066.8841 </r>
       <r>    10.4969    26.0168  1070.3858 </r>
       <r>    10.6315    38.2675  1075.5364 </r>
       <r>    10.7661    36.8134  1080.4912 </r>
       <r>    10.9007    38.3468  1085.6524 </r>
       <r>    11.0353    28.0195  1089.4236 </r>
       <r>    11.1699    34.9751  1094.1310 </r>
       <r>    11.3045    27.3102  1097.8068 </r>
       <r>    11.4391    27.7554  1101.5425 </r>
       <r>    11.5737    34.5723  1106.1957 </r>
       <r>    11.7083    36.3642  1111.0900 </r>
       <r>    11.8429    34.9834  1115.7985 </r>
       <r>    11.9775    32.6031  1120.1867 </r>
       <r>    12.1120    38.5251  1125.3719 </r>
       <r>    12.2466    31.0997  1129.5577 </r>
       <r>    12.3812    43.5664  1135.4214 </r>
       <r>    12.5158    41.0144  1140.9417 </r>
       <r>    12.6504    28.0594  1144.7183 </r>
       <r>    12.7850    24.3079  1147.9900 </r>
       <r>    12.9196    28.6696  1151.8487 </r>
       <r>    13.0542    31.2978  1156.0612 </r>
       <r>    13.1888    40.1416  1161.4639 </r>
       <r>    13.3234    40.9293  1166.9727 </r>
       <r>    13.4580    26.5599  1170.5475 </r>
       <r>    13.5926    28.3731  1174.3663 </r>
       <r>    13.7272    33.3454  1178.8544 </r>
       <r>    13.8618    32.5884  1183.2405 </r>
       <r>    13.9963    28.7308  1187.1075 </r>
       <r>    14.1309    30.1878  1191.1706 </r>
       <r>    14.2655    32.0639  1195.4862 </r>
       <r>    14.4001    26.3611  1199.0342 </r>
       <r>    14.5347    28.2807  1202.8406 </r>
       <r>    14.6693    33.7165  1207.3786 </r>
       <r>    14.8039    25.2933  1210.7829 </r>
       <r>    14.9385    24.0417  1214.0187 </r>
       <r>    15.0731    27.2143  1217.6816 </r>
       <r>    15.2077    25.9296  1221.1715 </r>
       <r>    15.3423    26.4488  1224.7313 </r>
       <r>    15.4769    23.8510  1227.9415 </r>
       <r>    15.6115    23.0530  1231.0443 </r>
       <r>    15.7461    19.1614  1233.6233 </r>
       <r>    15.8806    20.2906  1236.3542 </r>
       <r>    16.0152    15.1782  1238.3971 </r>
       <r>    16.1498    20.2400  1241.1213 </r>
       <r>    16.2844    16.6635  1243.3641 </r>
       <r>    16.4190    13.6777  1245.2050 </r>
       <r>    16.5536    11.2538  1246.7197 </r>
       <r>    16.6882    10.0353  1248.0704 </r>
       <r>    16.8228     8.5639  1249.2230 </r>
       <r>    16.9574     3.8902  1249.7466 </r>
       <r>    17.0920     1.8685  1249.9981 </r>
       <r>    17.2266     0.0143  1250.0000 </r>
       <r>    17.3612     0.0000  1250.0000 </r>
       <r>    17.4958     0.0000  1250.0000 </r>
       <r>    17.6304     0.0000  1250.0000 </r>
       <r>    17.7650     0.0000  1250.0000 </r>
       <r>    17.8995     0.0000  1250.0000 </r>
       <r>    18.0341     0.0000  1250.0000 </r>
       <r>    18.1687     0.0000  1250.0000 </r>
       <r>    18.3033     0.0000  1250.0000 </r>
       <r>    18.4379     0.0000  1250.0000 </r>
       <r>    18.5725     0.0000  1250.0000 </r>
       <r>    18.7071     0.0000  1250.0000 </r>
       <r>    18.8417     0.0000  1250.0000 </r>
      </set>
     </set>
    </array>
   </total>
  </dos>
 </calculation>
 <structure name="finalpos" >
  <crystal>
   <varray name="basis" >
    <v>       0.00000000      12.28047342       0.00000000 </v>
    <v>       9.14270205       0.00000000       0.00000000 </v>
    <v>       0.00000000      -2.76826177     -11.30069772 </v>
   </varray>
   <i name="volume">   1268.80515525 </i>
   <varray name="rec_basis" >
    <v>       0.00000000       0.08143009      -0.01994742 </v>
    <v>       0.10937686      -0.00000000       0.00000000 </v>
    <v>       0.00000000       0.00000000      -0.08849011 </v>
   </varray>
  </crystal>
  <varray name="positions" >
   <v>       0.66005308       0.00000000       0.15539002 </v>
   <v>       0.65823297       0.00000000       0.65431527 </v>
   <v>       0.66305670       0.33365077       0.15619252 </v>
   <v>       0.65858663       0.33293403       0.65503283 </v>
   <v>       0.66305670       0.66634923       0.15619252 </v>
   <v>       0.65858663       0.66706597       0.65503283 </v>
   <v>       0.83839071       0.16403093       0.34403691 </v>
   <v>       0.83994371       0.16632719       0.84312908 </v>
   <v>       0.84566542       0.50000000       0.34316423 </v>
   <v>       0.84024911       0.50000000       0.84384658 </v>
   <v>       0.83839071       0.83596907       0.34403691 </v>
   <v>       0.83994371       0.83367281       0.84312908 </v>
   <v>       0.58574052       0.16369506       0.39491403 </v>
   <v>       0.59188698       0.16690253       0.89684545 </v>
   <v>       0.59447780       0.50000000       0.39689698 </v>
   <v>       0.59306322       0.50000000       0.89851450 </v>
   <v>       0.58574052       0.83630494       0.39491403 </v>
   <v>       0.59188698       0.83309747       0.89684545 </v>
   <v>       0.91108068       0.00000000       0.10340499 </v>
   <v>       0.90851390       0.00000000       0.60337812 </v>
   <v>       0.91303591       0.33100731       0.10210497 </v>
   <v>       0.90834065       0.33397570       0.60396788 </v>
   <v>       0.91303591       0.66899269       0.10210497 </v>
   <v>       0.90834065       0.66602430       0.60396788 </v>
   <v>       0.16650520       0.15858963       0.15529819 </v>
   <v>       0.15675612       0.17060917       0.66027787 </v>
   <v>       0.15970825       0.50000000       0.15548321 </v>
   <v>       0.15811174       0.50000000       0.65576165 </v>
   <v>       0.16650520       0.84141037       0.15529819 </v>
   <v>       0.15675612       0.82939083       0.66027787 </v>
   <v>       0.32235899       0.00000000       0.33004779 </v>
   <v>       0.34214782       0.00000000       0.83936339 </v>
   <v>       0.34203839       0.33398597       0.34045201 </v>
   <v>       0.34205394       0.33430252       0.84146214 </v>
   <v>       0.34203839       0.66601403       0.34045201 </v>
   <v>       0.34205394       0.66569748       0.84146214 </v>
   <v>       0.08911813       0.00000000       0.89231585 </v>
   <v>       0.09431671       0.32875365       0.39652868 </v>
   <v>       0.09058557       0.33336540       0.89842368 </v>
   <v>       0.09431671       0.67124635       0.39652868 </v>
   <v>       0.09058557       0.66663460       0.89842368 </v>
   <v>       0.41366786       0.16900382       0.09768991 </v>
   <v>       0.40774673       0.16639259       0.59690327 </v>
   <v>       0.41046941       0.50000000       0.10168484 </v>
   <v>       0.40864801       0.50000000       0.59971141 </v>
   <v>       0.41366786       0.83099618       0.09768991 </v>
   <v>       0.40774673       0.83360741       0.59690327 </v>
   <v>       0.00097367       0.16394202       0.13238068 </v>
   <v>       0.99512929       0.16721502       0.63004772 </v>
   <v>       0.99740578       0.50000000       0.12712429 </v>
   <v>       0.99634973       0.50000000       0.62840521 </v>
   <v>       0.00097367       0.83605798       0.13238068 </v>
   <v>       0.99512929       0.83278498       0.63004772 </v>
   <v>       0.49546573       0.00000000       0.36928243 </v>
   <v>       0.50461178       0.00000000       0.87047075 </v>
   <v>       0.50478901       0.33562389       0.37264282 </v>
   <v>       0.50450024       0.33392594       0.87094389 </v>
   <v>       0.50478901       0.66437611       0.37264282 </v>
   <v>       0.50450024       0.66607406       0.87094389 </v>
   <v>       0.67183536       0.16645352       0.28004532 </v>
   <v>       0.67224915       0.16646867       0.77899731 </v>
   <v>       0.67777570       0.50000000       0.28065272 </v>
   <v>       0.67238611       0.50000000       0.77950494 </v>
   <v>       0.67183536       0.83354648       0.28004532 </v>
   <v>       0.67224915       0.83353133       0.77899731 </v>
   <v>       0.82871708       0.00000000       0.22132208 </v>
   <v>       0.82647343       0.00000000       0.71952746 </v>
   <v>       0.83298033       0.32887540       0.22180262 </v>
   <v>       0.82643852       0.33315614       0.71975368 </v>
   <v>       0.83298033       0.67112460       0.22180262 </v>
   <v>       0.82643852       0.66684386       0.71975368 </v>
   <v>       0.83047389       0.00000000       0.44712888 </v>
   <v>       0.83295487       0.00000000       0.94686786 </v>
   <v>       0.83886042       0.33192735       0.44514700 </v>
   <v>       0.83321870       0.33239044       0.94648937 </v>
   <v>       0.83886042       0.66807265       0.44514700 </v>
   <v>       0.83321870       0.66760956       0.94648937 </v>
   <v>       0.67021864       0.16656261       0.05348645 </v>
   <v>       0.66669694       0.16641904       0.55140042 </v>
   <v>       0.67486181       0.50000000       0.05414348 </v>
   <v>       0.67126141       0.50000000       0.55369086 </v>
   <v>       0.67021864       0.83343739       0.05348645 </v>
   <v>       0.66669694       0.83358096       0.55140042 </v>
   <v>       0.49846361       0.00000000       0.12341265 </v>
   <v>       0.49553358       0.00000000       0.62510857 </v>
   <v>       0.50133916       0.33616483       0.12362386 </v>
   <v>       0.49581257       0.33293581       0.62507259 </v>
   <v>       0.50133916       0.66383517       0.12362386 </v>
   <v>       0.49581257       0.66706419       0.62507259 </v>
   <v>       0.01244741       0.14387165       0.38418440 </v>
   <v>       0.00242625       0.16701476       0.87195790 </v>
   <v>       0.00807744       0.50000000       0.37285291 </v>
   <v>       0.00296127       0.50000000       0.87191575 </v>
   <v>       0.01244741       0.85612835       0.38418440 </v>
   <v>       0.00242625       0.83298524       0.87195790 </v>
   <v>       0.17191425       0.00000000       0.77563143 </v>
   <v>       0.17257203       0.33155436       0.27918993 </v>
   <v>       0.17268158       0.33404496       0.78100312 </v>
   <v>       0.17257203       0.66844564       0.27918993 </v>
   <v>       0.17268158       0.66595504       0.78100312 </v>
   <v>       0.33464253       0.17977468       0.21442810 </v>
   <v>       0.32478556       0.16479174       0.71379954 </v>
   <v>       0.32771985       0.50000000       0.21762235 </v>
   <v>       0.32658213       0.50000000       0.71726810 </v>
   <v>       0.33464253       0.82022532       0.21442810 </v>
   <v>       0.32478556       0.83520826       0.71379954 </v>
   <v>       0.32740381       0.16730656       0.44159713 </v>
   <v>       0.33520073       0.16693857       0.94146332 </v>
   <v>       0.33036406       0.50000000       0.44372500 </v>
   <v>       0.33298929       0.50000000       0.94471370 </v>
   <v>       0.32740381       0.83269344       0.44159713 </v>
   <v>       0.33520073       0.83306143       0.94146332 </v>
   <v>       0.17535955       0.00000000       0.04380784 </v>
   <v>       0.14650320       0.00000000       0.54819037 </v>
   <v>       0.16694608       0.33194240       0.05401105 </v>
   <v>       0.16485252       0.33191424       0.55425359 </v>
   <v>       0.16694608       0.66805760       0.05401105 </v>
   <v>       0.16485252       0.66808576       0.55425359 </v>
   <v>       0.09911586       0.00000000       0.40499605 </v>
  </varray>
 </structure>
</modeling>
