<?xml version="1.0" encoding="ISO-8859-1"?>
<modeling>
 <generator>
  <i name="program" type="string">vasp </i>
  <i name="version" type="string">6.4.2  </i>
  <i name="subversion" type="string">20Jul23 (build Nov 12 2023 22:16:35) complex                          parallel </i>
  <i name="platform" type="string">LinuxNV </i>
  <i name="date" type="string">2025 03 16 </i>
  <i name="time" type="string">07:20:20 </i>
 </generator>
 <incar>
  <i type="int" name="ISTART">     0</i>
  <i type="string" name="PREC">Normal</i>
  <i type="string" name="ALGO">All</i>
  <i type="int" name="ISPIN">     1</i>
  <i type="int" name="ICHARG">     0</i>
  <i type="int" name="NELM">   500</i>
  <i type="int" name="IBRION">    -1</i>
  <i name="EDIFF">      0.00001000</i>
  <i name="EDIFFG">     -0.00500000</i>
  <i type="int" name="NSW">     0</i>
  <i type="int" name="ISIF">     2</i>
  <i name="ENCUT">    450.00000000</i>
  <i name="NELECT">   1056.00000000</i>
  <i type="string" name="LREAL">Auto</i>
  <i type="logical" name="LPLANE"> T  </i>
  <i name="TIME">      0.40000000</i>
  <i type="int" name="ISMEAR">     0</i>
  <i name="SIGMA">      0.05000000</i>
  <i type="logical" name="LWAVE"> T  </i>
  <i type="logical" name="LCHARG"> T  </i>
  <i name="HFSCREEN">      0.20000000</i>
  <i type="logical" name="LHFCALC"> T  </i>
  <i type="int" name="LMAXFOCK">     4</i>
  <i name="AEXX">      0.32000000</i>
  <i type="string" name="PRECFOCK">Fast</i>
 </incar>
 <primitive_cell>
  <structure name="primitive_cell" >
   <crystal>
    <varray name="basis" >
     <v>       0.00000000      12.28047342       0.00000000 </v>
     <v>       9.14270205       0.00000000       0.00000000 </v>
     <v>       0.00000000      -2.76826177     -11.30069772 </v>
    </varray>
    <i name="volume">   1268.80515525 </i>
    <varray name="rec_basis" >
     <v>       0.00000000       0.08143009      -0.01994742 </v>
     <v>       0.10937686      -0.00000000       0.00000000 </v>
     <v>       0.00000000       0.00000000      -0.08849011 </v>
    </varray>
   </crystal>
   <varray name="positions" >
    <v>       0.65866321       0.00000000       0.15830761 </v>
    <v>       0.66459437       0.00000000       0.65221373 </v>
    <v>       0.65879654       0.33294819       0.15650607 </v>
    <v>       0.66844310       0.33005085       0.65790021 </v>
    <v>       0.65879654       0.66705181       0.15650607 </v>
    <v>       0.66844310       0.66994915       0.65790021 </v>
    <v>       0.84160342       0.16776582       0.34311175 </v>
    <v>       0.85271868       0.16607397       0.83839463 </v>
    <v>       0.84056743       0.50000000       0.34442256 </v>
    <v>       0.81870292       0.50000000       0.89667210 </v>
    <v>       0.84160342       0.83223418       0.34311175 </v>
    <v>       0.85271868       0.83392603       0.83839463 </v>
    <v>       0.58611024       0.16391173       0.39357797 </v>
    <v>       0.60160047       0.16403552       0.89629734 </v>
    <v>       0.59747864       0.50000000       0.40123703 </v>
    <v>       0.58018847       0.50000000       0.89189487 </v>
    <v>       0.58611024       0.83608827       0.39357797 </v>
    <v>       0.60160047       0.83596448       0.89629734 </v>
    <v>       0.91710945       0.00000000       0.10522516 </v>
    <v>       0.91642024       0.00000000       0.59310708 </v>
    <v>       0.89675080       0.36164910       0.09220271 </v>
    <v>       0.91108956       0.33324057       0.59982730 </v>
    <v>       0.89675080       0.63835090       0.09220271 </v>
    <v>       0.91108956       0.66675943       0.59982730 </v>
    <v>       0.14957735       0.16360237       0.15713638 </v>
    <v>       0.16381246       0.16233861       0.64604492 </v>
    <v>       0.16787309       0.50000000       0.16061857 </v>
    <v>       0.16388180       0.50000000       0.65259727 </v>
    <v>       0.14957735       0.83639763       0.15713638 </v>
    <v>       0.16381246       0.83766139       0.64604492 </v>
    <v>       0.32626880       0.00000000       0.34505144 </v>
    <v>       0.34156760       0.00000000       0.84405024 </v>
    <v>       0.34166881       0.33214140       0.34517881 </v>
    <v>       0.33851864       0.32984519       0.84060339 </v>
    <v>       0.34166881       0.66785860       0.34517881 </v>
    <v>       0.33851864       0.67015481       0.84060339 </v>
    <v>       0.08942091       0.00000000       0.89191110 </v>
    <v>       0.08638513       0.32623447       0.39420332 </v>
    <v>       0.09663547       0.36892891       0.89948077 </v>
    <v>       0.08638513       0.67376553       0.39420332 </v>
    <v>       0.09663547       0.63107109       0.89948077 </v>
    <v>       0.40482188       0.16704700       0.10316028 </v>
    <v>       0.41559318       0.16817512       0.60683816 </v>
    <v>       0.40951511       0.50000000       0.10219110 </v>
    <v>       0.41565060       0.50000000       0.60406183 </v>
    <v>       0.40482188       0.83295300       0.10316028 </v>
    <v>       0.41559318       0.83182488       0.60683816 </v>
    <v>       0.98126571       0.18668276       0.11211977 </v>
    <v>       0.00209412       0.16780061       0.62651063 </v>
    <v>       0.01770201       0.50000000       0.15567735 </v>
    <v>       0.00162200       0.50000000       0.62948780 </v>
    <v>       0.98126571       0.81331724       0.11211977 </v>
    <v>       0.00209412       0.83219939       0.62651063 </v>
    <v>       0.49509213       0.00000000       0.37005120 </v>
    <v>       0.50520430       0.00000000       0.87477674 </v>
    <v>       0.50539422       0.33647164       0.37367547 </v>
    <v>       0.50290598       0.32509826       0.87174436 </v>
    <v>       0.50539422       0.66352836       0.37367547 </v>
    <v>       0.50290598       0.67490174       0.87174436 </v>
    <v>       0.67078673       0.16505555       0.27932890 </v>
    <v>       0.67070782       0.15782012       0.76946033 </v>
    <v>       0.66949082       0.50000000       0.27700228 </v>
    <v>       0.67405945       0.50000000       0.78167544 </v>
    <v>       0.67078673       0.83494445       0.27932890 </v>
    <v>       0.67070782       0.84217988       0.76946033 </v>
    <v>       0.82729906       0.00000000       0.21690785 </v>
    <v>       0.83633057       0.00000000       0.71550071 </v>
    <v>       0.82395132       0.33523984       0.22090439 </v>
    <v>       0.82771491       0.31300385       0.71118152 </v>
    <v>       0.82395132       0.66476016       0.22090439 </v>
    <v>       0.82771491       0.68699615       0.71118152 </v>
    <v>       0.82259390       0.00000000       0.44332448 </v>
    <v>       0.84488740       0.00000000       0.94202759 </v>
    <v>       0.82038657       0.33698769       0.44644174 </v>
    <v>       0.80042474       0.29603512       0.93950152 </v>
    <v>       0.82038657       0.66301231       0.44644174 </v>
    <v>       0.80042474       0.70396488       0.93950152 </v>
    <v>       0.66414007       0.16408160       0.05751296 </v>
    <v>       0.66583547       0.16461598       0.54807018 </v>
    <v>       0.65441866       0.50000000       0.05103329 </v>
    <v>       0.67301063       0.50000000       0.55827657 </v>
    <v>       0.66414007       0.83591840       0.05751296 </v>
    <v>       0.66583547       0.83538402       0.54807018 </v>
    <v>       0.49462578       0.00000000       0.12655079 </v>
    <v>       0.50029572       0.00000000       0.62559818 </v>
    <v>       0.49711643       0.33160680       0.12752124 </v>
    <v>       0.50544616       0.33435501       0.63058169 </v>
    <v>       0.49711643       0.66839320       0.12752124 </v>
    <v>       0.50544616       0.66564499       0.63058169 </v>
    <v>       0.99333563       0.17580888       0.38457629 </v>
    <v>       0.01419087       0.18134738       0.87310724 </v>
    <v>       0.00230993       0.50000000       0.38492502 </v>
    <v>       0.95754806       0.50000000       0.86788332 </v>
    <v>       0.99333563       0.82419112       0.38457629 </v>
    <v>       0.01419087       0.81865262       0.87310724 </v>
    <v>       0.17574025       0.00000000       0.78085535 </v>
    <v>       0.17913963       0.34153184       0.29069803 </v>
    <v>       0.17566965       0.32510930       0.76938671 </v>
    <v>       0.17913963       0.65846816       0.29069803 </v>
    <v>       0.17566965       0.67489070       0.76938671 </v>
    <v>       0.33366848       0.17284039       0.22500542 </v>
    <v>       0.33523042       0.16648344       0.72250515 </v>
    <v>       0.33281851       0.50000000       0.22399226 </v>
    <v>       0.33224171       0.50000000       0.71909112 </v>
    <v>       0.33366848       0.82715961       0.22500542 </v>
    <v>       0.33523042       0.83351656       0.72250515 </v>
    <v>       0.34405709       0.17253995       0.45179415 </v>
    <v>       0.33058449       0.16676033       0.94572406 </v>
    <v>       0.34170151       0.50000000       0.44833003 </v>
    <v>       0.34117515       0.50000000       0.94239168 </v>
    <v>       0.34405709       0.82746005       0.45179415 </v>
    <v>       0.33058449       0.83323967       0.94572406 </v>
    <v>       0.16908810       0.00000000       0.04580779 </v>
    <v>       0.18407729       0.00000000       0.55892322 </v>
    <v>       0.17321206       0.32586337       0.06298663 </v>
    <v>       0.17513546       0.33505515       0.54848426 </v>
    <v>       0.17321206       0.67413663       0.06298663 </v>
    <v>       0.17513546       0.66494485       0.54848426 </v>
    <v>       0.13525045       0.00000000       0.30038198 </v>
   </varray>
  </structure>
  <varray name="primitive_index" >
   <v type="int" >        1 </v>
   <v type="int" >        2 </v>
   <v type="int" >        3 </v>
   <v type="int" >        4 </v>
   <v type="int" >        5 </v>
   <v type="int" >        6 </v>
   <v type="int" >        7 </v>
   <v type="int" >        8 </v>
   <v type="int" >        9 </v>
   <v type="int" >       10 </v>
   <v type="int" >       11 </v>
   <v type="int" >       12 </v>
   <v type="int" >       13 </v>
   <v type="int" >       14 </v>
   <v type="int" >       15 </v>
   <v type="int" >       16 </v>
   <v type="int" >       17 </v>
   <v type="int" >       18 </v>
   <v type="int" >       19 </v>
   <v type="int" >       20 </v>
   <v type="int" >       21 </v>
   <v type="int" >       22 </v>
   <v type="int" >       23 </v>
   <v type="int" >       24 </v>
   <v type="int" >       25 </v>
   <v type="int" >       26 </v>
   <v type="int" >       27 </v>
   <v type="int" >       28 </v>
   <v type="int" >       29 </v>
   <v type="int" >       30 </v>
   <v type="int" >       31 </v>
   <v type="int" >       32 </v>
   <v type="int" >       33 </v>
   <v type="int" >       34 </v>
   <v type="int" >       35 </v>
   <v type="int" >       36 </v>
   <v type="int" >       37 </v>
   <v type="int" >       38 </v>
   <v type="int" >       39 </v>
   <v type="int" >       40 </v>
   <v type="int" >       41 </v>
   <v type="int" >       42 </v>
   <v type="int" >       43 </v>
   <v type="int" >       44 </v>
   <v type="int" >       45 </v>
   <v type="int" >       46 </v>
   <v type="int" >       47 </v>
   <v type="int" >       48 </v>
   <v type="int" >       49 </v>
   <v type="int" >       50 </v>
   <v type="int" >       51 </v>
   <v type="int" >       52 </v>
   <v type="int" >       53 </v>
   <v type="int" >       54 </v>
   <v type="int" >       55 </v>
   <v type="int" >       56 </v>
   <v type="int" >       57 </v>
   <v type="int" >       58 </v>
   <v type="int" >       59 </v>
   <v type="int" >       60 </v>
   <v type="int" >       61 </v>
   <v type="int" >       62 </v>
   <v type="int" >       63 </v>
   <v type="int" >       64 </v>
   <v type="int" >       65 </v>
   <v type="int" >       66 </v>
   <v type="int" >       67 </v>
   <v type="int" >       68 </v>
   <v type="int" >       69 </v>
   <v type="int" >       70 </v>
   <v type="int" >       71 </v>
   <v type="int" >       72 </v>
   <v type="int" >       73 </v>
   <v type="int" >       74 </v>
   <v type="int" >       75 </v>
   <v type="int" >       76 </v>
   <v type="int" >       77 </v>
   <v type="int" >       78 </v>
   <v type="int" >       79 </v>
   <v type="int" >       80 </v>
   <v type="int" >       81 </v>
   <v type="int" >       82 </v>
   <v type="int" >       83 </v>
   <v type="int" >       84 </v>
   <v type="int" >       85 </v>
   <v type="int" >       86 </v>
   <v type="int" >       87 </v>
   <v type="int" >       88 </v>
   <v type="int" >       89 </v>
   <v type="int" >       90 </v>
   <v type="int" >       91 </v>
   <v type="int" >       92 </v>
   <v type="int" >       93 </v>
   <v type="int" >       94 </v>
   <v type="int" >       95 </v>
   <v type="int" >       96 </v>
   <v type="int" >       97 </v>
   <v type="int" >       98 </v>
   <v type="int" >       99 </v>
   <v type="int" >      100 </v>
   <v type="int" >      101 </v>
   <v type="int" >      102 </v>
   <v type="int" >      103 </v>
   <v type="int" >      104 </v>
   <v type="int" >      105 </v>
   <v type="int" >      106 </v>
   <v type="int" >      107 </v>
   <v type="int" >      108 </v>
   <v type="int" >      109 </v>
   <v type="int" >      110 </v>
   <v type="int" >      111 </v>
   <v type="int" >      112 </v>
   <v type="int" >      113 </v>
   <v type="int" >      114 </v>
   <v type="int" >      115 </v>
   <v type="int" >      116 </v>
   <v type="int" >      117 </v>
   <v type="int" >      118 </v>
   <v type="int" >      119 </v>
  </varray>
 </primitive_cell>
 <kpoints>
  <generation param="Gamma">
   <v type="int" name="divisions">       2        2        2 </v>
   <v name="usershift">      0.00000000       0.00000000       0.00000000 </v>
   <v name="genvec1">      0.50000000       0.00000000       0.00000000 </v>
   <v name="genvec2">      0.00000000       0.50000000       0.00000000 </v>
   <v name="genvec3">      0.00000000       0.00000000       0.50000000 </v>
   <v name="shift">      0.00000000       0.00000000       0.00000000 </v>
  </generation>
  <varray name="kpointlist" >
   <v>       0.00000000       0.00000000       0.00000000 </v>
   <v>       0.50000000       0.00000000       0.00000000 </v>
   <v>       0.00000000       0.50000000       0.00000000 </v>
   <v>       0.50000000       0.50000000       0.00000000 </v>
   <v>       0.00000000       0.00000000       0.50000000 </v>
   <v>       0.50000000       0.00000000       0.50000000 </v>
   <v>       0.00000000       0.50000000       0.50000000 </v>
   <v>       0.50000000       0.50000000       0.50000000 </v>
  </varray>
  <varray name="weights" >
   <v>       0.12500000 </v>
   <v>       0.12500000 </v>
   <v>       0.12500000 </v>
   <v>       0.12500000 </v>
   <v>       0.12500000 </v>
   <v>       0.12500000 </v>
   <v>       0.12500000 </v>
   <v>       0.12500000 </v>
  </varray>
 </kpoints>
 <parameters>
  <separator name="general" >
   <i type="string" name="SYSTEM">unknown system</i>
   <i type="logical" name="LCOMPAT"> F  </i>
  </separator>
  <separator name="electronic" >
   <i type="string" name="PREC">normal</i>
   <i name="ENMAX">    450.00000000</i>
   <i name="ENAUG">    605.39200000</i>
   <i name="EDIFF">      0.00001000</i>
   <i type="int" name="IALGO">    58</i>
   <i type="int" name="IWAVPR">    10</i>
   <i type="int" name="NBANDS">   633</i>
   <i type="int" name="NBANDSLOW">    -1</i>
   <i type="int" name="NBANDSHIGH">    -1</i>
   <i name="NELECT">   1056.00000000</i>
   <i type="int" name="TURBO">     0</i>
   <i type="int" name="IRESTART">     0</i>
   <i type="int" name="NREBOOT">     0</i>
   <i type="int" name="NMIN">     0</i>
   <i name="EREF">      0.00000000</i>
   <separator name="electronic smearing" >
    <i type="int" name="ISMEAR">     0</i>
    <i name="SIGMA">      0.05000000</i>
    <i name="KSPACING">      0.50000000</i>
    <i type="logical" name="KGAMMA"> T  </i>
    <i type="logical" name="KBLOWUP"> T  </i>
   </separator>
   <separator name="electronic projectors" >
    <i type="logical" name="LREAL"> T  </i>
    <v name="ROPT">     -0.00050000     -0.00050000     -0.00050000</v>
    <i type="int" name="LMAXPAW">  -100</i>
    <i type="int" name="LMAXMIX">     2</i>
    <i type="logical" name="NLSPLINE"> F  </i>
   </separator>
   <separator name="electronic startup" >
    <i type="int" name="ISTART">     0</i>
    <i type="int" name="ICHARG">     0</i>
    <i type="int" name="INIWAV">     1</i>
   </separator>
   <separator name="electronic spin" >
    <i type="int" name="ISPIN">     1</i>
    <i type="logical" name="LNONCOLLINEAR"> F  </i>
    <v name="MAGMOM">      1.00000000      1.00000000      1.00000000      1.00000000      1.00000000      1.00000000      1.00000000      1.00000000      1.00000000      1.00000000      1.00000000      1.00000000      1.00000000      1.00000000      1.00000000      1.00000000      1.00000000      1.00000000      1.00000000      1.00000000
      1.00000000      1.00000000      1.00000000      1.00000000      1.00000000      1.00000000      1.00000000      1.00000000      1.00000000      1.00000000      1.00000000      1.00000000      1.00000000      1.00000000      1.00000000      1.00000000      1.00000000      1.00000000      1.00000000      1.00000000
      1.00000000      1.00000000      1.00000000      1.00000000      1.00000000      1.00000000      1.00000000      1.00000000      1.00000000      1.00000000      1.00000000      1.00000000      1.00000000      1.00000000      1.00000000      1.00000000      1.00000000      1.00000000      1.00000000      1.00000000
      1.00000000      1.00000000      1.00000000      1.00000000      1.00000000      1.00000000      1.00000000      1.00000000      1.00000000      1.00000000      1.00000000      1.00000000      1.00000000      1.00000000      1.00000000      1.00000000      1.00000000      1.00000000      1.00000000      1.00000000
      1.00000000      1.00000000      1.00000000      1.00000000      1.00000000      1.00000000      1.00000000      1.00000000      1.00000000      1.00000000      1.00000000      1.00000000      1.00000000      1.00000000      1.00000000      1.00000000      1.00000000      1.00000000      1.00000000      1.00000000
      1.00000000      1.00000000      1.00000000      1.00000000      1.00000000      1.00000000      1.00000000      1.00000000      1.00000000      1.00000000      1.00000000      1.00000000      1.00000000      1.00000000      1.00000000      1.00000000      1.00000000      1.00000000      1.00000000</v>
    <i name="NUPDOWN">     -1.00000000</i>
    <i type="logical" name="LSORBIT"> F  </i>
    <v name="SAXIS">      0.00000000      0.00000000      1.00000000</v>
    <i type="logical" name="LSPIRAL"> F  </i>
    <v name="QSPIRAL">      0.00000000      0.00000000      0.00000000</v>
    <i type="logical" name="LZEROZ"> F  </i>
   </separator>
   <separator name="electronic exchange-correlation" >
    <i type="logical" name="LASPH"> F  </i>
    <i type="logical" name="LMETAGGA"> F  </i>
   </separator>
   <separator name="electronic convergence" >
    <i type="int" name="NELM">   500</i>
    <i type="int" name="NELMDL">    -5</i>
    <i type="int" name="NELMIN">     2</i>
    <i name="ENINI">    450.00000000</i>
    <separator name="electronic convergence detail" >
     <i type="logical" name="LDIAG"> T  </i>
     <i type="logical" name="LSUBROT"> F  </i>
     <i name="WEIMIN">      0.00000000</i>
     <i name="EBREAK">      0.00000000</i>
     <i name="DEPER">      0.30000000</i>
     <i type="int" name="NRMM">     4</i>
     <i name="TIME">      0.40000000</i>
    </separator>
   </separator>
   <separator name="electronic mixer" >
    <i name="AMIX">      0.40000000</i>
    <i name="BMIX">      1.00000000</i>
    <i name="AMIN">      0.10000000</i>
    <i name="AMIX_MAG">      1.60000000</i>
    <i name="BMIX_MAG">      1.00000000</i>
    <separator name="electronic mixer details" >
     <i type="int" name="IMIX">     4</i>
     <i type="logical" name="MIXFIRST"> F  </i>
     <i type="int" name="MAXMIX">   -45</i>
     <i name="WC">    100.00000000</i>
     <i type="int" name="INIMIX">     1</i>
     <i type="int" name="MIXPRE">     1</i>
     <i type="int" name="MREMOVE">     5</i>
    </separator>
   </separator>
   <separator name="electronic dipolcorrection" >
    <i type="logical" name="LDIPOL"> F  </i>
    <i type="logical" name="LMONO"> F  </i>
    <i type="int" name="IDIPOL">     0</i>
    <i name="EPSILON">      1.00000000</i>
    <v name="DIPOL">   -100.00000000   -100.00000000   -100.00000000</v>
    <i name="EFIELD">      0.00000000</i>
   </separator>
  </separator>
  <separator name="grids" >
   <i type="int" name="NGX">    64</i>
   <i type="int" name="NGY">    48</i>
   <i type="int" name="NGZ">    60</i>
   <i type="int" name="NGXF">   128</i>
   <i type="int" name="NGYF">    96</i>
   <i type="int" name="NGZF">   120</i>
   <i type="logical" name="ADDGRID"> F  </i>
  </separator>
  <separator name="ionic" >
   <i type="int" name="NSW">     0</i>
   <i type="int" name="IBRION">    -1</i>
   <i type="int" name="MDALGO">     0</i>
   <i type="int" name="ISIF">     2</i>
   <i name="PSTRESS">      0.00000000</i>
   <i name="EDIFFG">     -0.00500000</i>
   <i type="int" name="NFREE">     0</i>
   <i name="POTIM">      0.50000000</i>
   <i name="SMASS">     -3.00000000</i>
   <i name="SCALEE">      1.00000000</i>
  </separator>
  <separator name="ionic md" >
   <i name="TEBEG">      0.00010000</i>
   <i name="TEEND">      0.00010000</i>
   <i type="int" name="NBLOCK">     1</i>
   <i type="int" name="KBLOCK">     1</i>
   <i type="int" name="NPACO">   256</i>
   <i name="APACO">     10.00000000</i>
  </separator>
  <separator name="symmetry" >
   <i type="int" name="ISYM">     3</i>
   <i name="SYMPREC">      0.00001000</i>
  </separator>
  <separator name="dos" >
   <i type="int" name="LORBIT">     0</i>
   <v name="RWIGS">     -1.00000000     -1.00000000     -1.00000000</v>
   <i type="int" name="NEDOS">   301</i>
   <i name="EMIN">     10.00000000</i>
   <i name="EMAX">    -10.00000000</i>
   <i name="EFERMI">      0.00000000</i>
  </separator>
  <separator name="writing" >
   <i type="int" name="NWRITE">     2</i>
   <i type="logical" name="LWAVE"> T  </i>
   <i type="logical" name="LDOWNSAMPLE"> F  </i>
   <i type="logical" name="LCHARG"> T  </i>
   <i type="logical" name="LPARD"> F  </i>
   <i type="logical" name="LVTOT"> F  </i>
   <i type="logical" name="LVHAR"> F  </i>
   <i type="logical" name="LELF"> F  </i>
   <i type="logical" name="LOPTICS"> F  </i>
   <v name="STM">      0.00000000      0.00000000      0.00000000      0.00000000      0.00000000      0.00000000      0.00000000</v>
  </separator>
  <separator name="performance" >
   <i type="int" name="NPAR">     1</i>
   <i type="int" name="NSIM">     4</i>
   <i type="int" name="NBLK">    -1</i>
   <i type="logical" name="LPLANE"> T  </i>
   <i type="logical" name="LSCALAPACK"> T  </i>
   <i type="logical" name="LSCAAWARE"> F  </i>
   <i type="logical" name="LSCALU"> F  </i>
   <i type="logical" name="LASYNC"> F  </i>
   <i type="logical" name="LORBITALREAL"> F  </i>
  </separator>
  <separator name="miscellaneous" >
   <i type="int" name="IDIOT">     3</i>
   <i type="int" name="PHON_NSTRUCT">    -1</i>
   <i type="logical" name="LMUSIC"> F  </i>
   <v name="POMASS">     69.72300000     16.00000000     30.97400000</v>
   <v name="DARWINR">      0.00000000      0.00000000      0.00000000</v>
   <v name="DARWINV">      1.00000000      1.00000000      1.00000000</v>
   <i type="logical" name="LCORR"> T  </i>
  </separator>
  <i type="logical" name="GGA_COMPAT"> T  </i>
  <i type="logical" name="LBERRY"> F  </i>
  <i type="int" name="ICORELEVEL">     0</i>
  <i type="logical" name="LDAU"> F  </i>
  <i type="int" name="I_CONSTRAINED_M">     0</i>
  <separator name="electronic exchange-correlation" >
   <i type="string" name="GGA">--</i>
   <i type="int" name="VOSKOWN">     0</i>
   <i type="logical" name="LHFCALC"> T  </i>
   <i type="string" name="PRECFOCK">fast</i>
   <i type="logical" name="LSYMGRAD"> F  </i>
   <i type="logical" name="LHFONE"> F  </i>
   <i type="logical" name="LRHFCALC"> F  </i>
   <i type="logical" name="LTHOMAS"> F  </i>
   <i type="logical" name="LMODELHF"> F  </i>
   <i type="logical" name="LFOCKACE"> T  </i>
   <i name="ENCUT4O">     -1.00000000</i>
   <i type="int" name="EXXOEP">     0</i>
   <i type="int" name="FOURORBIT">     0</i>
   <i name="AEXX">      0.32000000</i>
   <i name="HFALPHA">     -1.00000000</i>
   <i name="MCALPHA">      0.00000000</i>
   <i name="ALDAX">      0.68000000</i>
   <i name="AGGAX">      0.68000000</i>
   <i name="ALDAC">      1.00000000</i>
   <i name="AGGAC">      1.00000000</i>
   <i type="int" name="NKREDX">     1</i>
   <i type="int" name="NKREDY">     1</i>
   <i type="int" name="NKREDZ">     1</i>
   <i type="logical" name="SHIFTRED"> F  </i>
   <i type="logical" name="ODDONLY"> F  </i>
   <i type="logical" name="EVENONLY"> F  </i>
   <i type="int" name="LMAXFOCK">     4</i>
   <i type="int" name="NMAXFOCKAE">     1</i>
   <i type="logical" name="LFOCKAEDFT"> F  </i>
   <i name="HFSCREEN">      0.20000000</i>
   <i name="HFSCREENC">      0.20000000</i>
   <i type="int" name="NBANDSGWLOW">     1</i>
  </separator>
  <separator name="vdW DFT" >
   <i type="logical" name="LUSE_VDW"> F  </i>
   <i type="int" name="IVDW_NL">     1</i>
   <i type="logical" name="LSPIN_VDW"> F  </i>
   <i name="Zab_VDW">     -0.84910000</i>
   <i name="PARAM1">      0.12340000</i>
   <i name="PARAM2">      1.00000000</i>
   <i name="PARAM3">      0.00000000</i>
  </separator>
  <separator name="model GW" >
   <i type="int" name="MODEL_GW">     0</i>
   <i name="MODEL_EPS0">      6.39733692</i>
   <i name="MODEL_ALPHA">      1.00000000</i>
  </separator>
  <separator name="linear response parameters" >
   <i type="logical" name="LEPSILON"> F  </i>
   <i type="logical" name="LRPA"> F  </i>
   <i type="logical" name="LNABLA"> F  </i>
   <i type="logical" name="LVEL"> F  </i>
   <i name="CSHIFT">      0.10000000</i>
   <i name="OMEGAMAX">     -1.00000000</i>
   <i name="DEG_THRESHOLD">      0.00200000</i>
   <i name="RTIME">     -0.10000000</i>
   <i name="WPLASMAI">      0.00000000</i>
   <v name="DFIELD">      0.00000000      0.00000000      0.00000000</v>
   <v name="WPLASMA">      0.00000000      0.00000000      0.00000000      0.00000000      0.00000000      0.00000000      0.00000000      0.00000000      0.00000000</v>
  </separator>
  <separator name="orbital magnetization" >
   <i type="logical" name="NUCIND"> F  </i>
   <v name="MAGPOS">      0.00000000      0.00000000      0.00000000</v>
   <i type="logical" name="LNICSALL"> T  </i>
   <i type="logical" name="ORBITALMAG"> F  </i>
   <i type="logical" name="LMAGBLOCH"> F  </i>
   <i type="logical" name="LCHIMAG"> F  </i>
   <i type="logical" name="LGAUGE"> T  </i>
   <i type="int" name="MAGATOM">     0</i>
   <v name="MAGDIPOL">      0.00000000      0.00000000      0.00000000</v>
   <v name="AVECCONST">      0.00000000      0.00000000      0.00000000</v>
  </separator>
  <separator name="response functions" >
   <i type="logical" name="LALL_IN_ONE"> F  </i>
   <i type="int" name="IALL_IN_ONE">    -1</i>
   <i type="int" name="NBANDS_WAVE">    -1</i>
   <i type="logical" name="LFINITE_TEMPERATURE"> F  </i>
   <i type="logical" name="LADDER"> F  </i>
   <i type="logical" name="LRPAFORCE"> F  </i>
   <i type="logical" name="LFXC"> F  </i>
   <i type="logical" name="LHARTREE"> T  </i>
   <i type="int" name="IBSE">     0</i>
   <v type="int" name="KPOINT">    -1     0     0     0</v>
   <i type="logical" name="LTCTC"> F  </i>
   <i type="logical" name="LTCTE"> F  </i>
   <i type="logical" name="LTETE"> F  </i>
   <i type="logical" name="LTRIPLET"> F  </i>
   <i type="logical" name="LFXCEPS"> F  </i>
   <i type="logical" name="LFXHEG"> F  </i>
   <i type="int" name="NATURALO">     2</i>
   <i type="logical" name="LHOLEGF"> F  </i>
   <i type="logical" name="L2ORDER"> F  </i>
   <i type="logical" name="LDMP1"> F  </i>
   <i type="logical" name="LMP2LT"> F  </i>
   <i type="logical" name="LSMP2LT"> F  </i>
   <i type="logical" name="LGWLF"> F  </i>
   <i name="ENCUTGW">     -1.60000002</i>
   <i name="ENCUTGWSOFT">     -1.60000002</i>
   <i name="ENCUTLF">     -1.00000000</i>
   <i type="logical" name="LESF_SPLINES"> F  </i>
   <i type="int" name="LMAXMP2">    -1</i>
   <i name="SCISSOR">      0.00000000</i>
   <i type="int" name="NOMEGA">     0</i>
   <i type="int" name="NOMEGAR">     0</i>
   <i type="int" name="NBANDSGW">    -1</i>
   <i type="int" name="NBANDSO">    -1</i>
   <i type="int" name="NBANDSV">    -1</i>
   <i type="int" name="NELMGW">     1</i>
   <i type="int" name="NELMHF">     1</i>
   <i type="int" name="DIM">     3</i>
   <i type="int" name="IESPILON">     4</i>
   <i type="int" name="ANTIRES">     0</i>
   <i name="OMEGAMAX">    -30.00000000</i>
   <i name="OMEGAMIN">    -30.00000000</i>
   <i name="OMEGATL">   -200.00000000</i>
   <i type="int" name="OMEGAGRID">     0</i>
   <i name="CSHIFT">     -0.10000000</i>
   <i type="logical" name="LSELFENERGY"> F  </i>
   <i type="logical" name="LSPECTRAL"> F  </i>
   <i type="logical" name="LSPECTRALGW"> F  </i>
   <i type="logical" name="LSINGLES"> F  </i>
   <i type="logical" name="LFERMIGW"> F  </i>
   <i type="logical" name="ODDONLYGW"> F  </i>
   <i type="logical" name="EVENONLYGW"> F  </i>
   <i type="int" name="NKREDLFX">     1</i>
   <i type="int" name="NKREDLFY">     1</i>
   <i type="int" name="NKREDLFZ">     1</i>
   <i type="int" name="MAXMEM">  2800</i>
   <i type="int" name="TELESCOPE">     0</i>
   <i type="int" name="NTAUPAR">    -1</i>
   <i type="int" name="NOMEGAPAR">    -1</i>
   <i name="DAMP_NEWTON">      0.80000001</i>
   <i name="LAMBDA">      1.00000000</i>
  </separator>
  <separator name="External order field" >
   <i name="OFIELD_KAPPA">      0.00000000</i>
   <v name="OFIELD_K">      0.00000000      0.00000000      0.00000000</v>
   <i name="OFIELD_Q6_NEAR">      0.00000000</i>
   <i name="OFIELD_Q6_FAR">      0.00000000</i>
   <i name="OFIELD_A">      0.00000000</i>
  </separator>
  <separator name="optional k-points parameters" >
   <i type="int" name="KPOINTS_OPT_MODE">     1</i>
   <i type="logical" name="LKPOINTS_OPT"> F  </i>
  </separator>
 </parameters>
 <atominfo>
  <atoms>     119 </atoms>
  <types>       3 </types>
  <array name="atoms" >
   <dimension dim="1">ion</dimension>
   <field type="string">element</field>
   <field type="int">atomtype</field>
   <set>
    <rc><c>Ga</c><c>   1</c></rc>
    <rc><c>Ga</c><c>   1</c></rc>
    <rc><c>Ga</c><c>   1</c></rc>
    <rc><c>Ga</c><c>   1</c></rc>
    <rc><c>Ga</c><c>   1</c></rc>
    <rc><c>Ga</c><c>   1</c></rc>
    <rc><c>Ga</c><c>   1</c></rc>
    <rc><c>Ga</c><c>   1</c></rc>
    <rc><c>Ga</c><c>   1</c></rc>
    <rc><c>Ga</c><c>   1</c></rc>
    <rc><c>Ga</c><c>   1</c></rc>
    <rc><c>Ga</c><c>   1</c></rc>
    <rc><c>Ga</c><c>   1</c></rc>
    <rc><c>Ga</c><c>   1</c></rc>
    <rc><c>Ga</c><c>   1</c></rc>
    <rc><c>Ga</c><c>   1</c></rc>
    <rc><c>Ga</c><c>   1</c></rc>
    <rc><c>Ga</c><c>   1</c></rc>
    <rc><c>Ga</c><c>   1</c></rc>
    <rc><c>Ga</c><c>   1</c></rc>
    <rc><c>Ga</c><c>   1</c></rc>
    <rc><c>Ga</c><c>   1</c></rc>
    <rc><c>Ga</c><c>   1</c></rc>
    <rc><c>Ga</c><c>   1</c></rc>
    <rc><c>Ga</c><c>   1</c></rc>
    <rc><c>Ga</c><c>   1</c></rc>
    <rc><c>Ga</c><c>   1</c></rc>
    <rc><c>Ga</c><c>   1</c></rc>
    <rc><c>Ga</c><c>   1</c></rc>
    <rc><c>Ga</c><c>   1</c></rc>
    <rc><c>Ga</c><c>   1</c></rc>
    <rc><c>Ga</c><c>   1</c></rc>
    <rc><c>Ga</c><c>   1</c></rc>
    <rc><c>Ga</c><c>   1</c></rc>
    <rc><c>Ga</c><c>   1</c></rc>
    <rc><c>Ga</c><c>   1</c></rc>
    <rc><c>Ga</c><c>   1</c></rc>
    <rc><c>Ga</c><c>   1</c></rc>
    <rc><c>Ga</c><c>   1</c></rc>
    <rc><c>Ga</c><c>   1</c></rc>
    <rc><c>Ga</c><c>   1</c></rc>
    <rc><c>Ga</c><c>   1</c></rc>
    <rc><c>Ga</c><c>   1</c></rc>
    <rc><c>Ga</c><c>   1</c></rc>
    <rc><c>Ga</c><c>   1</c></rc>
    <rc><c>Ga</c><c>   1</c></rc>
    <rc><c>Ga</c><c>   1</c></rc>
    <rc><c>O </c><c>   2</c></rc>
    <rc><c>O </c><c>   2</c></rc>
    <rc><c>O </c><c>   2</c></rc>
    <rc><c>O </c><c>   2</c></rc>
    <rc><c>O </c><c>   2</c></rc>
    <rc><c>O </c><c>   2</c></rc>
    <rc><c>O </c><c>   2</c></rc>
    <rc><c>O </c><c>   2</c></rc>
    <rc><c>O </c><c>   2</c></rc>
    <rc><c>O </c><c>   2</c></rc>
    <rc><c>O </c><c>   2</c></rc>
    <rc><c>O </c><c>   2</c></rc>
    <rc><c>O </c><c>   2</c></rc>
    <rc><c>O </c><c>   2</c></rc>
    <rc><c>O </c><c>   2</c></rc>
    <rc><c>O </c><c>   2</c></rc>
    <rc><c>O </c><c>   2</c></rc>
    <rc><c>O </c><c>   2</c></rc>
    <rc><c>O </c><c>   2</c></rc>
    <rc><c>O </c><c>   2</c></rc>
    <rc><c>O </c><c>   2</c></rc>
    <rc><c>O </c><c>   2</c></rc>
    <rc><c>O </c><c>   2</c></rc>
    <rc><c>O </c><c>   2</c></rc>
    <rc><c>O </c><c>   2</c></rc>
    <rc><c>O </c><c>   2</c></rc>
    <rc><c>O </c><c>   2</c></rc>
    <rc><c>O </c><c>   2</c></rc>
    <rc><c>O </c><c>   2</c></rc>
    <rc><c>O </c><c>   2</c></rc>
    <rc><c>O </c><c>   2</c></rc>
    <rc><c>O </c><c>   2</c></rc>
    <rc><c>O </c><c>   2</c></rc>
    <rc><c>O </c><c>   2</c></rc>
    <rc><c>O </c><c>   2</c></rc>
    <rc><c>O </c><c>   2</c></rc>
    <rc><c>O </c><c>   2</c></rc>
    <rc><c>O </c><c>   2</c></rc>
    <rc><c>O </c><c>   2</c></rc>
    <rc><c>O </c><c>   2</c></rc>
    <rc><c>O </c><c>   2</c></rc>
    <rc><c>O </c><c>   2</c></rc>
    <rc><c>O </c><c>   2</c></rc>
    <rc><c>O </c><c>   2</c></rc>
    <rc><c>O </c><c>   2</c></rc>
    <rc><c>O </c><c>   2</c></rc>
    <rc><c>O </c><c>   2</c></rc>
    <rc><c>O </c><c>   2</c></rc>
    <rc><c>O </c><c>   2</c></rc>
    <rc><c>O </c><c>   2</c></rc>
    <rc><c>O </c><c>   2</c></rc>
    <rc><c>O </c><c>   2</c></rc>
    <rc><c>O </c><c>   2</c></rc>
    <rc><c>O </c><c>   2</c></rc>
    <rc><c>O </c><c>   2</c></rc>
    <rc><c>O </c><c>   2</c></rc>
    <rc><c>O </c><c>   2</c></rc>
    <rc><c>O </c><c>   2</c></rc>
    <rc><c>O </c><c>   2</c></rc>
    <rc><c>O </c><c>   2</c></rc>
    <rc><c>O </c><c>   2</c></rc>
    <rc><c>O </c><c>   2</c></rc>
    <rc><c>O </c><c>   2</c></rc>
    <rc><c>O </c><c>   2</c></rc>
    <rc><c>O </c><c>   2</c></rc>
    <rc><c>O </c><c>   2</c></rc>
    <rc><c>O </c><c>   2</c></rc>
    <rc><c>O </c><c>   2</c></rc>
    <rc><c>O </c><c>   2</c></rc>
    <rc><c>O </c><c>   2</c></rc>
    <rc><c>O </c><c>   2</c></rc>
    <rc><c>P </c><c>   3</c></rc>
   </set>
  </array>
  <array name="atomtypes" >
   <dimension dim="1">type</dimension>
   <field type="int">atomspertype</field>
   <field type="string">element</field>
   <field>mass</field>
   <field>valence</field>
   <field type="string">pseudopotential</field>
   <set>
    <rc><c>  47</c><c>Ga</c><c>     69.72300000</c><c>     13.00000000</c><c>  PAW_PBE Ga_d 06Jul2010                </c></rc>
    <rc><c>  71</c><c>O </c><c>     16.00000000</c><c>      6.00000000</c><c>   PAW_PBE O 08Apr2002                  </c></rc>
    <rc><c>   1</c><c>P </c><c>     30.97400000</c><c>      5.00000000</c><c>  PAW_PBE P 06Sep2000                   </c></rc>
   </set>
  </array>
 </atominfo>
 <structure name="initialpos" >
  <crystal>
   <varray name="basis" >
    <v>       0.00000000      12.28047342       0.00000000 </v>
    <v>       9.14270205       0.00000000       0.00000000 </v>
    <v>       0.00000000      -2.76826177     -11.30069772 </v>
   </varray>
   <i name="volume">   1268.80515525 </i>
   <varray name="rec_basis" >
    <v>       0.00000000       0.08143009      -0.01994742 </v>
    <v>       0.10937686      -0.00000000       0.00000000 </v>
    <v>       0.00000000       0.00000000      -0.08849011 </v>
   </varray>
  </crystal>
  <varray name="positions" >
   <v>       0.65866321       0.00000000       0.15830761 </v>
   <v>       0.66459437       0.00000000       0.65221373 </v>
   <v>       0.65879654       0.33294819       0.15650607 </v>
   <v>       0.66844310       0.33005085       0.65790021 </v>
   <v>       0.65879654       0.66705181       0.15650607 </v>
   <v>       0.66844310       0.66994915       0.65790021 </v>
   <v>       0.84160342       0.16776582       0.34311175 </v>
   <v>       0.85271868       0.16607397       0.83839463 </v>
   <v>       0.84056743       0.50000000       0.34442256 </v>
   <v>       0.81870292       0.50000000       0.89667210 </v>
   <v>       0.84160342       0.83223418       0.34311175 </v>
   <v>       0.85271868       0.83392603       0.83839463 </v>
   <v>       0.58611024       0.16391173       0.39357797 </v>
   <v>       0.60160047       0.16403552       0.89629734 </v>
   <v>       0.59747864       0.50000000       0.40123703 </v>
   <v>       0.58018847       0.50000000       0.89189487 </v>
   <v>       0.58611024       0.83608827       0.39357797 </v>
   <v>       0.60160047       0.83596448       0.89629734 </v>
   <v>       0.91710945       0.00000000       0.10522516 </v>
   <v>       0.91642024       0.00000000       0.59310708 </v>
   <v>       0.89675080       0.36164910       0.09220271 </v>
   <v>       0.91108956       0.33324057       0.59982730 </v>
   <v>       0.89675080       0.63835090       0.09220271 </v>
   <v>       0.91108956       0.66675943       0.59982730 </v>
   <v>       0.14957735       0.16360237       0.15713638 </v>
   <v>       0.16381246       0.16233861       0.64604492 </v>
   <v>       0.16787309       0.50000000       0.16061857 </v>
   <v>       0.16388180       0.50000000       0.65259727 </v>
   <v>       0.14957735       0.83639763       0.15713638 </v>
   <v>       0.16381246       0.83766139       0.64604492 </v>
   <v>       0.32626880       0.00000000       0.34505144 </v>
   <v>       0.34156760       0.00000000       0.84405024 </v>
   <v>       0.34166881       0.33214140       0.34517881 </v>
   <v>       0.33851864       0.32984519       0.84060339 </v>
   <v>       0.34166881       0.66785860       0.34517881 </v>
   <v>       0.33851864       0.67015481       0.84060339 </v>
   <v>       0.08942091       0.00000000       0.89191110 </v>
   <v>       0.08638513       0.32623447       0.39420332 </v>
   <v>       0.09663547       0.36892891       0.89948077 </v>
   <v>       0.08638513       0.67376553       0.39420332 </v>
   <v>       0.09663547       0.63107109       0.89948077 </v>
   <v>       0.40482188       0.16704700       0.10316028 </v>
   <v>       0.41559318       0.16817512       0.60683816 </v>
   <v>       0.40951511       0.50000000       0.10219110 </v>
   <v>       0.41565060       0.50000000       0.60406183 </v>
   <v>       0.40482188       0.83295300       0.10316028 </v>
   <v>       0.41559318       0.83182488       0.60683816 </v>
   <v>       0.98126571       0.18668276       0.11211977 </v>
   <v>       0.00209412       0.16780061       0.62651063 </v>
   <v>       0.01770201       0.50000000       0.15567735 </v>
   <v>       0.00162200       0.50000000       0.62948780 </v>
   <v>       0.98126571       0.81331724       0.11211977 </v>
   <v>       0.00209412       0.83219939       0.62651063 </v>
   <v>       0.49509213       0.00000000       0.37005120 </v>
   <v>       0.50520430       0.00000000       0.87477674 </v>
   <v>       0.50539422       0.33647164       0.37367547 </v>
   <v>       0.50290598       0.32509826       0.87174436 </v>
   <v>       0.50539422       0.66352836       0.37367547 </v>
   <v>       0.50290598       0.67490174       0.87174436 </v>
   <v>       0.67078673       0.16505555       0.27932890 </v>
   <v>       0.67070782       0.15782012       0.76946033 </v>
   <v>       0.66949082       0.50000000       0.27700228 </v>
   <v>       0.67405945       0.50000000       0.78167544 </v>
   <v>       0.67078673       0.83494445       0.27932890 </v>
   <v>       0.67070782       0.84217988       0.76946033 </v>
   <v>       0.82729906       0.00000000       0.21690785 </v>
   <v>       0.83633057       0.00000000       0.71550071 </v>
   <v>       0.82395132       0.33523984       0.22090439 </v>
   <v>       0.82771491       0.31300385       0.71118152 </v>
   <v>       0.82395132       0.66476016       0.22090439 </v>
   <v>       0.82771491       0.68699615       0.71118152 </v>
   <v>       0.82259390       0.00000000       0.44332448 </v>
   <v>       0.84488740       0.00000000       0.94202759 </v>
   <v>       0.82038657       0.33698769       0.44644174 </v>
   <v>       0.80042474       0.29603512       0.93950152 </v>
   <v>       0.82038657       0.66301231       0.44644174 </v>
   <v>       0.80042474       0.70396488       0.93950152 </v>
   <v>       0.66414007       0.16408160       0.05751296 </v>
   <v>       0.66583547       0.16461598       0.54807018 </v>
   <v>       0.65441866       0.50000000       0.05103329 </v>
   <v>       0.67301063       0.50000000       0.55827657 </v>
   <v>       0.66414007       0.83591840       0.05751296 </v>
   <v>       0.66583547       0.83538402       0.54807018 </v>
   <v>       0.49462578       0.00000000       0.12655079 </v>
   <v>       0.50029572       0.00000000       0.62559818 </v>
   <v>       0.49711643       0.33160680       0.12752124 </v>
   <v>       0.50544616       0.33435501       0.63058169 </v>
   <v>       0.49711643       0.66839320       0.12752124 </v>
   <v>       0.50544616       0.66564499       0.63058169 </v>
   <v>       0.99333563       0.17580888       0.38457629 </v>
   <v>       0.01419087       0.18134738       0.87310724 </v>
   <v>       0.00230993       0.50000000       0.38492502 </v>
   <v>       0.95754806       0.50000000       0.86788332 </v>
   <v>       0.99333563       0.82419112       0.38457629 </v>
   <v>       0.01419087       0.81865262       0.87310724 </v>
   <v>       0.17574025       0.00000000       0.78085535 </v>
   <v>       0.17913963       0.34153184       0.29069803 </v>
   <v>       0.17566965       0.32510930       0.76938671 </v>
   <v>       0.17913963       0.65846816       0.29069803 </v>
   <v>       0.17566965       0.67489070       0.76938671 </v>
   <v>       0.33366848       0.17284039       0.22500542 </v>
   <v>       0.33523042       0.16648344       0.72250515 </v>
   <v>       0.33281851       0.50000000       0.22399226 </v>
   <v>       0.33224171       0.50000000       0.71909112 </v>
   <v>       0.33366848       0.82715961       0.22500542 </v>
   <v>       0.33523042       0.83351656       0.72250515 </v>
   <v>       0.34405709       0.17253995       0.45179415 </v>
   <v>       0.33058449       0.16676033       0.94572406 </v>
   <v>       0.34170151       0.50000000       0.44833003 </v>
   <v>       0.34117515       0.50000000       0.94239168 </v>
   <v>       0.34405709       0.82746005       0.45179415 </v>
   <v>       0.33058449       0.83323967       0.94572406 </v>
   <v>       0.16908810       0.00000000       0.04580779 </v>
   <v>       0.18407729       0.00000000       0.55892322 </v>
   <v>       0.17321206       0.32586337       0.06298663 </v>
   <v>       0.17513546       0.33505515       0.54848426 </v>
   <v>       0.17321206       0.67413663       0.06298663 </v>
   <v>       0.17513546       0.66494485       0.54848426 </v>
   <v>       0.13525045       0.00000000       0.30038198 </v>
  </varray>
 </structure>
 <calculation>
  <scstep>
   <time name="total">    4.01    4.01</time>
   <energy>
    <i name="alphaZ">   5376.25786726 </i>
    <i name="ewald"> -86518.53378655 </i>
    <i name="hartreedc">  -2122.00725277 </i>
    <i name="XCdc">   2816.07368616 </i>
    <i name="pawpsdc"> 350390.65296678 </i>
    <i name="pawaedc">-379191.90577097 </i>
    <i name="eentropy">     -0.00778177 </i>
    <i name="bandstr"> -40178.43709694 </i>
    <i name="atom"> 131500.23896116 </i>
    <i name="e_fr_energy"> -17927.66820765 </i>
    <i name="e_wo_entrp"> -17927.66042587 </i>
    <i name="e_0_energy"> -17927.66431676 </i>
   </energy>
  </scstep>
  <scstep>
   <time name="total">    3.21    3.21</time>
   <energy>
    <i name="e_fr_energy"> -63615.24722555 </i>
    <i name="e_wo_entrp"> -63615.23031204 </i>
    <i name="e_0_energy"> -63615.23876880 </i>
   </energy>
  </scstep>
  <scstep>
   <time name="total">    3.51    3.51</time>
   <energy>
    <i name="e_fr_energy"> -69433.63699263 </i>
    <i name="e_wo_entrp"> -69433.61360468 </i>
    <i name="e_0_energy"> -69433.62529866 </i>
   </energy>
  </scstep>
  <scstep>
   <time name="total">    4.03    4.04</time>
   <energy>
    <i name="e_fr_energy"> -70359.85170747 </i>
    <i name="e_wo_entrp"> -70359.83399156 </i>
    <i name="e_0_energy"> -70359.84284952 </i>
   </energy>
  </scstep>
  <scstep>
   <time name="total">  234.81  234.81</time>
   <energy>
    <i name="e_fr_energy"> -40776.12132539 </i>
    <i name="e_wo_entrp"> -40776.12132124 </i>
    <i name="e_0_energy"> -40776.12132332 </i>
   </energy>
  </scstep>
  <scstep>
   <time name="total">  469.98  469.95</time>
   <energy>
    <i name="e_fr_energy">  44476.97607787 </i>
    <i name="e_wo_entrp">  44477.01374738 </i>
    <i name="e_0_energy">  44476.99491262 </i>
   </energy>
  </scstep>
  <scstep>
   <time name="total">  470.24  470.27</time>
   <energy>
    <i name="e_fr_energy">  14726.49611535 </i>
    <i name="e_wo_entrp">  14726.52330452 </i>
    <i name="e_0_energy">  14726.50970993 </i>
   </energy>
  </scstep>
  <scstep>
   <time name="total">  469.65  469.67</time>
   <energy>
    <i name="e_fr_energy">   8555.33793882 </i>
    <i name="e_wo_entrp">   8555.37558140 </i>
    <i name="e_0_energy">   8555.35676011 </i>
   </energy>
  </scstep>
  <scstep>
   <time name="total">  469.77  469.78</time>
   <energy>
    <i name="e_fr_energy">   5033.95109519 </i>
    <i name="e_wo_entrp">   5033.97302882 </i>
    <i name="e_0_energy">   5033.96206200 </i>
   </energy>
  </scstep>
  <scstep>
   <time name="total">  469.34  469.37</time>
   <energy>
    <i name="e_fr_energy">   3106.32184413 </i>
    <i name="e_wo_entrp">   3106.34872627 </i>
    <i name="e_0_energy">   3106.33528520 </i>
   </energy>
  </scstep>
  <scstep>
   <time name="total">  468.88  468.86</time>
   <energy>
    <i name="e_fr_energy">   1635.28565583 </i>
    <i name="e_wo_entrp">   1635.30515642 </i>
    <i name="e_0_energy">   1635.29540612 </i>
   </energy>
  </scstep>
  <scstep>
   <time name="total">  469.24  469.22</time>
   <energy>
    <i name="e_fr_energy">    606.10867193 </i>
    <i name="e_wo_entrp">    606.11866924 </i>
    <i name="e_0_energy">    606.11367058 </i>
   </energy>
  </scstep>
  <scstep>
   <time name="total">  468.88  468.90</time>
   <energy>
    <i name="e_fr_energy">     -5.95122674 </i>
    <i name="e_wo_entrp">     -5.93691386 </i>
    <i name="e_0_energy">     -5.94407030 </i>
   </energy>
  </scstep>
  <scstep>
   <time name="total">  468.78  468.78</time>
   <energy>
    <i name="e_fr_energy">   -421.06729067 </i>
    <i name="e_wo_entrp">   -421.05340679 </i>
    <i name="e_0_energy">   -421.06034873 </i>
   </energy>
  </scstep>
  <scstep>
   <time name="total">  468.74  468.76</time>
   <energy>
    <i name="e_fr_energy">   -590.31175377 </i>
    <i name="e_wo_entrp">   -590.29386590 </i>
    <i name="e_0_energy">   -590.30280984 </i>
   </energy>
  </scstep>
  <scstep>
   <time name="total">  468.95  468.97</time>
   <energy>
    <i name="e_fr_energy">   -663.08989153 </i>
    <i name="e_wo_entrp">   -663.08100150 </i>
    <i name="e_0_energy">   -663.08544651 </i>
   </energy>
  </scstep>
  <scstep>
   <time name="total">  468.82  468.81</time>
   <energy>
    <i name="e_fr_energy">   -713.28515631 </i>
    <i name="e_wo_entrp">   -713.27427240 </i>
    <i name="e_0_energy">   -713.27971435 </i>
   </energy>
  </scstep>
  <scstep>
   <time name="total">  468.48  468.47</time>
   <energy>
    <i name="e_fr_energy">   -752.04347127 </i>
    <i name="e_wo_entrp">   -752.03370237 </i>
    <i name="e_0_energy">   -752.03858682 </i>
   </energy>
  </scstep>
  <scstep>
   <time name="total">  468.77  468.75</time>
   <energy>
    <i name="e_fr_energy">   -780.13947505 </i>
    <i name="e_wo_entrp">   -780.13207913 </i>
    <i name="e_0_energy">   -780.13577709 </i>
   </energy>
  </scstep>
  <scstep>
   <time name="total">  469.02  469.00</time>
   <energy>
    <i name="e_fr_energy">   -800.26198610 </i>
    <i name="e_wo_entrp">   -800.25454577 </i>
    <i name="e_0_energy">   -800.25826593 </i>
   </energy>
  </scstep>
  <scstep>
   <time name="total">  468.79  468.80</time>
   <energy>
    <i name="e_fr_energy">   -814.09761848 </i>
    <i name="e_wo_entrp">   -814.09332440 </i>
    <i name="e_0_energy">   -814.09547144 </i>
   </energy>
  </scstep>
  <scstep>
   <time name="total">  468.79  468.78</time>
   <energy>
    <i name="e_fr_energy">   -823.16319915 </i>
    <i name="e_wo_entrp">   -823.15793617 </i>
    <i name="e_0_energy">   -823.16056766 </i>
   </energy>
  </scstep>
  <scstep>
   <time name="total">  468.51  468.54</time>
   <energy>
    <i name="e_fr_energy">   -828.68593271 </i>
    <i name="e_wo_entrp">   -828.67728493 </i>
    <i name="e_0_energy">   -828.68160882 </i>
   </energy>
  </scstep>
  <scstep>
   <time name="total">  468.42  468.42</time>
   <energy>
    <i name="e_fr_energy">   -832.01363400 </i>
    <i name="e_wo_entrp">   -831.99995182 </i>
    <i name="e_0_energy">   -832.00679291 </i>
   </energy>
  </scstep>
  <scstep>
   <time name="total">  468.37  468.34</time>
   <energy>
    <i name="e_fr_energy">   -834.00129316 </i>
    <i name="e_wo_entrp">   -833.98982205 </i>
    <i name="e_0_energy">   -833.99555760 </i>
   </energy>
  </scstep>
  <scstep>
   <time name="total">  468.81  468.79</time>
   <energy>
    <i name="e_fr_energy">   -835.32472494 </i>
    <i name="e_wo_entrp">   -835.31551195 </i>
    <i name="e_0_energy">   -835.32011845 </i>
   </energy>
  </scstep>
  <scstep>
   <time name="total">  468.60  468.58</time>
   <energy>
    <i name="e_fr_energy">   -836.17347438 </i>
    <i name="e_wo_entrp">   -836.16530206 </i>
    <i name="e_0_energy">   -836.16938822 </i>
   </energy>
  </scstep>
  <scstep>
   <time name="total">  468.57  468.57</time>
   <energy>
    <i name="e_fr_energy">   -836.76406668 </i>
    <i name="e_wo_entrp">   -836.75618955 </i>
    <i name="e_0_energy">   -836.76012811 </i>
   </energy>
  </scstep>
  <scstep>
   <time name="total">  468.61  468.60</time>
   <energy>
    <i name="e_fr_energy">   -837.17245301 </i>
    <i name="e_wo_entrp">   -837.16475198 </i>
    <i name="e_0_energy">   -837.16860250 </i>
   </energy>
  </scstep>
  <scstep>
   <time name="total">  468.56  468.57</time>
   <energy>
    <i name="e_fr_energy">   -837.40958972 </i>
    <i name="e_wo_entrp">   -837.40247673 </i>
    <i name="e_0_energy">   -837.40603323 </i>
   </energy>
  </scstep>
  <scstep>
   <time name="total">  468.41  468.41</time>
   <energy>
    <i name="e_fr_energy">   -837.56896452 </i>
    <i name="e_wo_entrp">   -837.56253055 </i>
    <i name="e_0_energy">   -837.56574754 </i>
   </energy>
  </scstep>
  <scstep>
   <time name="total">  468.40  468.41</time>
   <energy>
    <i name="e_fr_energy">   -837.67062167 </i>
    <i name="e_wo_entrp">   -837.66425569 </i>
    <i name="e_0_energy">   -837.66743868 </i>
   </energy>
  </scstep>
  <scstep>
   <time name="total">  468.69  468.67</time>
   <energy>
    <i name="e_fr_energy">   -837.73533037 </i>
    <i name="e_wo_entrp">   -837.72852357 </i>
    <i name="e_0_energy">   -837.73192697 </i>
   </energy>
  </scstep>
  <scstep>
   <time name="total">  468.73  468.71</time>
   <energy>
    <i name="e_fr_energy">   -837.77963395 </i>
    <i name="e_wo_entrp">   -837.77246521 </i>
    <i name="e_0_energy">   -837.77604958 </i>
   </energy>
  </scstep>
  <scstep>
   <time name="total">  468.64  468.63</time>
   <energy>
    <i name="e_fr_energy">   -837.81064560 </i>
    <i name="e_wo_entrp">   -837.80351935 </i>
    <i name="e_0_energy">   -837.80708248 </i>
   </energy>
  </scstep>
  <scstep>
   <time name="total">  468.64  468.61</time>
   <energy>
    <i name="e_fr_energy">   -837.83148749 </i>
    <i name="e_wo_entrp">   -837.82448696 </i>
    <i name="e_0_energy">   -837.82798722 </i>
   </energy>
  </scstep>
  <scstep>
   <time name="total">  468.69  468.68</time>
   <energy>
    <i name="e_fr_energy">   -837.84453192 </i>
    <i name="e_wo_entrp">   -837.83728618 </i>
    <i name="e_0_energy">   -837.84090905 </i>
   </energy>
  </scstep>
  <scstep>
   <time name="total">  468.45  468.44</time>
   <energy>
    <i name="e_fr_energy">   -837.86108477 </i>
    <i name="e_wo_entrp">   -837.85411293 </i>
    <i name="e_0_energy">   -837.85759885 </i>
   </energy>
  </scstep>
  <scstep>
   <time name="total">  468.71  468.73</time>
   <energy>
    <i name="e_fr_energy">   -837.86710563 </i>
    <i name="e_wo_entrp">   -837.86005431 </i>
    <i name="e_0_energy">   -837.86357997 </i>
   </energy>
  </scstep>
  <scstep>
   <time name="total">  468.54  468.55</time>
   <energy>
    <i name="e_fr_energy">   -837.86886610 </i>
    <i name="e_wo_entrp">   -837.86181105 </i>
    <i name="e_0_energy">   -837.86533858 </i>
   </energy>
  </scstep>
  <scstep>
   <time name="total">  468.47  468.46</time>
   <energy>
    <i name="e_fr_energy">   -837.86938437 </i>
    <i name="e_wo_entrp">   -837.86234775 </i>
    <i name="e_0_energy">   -837.86586606 </i>
   </energy>
  </scstep>
  <scstep>
   <time name="total">  468.64  468.65</time>
   <energy>
    <i name="e_fr_energy">   -837.86952626 </i>
    <i name="e_wo_entrp">   -837.86248650 </i>
    <i name="e_0_energy">   -837.86600638 </i>
   </energy>
  </scstep>
  <scstep>
   <time name="total">  468.50  468.48</time>
   <energy>
    <i name="e_fr_energy">   -837.86956387 </i>
    <i name="e_wo_entrp">   -837.86252864 </i>
    <i name="e_0_energy">   -837.86604625 </i>
   </energy>
  </scstep>
  <scstep>
   <time name="total">  468.41  468.40</time>
   <energy>
    <i name="e_fr_energy">   -837.86957627 </i>
    <i name="e_wo_entrp">   -837.86254465 </i>
    <i name="e_0_energy">   -837.86606046 </i>
   </energy>
  </scstep>
  <scstep>
   <time name="total">  698.63  698.60</time>
   <energy>
    <i name="alphaZ">   5376.25786726 </i>
    <i name="ewald"> -86518.53378655 </i>
    <i name="hartreedc"> -34049.26112335 </i>
    <i name="XCdc">   2906.75619435 </i>
    <i name="pawpsdc"> 121915.23939401 </i>
    <i name="pawaedc">-137186.75347712 </i>
    <i name="eentropy">     -0.00703116 </i>
    <i name="bandstr">  -8650.76768552 </i>
    <i name="atom"> 131500.23896116 </i>
    <i name="e_fr_energy">   -837.86958084 </i>
    <i name="e_wo_entrp">   -837.86254968 </i>
    <i name="e_0_energy">   -837.86606526 </i>
   </energy>
  </scstep>
  <structure>
   <crystal>
    <varray name="basis" >
     <v>       0.00000000      12.28047342       0.00000000 </v>
     <v>       9.14270205       0.00000000       0.00000000 </v>
     <v>       0.00000000      -2.76826177     -11.30069772 </v>
    </varray>
    <i name="volume">   1268.80515525 </i>
    <varray name="rec_basis" >
     <v>       0.00000000       0.08143009      -0.01994742 </v>
     <v>       0.10937686      -0.00000000       0.00000000 </v>
     <v>       0.00000000       0.00000000      -0.08849011 </v>
    </varray>
   </crystal>
   <varray name="positions" >
    <v>       0.65866321       0.00000000       0.15830761 </v>
    <v>       0.66459437       0.00000000       0.65221373 </v>
    <v>       0.65879654       0.33294819       0.15650607 </v>
    <v>       0.66844310       0.33005085       0.65790021 </v>
    <v>       0.65879654       0.66705181       0.15650607 </v>
    <v>       0.66844310       0.66994915       0.65790021 </v>
    <v>       0.84160342       0.16776582       0.34311175 </v>
    <v>       0.85271868       0.16607397       0.83839463 </v>
    <v>       0.84056743       0.50000000       0.34442256 </v>
    <v>       0.81870292       0.50000000       0.89667210 </v>
    <v>       0.84160342       0.83223418       0.34311175 </v>
    <v>       0.85271868       0.83392603       0.83839463 </v>
    <v>       0.58611024       0.16391173       0.39357797 </v>
    <v>       0.60160047       0.16403552       0.89629734 </v>
    <v>       0.59747864       0.50000000       0.40123703 </v>
    <v>       0.58018847       0.50000000       0.89189487 </v>
    <v>       0.58611024       0.83608827       0.39357797 </v>
    <v>       0.60160047       0.83596448       0.89629734 </v>
    <v>       0.91710945       0.00000000       0.10522516 </v>
    <v>       0.91642024       0.00000000       0.59310708 </v>
    <v>       0.89675080       0.36164910       0.09220271 </v>
    <v>       0.91108956       0.33324057       0.59982730 </v>
    <v>       0.89675080       0.63835090       0.09220271 </v>
    <v>       0.91108956       0.66675943       0.59982730 </v>
    <v>       0.14957735       0.16360237       0.15713638 </v>
    <v>       0.16381246       0.16233861       0.64604492 </v>
    <v>       0.16787309       0.50000000       0.16061857 </v>
    <v>       0.16388180       0.50000000       0.65259727 </v>
    <v>       0.14957735       0.83639763       0.15713638 </v>
    <v>       0.16381246       0.83766139       0.64604492 </v>
    <v>       0.32626880       0.00000000       0.34505144 </v>
    <v>       0.34156760       0.00000000       0.84405024 </v>
    <v>       0.34166881       0.33214140       0.34517881 </v>
    <v>       0.33851864       0.32984519       0.84060339 </v>
    <v>       0.34166881       0.66785860       0.34517881 </v>
    <v>       0.33851864       0.67015481       0.84060339 </v>
    <v>       0.08942091       0.00000000       0.89191110 </v>
    <v>       0.08638513       0.32623447       0.39420332 </v>
    <v>       0.09663547       0.36892891       0.89948077 </v>
    <v>       0.08638513       0.67376553       0.39420332 </v>
    <v>       0.09663547       0.63107109       0.89948077 </v>
    <v>       0.40482188       0.16704700       0.10316028 </v>
    <v>       0.41559318       0.16817512       0.60683816 </v>
    <v>       0.40951511       0.50000000       0.10219110 </v>
    <v>       0.41565060       0.50000000       0.60406183 </v>
    <v>       0.40482188       0.83295300       0.10316028 </v>
    <v>       0.41559318       0.83182488       0.60683816 </v>
    <v>       0.98126571       0.18668276       0.11211977 </v>
    <v>       0.00209412       0.16780061       0.62651063 </v>
    <v>       0.01770201       0.50000000       0.15567735 </v>
    <v>       0.00162200       0.50000000       0.62948780 </v>
    <v>       0.98126571       0.81331724       0.11211977 </v>
    <v>       0.00209412       0.83219939       0.62651063 </v>
    <v>       0.49509213       0.00000000       0.37005120 </v>
    <v>       0.50520430       0.00000000       0.87477674 </v>
    <v>       0.50539422       0.33647164       0.37367547 </v>
    <v>       0.50290598       0.32509826       0.87174436 </v>
    <v>       0.50539422       0.66352836       0.37367547 </v>
    <v>       0.50290598       0.67490174       0.87174436 </v>
    <v>       0.67078673       0.16505555       0.27932890 </v>
    <v>       0.67070782       0.15782012       0.76946033 </v>
    <v>       0.66949082       0.50000000       0.27700228 </v>
    <v>       0.67405945       0.50000000       0.78167544 </v>
    <v>       0.67078673       0.83494445       0.27932890 </v>
    <v>       0.67070782       0.84217988       0.76946033 </v>
    <v>       0.82729906       0.00000000       0.21690785 </v>
    <v>       0.83633057       0.00000000       0.71550071 </v>
    <v>       0.82395132       0.33523984       0.22090439 </v>
    <v>       0.82771491       0.31300385       0.71118152 </v>
    <v>       0.82395132       0.66476016       0.22090439 </v>
    <v>       0.82771491       0.68699615       0.71118152 </v>
    <v>       0.82259390       0.00000000       0.44332448 </v>
    <v>       0.84488740       0.00000000       0.94202759 </v>
    <v>       0.82038657       0.33698769       0.44644174 </v>
    <v>       0.80042474       0.29603512       0.93950152 </v>
    <v>       0.82038657       0.66301231       0.44644174 </v>
    <v>       0.80042474       0.70396488       0.93950152 </v>
    <v>       0.66414007       0.16408160       0.05751296 </v>
    <v>       0.66583547       0.16461598       0.54807018 </v>
    <v>       0.65441866       0.50000000       0.05103329 </v>
    <v>       0.67301063       0.50000000       0.55827657 </v>
    <v>       0.66414007       0.83591840       0.05751296 </v>
    <v>       0.66583547       0.83538402       0.54807018 </v>
    <v>       0.49462578       0.00000000       0.12655079 </v>
    <v>       0.50029572       0.00000000       0.62559818 </v>
    <v>       0.49711643       0.33160680       0.12752124 </v>
    <v>       0.50544616       0.33435501       0.63058169 </v>
    <v>       0.49711643       0.66839320       0.12752124 </v>
    <v>       0.50544616       0.66564499       0.63058169 </v>
    <v>       0.99333563       0.17580888       0.38457629 </v>
    <v>       0.01419087       0.18134738       0.87310724 </v>
    <v>       0.00230993       0.50000000       0.38492502 </v>
    <v>       0.95754806       0.50000000       0.86788332 </v>
    <v>       0.99333563       0.82419112       0.38457629 </v>
    <v>       0.01419087       0.81865262       0.87310724 </v>
    <v>       0.17574025       0.00000000       0.78085535 </v>
    <v>       0.17913963       0.34153184       0.29069803 </v>
    <v>       0.17566965       0.32510930       0.76938671 </v>
    <v>       0.17913963       0.65846816       0.29069803 </v>
    <v>       0.17566965       0.67489070       0.76938671 </v>
    <v>       0.33366848       0.17284039       0.22500542 </v>
    <v>       0.33523042       0.16648344       0.72250515 </v>
    <v>       0.33281851       0.50000000       0.22399226 </v>
    <v>       0.33224171       0.50000000       0.71909112 </v>
    <v>       0.33366848       0.82715961       0.22500542 </v>
    <v>       0.33523042       0.83351656       0.72250515 </v>
    <v>       0.34405709       0.17253995       0.45179415 </v>
    <v>       0.33058449       0.16676033       0.94572406 </v>
    <v>       0.34170151       0.50000000       0.44833003 </v>
    <v>       0.34117515       0.50000000       0.94239168 </v>
    <v>       0.34405709       0.82746005       0.45179415 </v>
    <v>       0.33058449       0.83323967       0.94572406 </v>
    <v>       0.16908810       0.00000000       0.04580779 </v>
    <v>       0.18407729       0.00000000       0.55892322 </v>
    <v>       0.17321206       0.32586337       0.06298663 </v>
    <v>       0.17513546       0.33505515       0.54848426 </v>
    <v>       0.17321206       0.67413663       0.06298663 </v>
    <v>       0.17513546       0.66494485       0.54848426 </v>
    <v>       0.13525045       0.00000000       0.30038198 </v>
   </varray>
  </structure>
  <varray name="forces" >
   <v>       0.00000000       0.05352257       0.06806214 </v>
   <v>       0.00000000      -0.01503620      -0.09125701 </v>
   <v>      -0.01133903       0.01399729       0.02430872 </v>
   <v>      -0.06327370       0.13957618      -0.00647100 </v>
   <v>       0.01133903       0.01399729       0.02430872 </v>
   <v>       0.06327370       0.13957618      -0.00647100 </v>
   <v>      -0.00546693       0.11438835      -0.11852463 </v>
   <v>       0.10809292      -0.13858254      -0.05839082 </v>
   <v>       0.00000000      -0.10816128      -0.07274956 </v>
   <v>       0.00000000       0.19154304       0.03995088 </v>
   <v>       0.00546693       0.11438835      -0.11852463 </v>
   <v>      -0.10809292      -0.13858254      -0.05839082 </v>
   <v>       0.04205492       0.02501559      -0.02903433 </v>
   <v>      -0.02252691      -0.08109389      -0.00422654 </v>
   <v>       0.00000000      -0.04585430       0.04667017 </v>
   <v>       0.00000000      -0.06366943      -0.04985981 </v>
   <v>      -0.04205492       0.02501559      -0.02903433 </v>
   <v>       0.02252691      -0.08109389      -0.00422654 </v>
   <v>       0.00000000      -0.12431258       0.08684340 </v>
   <v>       0.00000000       0.00661043      -0.02566949 </v>
   <v>      -0.11261994       0.00601612      -0.08327661 </v>
   <v>      -0.03770496      -0.05512842      -0.09800082 </v>
   <v>       0.11261994       0.00601612      -0.08327661 </v>
   <v>       0.03770496      -0.05512842      -0.09800082 </v>
   <v>       0.15478054       0.06791854       0.16969789 </v>
   <v>      -0.04670632       0.01909899       0.06106976 </v>
   <v>       0.00000000      -0.13838724      -0.07094745 </v>
   <v>       0.00000000       0.03291480      -0.01771599 </v>
   <v>      -0.15478054       0.06791854       0.16969789 </v>
   <v>       0.04670632       0.01909899       0.06106976 </v>
   <v>       0.00000000       0.11286635      -0.10544878 </v>
   <v>       0.00000000      -0.06912386      -0.01985044 </v>
   <v>      -0.04257450      -0.09188301       0.00496929 </v>
   <v>      -0.03738126      -0.07978162      -0.00275565 </v>
   <v>       0.04257450      -0.09188301       0.00496929 </v>
   <v>       0.03738126      -0.07978162      -0.00275565 </v>
   <v>       0.00000000       0.18515708      -0.04092638 </v>
   <v>      -0.09178429      -0.01844442      -0.07682328 </v>
   <v>       0.01310360       0.03207398      -0.00791490 </v>
   <v>       0.09178429      -0.01844442      -0.07682328 </v>
   <v>      -0.01310360       0.03207398      -0.00791490 </v>
   <v>       0.02056244       0.05066966      -0.03554034 </v>
   <v>      -0.01543662       0.02854887       0.03450423 </v>
   <v>       0.00000000       0.08190706      -0.00140709 </v>
   <v>       0.00000000       0.03240950      -0.00625795 </v>
   <v>      -0.02056244       0.05066966      -0.03554034 </v>
   <v>       0.01543662       0.02854887       0.03450423 </v>
   <v>      -0.11213535      -0.16322987       0.05260496 </v>
   <v>      -0.04802479      -0.15149461       0.17526899 </v>
   <v>       0.00000000       0.16155997       0.16492300 </v>
   <v>       0.00000000      -0.09548155       0.16739763 </v>
   <v>       0.11213535      -0.16322987       0.05260496 </v>
   <v>       0.04802479      -0.15149461       0.17526899 </v>
   <v>       0.00000000       0.27776079      -0.12935162 </v>
   <v>       0.00000000       0.11086740      -0.03894259 </v>
   <v>      -0.05599965       0.15100720      -0.10191481 </v>
   <v>       0.07765874       0.16355257      -0.07559531 </v>
   <v>       0.05599965       0.15100720      -0.10191481 </v>
   <v>      -0.07765874       0.16355257      -0.07559531 </v>
   <v>      -0.02401328      -0.01536201      -0.05589358 </v>
   <v>       0.00729741      -0.07077999       0.00444058 </v>
   <v>       0.00000000       0.01262402      -0.07872893 </v>
   <v>       0.00000000       0.08511598      -0.33497410 </v>
   <v>       0.02401328      -0.01536201      -0.05589358 </v>
   <v>      -0.00729741      -0.07077999       0.00444058 </v>
   <v>       0.00000000       0.06053389       0.12965930 </v>
   <v>       0.00000000       0.02193199       0.00695856 </v>
   <v>       0.07008179      -0.06382059       0.08330352 </v>
   <v>      -0.23585843      -0.05081497       0.20515519 </v>
   <v>      -0.07008179      -0.06382059       0.08330352 </v>
   <v>       0.23585843      -0.05081497       0.20515519 </v>
   <v>       0.00000000       0.48130817      -0.05181446 </v>
   <v>       0.00000000       0.39107988      -0.02305538 </v>
   <v>       0.00230726       0.48474913       0.00447723 </v>
   <v>       0.14500389       0.51493792       0.12197764 </v>
   <v>      -0.00230726       0.48474913       0.00447723 </v>
   <v>      -0.14500389       0.51493792       0.12197764 </v>
   <v>       0.02158749      -0.27245062      -0.02613966 </v>
   <v>      -0.04714860      -0.37292516       0.05309179 </v>
   <v>       0.00000000      -0.25054411       0.01272693 </v>
   <v>       0.00000000      -0.37793093       0.07856025 </v>
   <v>      -0.02158749      -0.27245062      -0.02613966 </v>
   <v>       0.04714860      -0.37292516       0.05309179 </v>
   <v>       0.00000000      -0.17876682       0.06805759 </v>
   <v>       0.00000000      -0.25644334       0.10431702 </v>
   <v>       0.01493739      -0.15514258       0.08330990 </v>
   <v>      -0.02766300      -0.21888582       0.13883613 </v>
   <v>      -0.01493739      -0.15514258       0.08330990 </v>
   <v>       0.02766300      -0.21888582       0.13883613 </v>
   <v>       0.66084535      -0.29856289       0.12403346 </v>
   <v>      -0.14197821       0.01154288      -0.06762098 </v>
   <v>       0.00000000       0.09609755       0.06498805 </v>
   <v>       0.00000000      -0.45923030      -0.22241318 </v>
   <v>      -0.66084535      -0.29856289       0.12403346 </v>
   <v>       0.14197821       0.01154288      -0.06762098 </v>
   <v>       0.00000000      -0.00612476      -0.18821315 </v>
   <v>       0.02018789      -0.01085281      -0.15447156 </v>
   <v>      -0.00336380       0.25074165       0.03490748 </v>
   <v>      -0.02018789      -0.01085281      -0.15447156 </v>
   <v>       0.00336380       0.25074165       0.03490748 </v>
   <v>       0.06212474       0.12417864       0.11047564 </v>
   <v>       0.00945608       0.05143302       0.15878186 </v>
   <v>       0.00000000      -0.09089048       0.13845163 </v>
   <v>       0.00000000      -0.02349766       0.17973952 </v>
   <v>      -0.06212474       0.12417864       0.11047564 </v>
   <v>      -0.00945608       0.05143302       0.15878186 </v>
   <v>       0.05225210       0.31741655      -0.12578992 </v>
   <v>      -0.00647774       0.34961043      -0.04033705 </v>
   <v>       0.00000000       0.33183543      -0.09535932 </v>
   <v>       0.00000000       0.28746153      -0.05336119 </v>
   <v>      -0.05225210       0.31741655      -0.12578992 </v>
   <v>       0.00647774       0.34961043      -0.04033705 </v>
   <v>       0.00000000      -0.44787440       0.19752107 </v>
   <v>       0.00000000      -0.30474272      -0.81846227 </v>
   <v>      -0.04991654      -0.41480293      -0.22274860 </v>
   <v>      -0.01122444      -0.42074247       0.01593922 </v>
   <v>       0.04991654      -0.41480293      -0.22274860 </v>
   <v>       0.01122444      -0.42074247       0.01593922 </v>
   <v>       0.00000000       0.49757987       0.44257277 </v>
  </varray>
  <varray name="stress" >
   <v>     196.54401631       0.00000000       0.00000000 </v>
   <v>       0.00000000     229.02411618       1.58812670 </v>
   <v>       0.00000000       1.58812722     243.95500907 </v>
  </varray>
  <energy>
   <i name="e_fr_energy">   -837.86958084 </i>
   <i name="e_wo_entrp">   -837.86254968 </i>
   <i name="e_0_energy">   -837.86606526 </i>
  </energy>
  <time name="totalsc">19820.1419822.34</time>
  <eigenvalues>
   <array>
    <dimension dim="1">band</dimension>
    <dimension dim="2">kpoint</dimension>
    <dimension dim="3">spin</dimension>
    <field>eigene</field>
    <field>occ</field>
    <set>
     <set comment="spin 1">
      <set comment="kpoint 1">
       <r>  -18.8889    1.0000 </r>
       <r>  -18.6278    1.0000 </r>
       <r>  -18.4731    1.0000 </r>
       <r>  -18.4338    1.0000 </r>
       <r>  -18.2120    1.0000 </r>
       <r>  -18.1714    1.0000 </r>
       <r>  -18.1544    1.0000 </r>
       <r>  -18.0466    1.0000 </r>
       <r>  -18.0458    1.0000 </r>
       <r>  -18.0168    1.0000 </r>
       <r>  -17.9105    1.0000 </r>
       <r>  -17.9018    1.0000 </r>
       <r>  -17.8884    1.0000 </r>
       <r>  -17.8425    1.0000 </r>
       <r>  -17.7948    1.0000 </r>
       <r>  -17.7719    1.0000 </r>
       <r>  -17.7412    1.0000 </r>
       <r>  -17.7096    1.0000 </r>
       <r>  -17.6821    1.0000 </r>
       <r>  -17.6684    1.0000 </r>
       <r>  -17.6511    1.0000 </r>
       <r>  -17.5835    1.0000 </r>
       <r>  -17.5692    1.0000 </r>
       <r>  -17.5619    1.0000 </r>
       <r>  -17.5195    1.0000 </r>
       <r>  -17.4953    1.0000 </r>
       <r>  -17.4406    1.0000 </r>
       <r>  -17.4303    1.0000 </r>
       <r>  -17.3944    1.0000 </r>
       <r>  -17.3817    1.0000 </r>
       <r>  -17.3690    1.0000 </r>
       <r>  -17.3605    1.0000 </r>
       <r>  -17.3557    1.0000 </r>
       <r>  -17.3279    1.0000 </r>
       <r>  -17.3205    1.0000 </r>
       <r>  -17.3021    1.0000 </r>
       <r>  -17.2892    1.0000 </r>
       <r>  -17.2658    1.0000 </r>
       <r>  -17.2543    1.0000 </r>
       <r>  -17.2172    1.0000 </r>
       <r>  -17.1989    1.0000 </r>
       <r>  -17.1985    1.0000 </r>
       <r>  -17.1927    1.0000 </r>
       <r>  -17.1572    1.0000 </r>
       <r>  -17.1195    1.0000 </r>
       <r>  -17.0943    1.0000 </r>
       <r>  -17.0794    1.0000 </r>
       <r>  -17.0590    1.0000 </r>
       <r>  -17.0584    1.0000 </r>
       <r>  -17.0489    1.0000 </r>
       <r>  -17.0077    1.0000 </r>
       <r>  -16.9998    1.0000 </r>
       <r>  -16.9735    1.0000 </r>
       <r>  -16.9561    1.0000 </r>
       <r>  -16.9426    1.0000 </r>
       <r>  -16.9225    1.0000 </r>
       <r>  -16.9189    1.0000 </r>
       <r>  -16.8048    1.0000 </r>
       <r>  -16.7644    1.0000 </r>
       <r>  -16.7403    1.0000 </r>
       <r>  -16.7216    1.0000 </r>
       <r>  -16.6741    1.0000 </r>
       <r>  -16.5947    1.0000 </r>
       <r>  -16.5495    1.0000 </r>
       <r>  -16.5490    1.0000 </r>
       <r>  -16.4902    1.0000 </r>
       <r>  -16.4521    1.0000 </r>
       <r>  -16.0930    1.0000 </r>
       <r>  -16.0450    1.0000 </r>
       <r>  -15.9547    1.0000 </r>
       <r>  -15.5456    1.0000 </r>
       <r>  -13.3412    1.0000 </r>
       <r>  -13.3270    1.0000 </r>
       <r>  -13.3235    1.0000 </r>
       <r>  -13.2982    1.0000 </r>
       <r>  -13.2700    1.0000 </r>
       <r>  -13.2649    1.0000 </r>
       <r>  -13.2629    1.0000 </r>
       <r>  -13.2508    1.0000 </r>
       <r>  -13.2429    1.0000 </r>
       <r>  -13.2355    1.0000 </r>
       <r>  -13.2314    1.0000 </r>
       <r>  -13.2289    1.0000 </r>
       <r>  -13.2220    1.0000 </r>
       <r>  -13.2076    1.0000 </r>
       <r>  -13.2073    1.0000 </r>
       <r>  -13.2043    1.0000 </r>
       <r>  -13.1987    1.0000 </r>
       <r>  -13.1935    1.0000 </r>
       <r>  -13.1900    1.0000 </r>
       <r>  -13.1846    1.0000 </r>
       <r>  -13.1755    1.0000 </r>
       <r>  -13.1694    1.0000 </r>
       <r>  -13.1680    1.0000 </r>
       <r>  -13.1558    1.0000 </r>
       <r>  -13.1528    1.0000 </r>
       <r>  -13.1467    1.0000 </r>
       <r>  -13.1412    1.0000 </r>
       <r>  -13.1397    1.0000 </r>
       <r>  -13.1294    1.0000 </r>
       <r>  -13.1282    1.0000 </r>
       <r>  -13.1274    1.0000 </r>
       <r>  -13.1173    1.0000 </r>
       <r>  -13.1099    1.0000 </r>
       <r>  -13.1091    1.0000 </r>
       <r>  -13.1071    1.0000 </r>
       <r>  -13.1031    1.0000 </r>
       <r>  -13.0949    1.0000 </r>
       <r>  -13.0942    1.0000 </r>
       <r>  -13.0835    1.0000 </r>
       <r>  -13.0834    1.0000 </r>
       <r>  -13.0756    1.0000 </r>
       <r>  -13.0746    1.0000 </r>
       <r>  -13.0724    1.0000 </r>
       <r>  -13.0683    1.0000 </r>
       <r>  -13.0661    1.0000 </r>
       <r>  -13.0593    1.0000 </r>
       <r>  -13.0560    1.0000 </r>
       <r>  -13.0542    1.0000 </r>
       <r>  -13.0423    1.0000 </r>
       <r>  -13.0380    1.0000 </r>
       <r>  -13.0327    1.0000 </r>
       <r>  -13.0229    1.0000 </r>
       <r>  -13.0217    1.0000 </r>
       <r>  -13.0168    1.0000 </r>
       <r>  -13.0121    1.0000 </r>
       <r>  -13.0089    1.0000 </r>
       <r>  -13.0074    1.0000 </r>
       <r>  -13.0025    1.0000 </r>
       <r>  -12.9985    1.0000 </r>
       <r>  -12.9971    1.0000 </r>
       <r>  -12.9946    1.0000 </r>
       <r>  -12.9854    1.0000 </r>
       <r>  -12.9846    1.0000 </r>
       <r>  -12.9814    1.0000 </r>
       <r>  -12.9800    1.0000 </r>
       <r>  -12.9790    1.0000 </r>
       <r>  -12.9748    1.0000 </r>
       <r>  -12.9747    1.0000 </r>
       <r>  -12.9626    1.0000 </r>
       <r>  -12.9577    1.0000 </r>
       <r>  -12.9552    1.0000 </r>
       <r>  -12.9524    1.0000 </r>
       <r>  -12.9451    1.0000 </r>
       <r>  -12.9434    1.0000 </r>
       <r>  -12.9429    1.0000 </r>
       <r>  -12.9394    1.0000 </r>
       <r>  -12.9357    1.0000 </r>
       <r>  -12.9261    1.0000 </r>
       <r>  -12.9203    1.0000 </r>
       <r>  -12.9180    1.0000 </r>
       <r>  -12.9153    1.0000 </r>
       <r>  -12.9131    1.0000 </r>
       <r>  -12.9120    1.0000 </r>
       <r>  -12.9079    1.0000 </r>
       <r>  -12.9059    1.0000 </r>
       <r>  -12.9056    1.0000 </r>
       <r>  -12.8960    1.0000 </r>
       <r>  -12.8941    1.0000 </r>
       <r>  -12.8935    1.0000 </r>
       <r>  -12.8828    1.0000 </r>
       <r>  -12.8828    1.0000 </r>
       <r>  -12.8826    1.0000 </r>
       <r>  -12.8761    1.0000 </r>
       <r>  -12.8728    1.0000 </r>
       <r>  -12.8718    1.0000 </r>
       <r>  -12.8684    1.0000 </r>
       <r>  -12.8648    1.0000 </r>
       <r>  -12.8530    1.0000 </r>
       <r>  -12.8490    1.0000 </r>
       <r>  -12.8483    1.0000 </r>
       <r>  -12.8449    1.0000 </r>
       <r>  -12.8368    1.0000 </r>
       <r>  -12.8290    1.0000 </r>
       <r>  -12.8253    1.0000 </r>
       <r>  -12.8217    1.0000 </r>
       <r>  -12.8165    1.0000 </r>
       <r>  -12.8159    1.0000 </r>
       <r>  -12.8138    1.0000 </r>
       <r>  -12.8099    1.0000 </r>
       <r>  -12.8056    1.0000 </r>
       <r>  -12.8020    1.0000 </r>
       <r>  -12.7909    1.0000 </r>
       <r>  -12.7894    1.0000 </r>
       <r>  -12.7810    1.0000 </r>
       <r>  -12.7807    1.0000 </r>
       <r>  -12.7750    1.0000 </r>
       <r>  -12.7675    1.0000 </r>
       <r>  -12.7524    1.0000 </r>
       <r>  -12.7512    1.0000 </r>
       <r>  -12.7424    1.0000 </r>
       <r>  -12.7407    1.0000 </r>
       <r>  -12.7356    1.0000 </r>
       <r>  -12.7342    1.0000 </r>
       <r>  -12.7301    1.0000 </r>
       <r>  -12.7247    1.0000 </r>
       <r>  -12.7172    1.0000 </r>
       <r>  -12.7083    1.0000 </r>
       <r>  -12.7036    1.0000 </r>
       <r>  -12.6836    1.0000 </r>
       <r>  -12.6805    1.0000 </r>
       <r>  -12.6690    1.0000 </r>
       <r>  -12.6689    1.0000 </r>
       <r>  -12.6550    1.0000 </r>
       <r>  -12.6519    1.0000 </r>
       <r>  -12.6379    1.0000 </r>
       <r>  -12.6314    1.0000 </r>
       <r>  -12.6307    1.0000 </r>
       <r>  -12.6235    1.0000 </r>
       <r>  -12.6179    1.0000 </r>
       <r>  -12.6156    1.0000 </r>
       <r>  -12.6074    1.0000 </r>
       <r>  -12.6036    1.0000 </r>
       <r>  -12.5914    1.0000 </r>
       <r>  -12.5817    1.0000 </r>
       <r>  -12.5770    1.0000 </r>
       <r>  -12.5715    1.0000 </r>
       <r>  -12.5686    1.0000 </r>
       <r>  -12.5592    1.0000 </r>
       <r>  -12.5526    1.0000 </r>
       <r>  -12.5457    1.0000 </r>
       <r>  -12.5370    1.0000 </r>
       <r>  -12.5345    1.0000 </r>
       <r>  -12.5249    1.0000 </r>
       <r>  -12.5230    1.0000 </r>
       <r>  -12.5154    1.0000 </r>
       <r>  -12.5126    1.0000 </r>
       <r>  -12.5088    1.0000 </r>
       <r>  -12.4989    1.0000 </r>
       <r>  -12.4965    1.0000 </r>
       <r>  -12.4822    1.0000 </r>
       <r>  -12.4695    1.0000 </r>
       <r>  -12.4674    1.0000 </r>
       <r>  -12.4633    1.0000 </r>
       <r>  -12.4527    1.0000 </r>
[...]
       <r>   -12.6046   291.1474   421.9796 </r>
       <r>   -12.4719   334.4013   466.3483 </r>
       <r>   -12.3393   311.6724   507.7013 </r>
       <r>   -12.2066   213.9361   536.0866 </r>
       <r>   -12.0739   190.3297   561.3397 </r>
       <r>   -11.9412   120.1680   577.2837 </r>
       <r>   -11.8085   107.6312   591.5643 </r>
       <r>   -11.6758    63.8121   600.0310 </r>
       <r>   -11.5432    60.5617   608.0664 </r>
       <r>   -11.4105    28.7045   611.8749 </r>
       <r>   -11.2778     0.9428   612.0000 </r>
       <r>   -11.1451     0.0000   612.0000 </r>
       <r>   -11.0124     0.0000   612.0000 </r>
       <r>   -10.8798     0.0000   612.0000 </r>
       <r>   -10.7471     0.0000   612.0000 </r>
       <r>   -10.6144     0.0000   612.0000 </r>
       <r>   -10.4817     0.0000   612.0000 </r>
       <r>   -10.3490     0.0000   612.0000 </r>
       <r>   -10.2164     0.0000   612.0000 </r>
       <r>   -10.0837     0.0000   612.0000 </r>
       <r>    -9.9510     0.0000   612.0000 </r>
       <r>    -9.8183     0.0000   612.0000 </r>
       <r>    -9.6856     0.0000   612.0000 </r>
       <r>    -9.5530     0.0000   612.0000 </r>
       <r>    -9.4203     0.0000   612.0000 </r>
       <r>    -9.2876     0.0000   612.0000 </r>
       <r>    -9.1549     0.0000   612.0000 </r>
       <r>    -9.0222     0.0000   612.0000 </r>
       <r>    -8.8895     0.0000   612.0000 </r>
       <r>    -8.7569     0.0000   612.0000 </r>
       <r>    -8.6242     0.0000   612.0000 </r>
       <r>    -8.4915     0.0000   612.0000 </r>
       <r>    -8.3588     0.0000   612.0000 </r>
       <r>    -8.2261     0.0000   612.0000 </r>
       <r>    -8.0935     0.0000   612.0000 </r>
       <r>    -7.9608     0.0000   612.0000 </r>
       <r>    -7.8281     0.0000   612.0000 </r>
       <r>    -7.6954     0.0000   612.0000 </r>
       <r>    -7.5627     0.0000   612.0000 </r>
       <r>    -7.4301     0.0000   612.0000 </r>
       <r>    -7.2974     0.0000   612.0000 </r>
       <r>    -7.1647     0.0000   612.0000 </r>
       <r>    -7.0320     0.0000   612.0000 </r>
       <r>    -6.8993     0.0000   612.0000 </r>
       <r>    -6.7666     0.0000   612.0000 </r>
       <r>    -6.6340     0.0000   612.0000 </r>
       <r>    -6.5013     0.0001   612.0000 </r>
       <r>    -6.3686     3.7831   612.5020 </r>
       <r>    -6.2359    11.2746   613.9979 </r>
       <r>    -6.1032     0.0160   614.0000 </r>
       <r>    -5.9706     0.0000   614.0000 </r>
       <r>    -5.8379     0.0000   614.0000 </r>
       <r>    -5.7052     0.0000   614.0000 </r>
       <r>    -5.5725     0.1840   614.0244 </r>
       <r>    -5.4398     3.5802   614.4994 </r>
       <r>    -5.3072     6.1201   615.3115 </r>
       <r>    -5.1745     7.7424   616.3387 </r>
       <r>    -5.0418    23.1560   619.4111 </r>
       <r>    -4.9091    29.2724   623.2950 </r>
       <r>    -4.7764    19.1933   625.8416 </r>
       <r>    -4.6438    35.6001   630.5650 </r>
       <r>    -4.5111    40.1642   635.8941 </r>
       <r>    -4.3784    42.4509   641.5265 </r>
       <r>    -4.2457    39.7719   646.8035 </r>
       <r>    -4.1130    49.0542   653.3120 </r>
       <r>    -3.9803    35.9175   658.0776 </r>
       <r>    -3.8477    31.3979   662.2435 </r>
       <r>    -3.7150    37.1757   667.1760 </r>
       <r>    -3.5823    45.9509   673.2728 </r>
       <r>    -3.4496    35.0975   677.9296 </r>
       <r>    -3.3169    31.0290   682.0465 </r>
       <r>    -3.1843    33.8515   686.5380 </r>
       <r>    -3.0516    33.7483   691.0158 </r>
       <r>    -2.9189    29.7927   694.9687 </r>
       <r>    -2.7862    33.4672   699.4092 </r>
       <r>    -2.6535    39.9250   704.7064 </r>
       <r>    -2.5209    44.9955   710.6765 </r>
       <r>    -2.3882    38.6284   715.8018 </r>
       <r>    -2.2555    53.4470   722.8932 </r>
       <r>    -2.1228    35.6630   727.6250 </r>
       <r>    -1.9901    45.3005   733.6355 </r>
       <r>    -1.8575    50.8669   740.3845 </r>
       <r>    -1.7248    62.7146   748.7056 </r>
       <r>    -1.5921    49.6436   755.2923 </r>
       <r>    -1.4594    54.1439   762.4762 </r>
       <r>    -1.3267    61.5460   770.6422 </r>
       <r>    -1.1940    55.9226   778.0621 </r>
       <r>    -1.0614    59.6066   785.9707 </r>
       <r>    -0.9287    67.3546   794.9074 </r>
       <r>    -0.7960    63.7815   803.3700 </r>
       <r>    -0.6633    61.0014   811.4637 </r>
       <r>    -0.5306    62.7593   819.7907 </r>
       <r>    -0.3980    65.7468   828.5140 </r>
       <r>    -0.2653    65.0924   837.1506 </r>
       <r>    -0.1326    64.6732   845.7315 </r>
       <r>     0.0001    69.4943   854.9520 </r>
       <r>     0.1328    68.6120   864.0555 </r>
       <r>     0.2654    60.7056   872.1100 </r>
       <r>     0.3981    81.3709   882.9064 </r>
       <r>     0.5308    87.1438   894.4687 </r>
       <r>     0.6635    77.5272   904.7551 </r>
       <r>     0.7962    81.2558   915.5362 </r>
       <r>     0.9288    84.5875   926.7594 </r>
       <r>     1.0615    89.7532   938.6679 </r>
       <r>     1.1942   106.5931   952.8108 </r>
       <r>     1.3269   111.1336   967.5561 </r>
       <r>     1.4596   106.8052   981.7271 </r>
       <r>     1.5923    89.4915   993.6010 </r>
       <r>     1.7249    87.8537  1005.2575 </r>
       <r>     1.8576    73.6359  1015.0276 </r>
       <r>     1.9903    62.9301  1023.3772 </r>
       <r>     2.1230    18.1354  1025.7834 </r>
       <r>     2.2557    21.8514  1028.6827 </r>
       <r>     2.3883    11.1032  1030.1559 </r>
       <r>     2.5210    36.8825  1035.0495 </r>
       <r>     2.6537    21.1877  1037.8607 </r>
       <r>     2.7864     2.7812  1038.2297 </r>
       <r>     2.9191    12.9842  1039.9525 </r>
       <r>     3.0517     0.3583  1040.0000 </r>
       <r>     3.1844     0.0000  1040.0000 </r>
       <r>     3.3171     0.0000  1040.0000 </r>
       <r>     3.4498     0.0000  1040.0000 </r>
       <r>     3.5825     0.0000  1040.0000 </r>
       <r>     3.7151     0.0000  1040.0000 </r>
       <r>     3.8478     0.0000  1040.0000 </r>
       <r>     3.9805     0.0000  1040.0000 </r>
       <r>     4.1132     0.0006  1040.0001 </r>
       <r>     4.2459     3.8015  1040.5045 </r>
       <r>     4.3786    18.3921  1042.9448 </r>
       <r>     4.5112     3.6690  1043.4316 </r>
       <r>     4.6439     4.2830  1043.9998 </r>
       <r>     4.7766     0.0013  1044.0000 </r>
       <r>     4.9093     0.0000  1044.0000 </r>
       <r>     5.0420     0.9255  1044.1228 </r>
       <r>     5.1746     9.2092  1045.3447 </r>
       <r>     5.3073     6.7638  1046.2421 </r>
       <r>     5.4400     1.9266  1046.4977 </r>
       <r>     5.5727     5.6041  1047.2413 </r>
       <r>     5.7054     5.5665  1047.9799 </r>
       <r>     5.8380     1.4618  1048.1738 </r>
       <r>     5.9707    12.5379  1049.8374 </r>
       <r>     6.1034     1.2259  1050.0000 </r>
       <r>     6.2361     0.0000  1050.0000 </r>
       <r>     6.3688     0.0000  1050.0000 </r>
       <r>     6.5015     0.0000  1050.0000 </r>
       <r>     6.6341     0.0000  1050.0000 </r>
       <r>     6.7668     0.0144  1050.0019 </r>
       <r>     6.8995     1.6958  1050.2269 </r>
       <r>     7.0322     0.2016  1050.2536 </r>
       <r>     7.1649     1.7478  1050.4855 </r>
       <r>     7.2975     1.2202  1050.6474 </r>
       <r>     7.4302     0.7730  1050.7500 </r>
       <r>     7.5629     1.2758  1050.9193 </r>
       <r>     7.6956     5.6545  1051.6695 </r>
       <r>     7.8283     1.0385  1051.8073 </r>
       <r>     7.9609     5.2918  1052.5094 </r>
       <r>     8.0936     1.8185  1052.7507 </r>
       <r>     8.2263     2.3826  1053.0668 </r>
       <r>     8.3590     3.8898  1053.5829 </r>
       <r>     8.4917     8.9951  1054.7764 </r>
       <r>     8.6243     3.6091  1055.2553 </r>
       <r>     8.7570     2.3729  1055.5701 </r>
       <r>     8.8897     5.9693  1056.3621 </r>
       <r>     9.0224     7.1030  1057.3046 </r>
       <r>     9.1551     4.1384  1057.8536 </r>
       <r>     9.2878     7.6324  1058.8663 </r>
       <r>     9.4204    10.5336  1060.2639 </r>
       <r>     9.5531    13.0245  1061.9920 </r>
       <r>     9.6858     9.7179  1063.2814 </r>
       <r>     9.8185    13.5570  1065.0802 </r>
       <r>     9.9512    26.3019  1068.5699 </r>
       <r>    10.0838    17.5406  1070.8972 </r>
       <r>    10.2165    24.4878  1074.1463 </r>
       <r>    10.3492    23.9110  1077.3188 </r>
       <r>    10.4819    26.4805  1080.8323 </r>
       <r>    10.6146    30.7633  1084.9140 </r>
       <r>    10.7472    28.6330  1088.7130 </r>
       <r>    10.8799    28.2713  1092.4641 </r>
       <r>    11.0126    27.3006  1096.0864 </r>
       <r>    11.1453    28.3817  1099.8521 </r>
       <r>    11.2780    37.6652  1104.8496 </r>
       <r>    11.4106    31.2558  1108.9966 </r>
       <r>    11.5433    31.7333  1113.2070 </r>
       <r>    11.6760    34.3486  1117.7644 </r>
       <r>    11.8087    34.0095  1122.2768 </r>
       <r>    11.9414    36.7864  1127.1577 </r>
       <r>    12.0741    34.7039  1131.7622 </r>
       <r>    12.2067    32.2082  1136.0357 </r>
       <r>    12.3394    37.4878  1141.0096 </r>
       <r>    12.4721    34.8420  1145.6325 </r>
       <r>    12.6048    31.7693  1149.8476 </r>
       <r>    12.7375    34.6143  1154.4403 </r>
       <r>    12.8701    36.2299  1159.2473 </r>
       <r>    13.0028    33.3371  1163.6705 </r>
       <r>    13.1355    35.1708  1168.3370 </r>
       <r>    13.2682    38.8235  1173.4882 </r>
       <r>    13.4009    24.9320  1176.7962 </r>
       <r>    13.5335    25.6771  1180.2030 </r>
       <r>    13.6662    26.2942  1183.6918 </r>
       <r>    13.7989    42.0502  1189.2710 </r>
       <r>    13.9316    34.6216  1193.8646 </r>
       <r>    14.0643    28.8797  1197.6964 </r>
       <r>    14.1969    31.5590  1201.8837 </r>
       <r>    14.3296    23.4800  1204.9991 </r>
       <r>    14.4623    24.5423  1208.2554 </r>
       <r>    14.5950    28.0676  1211.9794 </r>
       <r>    14.7277    22.9698  1215.0271 </r>
       <r>    14.8604    27.8304  1218.7196 </r>
       <r>    14.9930    21.4936  1221.5714 </r>
       <r>    15.1257    24.8745  1224.8718 </r>
       <r>    15.2584    29.5341  1228.7904 </r>
       <r>    15.3911    23.2000  1231.8686 </r>
       <r>    15.5238    24.5512  1235.1261 </r>
       <r>    15.6564    23.6690  1238.2665 </r>
       <r>    15.7891    23.2261  1241.3482 </r>
       <r>    15.9218    19.2035  1243.8961 </r>
       <r>    16.0545    24.7308  1247.1774 </r>
       <r>    16.1872    21.0926  1249.9760 </r>
       <r>    16.3198    22.7759  1252.9979 </r>
       <r>    16.4525    20.5610  1255.7260 </r>
       <r>    16.5852    17.9573  1258.1086 </r>
       <r>    16.7179    16.4992  1260.2977 </r>
       <r>    16.8506    17.6772  1262.6432 </r>
       <r>    16.9832    12.1536  1264.2557 </r>
       <r>    17.1159     5.6960  1265.0115 </r>
       <r>    17.2486     4.4935  1265.6077 </r>
       <r>    17.3813     2.9406  1265.9978 </r>
       <r>    17.5140     0.0164  1266.0000 </r>
       <r>    17.6467     0.0000  1266.0000 </r>
       <r>    17.7793     0.0000  1266.0000 </r>
       <r>    17.9120     0.0000  1266.0000 </r>
       <r>    18.0447     0.0000  1266.0000 </r>
       <r>    18.1774     0.0000  1266.0000 </r>
       <r>    18.3101     0.0000  1266.0000 </r>
       <r>    18.4427     0.0000  1266.0000 </r>
       <r>    18.5754     0.0000  1266.0000 </r>
       <r>    18.7081     0.0000  1266.0000 </r>
       <r>    18.8408     0.0000  1266.0000 </r>
       <r>    18.9735     0.0000  1266.0000 </r>
       <r>    19.1061     0.0000  1266.0000 </r>
      </set>
     </set>
    </array>
   </total>
  </dos>
 </calculation>
 <structure name="finalpos" >
  <crystal>
   <varray name="basis" >
    <v>       0.00000000      12.28047342       0.00000000 </v>
    <v>       9.14270205       0.00000000       0.00000000 </v>
    <v>       0.00000000      -2.76826177     -11.30069772 </v>
   </varray>
   <i name="volume">   1268.80515525 </i>
   <varray name="rec_basis" >
    <v>       0.00000000       0.08143009      -0.01994742 </v>
    <v>       0.10937686      -0.00000000       0.00000000 </v>
    <v>       0.00000000       0.00000000      -0.08849011 </v>
   </varray>
  </crystal>
  <varray name="positions" >
   <v>       0.65866321       0.00000000       0.15830761 </v>
   <v>       0.66459437       0.00000000       0.65221373 </v>
   <v>       0.65879654       0.33294819       0.15650607 </v>
   <v>       0.66844310       0.33005085       0.65790021 </v>
   <v>       0.65879654       0.66705181       0.15650607 </v>
   <v>       0.66844310       0.66994915       0.65790021 </v>
   <v>       0.84160342       0.16776582       0.34311175 </v>
   <v>       0.85271868       0.16607397       0.83839463 </v>
   <v>       0.84056743       0.50000000       0.34442256 </v>
   <v>       0.81870292       0.50000000       0.89667210 </v>
   <v>       0.84160342       0.83223418       0.34311175 </v>
   <v>       0.85271868       0.83392603       0.83839463 </v>
   <v>       0.58611024       0.16391173       0.39357797 </v>
   <v>       0.60160047       0.16403552       0.89629734 </v>
   <v>       0.59747864       0.50000000       0.40123703 </v>
   <v>       0.58018847       0.50000000       0.89189487 </v>
   <v>       0.58611024       0.83608827       0.39357797 </v>
   <v>       0.60160047       0.83596448       0.89629734 </v>
   <v>       0.91710945       0.00000000       0.10522516 </v>
   <v>       0.91642024       0.00000000       0.59310708 </v>
   <v>       0.89675080       0.36164910       0.09220271 </v>
   <v>       0.91108956       0.33324057       0.59982730 </v>
   <v>       0.89675080       0.63835090       0.09220271 </v>
   <v>       0.91108956       0.66675943       0.59982730 </v>
   <v>       0.14957735       0.16360237       0.15713638 </v>
   <v>       0.16381246       0.16233861       0.64604492 </v>
   <v>       0.16787309       0.50000000       0.16061857 </v>
   <v>       0.16388180       0.50000000       0.65259727 </v>
   <v>       0.14957735       0.83639763       0.15713638 </v>
   <v>       0.16381246       0.83766139       0.64604492 </v>
   <v>       0.32626880       0.00000000       0.34505144 </v>
   <v>       0.34156760       0.00000000       0.84405024 </v>
   <v>       0.34166881       0.33214140       0.34517881 </v>
   <v>       0.33851864       0.32984519       0.84060339 </v>
   <v>       0.34166881       0.66785860       0.34517881 </v>
   <v>       0.33851864       0.67015481       0.84060339 </v>
   <v>       0.08942091       0.00000000       0.89191110 </v>
   <v>       0.08638513       0.32623447       0.39420332 </v>
   <v>       0.09663547       0.36892891       0.89948077 </v>
   <v>       0.08638513       0.67376553       0.39420332 </v>
   <v>       0.09663547       0.63107109       0.89948077 </v>
   <v>       0.40482188       0.16704700       0.10316028 </v>
   <v>       0.41559318       0.16817512       0.60683816 </v>
   <v>       0.40951511       0.50000000       0.10219110 </v>
   <v>       0.41565060       0.50000000       0.60406183 </v>
   <v>       0.40482188       0.83295300       0.10316028 </v>
   <v>       0.41559318       0.83182488       0.60683816 </v>
   <v>       0.98126571       0.18668276       0.11211977 </v>
   <v>       0.00209412       0.16780061       0.62651063 </v>
   <v>       0.01770201       0.50000000       0.15567735 </v>
   <v>       0.00162200       0.50000000       0.62948780 </v>
   <v>       0.98126571       0.81331724       0.11211977 </v>
   <v>       0.00209412       0.83219939       0.62651063 </v>
   <v>       0.49509213       0.00000000       0.37005120 </v>
   <v>       0.50520430       0.00000000       0.87477674 </v>
   <v>       0.50539422       0.33647164       0.37367547 </v>
   <v>       0.50290598       0.32509826       0.87174436 </v>
   <v>       0.50539422       0.66352836       0.37367547 </v>
   <v>       0.50290598       0.67490174       0.87174436 </v>
   <v>       0.67078673       0.16505555       0.27932890 </v>
   <v>       0.67070782       0.15782012       0.76946033 </v>
   <v>       0.66949082       0.50000000       0.27700228 </v>
   <v>       0.67405945       0.50000000       0.78167544 </v>
   <v>       0.67078673       0.83494445       0.27932890 </v>
   <v>       0.67070782       0.84217988       0.76946033 </v>
   <v>       0.82729906       0.00000000       0.21690785 </v>
   <v>       0.83633057       0.00000000       0.71550071 </v>
   <v>       0.82395132       0.33523984       0.22090439 </v>
   <v>       0.82771491       0.31300385       0.71118152 </v>
   <v>       0.82395132       0.66476016       0.22090439 </v>
   <v>       0.82771491       0.68699615       0.71118152 </v>
   <v>       0.82259390       0.00000000       0.44332448 </v>
   <v>       0.84488740       0.00000000       0.94202759 </v>
   <v>       0.82038657       0.33698769       0.44644174 </v>
   <v>       0.80042474       0.29603512       0.93950152 </v>
   <v>       0.82038657       0.66301231       0.44644174 </v>
   <v>       0.80042474       0.70396488       0.93950152 </v>
   <v>       0.66414007       0.16408160       0.05751296 </v>
   <v>       0.66583547       0.16461598       0.54807018 </v>
   <v>       0.65441866       0.50000000       0.05103329 </v>
   <v>       0.67301063       0.50000000       0.55827657 </v>
   <v>       0.66414007       0.83591840       0.05751296 </v>
   <v>       0.66583547       0.83538402       0.54807018 </v>
   <v>       0.49462578       0.00000000       0.12655079 </v>
   <v>       0.50029572       0.00000000       0.62559818 </v>
   <v>       0.49711643       0.33160680       0.12752124 </v>
   <v>       0.50544616       0.33435501       0.63058169 </v>
   <v>       0.49711643       0.66839320       0.12752124 </v>
   <v>       0.50544616       0.66564499       0.63058169 </v>
   <v>       0.99333563       0.17580888       0.38457629 </v>
   <v>       0.01419087       0.18134738       0.87310724 </v>
   <v>       0.00230993       0.50000000       0.38492502 </v>
   <v>       0.95754806       0.50000000       0.86788332 </v>
   <v>       0.99333563       0.82419112       0.38457629 </v>
   <v>       0.01419087       0.81865262       0.87310724 </v>
   <v>       0.17574025       0.00000000       0.78085535 </v>
   <v>       0.17913963       0.34153184       0.29069803 </v>
   <v>       0.17566965       0.32510930       0.76938671 </v>
   <v>       0.17913963       0.65846816       0.29069803 </v>
   <v>       0.17566965       0.67489070       0.76938671 </v>
   <v>       0.33366848       0.17284039       0.22500542 </v>
   <v>       0.33523042       0.16648344       0.72250515 </v>
   <v>       0.33281851       0.50000000       0.22399226 </v>
   <v>       0.33224171       0.50000000       0.71909112 </v>
   <v>       0.33366848       0.82715961       0.22500542 </v>
   <v>       0.33523042       0.83351656       0.72250515 </v>
   <v>       0.34405709       0.17253995       0.45179415 </v>
   <v>       0.33058449       0.16676033       0.94572406 </v>
   <v>       0.34170151       0.50000000       0.44833003 </v>
   <v>       0.34117515       0.50000000       0.94239168 </v>
   <v>       0.34405709       0.82746005       0.45179415 </v>
   <v>       0.33058449       0.83323967       0.94572406 </v>
   <v>       0.16908810       0.00000000       0.04580779 </v>
   <v>       0.18407729       0.00000000       0.55892322 </v>
   <v>       0.17321206       0.32586337       0.06298663 </v>
   <v>       0.17513546       0.33505515       0.54848426 </v>
   <v>       0.17321206       0.67413663       0.06298663 </v>
   <v>       0.17513546       0.66494485       0.54848426 </v>
   <v>       0.13525045       0.00000000       0.30038198 </v>
  </varray>
 </structure>
</modeling>
