       N       E                     dE             d eps       ncg     rms          ort
DAV:   1    -0.810498440341E+04   -0.81050E+04   -0.10729E+05   496   0.876E+03
DAV:   2    -0.100958649705E+05   -0.19909E+04   -0.19778E+04   496   0.151E+03
DAV:   3    -0.103308123837E+05   -0.23495E+03   -0.23094E+03   496   0.273E+02
DAV:   4    -0.103493981130E+05   -0.18586E+02   -0.16865E+02   496   0.658E+01
DAV:   5    -0.570273937875E+04    0.46467E+04   -0.73643E+01   496   0.314E+01
SDA:   6     0.163750489193E+04    0.73402E+04   -0.73643E+01   496   0.998E+04 0.000E+00
CGA:   7     0.201916018586E+03   -0.14356E+04   -0.15405E+04   496   0.782E+03 0.121E+04
CGA:   8     0.475747306794E+02   -0.15434E+03   -0.15377E+03   496   0.239E+03-0.946E+01
CGA:   9     0.224622329524E+01   -0.45329E+02   -0.45379E+02   496   0.583E+02 0.613E+01
CGA:  10    -0.945676695721E+01   -0.11703E+02   -0.11706E+02   496   0.257E+02 0.254E+01
CGA:  11    -0.177399003854E+02   -0.82831E+01   -0.82100E+01   496   0.138E+02 0.107E+01
CGA:  12    -0.226399748624E+02   -0.49001E+01   -0.52583E+01   496   0.112E+02-0.238E+01
CGA:  13    -0.246128029036E+02   -0.19728E+01   -0.20699E+01   496   0.431E+01-0.386E+01
CGA:  14    -0.249451452132E+02   -0.33234E+00   -0.32456E+00   496   0.242E+01 0.843E-01
CGA:  15    -0.253220338745E+02   -0.37689E+00   -0.37759E+00   496   0.172E+01 0.130E-01
CGA:  16    -0.256260963666E+02   -0.30406E+00   -0.30440E+00   496   0.142E+01 0.583E-02
CGA:  17    -0.258670788742E+02   -0.24098E+00   -0.24216E+00   496   0.105E+01 0.106E-01
CGA:  18    -0.260521235949E+02   -0.18504E+00   -0.18538E+00   496   0.703E+00 0.456E-02
CGA:  19    -0.261887361886E+02   -0.13661E+00   -0.13666E+00   496   0.553E+00 0.595E-02
CGA:  20    -0.263079716268E+02   -0.11924E+00   -0.11911E+00   496   0.402E+00 0.769E-02
CGA:  21    -0.263831757146E+02   -0.75204E-01   -0.75280E-01   496   0.218E+00 0.505E-02
CGA:  22    -0.264223134815E+02   -0.39138E-01   -0.39204E-01   496   0.123E+00 0.273E-02
CGA:  23    -0.264482143116E+02   -0.25901E-01   -0.25881E-01   496   0.889E-01 0.149E-02
CGA:  24    -0.264674963352E+02   -0.19282E-01   -0.19267E-01   496   0.579E-01 0.709E-03
CGA:  25    -0.264803193447E+02   -0.12823E-01   -0.12815E-01   496   0.437E-01 0.314E-03
CGA:  26    -0.264905261273E+02   -0.10207E-01   -0.10206E-01   496   0.319E-01 0.724E-04
CGA:  27    -0.264971779491E+02   -0.66518E-02   -0.66519E-02   496   0.201E-01 0.376E-04
CGA:  28    -0.265013902229E+02   -0.42123E-02   -0.42120E-02   496   0.125E-01 0.435E-04
CGA:  29    -0.265041407695E+02   -0.27505E-02   -0.27495E-02   496   0.819E-02 0.515E-04
CGA:  30    -0.265060451669E+02   -0.19044E-02   -0.19034E-02   496   0.548E-02 0.326E-04
CGA:  31    -0.265073320952E+02   -0.12869E-02   -0.12861E-02   496   0.403E-02 0.246E-04
CGA:  32    -0.265082872797E+02   -0.95518E-03   -0.95497E-03   496   0.301E-02 0.798E-05
CGA:  33    -0.265089985916E+02   -0.71131E-03   -0.71133E-03   496   0.231E-02-0.106E-05
CGA:  34    -0.265095564936E+02   -0.55790E-03   -0.55827E-03   496   0.164E-02-0.103E-04
CGA:  35    -0.265099258733E+02   -0.36938E-03   -0.36953E-03   496   0.112E-02-0.875E-05
CGA:  36    -0.265102015036E+02   -0.27563E-03   -0.27583E-03   496   0.922E-03-0.466E-05
SDA:  37    -0.265104270179E+02   -0.22551E-03   -0.22558E-03   496   0.721E-03-0.162E-05
CGA:  38    -0.265107583409E+02   -0.33132E-03   -0.33131E-03   496   0.378E-03 0.468E-07
CGA:  39    -0.265109202590E+02   -0.16192E-03   -0.16176E-03   496   0.219E-03 0.791E-06
CGA:  40    -0.265109951231E+02   -0.74864E-04   -0.74900E-04   496   0.106E-03-0.303E-06
CGA:  41    -0.265110265982E+02   -0.31475E-04   -0.31508E-04   496   0.526E-04-0.601E-06
CGA:  42    -0.265110506427E+02   -0.24045E-04   -0.24107E-04   496   0.463E-04-0.289E-06
CGA:  43    -0.265110687108E+02   -0.18068E-04   -0.18069E-04   496   0.288E-04 0.316E-08
CGA:  44    -0.265110796296E+02   -0.10919E-04   -0.10909E-04   496   0.199E-04 0.804E-07
CGA:  45    -0.265110862657E+02   -0.66362E-05   -0.66367E-05   496   0.109E-04-0.479E-08
   1 F= -.26511086E+02 E0= -.26513630E+02  d E =0.763155E-02
