 vasp.6.4.2 20Jul23 (build Nov 12 2023 22:16:35) complex                         
 executed on              LinuxNV date 2025.03.14  23:05:41
 running    4 mpi-ranks, on    1 nodes
 distrk:  each k-point on    1 cores,    4 groups
 distr:  one band on NCORE=   1 cores,    1 groups
 OpenACC runtime initialized ...    4 GPUs detected


--------------------------------------------------------------------------------------------------------


 INCAR:
   PREC = Normal
   ENCUT = 450
   NELM = 500
   IBRION = -1
   ISPIN = 1
   NSW = 0
   ISIF = 2
   EDIFF = 1E-5
   EDIFFG = -5E-3
   ISTART = 0
   ICHARG = 0
   ISMEAR = 1
   SIGMA = 0.2
   LWAVE = .T.
   LCHARG = .T.
   LREAL = Auto
   LPLANE = .TRUE.
   NPAR = 1
   KPAR = 4
   NCORE = 1
   ALGO = All
   LHFCALC = .TRUE.
   HSE06 = .TRUE.
   HFSCREEN = 0.2
   TIME = 0.4
   AEXX = 0.32
   LMAXFOCK = 4
   PRECFOCK = Fast

 POTCAR:    PAW_PBE Ga_d 06Jul2010                
 POTCAR:    PAW_PBE Ga_d 06Jul2010                
   SHA256 =  a60ddf36e14f00ea098d9e3914b3745f1b7105e68786148f49ae384e44b4226c Ga_d/POTCAR           
   COPYR  = (c) Copyright 06Jul2010 Georg Kresse                                                    
   COPYR  = This file is part of the software VASP. Any use, copying, and all other rights are regul
   COPYR  = If you do not have a valid VASP license, you may not use, copy or distribute this file. 
   VRHFIN =Ga: s2p1                                                                                 
   LEXCH  = PE                                                                                      
   EATOM  =  2148.8298 eV,  157.9345 Ry                                                             
                                                                                                    
   TITEL  = PAW_PBE Ga_d 06Jul2010                                                                  
   LULTRA =        F    use ultrasoft PP ?                                                          
   IUNSCR =        1    unscreen: 0-lin 1-nonlin 2-no                                               
   RPACOR =    1.700    partial core radius                                                         
   POMASS =   69.723; ZVAL   =   13.000    mass and valenz                                          
   RCORE  =    2.300    outmost cutoff radius                                                       
   RWIGS  =    2.300; RWIGS  =    1.217    wigner-seitz radius (au A)                               
   ENMAX  =  282.691; ENMIN  =  212.018 eV                                                          
   ICORE  =        3    local potential                                                             
   LCOR   =        T    correct aug charges                                                         
   LPAW   =        T    paw PP                                                                      
   EAUG   =  490.690                                                                                
   DEXC   =    0.000                                                                                
   RMAX   =    2.341    core radius for proj-oper                                                   
   RAUG   =    1.300    factor for augmentation sphere                                              
   RDEP   =    2.413    radius for radial grids                                                     
   RDEPT  =    1.856    core radius for aug-charge                                                  
                                                                                                    
   Atomic configuration                                                                             
    9 entries                                                                                       
     n  l   j            E        occ.                                                              
     1  0  0.50    -10228.7831   2.0000                                                             
     2  0  0.50     -1262.1604   2.0000                                                             
     2  1  1.50     -1098.6333   6.0000                                                             
     3  0  0.50      -148.1110   2.0000                                                             
     3  1  1.50       -98.8436   6.0000                                                             
     3  2  2.50       -19.1549  10.0000                                                             
     4  0  0.50        -8.9483   2.0000                                                             
     4  1  0.50        -2.5791   1.0000                                                             
     4  3  2.50        -2.7416   0.0000                                                             
   Description                                                                                      
     l       E           TYP  RCUT    TYP  RCUT                                                     
     2    -19.1549037     23  2.300                                                                 
     2     -5.4423304     23  2.300                                                                 
     0     -8.9483111     23  2.300                                                                 
     0     68.0291300     23  2.300                                                                 
     1     -2.5790802     23  2.100                                                                 
     1     81.6349560     23  2.300                                                                 
     3      6.8029130     23  2.300                                                                 
  local pseudopotential read in
  partial core-charges read in
  partial kinetic energy density read in
  atomic valenz-charges read in
  non local Contribution for L=            2  read in
    real space projection operators read in
  non local Contribution for L=            2  read in
    real space projection operators read in
  non local Contribution for L=            0  read in
    real space projection operators read in
  non local Contribution for L=            0  read in
    real space projection operators read in
  non local Contribution for L=            1  read in
    real space projection operators read in
  non local Contribution for L=            1  read in
    real space projection operators read in
    PAW grid and wavefunctions read in
 
   number of l-projection  operators is LMAX  =            6
   number of lm-projection operators is LMMAX =           18
 
 -----------------------------------------------------------------------------
|                                                                             |
|               ----> ADVICE to this user running VASP <----                  |
|                                                                             |
|     You have a (more or less) 'small supercell' and for smaller cells       |
|     it is recommended to use the reciprocal-space projection scheme!        |
|     The real-space optimization is not efficient for small cells and it     |
|     is also less accurate ...                                               |
|     Therefore, set LREAL=.FALSE. in the INCAR file.                         |
|                                                                             |
 -----------------------------------------------------------------------------

 Optimization of the real space projectors (new method)

 maximal supplied QI-value         = 16.25
 optimisation between [QCUT,QGAM] = [ 10.73, 21.61] = [ 32.22,130.83] Ry 
 Optimized for a Real-space Cutoff    1.42 Angstroem

   l    n(q)    QCUT    max X(q) W(low)/X(q) W(high)/X(q)  e(spline) 
   2      8    10.726     7.143    0.22E-03    0.16E-03    0.73E-07
   2      8    10.726     5.586    0.40E-03    0.26E-03    0.10E-06
   0      9    10.726    12.382    0.25E-04    0.21E-05    0.37E-07
   0      9    10.726     6.622    0.42E-04    0.48E-05    0.77E-07
   1      9    10.726     7.935    0.27E-03    0.13E-04    0.16E-06
   1      9    10.726     2.425    0.23E-03    0.15E-04    0.14E-06
  PAW_PBE Ga_d 06Jul2010                :
 energy of atom  1       EATOM=-2148.8298
 kinetic energy error for atom=    0.0038 (will be added to EATOM!!)
 
 
 POSCAR: Ga8
  positions in direct lattice
  velocities in cartesian coordinates
 exchange correlation table for  LEXCH =        8
   RHO(1)=    0.500       N(1)  =     2000
   RHO(2)=  100.500       N(2)  =     4000
 


--------------------------------------------------------------------------------------------------------


 ion  position               nearest neighbor table
   1  0.000  0.337  0.401-   8 2.61   8 2.61   3 2.63   2 2.64   2 2.64   7 2.73   7 2.73
   2  0.000  0.163  0.901-   7 2.61   7 2.61   4 2.63   1 2.64   1 2.64   8 2.73   8 2.73
   3  0.000  0.663  0.599-   6 2.61   6 2.61   1 2.63   4 2.64   4 2.64   5 2.73   5 2.73
   4  0.000  0.837  0.099-   5 2.61   5 2.61   2 2.63   3 2.64   3 2.64   6 2.73   6 2.73
   5  0.500  0.837  0.401-   4 2.61   4 2.61   7 2.63   6 2.64   6 2.64   3 2.73   3 2.73
   6  0.500  0.663  0.901-   3 2.61   3 2.61   8 2.63   5 2.64   5 2.64   4 2.73   4 2.73
   7  0.500  0.163  0.599-   2 2.61   2 2.61   5 2.63   8 2.64   8 2.64   1 2.73   1 2.73
   8  0.500  0.337  0.099-   1 2.61   1 2.61   6 2.63   7 2.64   7 2.64   2 2.73   2 2.73
 
  LATTYP: Found a simple orthorhombic cell.
 ALAT       =     4.4320466607
 B/A-ratio  =     1.0278554985
 C/A-ratio  =     1.7143284496
  
  Lattice vectors:
  
 A1 = (  -4.4320466607,   0.0000000000,  -0.0000000000)
 A2 = (   0.0000000000,   0.0000000000,   4.5555035300)
 A3 = (  -0.0000000000,   7.5979836803,   0.0000000000)


Analysis of symmetry for initial positions (statically):
=====================================================================
 Subroutine PRICEL returns following result:
 
  LATTYP: Found a base centered orthorhombic cell.
 ALAT       =     4.4320466607
 B/A-ratio  =     1.7143284496
 C/A-ratio  =     1.0278554985
  
  Lattice vectors:
  
 A1 = (   2.2160233304,  -3.7989918401,   0.0000000000)
 A2 = (   2.2160233304,   3.7989918401,   0.0000000000)
 A3 = (   0.0000000000,   0.0000000000,   4.5555035300)
 
   2 primitive cells build up your supercell.
 

 Routine SETGRP: Setting up the symmetry group for a 
 simple orthorhombic supercell.


 Subroutine GETGRP returns: Found  8 space group operations
 (whereof  4 operations were pure point group operations)
 out of a pool of  8 trial point group operations.


The static configuration has the point symmetry C_2h.
 The point group associated with its full space group is D_2h.


Analysis of symmetry for dynamics (positions and initial velocities):
=====================================================================
 Subroutine PRICEL returns following result:
 
  LATTYP: Found a base centered orthorhombic cell.
 ALAT       =     4.4320466607
 B/A-ratio  =     1.7143284496
 C/A-ratio  =     1.0278554985
  
  Lattice vectors:
  
 A1 = (   2.2160233304,  -3.7989918401,   0.0000000000)
 A2 = (   2.2160233304,   3.7989918401,   0.0000000000)
 A3 = (   0.0000000000,   0.0000000000,   4.5555035300)
 
   2 primitive cells build up your supercell.
 

 Routine SETGRP: Setting up the symmetry group for a 
 simple orthorhombic supercell.


 Subroutine GETGRP returns: Found  8 space group operations
 (whereof  4 operations were pure point group operations)
 out of a pool of  8 trial point group operations.


The dynamic configuration has the point symmetry C_2h.
 The point group associated with its full space group is D_2h.


 Subroutine INISYM returns: Found  8 space group operations
 (whereof  4 operations are pure point group operations),
 and found     2 'primitive' translations


----------------------------------------------------------------------------------------

                                     Primitive cell                                     

  volume of cell :      76.7024

  direct lattice vectors                    reciprocal lattice vectors
     2.216023330 -3.798991840  0.000000000     0.225629393 -0.131613865  0.000000000
     2.216023330  3.798991840  0.000000000     0.225629393  0.131613865 -0.000000000
     0.000000000  0.000000000  4.555503530    -0.000000000 -0.000000000  0.219514702

  length of vectors
     4.398078945  4.398078945  4.555503530     0.261210323  0.261210323  0.219514702

  position of ions in fractional coordinates (direct lattice)
     0.662795013  0.337204987  0.401079531
     0.837204987  0.162795013  0.901079531
     0.337204987  0.662795013  0.598920469
     0.162795013  0.837204987  0.098920469

  ion indices of the primitive-cell ions
   primitive index   ion index
                 1           1
                 2           2
                 3           3
                 4           4

----------------------------------------------------------------------------------------

 
 
 KPOINTS: Automatic mesh                          

Automatic generation of k-mesh.
 Grid dimensions read from file:
 generate k-points for:    2    2    2

 Generating k-lattice:

  Cartesian coordinates                     Fractional coordinates (reciprocal lattice)
     0.112814697  0.000000000 -0.000000000     0.500000000 -0.000000000  0.000000000
     0.000000000  0.065806933  0.000000000     0.000000000  0.500000000  0.000000000
    -0.000000000 -0.000000000  0.109757351     0.000000000 -0.000000000  0.500000000

  Length of vectors
     0.112814697  0.065806933  0.109757351

  Shift w.r.t. Gamma in fractional coordinates (k-lattice)
     0.000000000  0.000000000  0.000000000

 
 Subroutine IBZKPT returns following result:
 ===========================================
 
 Found      8 irreducible k-points:
 
 Following reciprocal coordinates:
            Coordinates               Weight
  0.000000  0.000000  0.000000      1.000000
  0.500000  0.000000  0.000000      1.000000
  0.000000  0.500000  0.000000      1.000000
  0.500000  0.500000  0.000000      1.000000
  0.000000  0.000000  0.500000      1.000000
  0.500000  0.000000  0.500000      1.000000
  0.000000  0.500000  0.500000      1.000000
  0.500000  0.500000  0.500000      1.000000
 
 Following cartesian coordinates:
            Coordinates               Weight
  0.000000  0.000000  0.000000      1.000000
  0.112815  0.000000  0.000000      1.000000
  0.000000  0.065807  0.000000      1.000000
  0.112815  0.065807  0.000000      1.000000
  0.000000  0.000000  0.109757      1.000000
  0.112815  0.000000  0.109757      1.000000
  0.000000  0.065807  0.109757      1.000000
  0.112815  0.065807  0.109757      1.000000
 
 
 Subroutine IBZKPT_HF returns following result:
 ==============================================
 
 Found      8 k-points in 1st BZ
 the following      8 k-points will be used (e.g. in the exchange kernel)
 Following reciprocal coordinates:   # in IRBZ
  0.000000  0.000000  0.000000    0.12500000   1 t-inv F
  0.500000  0.000000  0.000000    0.12500000   2 t-inv F
  0.000000  0.500000  0.000000    0.12500000   3 t-inv F
  0.500000  0.500000  0.000000    0.12500000   4 t-inv F
  0.000000  0.000000  0.500000    0.12500000   5 t-inv F
  0.500000  0.000000  0.500000    0.12500000   6 t-inv F
  0.000000  0.500000  0.500000    0.12500000   7 t-inv F
  0.500000  0.500000  0.500000    0.12500000   8 t-inv F


--------------------------------------------------------------------------------------------------------




 Dimension of arrays:
   k-points           NKPTS =      8   k-points in BZ     NKDIM =      8   number of bands    NBANDS=     62
   number of dos      NEDOS =    301   number of ions     NIONS =      8
   non local maximal  LDIM  =      6   non local SUM 2l+1 LMDIM =     18
   total plane-waves  NPLWV =  23040
   max r-space proj   IRMAX =   1860   max aug-charges    IRDMAX=   5891
   dimension x,y,z NGX =    24 NGY =   40 NGZ =   24
   dimension x,y,z NGXF=    48 NGYF=   80 NGZF=   48
   support grid    NGXF=    48 NGYF=   80 NGZF=   48
   ions per type =               8
   NGX,Y,Z   is equivalent  to a cutoff of   9.00,  8.75,  8.76 a.u.
   NGXF,Y,Z  is equivalent  to a cutoff of  18.00, 17.50, 17.52 a.u.

 SYSTEM =  unknown system                          
 POSCAR =  Ga8                                     

 Startparameter for this run:
   NWRITE =      2    write-flag & timer
   PREC   = normal    normal or accurate (medium, high low for compatibility)
   ISTART =      0    job   : 0-new  1-cont  2-samecut
   ICHARG =      0    charge: 1-file 2-atom 10-const
   ISPIN  =      1    spin polarized calculation?
   LNONCOLLINEAR =      F non collinear calculations
   LSORBIT =      F    spin-orbit coupling
   INIWAV =      1    electr: 0-lowe 1-rand  2-diag
   LASPH  =      F    aspherical Exc in radial PAW
 Electronic Relaxation 1
   ENCUT  =  450.0 eV  33.07 Ry    5.75 a.u.   7.67 13.14  7.88*2*pi/ulx,y,z
   ENINI  =  450.0     initial cutoff
   ENAUG  =  490.7 eV  augmentation charge cutoff
   NELM   =    500;   NELMIN=  2; NELMDL= -5     # of ELM steps 
   EDIFF  = 0.1E-04   stopping-criterion for ELM
   LREAL  =      T    real-space projection
   NLSPLINE    = F    spline interpolate recip. space projectors
   LCOMPAT=      F    compatible to vasp.4.4
   GGA_COMPAT  = T    GGA compatible to vasp.4.4-vasp.4.6
   LMAXPAW     = -100 max onsite density
   LMAXMIX     =    2 max onsite mixed and CHGCAR
   VOSKOWN=      0    Vosko Wilk Nusair interpolation
   ROPT   =   -0.00050
 Ionic relaxation
   EDIFFG = -.5E-02   stopping-criterion for IOM
   NSW    =      0    number of steps for IOM
   NBLOCK =      1;   KBLOCK =      1    inner block; outer block 
   IBRION =     -1    ionic relax: 0-MD 1-quasi-New 2-CG
   NFREE  =      0    steps in history (QN), initial steepest desc. (CG)
   ISIF   =      2    stress and relaxation
   IWAVPR =     10    prediction:  0-non 1-charg 2-wave 3-comb
   ISYM   =      3    0-nonsym 1-usesym 2-fastsym
   LCORR  =      T    Harris-Foulkes like correction to forces

   POTIM  = 0.5000    time-step for ionic-motion
   TEIN   =    0.0    initial temperature
   TEBEG  =    0.0;   TEEND  =   0.0 temperature during run
   SMASS  =  -3.00    Nose mass-parameter (am)
   estimated Nose-frequenzy (Omega)   =  0.10E-29 period in steps = 0.13E+47 mass=  -0.449E-27a.u.
   SCALEE = 1.0000    scale energy and forces
   NPACO  =    256;   APACO  = 10.0  distance and # of slots for P.C.
   PSTRESS=    0.0 pullay stress

  Mass of Ions in am
   POMASS =  69.72
  Ionic Valenz
   ZVAL   =  13.00
  Atomic Wigner-Seitz radii
   RWIGS  =  -1.00
  virtual crystal weights 
   VCA    =   1.00
   NELECT =     104.0000    total number of electrons
   NUPDOWN=      -1.0000    fix difference up-down

 DOS related values:
   EMIN   =  10.00;   EMAX   =-10.00  energy-range for DOS
   EFERMI =   0.00;   METHOD = LEGACY      
   ISMEAR =     1;   SIGMA  =   0.20  broadening in eV -4-tet -1-fermi 0-gaus

 Electronic relaxation 2 (details)
   IALGO  =     58    algorithm
   LDIAG  =      T    sub-space diagonalisation (order eigenvalues)
   LSUBROT=      F    optimize rotation matrix (better conditioning)
   TURBO    =      0    0=normal 1=particle mesh
   IRESTART =      0    0=no restart 2=restart with 2 vectors
   NREBOOT  =      0    no. of reboots
   NMIN     =      0    reboot dimension
   EREF     =   0.00    reference energy to select bands
   IMIX   =      4    mixing-type and parameters
     AMIX     =   0.40;   BMIX     =  1.00
     AMIX_MAG =   1.60;   BMIX_MAG =  1.00
     AMIN     =   0.10
     WC   =   100.;   INIMIX=   1;  MIXPRE=   1;  MAXMIX= -45

 Intra band minimization:
   WEIMIN = 0.0000     energy-eigenvalue tresh-hold
   EBREAK =  0.40E-07  absolut break condition
   DEPER  =   0.30     relativ break condition  

   TIME   =   0.40     timestep for ELM

  volume/ion in A,a.u.               =      19.18       129.40
  Fermi-wavevector in a.u.,A,eV,Ry     =   1.438157  2.717722 28.140864  2.068295
  Thomas-Fermi vector in A             =   2.557155
 
 Write flags
   LWAVE        =      T    write WAVECAR
   LDOWNSAMPLE  =      F    k-point downsampling of WAVECAR
   LCHARG       =      T    write CHGCAR
   LVTOT        =      F    write LOCPOT, total local potential
   LVHAR        =      F    write LOCPOT, Hartree potential only
   LELF         =      F    write electronic localiz. function (ELF)
   LORBIT       =      0    0 simple, 1 ext, 2 COOP (PROOUT), +10 PAW based schemes


 Dipole corrections
   LMONO  =      F    monopole corrections only (constant potential shift)
   LDIPOL =      F    correct potential (dipole corrections)
   IDIPOL =      0    1-x, 2-y, 3-z, 4-all directions 
   EPSILON=  1.0000000 bulk dielectric constant

 Exchange correlation treatment:
   GGA     =    --    GGA type
   LEXCH   =     8    internal setting for exchange type
   LIBXC   =     F    Libxc                    
   VOSKOWN =     0    Vosko Wilk Nusair interpolation
   EXXOEP  =     0    0=HF, 1=EXX-LHF (local Hartree Fock) 2=EXX OEP
   LHFCALC =     T    Hartree Fock is set to
   LSYMGRAD=     F    symmetrize gradient (conserves proper symmetry)
   PRECFOCK=fast      Normal, Fast or Accurate (Low or Medium for compatibility)
   LRHFCALC=     F    long range Hartree Fock
   LRSCOR  =     F    long range correlation only (use DFT for short range part)
   LTHOMAS =     F    Thomas Fermi screening in HF
   LMODELHF=     F    short range full HF, long range fraction AEXX
   FOCKCORR=     1    mode to apply convergence corrections
   LFOCKACE=     T    use Adeptively-Compressed-Exchange operator
   ENCUT4O =  -1.0   cutoff for four orbital integrals eV
   LMAXFOCK=     4    L truncation for augmentation on plane wave grid
   LMAXFOCKAE=  -1    L truncation for all-electron charge restoration on plane wave grid
   NMAXFOCKAE=   1    number of basis functions for all-electron charge restoration
   LFOCKAEDFT=     F  apply the AE augmentation even for DFT
   NKREDX  =     1    reduce k-point grid by
   NKREDY  =     1    reduce k-point grid by
   NKREDZ  =     1    reduce k-point grid by
   SHIFTRED=     F    shift reduced grid of Gamma
   HFKIDENT=     F    idential grid for each k-point
   ODDONLY =     F    use only odd q-grid points
   EVENONLY=     F    use only even q-grid points
   HFALPHA =   -1.0000 decay constant for conv. correction
   MCALPHA =    0.0000 extent of test-charge in conv. correction in multipole expansion
   AEXX    =    0.3200 exact exchange contribution
   HFSCREEN=    0.2000 screening length (either q_TF or 0.3 A-1)
   HFSCREENC=   0.2000 screening length for correlation (either q_TF or 0.3 A-1)
   HFRCUT  =    0.0000 spherical cutoff for potential kernel
   ALDAX   =    0.6800 LDA exchange part
   AGGAX   =    0.6800 GGA exchange part
   ALDAC   =    1.0000 LDA correlation
   AGGAC   =    1.0000 GGA correlation
   ENCUTFOCK=  -1.0 apply spherical cutoff to Coloumb kernel
   NBANDSGWLOW=     1    first orbital included in HF term
   NBLOCK_FOCK=    64    blocking factor in FOCK_ACC

 Linear response parameters
   LEPSILON=     F    determine dielectric tensor
   LRPA    =     F    only Hartree local field effects (RPA)
   LNABLA  =     F    use nabla operator in PAW spheres
   LVEL    =     F    velocity operator in full k-point grid
   CSHIFT  =0.1000    complex shift for real part using Kramers Kronig
   OMEGAMAX=  -1.0    maximum frequency
   DEG_THRESHOLD= 0.2000000E-02 threshold for treating states as degnerate
   RTIME   =   -0.100 relaxation time in fs
  (WPLASMAI=    0.000 imaginary part of plasma frequency in eV, 0.658/RTIME)
   DFIELD  = 0.0000000 0.0000000 0.0000000 field for delta impulse in time
 
  Optional k-point grid parameters
   LKPOINTS_OPT  =     F    use optional k-point grid
   KPOINTS_OPT_MODE=     1    mode for optional k-point grid
 
 Orbital magnetization related:
   ORBITALMAG=     F  switch on orbital magnetization
   LCHIMAG   =     F  perturbation theory with respect to B field
   DQ        =  0.001000  dq finite difference perturbation B field
   LLRAUG    =     F  two centre corrections for induced B field
   LBONE     =     F  B-component reconstruction in AE one-centre
   LVGVCALC  =     T  calculate vGv susceptibility
   LVGVAPPL  =     F  apply vGv susceptibility instead of pGv for G=0

 Random number generation:
   RANDOM_GENERATOR = DEFAULT
   PCG_SEED         = not used


--------------------------------------------------------------------------------------------------------


 Static calculation
 charge density and potential will be updated during run
 non-spin polarized calculation
 Conjugate gradient for all bands (Freysoldt, et al. PRB 79, 241103 (2009))
 preconditioned conjugated gradient                                        
 perform sub-space diagonalisation
    before iterative eigenvector-optimisation
 modified Broyden-mixing scheme, WC =      100.0
 initial mixing is a Kerker type mixing with AMIX =  0.4000 and BMIX =      1.0000
 Hartree-type preconditioning will be used
 using additional bands            10
 real space projection scheme for non local part
 use partial core corrections
 no Harris-corrections to forces 
 use gradient corrections 
 use of overlap-Matrix (Vanderbilt PP)
 Methfessel and Paxton  Order N= 1 SIGMA  =   0.20


--------------------------------------------------------------------------------------------------------


  energy-cutoff  :      450.00
  volume of cell :      153.40
      direct lattice vectors                 reciprocal lattice vectors
     4.432046661  0.000000000  0.000000000     0.225629393  0.000000000 -0.000000000
    -0.000000000  7.597983680  0.000000000     0.000000000  0.131613865  0.000000000
     0.000000000  0.000000000  4.555503530    -0.000000000 -0.000000000  0.219514702

  length of vectors
     4.432046661  7.597983680  4.555503530     0.225629393  0.131613865  0.219514702


 
 k-points in units of 2pi/SCALE and weight: Automatic mesh                          
   0.00000000  0.00000000  0.00000000       0.125
   0.11281470  0.00000000  0.00000000       0.125
   0.00000000  0.06580693  0.00000000       0.125
   0.11281470  0.06580693  0.00000000       0.125
   0.00000000  0.00000000  0.10975735       0.125
   0.11281470  0.00000000  0.10975735       0.125
   0.00000000  0.06580693  0.10975735       0.125
   0.11281470  0.06580693  0.10975735       0.125
 
 k-points in reciprocal lattice and weights: Automatic mesh                          
   0.00000000  0.00000000  0.00000000       0.125
   0.50000000  0.00000000  0.00000000       0.125
   0.00000000  0.50000000  0.00000000       0.125
   0.50000000  0.50000000  0.00000000       0.125
   0.00000000  0.00000000  0.50000000       0.125
   0.50000000  0.00000000  0.50000000       0.125
   0.00000000  0.50000000  0.50000000       0.125
   0.50000000  0.50000000  0.50000000       0.125
 
 position of ions in fractional coordinates (direct lattice) 
   0.00000000  0.33720499  0.40107953
   0.00000000  0.16279501  0.90107953
   0.00000000  0.66279501  0.59892047
   0.00000000  0.83720499  0.09892047
   0.50000000  0.83720499  0.40107953
   0.50000000  0.66279501  0.90107953
   0.50000000  0.16279501  0.59892047
   0.50000000  0.33720499  0.09892047
 
 position of ions in cartesian coordinates  (Angst):
  -0.00000000  2.56207799  1.82711922
  -0.00000000  1.23691385  4.10487099
  -0.00000000  5.03590569  2.72838431
  -0.00000000  6.36106983  0.45063254
   2.21602333  6.36106983  1.82711922
   2.21602333  5.03590569  4.10487099
   2.21602333  1.23691385  2.72838431
   2.21602333  2.56207799  0.45063254
 


--------------------------------------------------------------------------------------------------------


 k-point   1 :   0.0000 0.0000 0.0000  plane waves:    3339
 k-point   2 :   0.5000 0.0000 0.0000  plane waves:    3348
 k-point   3 :   0.0000 0.5000 0.0000  plane waves:    3314
 k-point   4 :   0.5000 0.5000 0.0000  plane waves:    3320
 k-point   5 :   0.0000 0.0000 0.5000  plane waves:    3352
 k-point   6 :   0.5000 0.0000 0.5000  plane waves:    3308
 k-point   7 :   0.0000 0.5000 0.5000  plane waves:    3340
 k-point   8 :   0.5000 0.5000 0.5000  plane waves:    3304

 maximum and minimum number of plane-waves per node :      3352     3304

 maximum number of plane-waves:      3352
 maximum index in each direction: 
   IXMAX=    7   IYMAX=   13   IZMAX=    7
   IXMIN=   -8   IYMIN=  -13   IZMIN=   -8


 serial   3D FFT for wavefunctions
 parallel 3D FFT for charge:
    minimum data exchange during FFTs selected (reduces bandwidth)


 FFT grid for exact exchange (Hartree Fock) 
  NGX = 18; NGY = 30; NGZ = 18

 
 Radii for the augmentation spheres in the non-local exchange
 for species   1 augmentation radius   1.392 (default was   1.031)
       energy cutoff for augmentation   1800.0
 Maximum index for augmentation-charges in exchange           717
  SETUP_FOCK is finished

 total amount of memory used by VASP MPI-rank0   133812. kBytes
=======================================================================

   base      :      30000. kBytes
   nonlr-proj:       3822. kBytes
   fftplans  :       6540. kBytes
   grid      :      10030. kBytes
   one-center:        124. kBytes
   HF        :         64. kBytes
   wavefun   :      83232. kBytes
 
     INWAV:  cpu time      0.0001: real time      0.0001
 Broyden mixing: mesh for mixing (old mesh)
   NGX = 15   NGY = 27   NGZ = 15
  (NGX  = 48   NGY  = 80   NGZ  = 48)
  gives a total of   6075 points

 charge density for first step will be calculated from the start-wavefunctions


--------------------------------------------------------------------------------------------------------


 Maximum index for non-local projection operator          1748
 Maximum index for augmentation-charges          5521 (set IRDMAX)


--------------------------------------------------------------------------------------------------------


 initial charge from wavefunction
 First call to EWALD:  gamma=   0.331
 Maximum number of real-space cells 3x 2x 3
 Maximum number of reciprocal cells 2x 4x 2

    FEWALD:  cpu time      0.0012: real time      0.0012


--------------------------------------- Ionic step        1  -------------------------------------------




--------------------------------------- Iteration      1(   1)  ---------------------------------------


    POTLOK:  cpu time      0.0290: real time      0.0290
    SETDIJ:  cpu time      0.0239: real time      0.0239
    TRIAL :  cpu time      0.3151: real time      0.3182
    CORREC:  cpu time      0.0005: real time      0.0005
    --------------------------------------------
      LOOP:  cpu time      0.3878: real time      0.3909

 eigenvalue-minimisations  :  1276
 total energy-change (2. order) :-0.8104984E+04  (-0.1072928E+05)
 number of electron     103.9999993 magnetization 
 augmentation part       15.2602294 magnetization 

 Free energy of the ion-electron system (eV)
  ---------------------------------------------------
  alpha Z        PSCENC =       563.37210189
  Ewald energy   TEWEN  =    -10075.62109696
  -Hartree energ DENC   =      -213.26787051
  -exchange      EXHF   =         0.00000000
  -V(xc)+E(xc)   XCENC  =       192.64815077
  PAW double counting   =      5085.59337777    -9302.76631405
  entropy T*S    EENTRO =         0.00145096
  eigenvalues    EBANDS =    -11528.49539316
  atomic energy  EATOM  =     17173.55118989
  ---------------------------------------------------
  free energy    TOTEN  =     -8104.98440341 eV

  energy without entropy =    -8104.98585436  energy(sigma->0) =    -8104.98488706
  exchange ACFDT corr.  =         0.00000000  see jH, gK, PRB 81, 115126


--------------------------------------------------------------------------------------------------------




--------------------------------------- Iteration      1(   2)  ---------------------------------------


    TRIAL :  cpu time      0.2102: real time      0.2102
    CORREC:  cpu time      0.0005: real time      0.0005
    --------------------------------------------
      LOOP:  cpu time      0.2109: real time      0.2117

 eigenvalue-minimisations  :  1288
 total energy-change (2. order) :-0.1990881E+04  (-0.1977808E+04)
 number of electron     103.9999993 magnetization 
 augmentation part       15.2602294 magnetization 

 Free energy of the ion-electron system (eV)
  ---------------------------------------------------
  alpha Z        PSCENC =       563.37210189
  Ewald energy   TEWEN  =    -10075.62109696
  -Hartree energ DENC   =      -213.26787051
  -exchange      EXHF   =         0.00000000
  -V(xc)+E(xc)   XCENC  =       192.64815077
  PAW double counting   =      5085.59337777    -9302.76631405
  entropy T*S    EENTRO =        -0.01073278
  eigenvalues    EBANDS =    -13519.36377655
  atomic energy  EATOM  =     17173.55118989
  ---------------------------------------------------
  free energy    TOTEN  =    -10095.86497053 eV

  energy without entropy =   -10095.85423775  energy(sigma->0) =   -10095.86139294
  exchange ACFDT corr.  =         0.00000000  see jH, gK, PRB 81, 115126


--------------------------------------------------------------------------------------------------------




--------------------------------------- Iteration      1(   3)  ---------------------------------------


    TRIAL :  cpu time      0.2461: real time      0.2460
    CORREC:  cpu time      0.0006: real time      0.0006
    --------------------------------------------
      LOOP:  cpu time      0.2468: real time      0.2472

 eigenvalue-minimisations  :  1744
 total energy-change (2. order) :-0.2349474E+03  (-0.2309391E+03)
 number of electron     103.9999993 magnetization 
 augmentation part       15.2602294 magnetization 

 Free energy of the ion-electron system (eV)
  ---------------------------------------------------
  alpha Z        PSCENC =       563.37210189
  Ewald energy   TEWEN  =    -10075.62109696
  -Hartree energ DENC   =      -213.26787051
  -exchange      EXHF   =         0.00000000
  -V(xc)+E(xc)   XCENC  =       192.64815077
  PAW double counting   =      5085.59337777    -9302.76631405
  entropy T*S    EENTRO =         0.00460941
  eigenvalues    EBANDS =    -13754.32653193
  atomic energy  EATOM  =     17173.55118989
  ---------------------------------------------------
  free energy    TOTEN  =    -10330.81238372 eV

  energy without entropy =   -10330.81699313  energy(sigma->0) =   -10330.81392019
  exchange ACFDT corr.  =         0.00000000  see jH, gK, PRB 81, 115126


--------------------------------------------------------------------------------------------------------




--------------------------------------- Iteration      1(   4)  ---------------------------------------


    TRIAL :  cpu time      0.2551: real time      0.2551
    CORREC:  cpu time      0.0006: real time      0.0006
    --------------------------------------------
      LOOP:  cpu time      0.2559: real time      0.2562

 eigenvalue-minimisations  :  1828
 total energy-change (2. order) :-0.1858573E+02  (-0.1686505E+02)
 number of electron     103.9999993 magnetization 
 augmentation part       15.2602294 magnetization 

 Free energy of the ion-electron system (eV)
  ---------------------------------------------------
  alpha Z        PSCENC =       563.37210189
  Ewald energy   TEWEN  =    -10075.62109696
  -Hartree energ DENC   =      -213.26787051
  -exchange      EXHF   =         0.00000000
  -V(xc)+E(xc)   XCENC  =       192.64815077
  PAW double counting   =      5085.59337777    -9302.76631405
  entropy T*S    EENTRO =         0.02101468
  eigenvalues    EBANDS =    -13772.92866645
  atomic energy  EATOM  =     17173.55118989
  ---------------------------------------------------
  free energy    TOTEN  =    -10349.39811298 eV

  energy without entropy =   -10349.41912766  energy(sigma->0) =   -10349.40511787
  exchange ACFDT corr.  =         0.00000000  see jH, gK, PRB 81, 115126


--------------------------------------------------------------------------------------------------------




--------------------------------------- Iteration      1(   5)  ---------------------------------------


    POTLOK:  cpu time      0.1906: real time      0.1905
    SETDIJ:  cpu time      0.1941: real time      0.1940
    TRIAL :  cpu time      1.1188: real time      1.1187
    CORREC:  cpu time      0.0005: real time      0.0005
    CHARGE:  cpu time      0.0250: real time      0.0249
    --------------------------------------------
      LOOP:  cpu time      1.5291: real time      1.5293

 eigenvalue-minimisations  :  1664
 total energy-change (2. order) : 0.4646659E+04  (-0.7364275E+01)
 number of electron     103.9999907 magnetization 
 augmentation part       72.5449459 magnetization 

 Free energy of the ion-electron system (eV)
  ---------------------------------------------------
  alpha Z        PSCENC =       563.37210189
  Ewald energy   TEWEN  =    -10075.62109696
  -Hartree energ DENC   =      -213.26787051
  -exchange      EXHF   =       408.58771898
  -V(xc)+E(xc)   XCENC  =       131.03839792
  PAW double counting   =      5118.38077382    -5300.25476108
  entropy T*S    EENTRO =         0.00420907
  eigenvalues    EBANDS =    -13508.53004177
  atomic energy  EATOM  =     17173.55118989
  ---------------------------------------------------
  free energy    TOTEN  =     -5702.73937875 eV

  energy without entropy =    -5702.74358781  energy(sigma->0) =    -5702.74078177
  exchange ACFDT corr.  =         0.01693752  see jH, gK, PRB 81, 115126


--------------------------------------------------------------------------------------------------------




--------------------------------------- Iteration      1(   6)  ---------------------------------------


    POTLOK:  cpu time      0.1855: real time      0.1854
    SETDIJ:  cpu time      0.1922: real time      0.1922
    TRIAL :  cpu time      1.0234: real time      1.0232
    CORREC:  cpu time      1.3746: real time      1.3744
    CHARGE:  cpu time      0.0244: real time      0.0244
    --------------------------------------------
      LOOP:  cpu time      2.8004: real time      2.8004

 eigenvalue-minimisations  :     0
 total energy-change (2. order) : 0.7340244E+04  (-0.1540521E+04)
 number of electron     103.9999946 magnetization 
 augmentation part       69.6606383 magnetization 

 Free energy of the ion-electron system (eV)
  ---------------------------------------------------
  alpha Z        PSCENC =       563.37210189
  Ewald energy   TEWEN  =    -10075.62109696
  -Hartree energ DENC   =     -7651.58325592
  -exchange      EXHF   =       415.52299105
  -V(xc)+E(xc)   XCENC  =       324.96782181
  PAW double counting   =     18018.41021568   -22063.41991602
  entropy T*S    EENTRO =         0.00867159
  eigenvalues    EBANDS =      4932.30063145
  atomic energy  EATOM  =     17173.55118989
  ---------------------------------------------------
  free energy    TOTEN  =      1637.50489193 eV

  energy without entropy =     1637.49622033  energy(sigma->0) =     1637.50200139
  exchange ACFDT corr.  =         0.00695132  see jH, gK, PRB 81, 115126


--------------------------------------------------------------------------------------------------------




--------------------------------------- Iteration      1(   7)  ---------------------------------------


    POTLOK:  cpu time      0.1903: real time      0.1902
    SETDIJ:  cpu time      0.1920: real time      0.1920
    TRIAL :  cpu time      1.0625: real time      1.0624
    CORREC:  cpu time      1.3644: real time      1.3642
    CHARGE:  cpu time      0.0246: real time      0.0246
    --------------------------------------------
      LOOP:  cpu time      2.8347: real time      2.8347

 eigenvalue-minimisations  :     0
 total energy-change (2. order) :-0.1435589E+04  (-0.1537686E+03)
 number of electron     103.9999960 magnetization 
 augmentation part       66.0131530 magnetization 

 Free energy of the ion-electron system (eV)
  ---------------------------------------------------
  alpha Z        PSCENC =       563.37210189
  Ewald energy   TEWEN  =    -10075.62109696
  -Hartree energ DENC   =     -5324.57474158
  -exchange      EXHF   =       363.02875656
  -V(xc)+E(xc)   XCENC  =       257.33523144
  PAW double counting   =     15691.37785091   -18919.78727049
  entropy T*S    EENTRO =         0.00264015
  eigenvalues    EBANDS =       473.22532533
  atomic energy  EATOM  =     17173.55118989
  ---------------------------------------------------
  free energy    TOTEN  =       201.91601859 eV

  energy without entropy =      201.91337844  energy(sigma->0) =      201.91513854
  exchange ACFDT corr.  =        -1.86964601  see jH, gK, PRB 81, 115126


--------------------------------------------------------------------------------------------------------




--------------------------------------- Iteration      1(   8)  ---------------------------------------


    POTLOK:  cpu time      0.1928: real time      0.1928
    SETDIJ:  cpu time      0.1815: real time      0.1815
    TRIAL :  cpu time      1.0429: real time      1.0427
    CORREC:  cpu time      1.5110: real time      1.7042
    CHARGE:  cpu time      0.0250: real time      0.0250
    --------------------------------------------
      LOOP:  cpu time      2.9535: real time      3.1477

 eigenvalue-minimisations  :     0
 total energy-change (2. order) :-0.1543413E+03  (-0.4537923E+02)
 number of electron     103.9999962 magnetization 
 augmentation part       65.9466026 magnetization 

 Free energy of the ion-electron system (eV)
  ---------------------------------------------------
  alpha Z        PSCENC =       563.37210189
  Ewald energy   TEWEN  =    -10075.62109696
  -Hartree energ DENC   =     -4558.43417913
  -exchange      EXHF   =       342.92929750
  -V(xc)+E(xc)   XCENC  =       236.99324107
  PAW double counting   =     14292.05488145   -16892.26761345
  entropy T*S    EENTRO =         0.01017583
  eigenvalues    EBANDS =     -1035.00573172
  atomic energy  EATOM  =     17173.55118989
  ---------------------------------------------------
  free energy    TOTEN  =        47.57473068 eV

  energy without entropy =       47.56455485  energy(sigma->0) =       47.57133874
  exchange ACFDT corr.  =        -0.19268974  see jH, gK, PRB 81, 115126


--------------------------------------------------------------------------------------------------------




--------------------------------------- Iteration      1(   9)  ---------------------------------------


    POTLOK:  cpu time      0.1949: real time      0.1948
    SETDIJ:  cpu time      0.1825: real time      0.1824
    TRIAL :  cpu time      1.0341: real time      1.0340
    CORREC:  cpu time      1.3674: real time      1.3676
    CHARGE:  cpu time      0.0241: real time      0.0242
    --------------------------------------------
      LOOP:  cpu time      2.8032: real time      2.8036

 eigenvalue-minimisations  :     0
 total energy-change (2. order) :-0.4532851E+02  (-0.1170643E+02)
 number of electron     103.9999960 magnetization 
 augmentation part       67.2978508 magnetization 

 Free energy of the ion-electron system (eV)
  ---------------------------------------------------
  alpha Z        PSCENC =       563.37210189
  Ewald energy   TEWEN  =    -10075.62109696
  -Hartree energ DENC   =     -4578.82735877
  -exchange      EXHF   =       342.75242030
  -V(xc)+E(xc)   XCENC  =       237.72526144
  PAW double counting   =     13688.69999698   -16167.07106138
  entropy T*S    EENTRO =        -0.00381918
  eigenvalues    EBANDS =     -1182.34540592
  atomic energy  EATOM  =     17173.55118989
  ---------------------------------------------------
  free energy    TOTEN  =         2.24622330 eV

  energy without entropy =        2.25004247  energy(sigma->0) =        2.24749635
  exchange ACFDT corr.  =        -0.06340685  see jH, gK, PRB 81, 115126


--------------------------------------------------------------------------------------------------------




--------------------------------------- Iteration      1(  10)  ---------------------------------------


    POTLOK:  cpu time      0.2036: real time      0.2039
    SETDIJ:  cpu time      0.1903: real time      0.1903
    TRIAL :  cpu time      1.0332: real time      1.0334
    CORREC:  cpu time      1.3488: real time      1.3487
    CHARGE:  cpu time      0.0242: real time      0.0242
    --------------------------------------------
      LOOP:  cpu time      2.8004: real time      2.8010

 eigenvalue-minimisations  :     0
 total energy-change (2. order) :-0.1170299E+02  (-0.8210019E+01)
 number of electron     103.9999960 magnetization 
 augmentation part       67.4011709 magnetization 

 Free energy of the ion-electron system (eV)
  ---------------------------------------------------
  alpha Z        PSCENC =       563.37210189
  Ewald energy   TEWEN  =    -10075.62109696
  -Hartree energ DENC   =     -4727.59434794
  -exchange      EXHF   =       347.36712702
  -V(xc)+E(xc)   XCENC  =       241.76808553
  PAW double counting   =     13938.02715539   -16519.05124390
  entropy T*S    EENTRO =        -0.01137391
  eigenvalues    EBANDS =      -951.27191871
  atomic energy  EATOM  =     17173.55118989
  ---------------------------------------------------
  free energy    TOTEN  =        -9.45676696 eV

  energy without entropy =       -9.44539305  energy(sigma->0) =       -9.45297565
  exchange ACFDT corr.  =        -0.14744219  see jH, gK, PRB 81, 115126


--------------------------------------------------------------------------------------------------------




--------------------------------------- Iteration      1(  11)  ---------------------------------------


    POTLOK:  cpu time      0.1955: real time      0.1955
    SETDIJ:  cpu time      0.1874: real time      0.1874
    TRIAL :  cpu time      1.0370: real time      1.0369
    CORREC:  cpu time      1.3465: real time      1.3463
    CHARGE:  cpu time      0.0240: real time      0.0240
    --------------------------------------------
      LOOP:  cpu time      2.7908: real time      2.7908

 eigenvalue-minimisations  :     0
 total energy-change (2. order) :-0.8283133E+01  (-0.5258264E+01)
 number of electron     103.9999961 magnetization 
 augmentation part       67.1065938 magnetization 

 Free energy of the ion-electron system (eV)
  ---------------------------------------------------
  alpha Z        PSCENC =       563.37210189
  Ewald energy   TEWEN  =    -10075.62109696
  -Hartree energ DENC   =     -4677.02742738
  -exchange      EXHF   =       347.56475899
  -V(xc)+E(xc)   XCENC  =       240.23950548
  PAW double counting   =     14282.13861602   -16856.52640352
  entropy T*S    EENTRO =         0.00394888
  eigenvalues    EBANDS =     -1015.41977089
  atomic energy  EATOM  =     17173.55118989
  ---------------------------------------------------
  free energy    TOTEN  =       -17.73990039 eV

  energy without entropy =      -17.74384926  energy(sigma->0) =      -17.74121668
  exchange ACFDT corr.  =        -0.09935426  see jH, gK, PRB 81, 115126


--------------------------------------------------------------------------------------------------------




--------------------------------------- Iteration      1(  12)  ---------------------------------------


    POTLOK:  cpu time      0.1984: real time      0.1984
    SETDIJ:  cpu time      0.1848: real time      0.1847
    TRIAL :  cpu time      1.0302: real time      1.0301
    CORREC:  cpu time      1.3500: real time      1.3498
    CHARGE:  cpu time      0.0239: real time      0.0239
    --------------------------------------------
      LOOP:  cpu time      2.7875: real time      2.7875

 eigenvalue-minimisations  :     0
 total energy-change (2. order) :-0.4900074E+01  (-0.2069914E+01)
 number of electron     103.9999961 magnetization 
 augmentation part       67.7013728 magnetization 

 Free energy of the ion-electron system (eV)
  ---------------------------------------------------
  alpha Z        PSCENC =       563.37210189
  Ewald energy   TEWEN  =    -10075.62109696
  -Hartree energ DENC   =     -4632.09200996
  -exchange      EXHF   =       346.17992864
  -V(xc)+E(xc)   XCENC  =       239.02511407
  PAW double counting   =     14287.60699884   -16812.67866793
  entropy T*S    EENTRO =        -0.01662891
  eigenvalues    EBANDS =     -1111.98748222
  atomic energy  EATOM  =     17173.55118989
  ---------------------------------------------------
  free energy    TOTEN  =       -22.63997486 eV

  energy without entropy =      -22.62334595  energy(sigma->0) =      -22.63443189
  exchange ACFDT corr.  =        -0.04557034  see jH, gK, PRB 81, 115126


--------------------------------------------------------------------------------------------------------




--------------------------------------- Iteration      1(  13)  ---------------------------------------


    POTLOK:  cpu time      0.1872: real time      0.1871
    SETDIJ:  cpu time      0.1913: real time      0.1913
    TRIAL :  cpu time      1.0409: real time      1.0408
    CORREC:  cpu time      1.3471: real time      1.3469
    CHARGE:  cpu time      0.0241: real time      0.0242
    --------------------------------------------
      LOOP:  cpu time      2.7908: real time      2.7928

 eigenvalue-minimisations  :     0
 total energy-change (2. order) :-0.1972828E+01  (-0.3245623E+00)
 number of electron     103.9999961 magnetization 
 augmentation part       67.8446108 magnetization 

 Free energy of the ion-electron system (eV)
  ---------------------------------------------------
  alpha Z        PSCENC =       563.37210189
  Ewald energy   TEWEN  =    -10075.62109696
  -Hartree energ DENC   =     -4639.92021220
  -exchange      EXHF   =       346.37903282
  -V(xc)+E(xc)   XCENC  =       239.45713810
  PAW double counting   =     14235.79499672   -16777.65978734
  entropy T*S    EENTRO =        -0.01597491
  eigenvalues    EBANDS =     -1089.94953691
  atomic energy  EATOM  =     17173.55118989
  ---------------------------------------------------
  free energy    TOTEN  =       -24.61280290 eV

  energy without entropy =      -24.59682800  energy(sigma->0) =      -24.60747793
  exchange ACFDT corr.  =        -0.03725121  see jH, gK, PRB 81, 115126


--------------------------------------------------------------------------------------------------------




--------------------------------------- Iteration      1(  14)  ---------------------------------------


    POTLOK:  cpu time      0.1913: real time      0.1913
    SETDIJ:  cpu time      0.1889: real time      0.1889
    TRIAL :  cpu time      1.0464: real time      1.0463
    CORREC:  cpu time      1.3443: real time      1.3441
    CHARGE:  cpu time      0.0241: real time      0.0241
    --------------------------------------------
      LOOP:  cpu time      2.7953: real time      2.7954

 eigenvalue-minimisations  :     0
 total energy-change (2. order) :-0.3323423E+00  (-0.3775873E+00)
 number of electron     103.9999960 magnetization 
 augmentation part       67.9461141 magnetization 

 Free energy of the ion-electron system (eV)
  ---------------------------------------------------
  alpha Z        PSCENC =       563.37210189
  Ewald energy   TEWEN  =    -10075.62109696
  -Hartree energ DENC   =     -4642.70045406
  -exchange      EXHF   =       346.58246901
  -V(xc)+E(xc)   XCENC  =       239.56995831
  PAW double counting   =     14216.00222661   -16767.91428187
  entropy T*S    EENTRO =        -0.01446423
  eigenvalues    EBANDS =     -1077.77128313
  atomic energy  EATOM  =     17173.55118989
  ---------------------------------------------------
  free energy    TOTEN  =       -24.94514521 eV

  energy without entropy =      -24.93068098  energy(sigma->0) =      -24.94032380
  exchange ACFDT corr.  =        -0.03733464  see jH, gK, PRB 81, 115126


--------------------------------------------------------------------------------------------------------




--------------------------------------- Iteration      1(  15)  ---------------------------------------


    POTLOK:  cpu time      0.2020: real time      0.2019
    SETDIJ:  cpu time      0.1829: real time      0.1829
    TRIAL :  cpu time      1.0349: real time      1.0348
    CORREC:  cpu time      1.3580: real time      1.3579
    CHARGE:  cpu time      0.0241: real time      0.0240
    --------------------------------------------
      LOOP:  cpu time      2.8021: real time      2.8021

 eigenvalue-minimisations  :     0
 total energy-change (2. order) :-0.3768887E+00  (-0.3044031E+00)
 number of electron     103.9999960 magnetization 
 augmentation part       67.9585745 magnetization 

 Free energy of the ion-electron system (eV)
  ---------------------------------------------------
  alpha Z        PSCENC =       563.37210189
  Ewald energy   TEWEN  =    -10075.62109696
  -Hartree energ DENC   =     -4636.56432395
  -exchange      EXHF   =       346.68423507
  -V(xc)+E(xc)   XCENC  =       239.43616196
  PAW double counting   =     14177.23421327   -16735.54988861
  entropy T*S    EENTRO =        -0.01330624
  eigenvalues    EBANDS =     -1077.85016220
  atomic energy  EATOM  =     17173.55118989
  ---------------------------------------------------
  free energy    TOTEN  =       -25.32203387 eV

  energy without entropy =      -25.30872764  energy(sigma->0) =      -25.31759846
  exchange ACFDT corr.  =        -0.03340259  see jH, gK, PRB 81, 115126


--------------------------------------------------------------------------------------------------------




--------------------------------------- Iteration      1(  16)  ---------------------------------------


    POTLOK:  cpu time      0.1972: real time      0.1972
    SETDIJ:  cpu time      0.1819: real time      0.1819
    TRIAL :  cpu time      1.0352: real time      1.0351
    CORREC:  cpu time      1.3531: real time      1.3529
    CHARGE:  cpu time      0.0241: real time      0.0241
    --------------------------------------------
      LOOP:  cpu time      2.7920: real time      2.7919

 eigenvalue-minimisations  :     0
 total energy-change (2. order) :-0.3040625E+00  (-0.2421586E+00)
 number of electron     103.9999961 magnetization 
 augmentation part       67.9151420 magnetization 

 Free energy of the ion-electron system (eV)
  ---------------------------------------------------
  alpha Z        PSCENC =       563.37210189
  Ewald energy   TEWEN  =    -10075.62109696
  -Hartree energ DENC   =     -4625.60276811
  -exchange      EXHF   =       346.58472230
  -V(xc)+E(xc)   XCENC  =       239.15997254
  PAW double counting   =     14109.93571310   -16666.92334781
  entropy T*S    EENTRO =        -0.01347315
  eigenvalues    EBANDS =     -1090.06927697
  atomic energy  EATOM  =     17173.55118989
  ---------------------------------------------------
  free energy    TOTEN  =       -25.62609637 eV

  energy without entropy =      -25.61262321  energy(sigma->0) =      -25.62160532
  exchange ACFDT corr.  =        -0.02624268  see jH, gK, PRB 81, 115126


--------------------------------------------------------------------------------------------------------




--------------------------------------- Iteration      1(  17)  ---------------------------------------


    POTLOK:  cpu time      0.1887: real time      0.1887
    SETDIJ:  cpu time      0.1910: real time      0.1910
    TRIAL :  cpu time      1.0286: real time      1.0284
    CORREC:  cpu time      1.3468: real time      1.3465
    CHARGE:  cpu time      0.0242: real time      0.0242
    --------------------------------------------
      LOOP:  cpu time      2.7795: real time      2.7795

 eigenvalue-minimisations  :     0
 total energy-change (2. order) :-0.2409825E+00  (-0.1853784E+00)
 number of electron     103.9999961 magnetization 
 augmentation part       67.8718390 magnetization 

 Free energy of the ion-electron system (eV)
  ---------------------------------------------------
  alpha Z        PSCENC =       563.37210189
  Ewald energy   TEWEN  =    -10075.62109696
  -Hartree energ DENC   =     -4620.02935495
  -exchange      EXHF   =       346.43841618
  -V(xc)+E(xc)   XCENC  =       239.01582639
  PAW double counting   =     14035.00481995   -16587.43752833
  entropy T*S    EENTRO =        -0.01426940
  eigenvalues    EBANDS =     -1100.14797979
  atomic energy  EATOM  =     17173.55118989
  ---------------------------------------------------
  free energy    TOTEN  =       -25.86707887 eV

  energy without entropy =      -25.85280948  energy(sigma->0) =      -25.86232241
  exchange ACFDT corr.  =        -0.02707126  see jH, gK, PRB 81, 115126


--------------------------------------------------------------------------------------------------------




--------------------------------------- Iteration      1(  18)  ---------------------------------------


    POTLOK:  cpu time      0.2062: real time      0.2061
    SETDIJ:  cpu time      0.1807: real time      0.1806
    TRIAL :  cpu time      1.0304: real time      1.0302
    CORREC:  cpu time      1.3592: real time      1.3590
    CHARGE:  cpu time      0.0241: real time      0.0241
    --------------------------------------------
      LOOP:  cpu time      2.8007: real time      2.8006

 eigenvalue-minimisations  :     0
 total energy-change (2. order) :-0.1850447E+00  (-0.1366607E+00)
 number of electron     103.9999961 magnetization 
 augmentation part       67.8512381 magnetization 

 Free energy of the ion-electron system (eV)
  ---------------------------------------------------
  alpha Z        PSCENC =       563.37210189
  Ewald energy   TEWEN  =    -10075.62109696
  -Hartree energ DENC   =     -4623.58429469
  -exchange      EXHF   =       346.41003123
  -V(xc)+E(xc)   XCENC  =       239.10577886
  PAW double counting   =     13983.72470037   -16534.01077632
  entropy T*S    EENTRO =        -0.01275054
  eigenvalues    EBANDS =     -1098.98548847
  atomic energy  EATOM  =     17173.55118989
  ---------------------------------------------------
  free energy    TOTEN  =       -26.05212359 eV

  energy without entropy =      -26.03937305  energy(sigma->0) =      -26.04787341
  exchange ACFDT corr.  =        -0.02503086  see jH, gK, PRB 81, 115126


--------------------------------------------------------------------------------------------------------




--------------------------------------- Iteration      1(  19)  ---------------------------------------


    POTLOK:  cpu time      0.2006: real time      0.2006
    SETDIJ:  cpu time      0.1805: real time      0.1804
    TRIAL :  cpu time      1.0381: real time      1.0379
    CORREC:  cpu time      1.4623: real time      1.4620
    CHARGE:  cpu time      0.0240: real time      0.0240
    --------------------------------------------
      LOOP:  cpu time      2.9058: real time      2.9057

 eigenvalue-minimisations  :     0
 total energy-change (2. order) :-0.1366126E+00  (-0.1191053E+00)
 number of electron     103.9999961 magnetization 
 augmentation part       67.8317067 magnetization 

 Free energy of the ion-electron system (eV)
  ---------------------------------------------------
  alpha Z        PSCENC =       563.37210189
  Ewald energy   TEWEN  =    -10075.62109696
  -Hartree energ DENC   =     -4631.92843312
  -exchange      EXHF   =       346.52776098
  -V(xc)+E(xc)   XCENC  =       239.31330035
  PAW double counting   =     13976.14254881   -16528.15560502
  entropy T*S    EENTRO =        -0.01011523
  eigenvalues    EBANDS =     -1089.37775247
  atomic energy  EATOM  =     17173.55118989
  ---------------------------------------------------
  free energy    TOTEN  =       -26.18873619 eV

  energy without entropy =      -26.17862096  energy(sigma->0) =      -26.18536445
  exchange ACFDT corr.  =        -0.02548641  see jH, gK, PRB 81, 115126


--------------------------------------------------------------------------------------------------------




--------------------------------------- Iteration      1(  20)  ---------------------------------------


    POTLOK:  cpu time      0.2061: real time      0.2061
    SETDIJ:  cpu time      0.1811: real time      0.1811
    TRIAL :  cpu time      1.0422: real time      1.0419
    CORREC:  cpu time      1.3472: real time      1.3469
    CHARGE:  cpu time      0.0244: real time      0.0244
    --------------------------------------------
      LOOP:  cpu time      2.8011: real time      2.8010

 eigenvalue-minimisations  :     0
 total energy-change (2. order) :-0.1192354E+00  (-0.7528002E-01)
 number of electron     103.9999961 magnetization 
 augmentation part       67.8023701 magnetization 

 Free energy of the ion-electron system (eV)
  ---------------------------------------------------
  alpha Z        PSCENC =       563.37210189
  Ewald energy   TEWEN  =    -10075.62109696
  -Hartree energ DENC   =     -4638.75038886
  -exchange      EXHF   =       346.68940757
  -V(xc)+E(xc)   XCENC  =       239.46882784
  PAW double counting   =     14007.41446687   -16562.27991169
  entropy T*S    EENTRO =        -0.00838677
  eigenvalues    EBANDS =     -1080.14245295
  atomic energy  EATOM  =     17173.55118989
  ---------------------------------------------------
  free energy    TOTEN  =       -26.30797163 eV

  energy without entropy =      -26.29958486  energy(sigma->0) =      -26.30517604
  exchange ACFDT corr.  =        -0.02400450  see jH, gK, PRB 81, 115126


--------------------------------------------------------------------------------------------------------




--------------------------------------- Iteration      1(  21)  ---------------------------------------


    POTLOK:  cpu time      0.1993: real time      0.1992
    SETDIJ:  cpu time      0.1857: real time      0.1856
    TRIAL :  cpu time      1.0406: real time      1.0404
    CORREC:  cpu time      1.3554: real time      1.3551
    CHARGE:  cpu time      0.0243: real time      0.0243
    --------------------------------------------
      LOOP:  cpu time      2.8054: real time      2.8051

 eigenvalue-minimisations  :     0
 total energy-change (2. order) :-0.7520409E-01  (-0.3920383E-01)
 number of electron     103.9999961 magnetization 
 augmentation part       67.7738147 magnetization 

 Free energy of the ion-electron system (eV)
  ---------------------------------------------------
  alpha Z        PSCENC =       563.37210189
  Ewald energy   TEWEN  =    -10075.62109696
  -Hartree energ DENC   =     -4639.74236047
  -exchange      EXHF   =       346.75491444
  -V(xc)+E(xc)   XCENC  =       239.47131744
  PAW double counting   =     14047.23053064   -16602.53958035
  entropy T*S    EENTRO =        -0.00654858
  eigenvalues    EBANDS =     -1078.85180545
  atomic energy  EATOM  =     17173.55118989
  ---------------------------------------------------
  free energy    TOTEN  =       -26.38317571 eV

  energy without entropy =      -26.37662713  energy(sigma->0) =      -26.38099285
  exchange ACFDT corr.  =        -0.02189090  see jH, gK, PRB 81, 115126


--------------------------------------------------------------------------------------------------------




--------------------------------------- Iteration      1(  22)  ---------------------------------------


    POTLOK:  cpu time      0.1886: real time      0.1885
    SETDIJ:  cpu time      0.1934: real time      0.1933
    TRIAL :  cpu time      1.0353: real time      1.0352
    CORREC:  cpu time      1.3486: real time      1.3484
    CHARGE:  cpu time      0.0242: real time      0.0242
    --------------------------------------------
      LOOP:  cpu time      2.7905: real time      2.7904

 eigenvalue-minimisations  :     0
 total energy-change (2. order) :-0.3913777E-01  (-0.2588111E-01)
 number of electron     103.9999961 magnetization 
 augmentation part       67.7553034 magnetization 

 Free energy of the ion-electron system (eV)
  ---------------------------------------------------
  alpha Z        PSCENC =       563.37210189
  Ewald energy   TEWEN  =    -10075.62109696
  -Hartree energ DENC   =     -4638.53870316
  -exchange      EXHF   =       346.74429953
  -V(xc)+E(xc)   XCENC  =       239.42633772
  PAW double counting   =     14072.96599911   -16626.96605996
  entropy T*S    EENTRO =        -0.00456358
  eigenvalues    EBANDS =     -1081.34983296
  atomic energy  EATOM  =     17173.55118989
  ---------------------------------------------------
  free energy    TOTEN  =       -26.42231348 eV

  energy without entropy =      -26.41774990  energy(sigma->0) =      -26.42079229
  exchange ACFDT corr.  =        -0.02111655  see jH, gK, PRB 81, 115126


--------------------------------------------------------------------------------------------------------




--------------------------------------- Iteration      1(  23)  ---------------------------------------


    POTLOK:  cpu time      0.1951: real time      0.1951
    SETDIJ:  cpu time      0.1821: real time      0.1821
    TRIAL :  cpu time      1.0373: real time      1.0372
    CORREC:  cpu time      1.3490: real time      1.3488
    CHARGE:  cpu time      0.0242: real time      0.0242
    --------------------------------------------
      LOOP:  cpu time      2.7880: real time      2.7880

 eigenvalue-minimisations  :     0
 total energy-change (2. order) :-0.2590083E-01  (-0.1926712E-01)
 number of electron     103.9999961 magnetization 
 augmentation part       67.7531817 magnetization 

 Free energy of the ion-electron system (eV)
  ---------------------------------------------------
  alpha Z        PSCENC =       563.37210189
  Ewald energy   TEWEN  =    -10075.62109696
  -Hartree energ DENC   =     -4638.21099917
  -exchange      EXHF   =       346.72127053
  -V(xc)+E(xc)   XCENC  =       239.41441343
  PAW double counting   =     14086.90842812   -16639.66812488
  entropy T*S    EENTRO =        -0.00320278
  eigenvalues    EBANDS =     -1082.91083359
  atomic energy  EATOM  =     17173.55118989
  ---------------------------------------------------
  free energy    TOTEN  =       -26.44821431 eV

  energy without entropy =      -26.44501153  energy(sigma->0) =      -26.44714672
  exchange ACFDT corr.  =        -0.02001597  see jH, gK, PRB 81, 115126


--------------------------------------------------------------------------------------------------------




--------------------------------------- Iteration      1(  24)  ---------------------------------------


    POTLOK:  cpu time      0.1881: real time      0.1881
    SETDIJ:  cpu time      0.1856: real time      0.1855
    TRIAL :  cpu time      1.0458: real time      1.0457
    CORREC:  cpu time      1.3574: real time      1.3571
    CHARGE:  cpu time      0.0242: real time      0.0242
    --------------------------------------------
      LOOP:  cpu time      2.8014: real time      2.8012

 eigenvalue-minimisations  :     0
 total energy-change (2. order) :-0.1928202E-01  (-0.1281482E-01)
 number of electron     103.9999961 magnetization 
 augmentation part       67.7603681 magnetization 

 Free energy of the ion-electron system (eV)
  ---------------------------------------------------
  alpha Z        PSCENC =       563.37210189
  Ewald energy   TEWEN  =    -10075.62109696
  -Hartree energ DENC   =     -4639.10632995
  -exchange      EXHF   =       346.71404272
  -V(xc)+E(xc)   XCENC  =       239.44300330
  PAW double counting   =     14092.31512103   -16644.91894221
  entropy T*S    EENTRO =        -0.00286501
  eigenvalues    EBANDS =     -1082.21338327
  atomic energy  EATOM  =     17173.55118989
  ---------------------------------------------------
  free energy    TOTEN  =       -26.46749634 eV

  energy without entropy =      -26.46463132  energy(sigma->0) =      -26.46654133
  exchange ACFDT corr.  =        -0.01905841  see jH, gK, PRB 81, 115126


--------------------------------------------------------------------------------------------------------




--------------------------------------- Iteration      1(  25)  ---------------------------------------


    POTLOK:  cpu time      0.1888: real time      0.1887
    SETDIJ:  cpu time      0.1840: real time      0.1840
    TRIAL :  cpu time      1.0379: real time      1.0377
    CORREC:  cpu time      1.3516: real time      1.3513
    CHARGE:  cpu time      0.0241: real time      0.0241
    --------------------------------------------
      LOOP:  cpu time      2.7866: real time      2.7864

 eigenvalue-minimisations  :     0
 total energy-change (2. order) :-0.1282301E-01  (-0.1020601E-01)
 number of electron     103.9999961 magnetization 
 augmentation part       67.7681911 magnetization 

 Free energy of the ion-electron system (eV)
  ---------------------------------------------------
  alpha Z        PSCENC =       563.37210189
  Ewald energy   TEWEN  =    -10075.62109696
  -Hartree energ DENC   =     -4639.56991991
  -exchange      EXHF   =       346.70793279
  -V(xc)+E(xc)   XCENC  =       239.46287348
  PAW double counting   =     14091.92583765   -16644.92249278
  entropy T*S    EENTRO =        -0.00301807
  eigenvalues    EBANDS =     -1081.38388038
  atomic energy  EATOM  =     17173.55118989
  ---------------------------------------------------
  free energy    TOTEN  =       -26.48031934 eV

  energy without entropy =      -26.47730127  energy(sigma->0) =      -26.47931332
  exchange ACFDT corr.  =        -0.01837754  see jH, gK, PRB 81, 115126


--------------------------------------------------------------------------------------------------------




--------------------------------------- Iteration      1(  26)  ---------------------------------------


    POTLOK:  cpu time      0.1826: real time      0.1826
    SETDIJ:  cpu time      0.1965: real time      0.1965
    TRIAL :  cpu time      1.0386: real time      1.0384
    CORREC:  cpu time      1.3473: real time      1.3472
    CHARGE:  cpu time      0.0242: real time      0.0242
    --------------------------------------------
      LOOP:  cpu time      2.7895: real time      2.7895

 eigenvalue-minimisations  :     0
 total energy-change (2. order) :-0.1020678E-01  (-0.6651925E-02)
 number of electron     103.9999961 magnetization 
 augmentation part       67.7741402 magnetization 

 Free energy of the ion-electron system (eV)
  ---------------------------------------------------
  alpha Z        PSCENC =       563.37210189
  Ewald energy   TEWEN  =    -10075.62109696
  -Hartree energ DENC   =     -4638.71042356
  -exchange      EXHF   =       346.68709296
  -V(xc)+E(xc)   XCENC  =       239.44682027
  PAW double counting   =     14089.14041551   -16642.31819396
  entropy T*S    EENTRO =        -0.00314080
  eigenvalues    EBANDS =     -1082.03541410
  atomic energy  EATOM  =     17173.55118989
  ---------------------------------------------------
  free energy    TOTEN  =       -26.49052613 eV

  energy without entropy =      -26.48738533  energy(sigma->0) =      -26.48947919
  exchange ACFDT corr.  =        -0.01761543  see jH, gK, PRB 81, 115126


--------------------------------------------------------------------------------------------------------




--------------------------------------- Iteration      1(  27)  ---------------------------------------


    POTLOK:  cpu time      0.1867: real time      0.1867
    SETDIJ:  cpu time      0.1888: real time      0.1887
    TRIAL :  cpu time      1.0332: real time      1.0331
    CORREC:  cpu time      1.3591: real time      1.3589
    CHARGE:  cpu time      0.0242: real time      0.0242
    --------------------------------------------
      LOOP:  cpu time      2.7922: real time      2.7922

 eigenvalue-minimisations  :     0
 total energy-change (2. order) :-0.6651822E-02  (-0.4212046E-02)
 number of electron     103.9999961 magnetization 
 augmentation part       67.7804805 magnetization 

 Free energy of the ion-electron system (eV)
  ---------------------------------------------------
  alpha Z        PSCENC =       563.37210189
  Ewald energy   TEWEN  =    -10075.62109696
  -Hartree energ DENC   =     -4637.25793661
  -exchange      EXHF   =       346.66717216
  -V(xc)+E(xc)   XCENC  =       239.41154658
  PAW double counting   =     14086.89037074   -16640.02698516
  entropy T*S    EENTRO =        -0.00301414
  eigenvalues    EBANDS =     -1083.48039968
  atomic energy  EATOM  =     17173.55118989
  ---------------------------------------------------
  free energy    TOTEN  =       -26.49717795 eV

  energy without entropy =      -26.49416381  energy(sigma->0) =      -26.49617324
  exchange ACFDT corr.  =        -0.01677879  see jH, gK, PRB 81, 115126


--------------------------------------------------------------------------------------------------------




--------------------------------------- Iteration      1(  28)  ---------------------------------------


    POTLOK:  cpu time      0.2044: real time      0.2043
    SETDIJ:  cpu time      0.1848: real time      0.1848
    TRIAL :  cpu time      1.0353: real time      1.0352
    CORREC:  cpu time      1.3525: real time      1.3524
    CHARGE:  cpu time      0.0241: real time      0.0241
    --------------------------------------------
      LOOP:  cpu time      2.8014: real time      2.8014

 eigenvalue-minimisations  :     0
 total energy-change (2. order) :-0.4212274E-02  (-0.2749477E-02)
 number of electron     103.9999961 magnetization 
 augmentation part       67.7869805 magnetization 

 Free energy of the ion-electron system (eV)
  ---------------------------------------------------
  alpha Z        PSCENC =       563.37210189
  Ewald energy   TEWEN  =    -10075.62109696
  -Hartree energ DENC   =     -4636.30313073
  -exchange      EXHF   =       346.66310299
  -V(xc)+E(xc)   XCENC  =       239.38727582
  PAW double counting   =     14085.58552004   -16638.78631773
  entropy T*S    EENTRO =        -0.00258575
  eigenvalues    EBANDS =     -1084.34702129
  atomic energy  EATOM  =     17173.55118989
  ---------------------------------------------------
  free energy    TOTEN  =       -26.50139022 eV

  energy without entropy =      -26.49880448  energy(sigma->0) =      -26.50052831
  exchange ACFDT corr.  =        -0.01581566  see jH, gK, PRB 81, 115126


--------------------------------------------------------------------------------------------------------




--------------------------------------- Iteration      1(  29)  ---------------------------------------


    POTLOK:  cpu time      0.1926: real time      0.1926
    SETDIJ:  cpu time      0.1883: real time      0.1883
    TRIAL :  cpu time      1.0367: real time      1.0365
    CORREC:  cpu time      1.3495: real time      1.3493
    CHARGE:  cpu time      0.0241: real time      0.0241
    --------------------------------------------
      LOOP:  cpu time      2.7914: real time      2.7915

 eigenvalue-minimisations  :     0
 total energy-change (2. order) :-0.2750547E-02  (-0.1903415E-02)
 number of electron     103.9999961 magnetization 
 augmentation part       67.7912610 magnetization 

 Free energy of the ion-electron system (eV)
  ---------------------------------------------------
  alpha Z        PSCENC =       563.37210189
  Ewald energy   TEWEN  =    -10075.62109696
  -Hartree energ DENC   =     -4636.24386685
  -exchange      EXHF   =       346.67362826
  -V(xc)+E(xc)   XCENC  =       239.38590934
  PAW double counting   =     14084.33797986   -16637.72375103
  entropy T*S    EENTRO =        -0.00182710
  eigenvalues    EBANDS =     -1084.23364942
  atomic energy  EATOM  =     17173.55118989
  ---------------------------------------------------
  free energy    TOTEN  =       -26.50414077 eV

  energy without entropy =      -26.50231367  energy(sigma->0) =      -26.50353174
  exchange ACFDT corr.  =        -0.01472215  see jH, gK, PRB 81, 115126


--------------------------------------------------------------------------------------------------------




--------------------------------------- Iteration      1(  30)  ---------------------------------------


    POTLOK:  cpu time      0.1894: real time      0.1894
    SETDIJ:  cpu time      0.1854: real time      0.1854
    TRIAL :  cpu time      1.0400: real time      1.0399
    CORREC:  cpu time      1.3670: real time      1.3669
    CHARGE:  cpu time      0.0244: real time      0.0244
    --------------------------------------------
      LOOP:  cpu time      2.8064: real time      2.8064

 eigenvalue-minimisations  :     0
 total energy-change (2. order) :-0.1904397E-02  (-0.1286132E-02)
 number of electron     103.9999961 magnetization 
 augmentation part       67.7916876 magnetization 

 Free energy of the ion-electron system (eV)
  ---------------------------------------------------
  alpha Z        PSCENC =       563.37210189
  Ewald energy   TEWEN  =    -10075.62109696
  -Hartree energ DENC   =     -4636.67218385
  -exchange      EXHF   =       346.68674732
  -V(xc)+E(xc)   XCENC  =       239.39701900
  PAW double counting   =     14082.73591155   -16636.20833273
  entropy T*S    EENTRO =        -0.00084766
  eigenvalues    EBANDS =     -1083.74557418
  atomic energy  EATOM  =     17173.55118989
  ---------------------------------------------------
  free energy    TOTEN  =       -26.50604517 eV

  energy without entropy =      -26.50519751  energy(sigma->0) =      -26.50576261
  exchange ACFDT corr.  =        -0.01347085  see jH, gK, PRB 81, 115126


--------------------------------------------------------------------------------------------------------




--------------------------------------- Iteration      1(  31)  ---------------------------------------


    POTLOK:  cpu time      0.1987: real time      0.1986
    SETDIJ:  cpu time      0.2027: real time      0.2027
    TRIAL :  cpu time      1.0387: real time      1.0387
    CORREC:  cpu time      1.3586: real time      1.3585
    CHARGE:  cpu time      0.0241: real time      0.0241
    --------------------------------------------
      LOOP:  cpu time      2.8229: real time      2.8231

 eigenvalue-minimisations  :     0
 total energy-change (2. order) :-0.1286928E-02  (-0.9549695E-03)
 number of electron     103.9999961 magnetization 
 augmentation part       67.7899476 magnetization 

 Free energy of the ion-electron system (eV)
  ---------------------------------------------------
  alpha Z        PSCENC =       563.37210189
  Ewald energy   TEWEN  =    -10075.62109696
  -Hartree energ DENC   =     -4636.96864090
  -exchange      EXHF   =       346.69196883
  -V(xc)+E(xc)   XCENC  =       239.40424328
  PAW double counting   =     14081.14939472   -16634.47337816
  entropy T*S    EENTRO =         0.00029914
  eigenvalues    EBANDS =     -1083.61226703
  atomic energy  EATOM  =     17173.55118989
  ---------------------------------------------------
  free energy    TOTEN  =       -26.50733210 eV

  energy without entropy =      -26.50763124  energy(sigma->0) =      -26.50743181
  exchange ACFDT corr.  =        -0.01213339  see jH, gK, PRB 81, 115126


--------------------------------------------------------------------------------------------------------




--------------------------------------- Iteration      1(  32)  ---------------------------------------


    POTLOK:  cpu time      0.2115: real time      0.2115
    SETDIJ:  cpu time      0.1830: real time      0.1829
    TRIAL :  cpu time      1.0369: real time      1.0368
    CORREC:  cpu time      1.3440: real time      1.3438
    CHARGE:  cpu time      0.0240: real time      0.0240
    --------------------------------------------
      LOOP:  cpu time      2.7998: real time      2.7997

 eigenvalue-minimisations  :     0
 total energy-change (2. order) :-0.9551845E-03  (-0.7113265E-03)
 number of electron     103.9999961 magnetization 
 augmentation part       67.7889525 magnetization 

 Free energy of the ion-electron system (eV)
  ---------------------------------------------------
  alpha Z        PSCENC =       563.37210189
[...]
     35     -13.2730      2.00000
     36     -13.2730      2.00000
     37     -13.1821      2.00000
     38     -13.1821      2.00000
     39     -13.1816      2.00000
     40     -13.1816      2.00000
     41      -5.0113      2.00000
     42      -5.0113      2.00000
     43      -5.0112      2.00000
     44      -5.0112      2.00000
     45       1.3834      2.00000
     46       1.3834      2.00000
     47       1.3842      2.00000
     48       1.3842      2.00000
     49       2.9884      2.00000
     50       2.9884      2.00000
     51       2.9885      2.00000
     52       2.9885      2.00000
     53       6.2160     -0.00000
     54       6.2160     -0.00000
     55       6.2164     -0.00000
     56       6.2164     -0.00000
     57      10.3255      0.00000
     58      10.3256      0.00000
     59      10.3261      0.00000
     60      10.3261      0.00000
     61      11.1259      0.00000
     62      11.1283      0.00000

 k-point     5 :       0.0000    0.0000    0.5000
  band No.  band energies     occupation 
      1     -13.7727      2.00000
      2     -13.7716      2.00000
      3     -13.7383      2.00000
      4     -13.7374      2.00000
      5     -13.7108      2.00000
      6     -13.7096      2.00000
      7     -13.6598      2.00000
      8     -13.6592      2.00000
      9     -13.6506      2.00000
     10     -13.6502      2.00000
     11     -13.6478      2.00000
     12     -13.6473      2.00000
     13     -13.6014      2.00000
     14     -13.6009      2.00000
     15     -13.5982      2.00000
     16     -13.5974      2.00000
     17     -13.5360      2.00000
     18     -13.5349      2.00000
     19     -13.4901      2.00000
     20     -13.4899      2.00000
     21     -13.4402      2.00000
     22     -13.4397      2.00000
     23     -13.3828      2.00000
     24     -13.3825      2.00000
     25     -13.3789      2.00000
     26     -13.3783      2.00000
     27     -13.3453      2.00000
     28     -13.3446      2.00000
     29     -13.3429      2.00000
     30     -13.3420      2.00000
     31     -13.2870      2.00000
     32     -13.2857      2.00000
     33     -13.2643      2.00000
     34     -13.2641      2.00000
     35     -13.2622      2.00000
     36     -13.2621      2.00000
     37     -13.2604      2.00000
     38     -13.2601      2.00000
     39     -13.2315      2.00000
     40     -13.2311      2.00000
     41      -5.7991      2.00000
     42      -5.7871      2.00000
     43      -3.9984      2.00000
     44      -3.9919      2.00000
     45      -0.7743      2.00000
     46      -0.7690      2.00000
     47       3.2940      2.00000
     48       3.2947      2.00000
     49       4.0031      2.00000
     50       4.3054      2.00013
     51       4.5827      2.03934
     52       4.5835      2.03975
     53       5.5235     -0.00016
     54       5.6518     -0.00000
     55       5.6521     -0.00000
     56       5.7110     -0.00000
     57       7.4246     -0.00000
     58       7.4717     -0.00000
     59      10.0298     -0.00000
     60      10.0306     -0.00000
     61      10.4161      0.00000
     62      10.4822      0.00000

 k-point     6 :       0.5000    0.0000    0.5000
  band No.  band energies     occupation 
      1     -13.7562      2.00000
      2     -13.7562      2.00000
      3     -13.7554      2.00000
      4     -13.7553      2.00000
      5     -13.7003      2.00000
      6     -13.7002      2.00000
      7     -13.6998      2.00000
      8     -13.6998      2.00000
      9     -13.6858      2.00000
     10     -13.6857      2.00000
     11     -13.6850      2.00000
     12     -13.6850      2.00000
     13     -13.6076      2.00000
     14     -13.6076      2.00000
     15     -13.6066      2.00000
     16     -13.6065      2.00000
     17     -13.4979      2.00000
     18     -13.4978      2.00000
     19     -13.4976      2.00000
     20     -13.4975      2.00000
     21     -13.4019      2.00000
     22     -13.4019      2.00000
     23     -13.4013      2.00000
     24     -13.4012      2.00000
     25     -13.3768      2.00000
     26     -13.3767      2.00000
     27     -13.3765      2.00000
     28     -13.3764      2.00000
     29     -13.3199      2.00000
     30     -13.3199      2.00000
     31     -13.3190      2.00000
     32     -13.3190      2.00000
     33     -13.2418      2.00000
     34     -13.2417      2.00000
     35     -13.2414      2.00000
     36     -13.2413      2.00000
     37     -13.1972      2.00000
     38     -13.1971      2.00000
     39     -13.1966      2.00000
     40     -13.1966      2.00000
     41      -3.6059      2.00000
     42      -3.6059      2.00000
     43      -3.5739      2.00000
     44      -3.5739      2.00000
     45      -1.7152      2.00000
     46      -1.7152      2.00000
     47      -1.6817      2.00000
     48      -1.6817      2.00000
     49       1.9486      2.00000
     50       1.9486      2.00000
     51       1.9640      2.00000
     52       1.9640      2.00000
     53       9.1826     -0.00000
     54       9.1826     -0.00000
     55       9.1900     -0.00000
     56       9.1900     -0.00000
     57      10.5681      0.00000
     58      10.5698      0.00000
     59      10.5728      0.00000
     60      10.5728      0.00000
     61      13.6698      0.00000
     62      13.6794      0.00000

 k-point     7 :       0.0000    0.5000    0.5000
  band No.  band energies     occupation 
      1     -13.7528      2.00000
      2     -13.7526      2.00000
      3     -13.7520      2.00000
      4     -13.7517      2.00000
      5     -13.6880      2.00000
      6     -13.6873      2.00000
      7     -13.6869      2.00000
      8     -13.6861      2.00000
      9     -13.6564      2.00000
     10     -13.6564      2.00000
     11     -13.6557      2.00000
     12     -13.6553      2.00000
     13     -13.5987      2.00000
     14     -13.5983      2.00000
     15     -13.5976      2.00000
     16     -13.5967      2.00000
     17     -13.5180      2.00000
     18     -13.5178      2.00000
     19     -13.5176      2.00000
     20     -13.5174      2.00000
     21     -13.4048      2.00000
     22     -13.4046      2.00000
     23     -13.4040      2.00000
     24     -13.4038      2.00000
     25     -13.3661      2.00000
     26     -13.3657      2.00000
     27     -13.3651      2.00000
     28     -13.3643      2.00000
     29     -13.2995      2.00000
     30     -13.2995      2.00000
     31     -13.2991      2.00000
     32     -13.2987      2.00000
     33     -13.2753      2.00000
     34     -13.2747      2.00000
     35     -13.2746      2.00000
     36     -13.2740      2.00000
     37     -13.2433      2.00000
     38     -13.2431      2.00000
     39     -13.2429      2.00000
     40     -13.2424      2.00000
     41      -5.1371      2.00000
     42      -5.1369      2.00000
     43      -5.1259      2.00000
     44      -5.1256      2.00000
     45       1.7391      2.00000
     46       1.7391      2.00000
     47       1.7487      2.00000
     48       1.7487      2.00000
     49       3.8356      2.00000
     50       3.8361      2.00000
     51       3.8371      2.00000
     52       3.8378      2.00000
     53       4.7750      1.93045
     54       4.7751      1.92888
     55       5.0757      0.02460
     56       5.0760      0.02359
     57      10.1994     -0.00000
     58      10.1996     -0.00000
     59      10.2182     -0.00000
     60      10.2184     -0.00000
     61      12.0525      0.00000
     62      12.0530      0.00000

 k-point     8 :       0.5000    0.5000    0.5000
  band No.  band energies     occupation 
      1     -13.7343      2.00000
      2     -13.7343      2.00000
      3     -13.7333      2.00000
      4     -13.7332      2.00000
      5     -13.7079      2.00000
      6     -13.7079      2.00000
      7     -13.7072      2.00000
      8     -13.7072      2.00000
      9     -13.6683      2.00000
     10     -13.6682      2.00000
     11     -13.6679      2.00000
     12     -13.6678      2.00000
     13     -13.6671      2.00000
     14     -13.6671      2.00000
     15     -13.6663      2.00000
     16     -13.6663      2.00000
     17     -13.4465      2.00000
     18     -13.4465      2.00000
     19     -13.4459      2.00000
     20     -13.4459      2.00000
     21     -13.4361      2.00000
     22     -13.4361      2.00000
     23     -13.4357      2.00000
     24     -13.4356      2.00000
     25     -13.3449      2.00000
     26     -13.3448      2.00000
     27     -13.3447      2.00000
     28     -13.3446      2.00000
     29     -13.3358      2.00000
     30     -13.3358      2.00000
     31     -13.3352      2.00000
     32     -13.3351      2.00000
     33     -13.2438      2.00000
     34     -13.2437      2.00000
     35     -13.2434      2.00000
     36     -13.2433      2.00000
     37     -13.2004      2.00000
     38     -13.2003      2.00000
     39     -13.1996      2.00000
     40     -13.1995      2.00000
     41      -3.2621      2.00000
     42      -3.2621      2.00000
     43      -3.2613      2.00000
     44      -3.2613      2.00000
     45      -2.4160      2.00000
     46      -2.4159      2.00000
     47      -2.4150      2.00000
     48      -2.4150      2.00000
     49       3.4214      2.00000
     50       3.4214      2.00000
     51       3.4218      2.00000
     52       3.4218      2.00000
     53       6.0747     -0.00000
     54       6.0747     -0.00000
     55       6.0757     -0.00000
     56       6.0757     -0.00000
     57      13.8336      0.00000
     58      13.8337      0.00000
     59      13.8408      0.00000
     60      13.8474      0.00000
     61      13.8529      0.00000
     62      13.8529      0.00000


--------------------------------------------------------------------------------------------------------


 soft charge-density along one line, spin component            1
         0         1         2         3         4         5         6         7         8         9
 total charge-density along one line
 
 pseudopotential strength for first ion, spin component:            1
 -9.652  -0.000  -0.000   0.005   0.000  -0.821   0.000   0.000
 -0.000  -9.665   0.002   0.000  -0.004   0.000  -0.814  -0.001
 -0.000   0.002  -9.644  -0.000  -0.021   0.000  -0.001  -0.826
  0.005   0.000  -0.000  -9.629  -0.000  -0.003  -0.000   0.000
  0.000  -0.004  -0.021  -0.000  -9.654   0.000   0.002   0.012
 -0.821   0.000   0.000  -0.003   0.000   5.594  -0.000  -0.000
  0.000  -0.814  -0.001  -0.000   0.002  -0.000   5.591   0.001
  0.000  -0.001  -0.826   0.000   0.012  -0.000   0.001   5.597
 -0.003  -0.000   0.000  -0.835   0.000   0.001   0.000  -0.000
  0.000   0.002   0.012   0.000  -0.820  -0.000  -0.002  -0.005
 -0.000   0.001   0.001  -0.000  -0.001  -0.000  -0.001  -0.001
 -0.000  -0.002  -0.001   0.000  -0.009   0.000   0.001   0.001
  0.000   0.002  -0.001  -0.000  -0.002  -0.000  -0.001   0.001
 -0.000  -0.000   0.001  -0.000  -0.001   0.000  -0.002  -0.001
 -0.000  -0.000   0.000   0.000  -0.000  -0.001   0.000   0.000
 -0.000  -0.005   0.004   0.000   0.007   0.000   0.004  -0.005
  0.000   0.001  -0.000  -0.000   0.003  -0.000   0.003   0.001
  0.001   0.000  -0.000   0.001   0.000   0.003  -0.000  -0.000
 total augmentation occupancy for first ion, spin component:            1
  1.988  -0.000   0.000  -0.001  -0.000  -0.013   0.000   0.000  -0.002  -0.000  -0.000  -0.000   0.000  -0.000  -0.009   0.000
 -0.000   1.989  -0.000   0.000  -0.001  -0.000  -0.009   0.000   0.000  -0.003   0.001   0.000   0.005  -0.013   0.000   0.001
  0.000  -0.000   1.989  -0.000  -0.001   0.000   0.000  -0.010  -0.000  -0.002   0.002   0.000  -0.006  -0.003   0.000  -0.001
 -0.001   0.000  -0.000   1.990   0.000  -0.002  -0.000   0.000  -0.007   0.000   0.000   0.000   0.000   0.000  -0.010   0.000
 -0.000  -0.001  -0.001   0.000   1.989   0.000  -0.003  -0.002   0.000  -0.008  -0.002   0.001  -0.004  -0.007   0.000  -0.001
 -0.013  -0.000   0.000  -0.002   0.000   0.015  -0.000  -0.000  -0.003   0.000  -0.000  -0.000   0.000  -0.000  -0.070   0.000
  0.000  -0.009   0.000  -0.000  -0.003  -0.000   0.020   0.001  -0.000  -0.002   0.012   0.000   0.037  -0.079   0.000   0.001
  0.000   0.000  -0.010   0.000  -0.002  -0.000   0.001   0.020  -0.000  -0.008   0.014   0.000  -0.036  -0.022   0.000  -0.001
 -0.002   0.000  -0.000  -0.007   0.000  -0.003  -0.000  -0.000   0.028   0.000  -0.000  -0.000  -0.000   0.000  -0.056  -0.000
 -0.000  -0.003  -0.002   0.000  -0.008   0.000  -0.002  -0.008   0.000   0.028  -0.011   0.001  -0.030  -0.044  -0.000  -0.001
 -0.000   0.001   0.002   0.000  -0.002  -0.000   0.012   0.014  -0.000  -0.011   1.515   0.041   0.034   0.003   0.000  -0.000
 -0.000   0.000   0.000   0.000   0.001  -0.000   0.000   0.000  -0.000   0.001   0.041   0.002  -0.002  -0.001   0.000  -0.000
  0.000   0.005  -0.006   0.000  -0.004   0.000   0.037  -0.036  -0.000  -0.030   0.034  -0.002   0.705   0.029   0.000   0.015
 -0.000  -0.013  -0.003   0.000  -0.007  -0.000  -0.079  -0.022   0.000  -0.044   0.003  -0.001   0.029   0.920  -0.000   0.001
 -0.009   0.000   0.000  -0.010   0.000  -0.070   0.000   0.000  -0.056  -0.000   0.000   0.000   0.000  -0.000   1.058   0.000
  0.000   0.001  -0.001   0.000  -0.001   0.000   0.001  -0.001  -0.000  -0.001  -0.000  -0.000   0.015   0.001   0.000   0.000
 -0.000  -0.001  -0.000   0.000  -0.001  -0.000  -0.002  -0.000  -0.000  -0.001  -0.000  -0.000   0.001   0.019  -0.000   0.000
 -0.001   0.000   0.000  -0.001  -0.000  -0.001  -0.000   0.000  -0.001  -0.000   0.000   0.000  -0.000  -0.000   0.021  -0.000


------------------------ aborting loop because EDIFF is reached ----------------------------------------


    FORLOC:  cpu time      0.0007: real time      0.0007
    FORHF :  cpu time      2.1015: real time      2.1012
    FORNL :  cpu time      0.1055: real time      0.1055
    STRESS:  cpu time      0.3248: real time      0.3247
    FORCOR:  cpu time      0.1982: real time      0.1982
    OFIELD:  cpu time      0.0008: real time      0.0008

  FORCE on cell =-STRESS in cart. coord.  units (eV):
  Direction    XX          YY          ZZ          XY          YZ          ZX
  --------------------------------------------------------------------------------------
  Alpha Z   563.37210   563.37210   563.37210
  Ewald   -2816.29772 -4192.38315 -3066.95774     0.00000    -0.00000    -0.00000
  Hartree  1933.36655   947.43873  1756.34735    -0.00006    -0.00066     0.00009
  E(xc)    -431.99554  -432.08931  -432.00412    -0.00000    -0.00000     0.00000
  Local    -611.29156  1766.45295  -176.45544     0.00012     0.00124    -0.00024
  n-local  1224.58460  1214.52250  1221.64462    -0.00004    -0.00031     0.00011
  augment   844.34435   839.35516   841.50599    -0.00002    -0.00014    -0.00001
  Kinetic   517.71025   496.46679   503.48393    -0.00011    -0.00031     0.00001
  Fock    -1209.69019 -1211.92726 -1210.14757    -0.00005     0.00019    -0.00009
  -------------------------------------------------------------------------------------
  Total      14.10285    -8.79149     0.78913     0.00000    -0.00000     0.00000
  in kB     147.29175   -91.81930     8.24173     0.00000    -0.00000     0.00000
  external pressure =       21.24 kB  Pullay stress =        0.00 kB


 VOLUME and BASIS-vectors are now :
 -----------------------------------------------------------------------------
  energy-cutoff  :      450.00
  volume of cell :      153.40
      direct lattice vectors                 reciprocal lattice vectors
     4.432046661  0.000000000  0.000000000     0.225629393  0.000000000 -0.000000000
    -0.000000000  7.597983680  0.000000000     0.000000000  0.131613865  0.000000000
     0.000000000  0.000000000  4.555503530    -0.000000000 -0.000000000  0.219514702

  length of vectors
     4.432046661  7.597983680  4.555503530     0.225629393  0.131613865  0.219514702


 FORCES acting on ions:
    Electron-Ion                     Ewald-Force                    Non-Local-Force
 -----------------------------------------------------------------------------------------------
   0.283E-03 -.123E+03 -.200E+02   -.122E-12 0.124E+03 0.200E+02   0.941E-16 -.143E+01 -.116E+00
   0.455E-03 0.123E+03 -.199E+02   0.108E-13 -.124E+03 0.200E+02   -.941E-16 0.143E+01 -.116E+00
   -.119E-03 0.123E+03 0.200E+02   0.120E-12 -.124E+03 -.200E+02   -.941E-16 0.143E+01 0.116E+00
   -.501E-04 -.123E+03 0.199E+02   0.529E-15 0.124E+03 -.200E+02   0.941E-16 -.143E+01 0.116E+00
   -.294E-03 -.123E+03 -.199E+02   -.124E-12 0.124E+03 0.200E+02   0.941E-16 -.143E+01 -.116E+00
   0.388E-03 0.123E+03 -.200E+02   -.517E-15 -.124E+03 0.200E+02   -.940E-16 0.143E+01 -.116E+00
   0.186E-03 0.123E+03 0.199E+02   0.118E-12 -.124E+03 -.200E+02   -.941E-16 0.143E+01 0.116E+00
   0.188E-03 -.123E+03 0.200E+02   -.111E-13 0.124E+03 -.200E+02   0.941E-16 -.143E+01 0.116E+00
 -----------------------------------------------------------------------------------------------
   0.105E-02 -.175E-01 -.793E-03   -.866E-14 0.000E+00 0.142E-13   -.181E-20 0.000E+00 -.278E-16
 
 
 POSITION                                       TOTAL-FORCE (eV/Angst)
 -----------------------------------------------------------------------------------
     -0.00000      2.56208      1.82712         0.000000     -0.129315     -0.067548
     -0.00000      1.23691      4.10487        -0.000000      0.129315     -0.067548
     -0.00000      5.03591      2.72838        -0.000000      0.129315      0.067548
     -0.00000      6.36107      0.45063         0.000000     -0.129315      0.067548
      2.21602      6.36107      1.82712         0.000000     -0.129315     -0.067548
      2.21602      5.03591      4.10487        -0.000000      0.129315     -0.067548
      2.21602      1.23691      2.72838        -0.000000      0.129315      0.067548
      2.21602      2.56208      0.45063         0.000000     -0.129315      0.067548
 -----------------------------------------------------------------------------------
    total drift:                                0.001048     -0.017464     -0.000793


--------------------------------------------------------------------------------------------------------



  FREE ENERGIE OF THE ION-ELECTRON SYSTEM (eV)
  ---------------------------------------------------
  free  energy   TOTEN  =       -26.51108627 eV

  energy  without entropy=      -26.51871781  energy(sigma->0) =      -26.51363011
 


--------------------------------------------------------------------------------------------------------


    POTLOK:  cpu time      0.3894: real time      0.3894


--------------------------------------------------------------------------------------------------------


 writing wavefunctions
     LOOP+:  cpu time    119.1595: real time    119.4456
    4ORBIT:  cpu time      0.0000: real time      0.0000

 total amount of memory used by VASP MPI-rank0   160933. kBytes
=======================================================================

   base      :      30000. kBytes
   nonlr-proj:       4722. kBytes
   fftplans  :       6540. kBytes
   grid      :      10030. kBytes
   one-center:        124. kBytes
   HF        :         64. kBytes
   wavefun   :      83232. kBytes
   fock_wrk  :      26221. kBytes
 
  
  
 General timing and accounting informations for this job:
 ========================================================
  
                  Total CPU time used (sec):      127.416
                            User time (sec):      125.256
                          System time (sec):        2.161
                         Elapsed time (sec):      129.024
  
                   Maximum memory used (kb):     3952192.
                   Average memory used (kb):          N/A
  
                          Minor page faults:        99639
                          Major page faults:            4
                 Voluntary context switches:         6057
