<?xml version="1.0" encoding="ISO-8859-1"?>
<modeling>
 <generator>
  <i name="program" type="string">vasp </i>
  <i name="version" type="string">6.4.2  </i>
  <i name="subversion" type="string">20Jul23 (build Nov 12 2023 22:16:35) complex                          parallel </i>
  <i name="platform" type="string">LinuxNV </i>
  <i name="date" type="string">2025 03 14 </i>
  <i name="time" type="string">23:05:41 </i>
 </generator>
 <incar>
  <i type="int" name="ISTART">     0</i>
  <i type="string" name="PREC">Normal</i>
  <i type="string" name="ALGO">All</i>
  <i type="int" name="ISPIN">     1</i>
  <i type="int" name="ICHARG">     0</i>
  <i type="int" name="NELM">   500</i>
  <i type="int" name="IBRION">    -1</i>
  <i name="EDIFF">      0.00001000</i>
  <i name="EDIFFG">     -0.00500000</i>
  <i type="int" name="NSW">     0</i>
  <i type="int" name="ISIF">     2</i>
  <i name="ENCUT">    450.00000000</i>
  <i type="string" name="LREAL">Auto</i>
  <i type="logical" name="LPLANE"> T  </i>
  <i name="TIME">      0.40000000</i>
  <i type="int" name="ISMEAR">     1</i>
  <i name="SIGMA">      0.20000000</i>
  <i type="logical" name="LWAVE"> T  </i>
  <i type="logical" name="LCHARG"> T  </i>
  <i name="HFSCREEN">      0.20000000</i>
  <i type="logical" name="LHFCALC"> T  </i>
  <i type="int" name="LMAXFOCK">     4</i>
  <i name="AEXX">      0.32000000</i>
  <i type="string" name="PRECFOCK">Fast</i>
 </incar>
 <primitive_cell>
  <structure name="primitive_cell" >
   <crystal>
    <varray name="basis" >
     <v>       2.21602333      -3.79899184       0.00000000 </v>
     <v>       2.21602333       3.79899184       0.00000000 </v>
     <v>       0.00000000       0.00000000       4.55550353 </v>
    </varray>
    <i name="volume">     76.70242104 </i>
    <varray name="rec_basis" >
     <v>       0.22562939      -0.13161387       0.00000000 </v>
     <v>       0.22562939       0.13161387      -0.00000000 </v>
     <v>      -0.00000000      -0.00000000       0.21951470 </v>
    </varray>
   </crystal>
   <varray name="positions" >
    <v>       0.66279501       0.33720499       0.40107953 </v>
    <v>       0.83720499       0.16279501       0.90107953 </v>
    <v>       0.33720499       0.66279501       0.59892047 </v>
    <v>       0.16279501       0.83720499       0.09892047 </v>
   </varray>
  </structure>
  <varray name="primitive_index" >
   <v type="int" >        1 </v>
   <v type="int" >        2 </v>
   <v type="int" >        3 </v>
   <v type="int" >        4 </v>
  </varray>
 </primitive_cell>
 <kpoints>
  <generation param="Gamma">
   <v type="int" name="divisions">       2        2        2 </v>
   <v name="usershift">      0.00000000       0.00000000       0.00000000 </v>
   <v name="genvec1">      0.50000000      -0.00000000       0.00000000 </v>
   <v name="genvec2">      0.00000000       0.50000000       0.00000000 </v>
   <v name="genvec3">      0.00000000      -0.00000000       0.50000000 </v>
   <v name="shift">      0.00000000       0.00000000       0.00000000 </v>
  </generation>
  <varray name="kpointlist" >
   <v>       0.00000000       0.00000000       0.00000000 </v>
   <v>       0.50000000       0.00000000       0.00000000 </v>
   <v>       0.00000000       0.50000000       0.00000000 </v>
   <v>       0.50000000       0.50000000       0.00000000 </v>
   <v>       0.00000000       0.00000000       0.50000000 </v>
   <v>       0.50000000       0.00000000       0.50000000 </v>
   <v>       0.00000000       0.50000000       0.50000000 </v>
   <v>       0.50000000       0.50000000       0.50000000 </v>
  </varray>
  <varray name="weights" >
   <v>       0.12500000 </v>
   <v>       0.12500000 </v>
   <v>       0.12500000 </v>
   <v>       0.12500000 </v>
   <v>       0.12500000 </v>
   <v>       0.12500000 </v>
   <v>       0.12500000 </v>
   <v>       0.12500000 </v>
  </varray>
 </kpoints>
 <parameters>
  <separator name="general" >
   <i type="string" name="SYSTEM">unknown system</i>
   <i type="logical" name="LCOMPAT"> F  </i>
  </separator>
  <separator name="electronic" >
   <i type="string" name="PREC">normal</i>
   <i name="ENMAX">    450.00000000</i>
   <i name="ENAUG">    490.69000000</i>
   <i name="EDIFF">      0.00001000</i>
   <i type="int" name="IALGO">    58</i>
   <i type="int" name="IWAVPR">    10</i>
   <i type="int" name="NBANDS">    62</i>
   <i type="int" name="NBANDSLOW">    -1</i>
   <i type="int" name="NBANDSHIGH">    -1</i>
   <i name="NELECT">    104.00000000</i>
   <i type="int" name="TURBO">     0</i>
   <i type="int" name="IRESTART">     0</i>
   <i type="int" name="NREBOOT">     0</i>
   <i type="int" name="NMIN">     0</i>
   <i name="EREF">      0.00000000</i>
   <separator name="electronic smearing" >
    <i type="int" name="ISMEAR">     1</i>
    <i name="SIGMA">      0.20000000</i>
    <i name="KSPACING">      0.50000000</i>
    <i type="logical" name="KGAMMA"> T  </i>
    <i type="logical" name="KBLOWUP"> T  </i>
   </separator>
   <separator name="electronic projectors" >
    <i type="logical" name="LREAL"> T  </i>
    <v name="ROPT">     -0.00050000</v>
    <i type="int" name="LMAXPAW">  -100</i>
    <i type="int" name="LMAXMIX">     2</i>
    <i type="logical" name="NLSPLINE"> F  </i>
   </separator>
   <separator name="electronic startup" >
    <i type="int" name="ISTART">     0</i>
    <i type="int" name="ICHARG">     0</i>
    <i type="int" name="INIWAV">     1</i>
   </separator>
   <separator name="electronic spin" >
    <i type="int" name="ISPIN">     1</i>
    <i type="logical" name="LNONCOLLINEAR"> F  </i>
    <v name="MAGMOM">      1.00000000      1.00000000      1.00000000      1.00000000      1.00000000      1.00000000      1.00000000      1.00000000</v>
    <i name="NUPDOWN">     -1.00000000</i>
    <i type="logical" name="LSORBIT"> F  </i>
    <v name="SAXIS">      0.00000000      0.00000000      1.00000000</v>
    <i type="logical" name="LSPIRAL"> F  </i>
    <v name="QSPIRAL">      0.00000000      0.00000000      0.00000000</v>
    <i type="logical" name="LZEROZ"> F  </i>
   </separator>
   <separator name="electronic exchange-correlation" >
    <i type="logical" name="LASPH"> F  </i>
    <i type="logical" name="LMETAGGA"> F  </i>
   </separator>
   <separator name="electronic convergence" >
    <i type="int" name="NELM">   500</i>
    <i type="int" name="NELMDL">    -5</i>
    <i type="int" name="NELMIN">     2</i>
    <i name="ENINI">    450.00000000</i>
    <separator name="electronic convergence detail" >
     <i type="logical" name="LDIAG"> T  </i>
     <i type="logical" name="LSUBROT"> F  </i>
     <i name="WEIMIN">      0.00000000</i>
     <i name="EBREAK">      0.00000004</i>
     <i name="DEPER">      0.30000000</i>
     <i type="int" name="NRMM">     4</i>
     <i name="TIME">      0.40000000</i>
    </separator>
   </separator>
   <separator name="electronic mixer" >
    <i name="AMIX">      0.40000000</i>
    <i name="BMIX">      1.00000000</i>
    <i name="AMIN">      0.10000000</i>
    <i name="AMIX_MAG">      1.60000000</i>
    <i name="BMIX_MAG">      1.00000000</i>
    <separator name="electronic mixer details" >
     <i type="int" name="IMIX">     4</i>
     <i type="logical" name="MIXFIRST"> F  </i>
     <i type="int" name="MAXMIX">   -45</i>
     <i name="WC">    100.00000000</i>
     <i type="int" name="INIMIX">     1</i>
     <i type="int" name="MIXPRE">     1</i>
     <i type="int" name="MREMOVE">     5</i>
    </separator>
   </separator>
   <separator name="electronic dipolcorrection" >
    <i type="logical" name="LDIPOL"> F  </i>
    <i type="logical" name="LMONO"> F  </i>
    <i type="int" name="IDIPOL">     0</i>
    <i name="EPSILON">      1.00000000</i>
    <v name="DIPOL">   -100.00000000   -100.00000000   -100.00000000</v>
    <i name="EFIELD">      0.00000000</i>
   </separator>
  </separator>
  <separator name="grids" >
   <i type="int" name="NGX">    24</i>
   <i type="int" name="NGY">    40</i>
   <i type="int" name="NGZ">    24</i>
   <i type="int" name="NGXF">    48</i>
   <i type="int" name="NGYF">    80</i>
   <i type="int" name="NGZF">    48</i>
   <i type="logical" name="ADDGRID"> F  </i>
  </separator>
  <separator name="ionic" >
   <i type="int" name="NSW">     0</i>
   <i type="int" name="IBRION">    -1</i>
   <i type="int" name="MDALGO">     0</i>
   <i type="int" name="ISIF">     2</i>
   <i name="PSTRESS">      0.00000000</i>
   <i name="EDIFFG">     -0.00500000</i>
   <i type="int" name="NFREE">     0</i>
   <i name="POTIM">      0.50000000</i>
   <i name="SMASS">     -3.00000000</i>
   <i name="SCALEE">      1.00000000</i>
  </separator>
  <separator name="ionic md" >
   <i name="TEBEG">      0.00010000</i>
   <i name="TEEND">      0.00010000</i>
   <i type="int" name="NBLOCK">     1</i>
   <i type="int" name="KBLOCK">     1</i>
   <i type="int" name="NPACO">   256</i>
   <i name="APACO">     10.00000000</i>
  </separator>
  <separator name="symmetry" >
   <i type="int" name="ISYM">     3</i>
   <i name="SYMPREC">      0.00001000</i>
  </separator>
  <separator name="dos" >
   <i type="int" name="LORBIT">     0</i>
   <v name="RWIGS">     -1.00000000</v>
   <i type="int" name="NEDOS">   301</i>
   <i name="EMIN">     10.00000000</i>
   <i name="EMAX">    -10.00000000</i>
   <i name="EFERMI">      0.00000000</i>
  </separator>
  <separator name="writing" >
   <i type="int" name="NWRITE">     2</i>
   <i type="logical" name="LWAVE"> T  </i>
   <i type="logical" name="LDOWNSAMPLE"> F  </i>
   <i type="logical" name="LCHARG"> T  </i>
   <i type="logical" name="LPARD"> F  </i>
   <i type="logical" name="LVTOT"> F  </i>
   <i type="logical" name="LVHAR"> F  </i>
   <i type="logical" name="LELF"> F  </i>
   <i type="logical" name="LOPTICS"> F  </i>
   <v name="STM">      0.00000000      0.00000000      0.00000000      0.00000000      0.00000000      0.00000000      0.00000000</v>
  </separator>
  <separator name="performance" >
   <i type="int" name="NPAR">     1</i>
   <i type="int" name="NSIM">     4</i>
   <i type="int" name="NBLK">    -1</i>
   <i type="logical" name="LPLANE"> T  </i>
   <i type="logical" name="LSCALAPACK"> T  </i>
   <i type="logical" name="LSCAAWARE"> F  </i>
   <i type="logical" name="LSCALU"> F  </i>
   <i type="logical" name="LASYNC"> F  </i>
   <i type="logical" name="LORBITALREAL"> F  </i>
  </separator>
  <separator name="miscellaneous" >
   <i type="int" name="IDIOT">     3</i>
   <i type="int" name="PHON_NSTRUCT">    -1</i>
   <i type="logical" name="LMUSIC"> F  </i>
   <v name="POMASS">     69.72300000</v>
   <v name="DARWINR">      0.00000000</v>
   <v name="DARWINV">      1.00000000</v>
   <i type="logical" name="LCORR"> T  </i>
  </separator>
  <i type="logical" name="GGA_COMPAT"> T  </i>
  <i type="logical" name="LBERRY"> F  </i>
  <i type="int" name="ICORELEVEL">     0</i>
  <i type="logical" name="LDAU"> F  </i>
  <i type="int" name="I_CONSTRAINED_M">     0</i>
  <separator name="electronic exchange-correlation" >
   <i type="string" name="GGA">--</i>
   <i type="int" name="VOSKOWN">     0</i>
   <i type="logical" name="LHFCALC"> T  </i>
   <i type="string" name="PRECFOCK">fast</i>
   <i type="logical" name="LSYMGRAD"> F  </i>
   <i type="logical" name="LHFONE"> F  </i>
   <i type="logical" name="LRHFCALC"> F  </i>
   <i type="logical" name="LTHOMAS"> F  </i>
   <i type="logical" name="LMODELHF"> F  </i>
   <i type="logical" name="LFOCKACE"> T  </i>
   <i name="ENCUT4O">     -1.00000000</i>
   <i type="int" name="EXXOEP">     0</i>
   <i type="int" name="FOURORBIT">     0</i>
   <i name="AEXX">      0.32000000</i>
   <i name="HFALPHA">     -1.00000000</i>
   <i name="MCALPHA">      0.00000000</i>
   <i name="ALDAX">      0.68000000</i>
   <i name="AGGAX">      0.68000000</i>
   <i name="ALDAC">      1.00000000</i>
   <i name="AGGAC">      1.00000000</i>
   <i type="int" name="NKREDX">     1</i>
   <i type="int" name="NKREDY">     1</i>
   <i type="int" name="NKREDZ">     1</i>
   <i type="logical" name="SHIFTRED"> F  </i>
   <i type="logical" name="ODDONLY"> F  </i>
   <i type="logical" name="EVENONLY"> F  </i>
   <i type="int" name="LMAXFOCK">     4</i>
   <i type="int" name="NMAXFOCKAE">     1</i>
   <i type="logical" name="LFOCKAEDFT"> F  </i>
   <i name="HFSCREEN">      0.20000000</i>
   <i name="HFSCREENC">      0.20000000</i>
   <i type="int" name="NBANDSGWLOW">     1</i>
  </separator>
  <separator name="vdW DFT" >
   <i type="logical" name="LUSE_VDW"> F  </i>
   <i type="int" name="IVDW_NL">     1</i>
   <i type="logical" name="LSPIN_VDW"> F  </i>
   <i name="Zab_VDW">     -0.84910000</i>
   <i name="PARAM1">      0.12340000</i>
   <i name="PARAM2">      1.00000000</i>
   <i name="PARAM3">      0.00000000</i>
  </separator>
  <separator name="model GW" >
   <i type="int" name="MODEL_GW">     0</i>
   <i name="MODEL_EPS0">     11.50536316</i>
   <i name="MODEL_ALPHA">      1.00000000</i>
  </separator>
  <separator name="linear response parameters" >
   <i type="logical" name="LEPSILON"> F  </i>
   <i type="logical" name="LRPA"> F  </i>
   <i type="logical" name="LNABLA"> F  </i>
   <i type="logical" name="LVEL"> F  </i>
   <i name="CSHIFT">      0.10000000</i>
   <i name="OMEGAMAX">     -1.00000000</i>
   <i name="DEG_THRESHOLD">      0.00200000</i>
   <i name="RTIME">     -0.10000000</i>
   <i name="WPLASMAI">      0.00000000</i>
   <v name="DFIELD">      0.00000000      0.00000000      0.00000000</v>
   <v name="WPLASMA">      0.00000000      0.00000000      0.00000000      0.00000000      0.00000000      0.00000000      0.00000000      0.00000000      0.00000000</v>
  </separator>
  <separator name="orbital magnetization" >
   <i type="logical" name="NUCIND"> F  </i>
   <v name="MAGPOS">      0.00000000      0.00000000      0.00000000</v>
   <i type="logical" name="LNICSALL"> T  </i>
   <i type="logical" name="ORBITALMAG"> F  </i>
   <i type="logical" name="LMAGBLOCH"> F  </i>
   <i type="logical" name="LCHIMAG"> F  </i>
   <i type="logical" name="LGAUGE"> T  </i>
   <i type="int" name="MAGATOM">     0</i>
   <v name="MAGDIPOL">      0.00000000      0.00000000      0.00000000</v>
   <v name="AVECCONST">      0.00000000      0.00000000      0.00000000</v>
  </separator>
  <separator name="response functions" >
   <i type="logical" name="LALL_IN_ONE"> F  </i>
   <i type="int" name="IALL_IN_ONE">    -1</i>
   <i type="int" name="NBANDS_WAVE">    -1</i>
   <i type="logical" name="LFINITE_TEMPERATURE"> F  </i>
   <i type="logical" name="LADDER"> F  </i>
   <i type="logical" name="LRPAFORCE"> F  </i>
   <i type="logical" name="LFXC"> F  </i>
   <i type="logical" name="LHARTREE"> T  </i>
   <i type="int" name="IBSE">     0</i>
   <v type="int" name="KPOINT">    -1     0     0     0</v>
   <i type="logical" name="LTCTC"> F  </i>
   <i type="logical" name="LTCTE"> F  </i>
   <i type="logical" name="LTETE"> F  </i>
   <i type="logical" name="LTRIPLET"> F  </i>
   <i type="logical" name="LFXCEPS"> F  </i>
   <i type="logical" name="LFXHEG"> F  </i>
   <i type="int" name="NATURALO">     2</i>
   <i type="logical" name="LHOLEGF"> F  </i>
   <i type="logical" name="L2ORDER"> F  </i>
   <i type="logical" name="LDMP1"> F  </i>
   <i type="logical" name="LMP2LT"> F  </i>
   <i type="logical" name="LSMP2LT"> F  </i>
   <i type="logical" name="LGWLF"> F  </i>
   <i name="ENCUTGW">     -1.60000002</i>
   <i name="ENCUTGWSOFT">     -1.60000002</i>
   <i name="ENCUTLF">     -1.00000000</i>
   <i type="logical" name="LESF_SPLINES"> F  </i>
   <i type="int" name="LMAXMP2">    -1</i>
   <i name="SCISSOR">      0.00000000</i>
   <i type="int" name="NOMEGA">     0</i>
   <i type="int" name="NOMEGAR">     0</i>
   <i type="int" name="NBANDSGW">    -1</i>
   <i type="int" name="NBANDSO">    -1</i>
   <i type="int" name="NBANDSV">    -1</i>
   <i type="int" name="NELMGW">     1</i>
   <i type="int" name="NELMHF">     1</i>
   <i type="int" name="DIM">     3</i>
   <i type="int" name="IESPILON">     4</i>
   <i type="int" name="ANTIRES">     0</i>
   <i name="OMEGAMAX">    -30.00000000</i>
   <i name="OMEGAMIN">    -30.00000000</i>
   <i name="OMEGATL">   -200.00000000</i>
   <i type="int" name="OMEGAGRID">     0</i>
   <i name="CSHIFT">     -0.10000000</i>
   <i type="logical" name="LSELFENERGY"> F  </i>
   <i type="logical" name="LSPECTRAL"> F  </i>
   <i type="logical" name="LSPECTRALGW"> F  </i>
   <i type="logical" name="LSINGLES"> F  </i>
   <i type="logical" name="LFERMIGW"> F  </i>
   <i type="logical" name="ODDONLYGW"> F  </i>
   <i type="logical" name="EVENONLYGW"> F  </i>
   <i type="int" name="NKREDLFX">     1</i>
   <i type="int" name="NKREDLFY">     1</i>
   <i type="int" name="NKREDLFZ">     1</i>
   <i type="int" name="MAXMEM">  2800</i>
   <i type="int" name="TELESCOPE">     0</i>
   <i type="int" name="NTAUPAR">    -1</i>
   <i type="int" name="NOMEGAPAR">    -1</i>
   <i name="DAMP_NEWTON">      0.80000001</i>
   <i name="LAMBDA">      1.00000000</i>
  </separator>
  <separator name="External order field" >
   <i name="OFIELD_KAPPA">      0.00000000</i>
   <v name="OFIELD_K">      0.00000000      0.00000000      0.00000000</v>
   <i name="OFIELD_Q6_NEAR">      0.00000000</i>
   <i name="OFIELD_Q6_FAR">      0.00000000</i>
   <i name="OFIELD_A">      0.00000000</i>
  </separator>
  <separator name="optional k-points parameters" >
   <i type="int" name="KPOINTS_OPT_MODE">     1</i>
   <i type="logical" name="LKPOINTS_OPT"> F  </i>
  </separator>
 </parameters>
 <atominfo>
  <atoms>       8 </atoms>
  <types>       1 </types>
  <array name="atoms" >
   <dimension dim="1">ion</dimension>
   <field type="string">element</field>
   <field type="int">atomtype</field>
   <set>
    <rc><c>Ga</c><c>   1</c></rc>
    <rc><c>Ga</c><c>   1</c></rc>
    <rc><c>Ga</c><c>   1</c></rc>
    <rc><c>Ga</c><c>   1</c></rc>
    <rc><c>Ga</c><c>   1</c></rc>
    <rc><c>Ga</c><c>   1</c></rc>
    <rc><c>Ga</c><c>   1</c></rc>
    <rc><c>Ga</c><c>   1</c></rc>
   </set>
  </array>
  <array name="atomtypes" >
   <dimension dim="1">type</dimension>
   <field type="int">atomspertype</field>
   <field type="string">element</field>
   <field>mass</field>
   <field>valence</field>
   <field type="string">pseudopotential</field>
   <set>
    <rc><c>   8</c><c>Ga</c><c>     69.72300000</c><c>     13.00000000</c><c>  PAW_PBE Ga_d 06Jul2010                </c></rc>
   </set>
  </array>
 </atominfo>
 <structure name="initialpos" >
  <crystal>
   <varray name="basis" >
    <v>       4.43204666       0.00000000       0.00000000 </v>
    <v>      -0.00000000       7.59798368       0.00000000 </v>
    <v>       0.00000000       0.00000000       4.55550353 </v>
   </varray>
   <i name="volume">    153.40484207 </i>
   <varray name="rec_basis" >
    <v>       0.22562939       0.00000000      -0.00000000 </v>
    <v>       0.00000000       0.13161387       0.00000000 </v>
    <v>      -0.00000000      -0.00000000       0.21951470 </v>
   </varray>
  </crystal>
  <varray name="positions" >
   <v>       0.00000000       0.33720499       0.40107953 </v>
   <v>       0.00000000       0.16279501       0.90107953 </v>
   <v>       0.00000000       0.66279501       0.59892047 </v>
   <v>       0.00000000       0.83720499       0.09892047 </v>
   <v>       0.50000000       0.83720499       0.40107953 </v>
   <v>       0.50000000       0.66279501       0.90107953 </v>
   <v>       0.50000000       0.16279501       0.59892047 </v>
   <v>       0.50000000       0.33720499       0.09892047 </v>
  </varray>
 </structure>
 <calculation>
  <scstep>
   <time name="total">    0.39    0.39</time>
   <energy>
    <i name="alphaZ">    563.37210189 </i>
    <i name="ewald"> -10075.62109696 </i>
    <i name="hartreedc">   -213.26787051 </i>
    <i name="XCdc">    192.64815077 </i>
    <i name="pawpsdc">   5085.59337777 </i>
    <i name="pawaedc">  -9302.76631405 </i>
    <i name="eentropy">      0.00145096 </i>
    <i name="bandstr"> -11528.49539316 </i>
    <i name="atom">  17173.55118989 </i>
    <i name="e_fr_energy">  -8104.98440341 </i>
    <i name="e_wo_entrp">  -8104.98585436 </i>
    <i name="e_0_energy">  -8104.98488706 </i>
   </energy>
  </scstep>
  <scstep>
   <time name="total">    0.21    0.21</time>
   <energy>
    <i name="e_fr_energy"> -10095.86497053 </i>
    <i name="e_wo_entrp"> -10095.85423775 </i>
    <i name="e_0_energy"> -10095.86139294 </i>
   </energy>
  </scstep>
  <scstep>
   <time name="total">    0.25    0.25</time>
   <energy>
    <i name="e_fr_energy"> -10330.81238372 </i>
    <i name="e_wo_entrp"> -10330.81699313 </i>
    <i name="e_0_energy"> -10330.81392019 </i>
   </energy>
  </scstep>
  <scstep>
   <time name="total">    0.26    0.26</time>
   <energy>
    <i name="e_fr_energy"> -10349.39811298 </i>
    <i name="e_wo_entrp"> -10349.41912766 </i>
    <i name="e_0_energy"> -10349.40511787 </i>
   </energy>
  </scstep>
  <scstep>
   <time name="total">    1.53    1.53</time>
   <energy>
    <i name="e_fr_energy">  -5702.73937875 </i>
    <i name="e_wo_entrp">  -5702.74358781 </i>
    <i name="e_0_energy">  -5702.74078177 </i>
   </energy>
  </scstep>
  <scstep>
   <time name="total">    2.80    2.80</time>
   <energy>
    <i name="e_fr_energy">   1637.50489193 </i>
    <i name="e_wo_entrp">   1637.49622033 </i>
    <i name="e_0_energy">   1637.50200139 </i>
   </energy>
  </scstep>
  <scstep>
   <time name="total">    2.83    2.83</time>
   <energy>
    <i name="e_fr_energy">    201.91601859 </i>
    <i name="e_wo_entrp">    201.91337844 </i>
    <i name="e_0_energy">    201.91513854 </i>
   </energy>
  </scstep>
  <scstep>
   <time name="total">    2.95    3.15</time>
   <energy>
    <i name="e_fr_energy">     47.57473068 </i>
    <i name="e_wo_entrp">     47.56455485 </i>
    <i name="e_0_energy">     47.57133874 </i>
   </energy>
  </scstep>
  <scstep>
   <time name="total">    2.80    2.80</time>
   <energy>
    <i name="e_fr_energy">      2.24622330 </i>
    <i name="e_wo_entrp">      2.25004247 </i>
    <i name="e_0_energy">      2.24749635 </i>
   </energy>
  </scstep>
  <scstep>
   <time name="total">    2.80    2.80</time>
   <energy>
    <i name="e_fr_energy">     -9.45676696 </i>
    <i name="e_wo_entrp">     -9.44539305 </i>
    <i name="e_0_energy">     -9.45297565 </i>
   </energy>
  </scstep>
  <scstep>
   <time name="total">    2.79    2.79</time>
   <energy>
    <i name="e_fr_energy">    -17.73990039 </i>
    <i name="e_wo_entrp">    -17.74384926 </i>
    <i name="e_0_energy">    -17.74121668 </i>
   </energy>
  </scstep>
  <scstep>
   <time name="total">    2.79    2.79</time>
   <energy>
    <i name="e_fr_energy">    -22.63997486 </i>
    <i name="e_wo_entrp">    -22.62334595 </i>
    <i name="e_0_energy">    -22.63443189 </i>
   </energy>
  </scstep>
  <scstep>
   <time name="total">    2.79    2.79</time>
   <energy>
    <i name="e_fr_energy">    -24.61280290 </i>
    <i name="e_wo_entrp">    -24.59682800 </i>
    <i name="e_0_energy">    -24.60747793 </i>
   </energy>
  </scstep>
  <scstep>
   <time name="total">    2.80    2.80</time>
   <energy>
    <i name="e_fr_energy">    -24.94514521 </i>
    <i name="e_wo_entrp">    -24.93068098 </i>
    <i name="e_0_energy">    -24.94032380 </i>
   </energy>
  </scstep>
  <scstep>
   <time name="total">    2.80    2.80</time>
   <energy>
    <i name="e_fr_energy">    -25.32203387 </i>
    <i name="e_wo_entrp">    -25.30872764 </i>
    <i name="e_0_energy">    -25.31759846 </i>
   </energy>
  </scstep>
  <scstep>
   <time name="total">    2.79    2.79</time>
   <energy>
    <i name="e_fr_energy">    -25.62609637 </i>
    <i name="e_wo_entrp">    -25.61262321 </i>
    <i name="e_0_energy">    -25.62160532 </i>
   </energy>
  </scstep>
  <scstep>
   <time name="total">    2.78    2.78</time>
   <energy>
    <i name="e_fr_energy">    -25.86707887 </i>
    <i name="e_wo_entrp">    -25.85280948 </i>
    <i name="e_0_energy">    -25.86232241 </i>
   </energy>
  </scstep>
  <scstep>
   <time name="total">    2.80    2.80</time>
   <energy>
    <i name="e_fr_energy">    -26.05212359 </i>
    <i name="e_wo_entrp">    -26.03937305 </i>
    <i name="e_0_energy">    -26.04787341 </i>
   </energy>
  </scstep>
  <scstep>
   <time name="total">    2.91    2.91</time>
   <energy>
    <i name="e_fr_energy">    -26.18873619 </i>
    <i name="e_wo_entrp">    -26.17862096 </i>
    <i name="e_0_energy">    -26.18536445 </i>
   </energy>
  </scstep>
  <scstep>
   <time name="total">    2.80    2.80</time>
   <energy>
    <i name="e_fr_energy">    -26.30797163 </i>
    <i name="e_wo_entrp">    -26.29958486 </i>
    <i name="e_0_energy">    -26.30517604 </i>
   </energy>
  </scstep>
  <scstep>
   <time name="total">    2.81    2.81</time>
   <energy>
    <i name="e_fr_energy">    -26.38317571 </i>
    <i name="e_wo_entrp">    -26.37662713 </i>
    <i name="e_0_energy">    -26.38099285 </i>
   </energy>
  </scstep>
  <scstep>
   <time name="total">    2.79    2.79</time>
   <energy>
    <i name="e_fr_energy">    -26.42231348 </i>
    <i name="e_wo_entrp">    -26.41774990 </i>
    <i name="e_0_energy">    -26.42079229 </i>
   </energy>
  </scstep>
  <scstep>
   <time name="total">    2.79    2.79</time>
   <energy>
    <i name="e_fr_energy">    -26.44821431 </i>
    <i name="e_wo_entrp">    -26.44501153 </i>
    <i name="e_0_energy">    -26.44714672 </i>
   </energy>
  </scstep>
  <scstep>
   <time name="total">    2.80    2.80</time>
   <energy>
    <i name="e_fr_energy">    -26.46749634 </i>
    <i name="e_wo_entrp">    -26.46463132 </i>
    <i name="e_0_energy">    -26.46654133 </i>
   </energy>
  </scstep>
  <scstep>
   <time name="total">    2.79    2.79</time>
   <energy>
    <i name="e_fr_energy">    -26.48031934 </i>
    <i name="e_wo_entrp">    -26.47730127 </i>
    <i name="e_0_energy">    -26.47931332 </i>
   </energy>
  </scstep>
  <scstep>
   <time name="total">    2.79    2.79</time>
   <energy>
    <i name="e_fr_energy">    -26.49052613 </i>
    <i name="e_wo_entrp">    -26.48738533 </i>
    <i name="e_0_energy">    -26.48947919 </i>
   </energy>
  </scstep>
  <scstep>
   <time name="total">    2.79    2.79</time>
   <energy>
    <i name="e_fr_energy">    -26.49717795 </i>
    <i name="e_wo_entrp">    -26.49416381 </i>
    <i name="e_0_energy">    -26.49617324 </i>
   </energy>
  </scstep>
  <scstep>
   <time name="total">    2.80    2.80</time>
   <energy>
    <i name="e_fr_energy">    -26.50139022 </i>
    <i name="e_wo_entrp">    -26.49880448 </i>
    <i name="e_0_energy">    -26.50052831 </i>
   </energy>
  </scstep>
  <scstep>
   <time name="total">    2.79    2.79</time>
   <energy>
    <i name="e_fr_energy">    -26.50414077 </i>
    <i name="e_wo_entrp">    -26.50231367 </i>
    <i name="e_0_energy">    -26.50353174 </i>
   </energy>
  </scstep>
  <scstep>
   <time name="total">    2.81    2.81</time>
   <energy>
    <i name="e_fr_energy">    -26.50604517 </i>
    <i name="e_wo_entrp">    -26.50519751 </i>
    <i name="e_0_energy">    -26.50576261 </i>
   </energy>
  </scstep>
  <scstep>
   <time name="total">    2.82    2.82</time>
   <energy>
    <i name="e_fr_energy">    -26.50733210 </i>
    <i name="e_wo_entrp">    -26.50763124 </i>
    <i name="e_0_energy">    -26.50743181 </i>
   </energy>
  </scstep>
  <scstep>
   <time name="total">    2.80    2.80</time>
   <energy>
    <i name="e_fr_energy">    -26.50828728 </i>
    <i name="e_wo_entrp">    -26.50981241 </i>
    <i name="e_0_energy">    -26.50879566 </i>
   </energy>
  </scstep>
  <scstep>
   <time name="total">    2.80    2.80</time>
   <energy>
    <i name="e_fr_energy">    -26.50899859 </i>
    <i name="e_wo_entrp">    -26.51182134 </i>
    <i name="e_0_energy">    -26.50993951 </i>
   </energy>
  </scstep>
  <scstep>
   <time name="total">    2.80    2.80</time>
   <energy>
    <i name="e_fr_energy">    -26.50955649 </i>
    <i name="e_wo_entrp">    -26.51348695 </i>
    <i name="e_0_energy">    -26.51086665 </i>
   </energy>
  </scstep>
  <scstep>
   <time name="total">    2.80    2.80</time>
   <energy>
    <i name="e_fr_energy">    -26.50992587 </i>
    <i name="e_wo_entrp">    -26.51487424 </i>
    <i name="e_0_energy">    -26.51157533 </i>
   </energy>
  </scstep>
  <scstep>
   <time name="total">    2.80    2.80</time>
   <energy>
    <i name="e_fr_energy">    -26.51020150 </i>
    <i name="e_wo_entrp">    -26.51610442 </i>
    <i name="e_0_energy">    -26.51216914 </i>
   </energy>
  </scstep>
  <scstep>
   <time name="total">    2.80    2.80</time>
   <energy>
    <i name="e_fr_energy">    -26.51042702 </i>
    <i name="e_wo_entrp">    -26.51648028 </i>
    <i name="e_0_energy">    -26.51244477 </i>
   </energy>
  </scstep>
  <scstep>
   <time name="total">    2.81    2.81</time>
   <energy>
    <i name="e_fr_energy">    -26.51075834 </i>
    <i name="e_wo_entrp">    -26.51703166 </i>
    <i name="e_0_energy">    -26.51284945 </i>
   </energy>
  </scstep>
  <scstep>
   <time name="total">    2.81    2.81</time>
   <energy>
    <i name="e_fr_energy">    -26.51092026 </i>
    <i name="e_wo_entrp">    -26.51741513 </i>
    <i name="e_0_energy">    -26.51308522 </i>
   </energy>
  </scstep>
  <scstep>
   <time name="total">    2.78    2.78</time>
   <energy>
    <i name="e_fr_energy">    -26.51099512 </i>
    <i name="e_wo_entrp">    -26.51768081 </i>
    <i name="e_0_energy">    -26.51322369 </i>
   </energy>
  </scstep>
  <scstep>
   <time name="total">    2.81    2.81</time>
   <energy>
    <i name="e_fr_energy">    -26.51102660 </i>
    <i name="e_wo_entrp">    -26.51798925 </i>
    <i name="e_0_energy">    -26.51334748 </i>
   </energy>
  </scstep>
  <scstep>
   <time name="total">    2.78    2.79</time>
   <energy>
    <i name="e_fr_energy">    -26.51105064 </i>
    <i name="e_wo_entrp">    -26.51829411 </i>
    <i name="e_0_energy">    -26.51346513 </i>
   </energy>
  </scstep>
  <scstep>
   <time name="total">    2.81    2.81</time>
   <energy>
    <i name="e_fr_energy">    -26.51106871 </i>
    <i name="e_wo_entrp">    -26.51851489 </i>
    <i name="e_0_energy">    -26.51355077 </i>
   </energy>
  </scstep>
  <scstep>
   <time name="total">    2.81    2.81</time>
   <energy>
    <i name="e_fr_energy">    -26.51107963 </i>
    <i name="e_wo_entrp">    -26.51865467 </i>
    <i name="e_0_energy">    -26.51360464 </i>
   </energy>
  </scstep>
  <scstep>
   <time name="total">    3.69    3.69</time>
   <energy>
    <i name="alphaZ">    563.37210189 </i>
    <i name="ewald"> -10075.62109696 </i>
    <i name="hartreedc">  -4637.14825628 </i>
    <i name="XCdc">    239.40733890 </i>
    <i name="pawpsdc">  14080.85249483 </i>
    <i name="pawaedc"> -16634.12955056 </i>
    <i name="eentropy">      0.00763155 </i>
    <i name="bandstr">  -1083.50471020 </i>
    <i name="atom">  17173.55118989 </i>
    <i name="e_fr_energy">    -26.51108627 </i>
    <i name="e_wo_entrp">    -26.51871781 </i>
    <i name="e_0_energy">    -26.51363011 </i>
   </energy>
  </scstep>
  <structure>
   <crystal>
    <varray name="basis" >
     <v>       4.43204666       0.00000000       0.00000000 </v>
     <v>      -0.00000000       7.59798368       0.00000000 </v>
     <v>       0.00000000       0.00000000       4.55550353 </v>
    </varray>
    <i name="volume">    153.40484207 </i>
    <varray name="rec_basis" >
     <v>       0.22562939       0.00000000      -0.00000000 </v>
     <v>       0.00000000       0.13161387       0.00000000 </v>
     <v>      -0.00000000      -0.00000000       0.21951470 </v>
    </varray>
   </crystal>
   <varray name="positions" >
    <v>       0.00000000       0.33720499       0.40107953 </v>
    <v>       0.00000000       0.16279501       0.90107953 </v>
    <v>       0.00000000       0.66279501       0.59892047 </v>
    <v>       0.00000000       0.83720499       0.09892047 </v>
    <v>       0.50000000       0.83720499       0.40107953 </v>
    <v>       0.50000000       0.66279501       0.90107953 </v>
    <v>       0.50000000       0.16279501       0.59892047 </v>
    <v>       0.50000000       0.33720499       0.09892047 </v>
   </varray>
  </structure>
  <varray name="forces" >
   <v>       0.00000000      -0.12931457      -0.06754849 </v>
   <v>      -0.00000000       0.12931457      -0.06754849 </v>
   <v>      -0.00000000       0.12931457       0.06754849 </v>
   <v>       0.00000000      -0.12931457       0.06754849 </v>
   <v>       0.00000000      -0.12931457      -0.06754849 </v>
   <v>      -0.00000000       0.12931457      -0.06754849 </v>
   <v>      -0.00000000       0.12931457       0.06754849 </v>
   <v>       0.00000000      -0.12931457       0.06754849 </v>
  </varray>
  <varray name="stress" >
   <v>     147.29174557       0.00000000       0.00000000 </v>
   <v>       0.00000000     -91.81930314      -0.00000000 </v>
   <v>       0.00000000      -0.00000000       8.24173433 </v>
  </varray>
  <energy>
   <i name="e_fr_energy">    -26.51108627 </i>
   <i name="e_wo_entrp">    -26.51871781 </i>
   <i name="e_0_energy">    -26.51363011 </i>
  </energy>
  <time name="totalsc">  119.16  119.45</time>
  <eigenvalues>
   <array>
    <dimension dim="1">band</dimension>
    <dimension dim="2">kpoint</dimension>
    <dimension dim="3">spin</dimension>
    <field>eigene</field>
    <field>occ</field>
    <set>
     <set comment="spin 1">
      <set comment="kpoint 1">
       <r>  -13.7552    1.0000 </r>
       <r>  -13.7360    1.0000 </r>
       <r>  -13.7311    1.0000 </r>
       <r>  -13.7147    1.0000 </r>
       <r>  -13.7133    1.0000 </r>
       <r>  -13.6799    1.0000 </r>
       <r>  -13.6795    1.0000 </r>
       <r>  -13.6760    1.0000 </r>
       <r>  -13.6629    1.0000 </r>
       <r>  -13.6566    1.0000 </r>
       <r>  -13.6548    1.0000 </r>
       <r>  -13.6406    1.0000 </r>
       <r>  -13.5404    1.0000 </r>
       <r>  -13.5375    1.0000 </r>
       <r>  -13.5312    1.0000 </r>
       <r>  -13.5287    1.0000 </r>
       <r>  -13.5183    1.0000 </r>
       <r>  -13.5113    1.0000 </r>
       <r>  -13.4975    1.0000 </r>
       <r>  -13.4916    1.0000 </r>
       <r>  -13.4822    1.0000 </r>
       <r>  -13.4565    1.0000 </r>
       <r>  -13.4438    1.0000 </r>
       <r>  -13.4384    1.0000 </r>
       <r>  -13.4240    1.0000 </r>
       <r>  -13.4153    1.0000 </r>
       <r>  -13.3942    1.0000 </r>
       <r>  -13.3559    1.0000 </r>
       <r>  -13.3545    1.0000 </r>
       <r>  -13.3414    1.0000 </r>
       <r>  -13.3329    1.0000 </r>
       <r>  -13.3132    1.0000 </r>
       <r>  -13.3079    1.0000 </r>
       <r>  -13.3035    1.0000 </r>
       <r>  -13.2925    1.0000 </r>
       <r>  -13.2785    1.0000 </r>
       <r>  -13.2716    1.0000 </r>
       <r>  -13.2063    1.0000 </r>
       <r>  -13.1784    1.0000 </r>
       <r>  -13.1704    1.0000 </r>
       <r>   -7.9018    1.0000 </r>
       <r>   -6.0405    1.0000 </r>
       <r>   -3.1521    1.0000 </r>
       <r>    0.2783    1.0000 </r>
       <r>    0.3701    1.0000 </r>
       <r>    0.8268    1.0000 </r>
       <r>    0.9729    1.0000 </r>
       <r>    2.5691    1.0000 </r>
       <r>    2.8208    1.0000 </r>
       <r>    2.8570    1.0000 </r>
       <r>    3.5808    1.0000 </r>
       <r>    4.5328    1.0101 </r>
       <r>    6.3796   -0.0000 </r>
       <r>    6.5286   -0.0000 </r>
       <r>    6.5333   -0.0000 </r>
       <r>    6.6489   -0.0000 </r>
       <r>    6.6650   -0.0000 </r>
       <r>    9.5356   -0.0000 </r>
       <r>    9.6125   -0.0000 </r>
       <r>    9.7683   -0.0000 </r>
       <r>   11.0822    0.0000 </r>
       <r>   11.3875    0.0000 </r>
      </set>
      <set comment="kpoint 2">
       <r>  -13.7753    1.0000 </r>
       <r>  -13.7752    1.0000 </r>
       <r>  -13.7376    1.0000 </r>
       <r>  -13.7376    1.0000 </r>
       <r>  -13.6986    1.0000 </r>
       <r>  -13.6986    1.0000 </r>
       <r>  -13.6821    1.0000 </r>
       <r>  -13.6821    1.0000 </r>
       <r>  -13.6682    1.0000 </r>
       <r>  -13.6681    1.0000 </r>
       <r>  -13.5977    1.0000 </r>
       <r>  -13.5976    1.0000 </r>
       <r>  -13.5422    1.0000 </r>
       <r>  -13.5421    1.0000 </r>
       <r>  -13.5396    1.0000 </r>
       <r>  -13.5395    1.0000 </r>
       <r>  -13.5046    1.0000 </r>
       <r>  -13.5046    1.0000 </r>
       <r>  -13.4973    1.0000 </r>
       <r>  -13.4973    1.0000 </r>
       <r>  -13.4938    1.0000 </r>
       <r>  -13.4938    1.0000 </r>
       <r>  -13.4598    1.0000 </r>
       <r>  -13.4597    1.0000 </r>
       <r>  -13.4473    1.0000 </r>
       <r>  -13.4472    1.0000 </r>
       <r>  -13.3689    1.0000 </r>
       <r>  -13.3689    1.0000 </r>
       <r>  -13.3484    1.0000 </r>
       <r>  -13.3484    1.0000 </r>
       <r>  -13.3444    1.0000 </r>
       <r>  -13.3444    1.0000 </r>
       <r>  -13.2794    1.0000 </r>
       <r>  -13.2794    1.0000 </r>
       <r>  -13.2140    1.0000 </r>
       <r>  -13.2140    1.0000 </r>
       <r>  -13.2037    1.0000 </r>
       <r>  -13.2037    1.0000 </r>
       <r>  -13.1734    1.0000 </r>
       <r>  -13.1734    1.0000 </r>
       <r>   -5.6818    1.0000 </r>
       <r>   -5.6818    1.0000 </r>
       <r>   -3.7988    1.0000 </r>
       <r>   -3.7988    1.0000 </r>
       <r>   -1.0638    1.0000 </r>
       <r>   -1.0638    1.0000 </r>
       <r>    2.5266    1.0000 </r>
       <r>    2.5266    1.0000 </r>
       <r>    2.9512    1.0000 </r>
       <r>    2.9513    1.0000 </r>
       <r>    5.3998   -0.0017 </r>
       <r>    5.3999   -0.0017 </r>
       <r>    5.7023   -0.0000 </r>
       <r>    5.7023   -0.0000 </r>
       <r>    6.4916   -0.0000 </r>
       <r>    6.4916   -0.0000 </r>
       <r>    8.7802   -0.0000 </r>
       <r>    8.7802   -0.0000 </r>
       <r>    9.0021   -0.0000 </r>
       <r>    9.0021   -0.0000 </r>
       <r>    9.8901   -0.0000 </r>
       <r>    9.8902   -0.0000 </r>
      </set>
      <set comment="kpoint 3">
       <r>  -13.7379    1.0000 </r>
       <r>  -13.7377    1.0000 </r>
       <r>  -13.7344    1.0000 </r>
       <r>  -13.7335    1.0000 </r>
       <r>  -13.6895    1.0000 </r>
       <r>  -13.6893    1.0000 </r>
       <r>  -13.6766    1.0000 </r>
       <r>  -13.6764    1.0000 </r>
       <r>  -13.6596    1.0000 </r>
       <r>  -13.6594    1.0000 </r>
       <r>  -13.6486    1.0000 </r>
       <r>  -13.6480    1.0000 </r>
       <r>  -13.5597    1.0000 </r>
       <r>  -13.5593    1.0000 </r>
       <r>  -13.5348    1.0000 </r>
       <r>  -13.5341    1.0000 </r>
       <r>  -13.5245    1.0000 </r>
       <r>  -13.5242    1.0000 </r>
       <r>  -13.5035    1.0000 </r>
       <r>  -13.5032    1.0000 </r>
       <r>  -13.4399    1.0000 </r>
       <r>  -13.4396    1.0000 </r>
       <r>  -13.4201    1.0000 </r>
       <r>  -13.4194    1.0000 </r>
       <r>  -13.3897    1.0000 </r>
       <r>  -13.3885    1.0000 </r>
       <r>  -13.3826    1.0000 </r>
       <r>  -13.3823    1.0000 </r>
       <r>  -13.3713    1.0000 </r>
       <r>  -13.3712    1.0000 </r>
       <r>  -13.3579    1.0000 </r>
       <r>  -13.3575    1.0000 </r>
       <r>  -13.2855    1.0000 </r>
       <r>  -13.2841    1.0000 </r>
       <r>  -13.2838    1.0000 </r>
       <r>  -13.2835    1.0000 </r>
       <r>  -13.2393    1.0000 </r>
       <r>  -13.2384    1.0000 </r>
       <r>  -13.1744    1.0000 </r>
       <r>  -13.1741    1.0000 </r>
       <r>   -7.2373    1.0000 </r>
       <r>   -7.2372    1.0000 </r>
       <r>   -0.7639    1.0000 </r>
       <r>   -0.7630    1.0000 </r>
       <r>    0.6198    1.0000 </r>
       <r>    0.6204    1.0000 </r>
       <r>    1.6125    1.0000 </r>
       <r>    1.6126    1.0000 </r>
       <r>    2.1701    1.0000 </r>
       <r>    2.1709    1.0000 </r>
       <r>    2.8011    1.0000 </r>
       <r>    2.8013    1.0000 </r>
       <r>    7.5334   -0.0000 </r>
       <r>    7.5337   -0.0000 </r>
       <r>    8.3495   -0.0000 </r>
       <r>    8.3503   -0.0000 </r>
       <r>    8.8265   -0.0000 </r>
       <r>    8.8271   -0.0000 </r>
       <r>   10.2098   -0.0000 </r>
       <r>   10.2102   -0.0000 </r>
       <r>   10.3843    0.0000 </r>
       <r>   10.3844    0.0000 </r>
      </set>
      <set comment="kpoint 4">
       <r>  -13.7539    1.0000 </r>
       <r>  -13.7538    1.0000 </r>
       <r>  -13.7533    1.0000 </r>
       <r>  -13.7533    1.0000 </r>
       <r>  -13.6785    1.0000 </r>
       <r>  -13.6784    1.0000 </r>
       <r>  -13.6782    1.0000 </r>
       <r>  -13.6781    1.0000 </r>
       <r>  -13.6415    1.0000 </r>
       <r>  -13.6414    1.0000 </r>
       <r>  -13.6413    1.0000 </r>
       <r>  -13.6413    1.0000 </r>
       <r>  -13.5855    1.0000 </r>
       <r>  -13.5854    1.0000 </r>
       <r>  -13.5853    1.0000 </r>
       <r>  -13.5853    1.0000 </r>
       <r>  -13.5050    1.0000 </r>
       <r>  -13.5050    1.0000 </r>
       <r>  -13.5043    1.0000 </r>
       <r>  -13.5043    1.0000 </r>
       <r>  -13.4500    1.0000 </r>
       <r>  -13.4499    1.0000 </r>
       <r>  -13.4495    1.0000 </r>
       <r>  -13.4494    1.0000 </r>
       <r>  -13.3902    1.0000 </r>
       <r>  -13.3902    1.0000 </r>
       <r>  -13.3899    1.0000 </r>
       <r>  -13.3899    1.0000 </r>
       <r>  -13.3298    1.0000 </r>
       <r>  -13.3297    1.0000 </r>
       <r>  -13.3294    1.0000 </r>
       <r>  -13.3293    1.0000 </r>
       <r>  -13.2732    1.0000 </r>
       <r>  -13.2732    1.0000 </r>
       <r>  -13.2730    1.0000 </r>
       <r>  -13.2730    1.0000 </r>
       <r>  -13.1821    1.0000 </r>
       <r>  -13.1821    1.0000 </r>
       <r>  -13.1816    1.0000 </r>
       <r>  -13.1816    1.0000 </r>
       <r>   -5.0113    1.0000 </r>
       <r>   -5.0113    1.0000 </r>
       <r>   -5.0112    1.0000 </r>
       <r>   -5.0112    1.0000 </r>
       <r>    1.3834    1.0000 </r>
       <r>    1.3834    1.0000 </r>
       <r>    1.3842    1.0000 </r>
       <r>    1.3842    1.0000 </r>
       <r>    2.9884    1.0000 </r>
       <r>    2.9884    1.0000 </r>
       <r>    2.9885    1.0000 </r>
       <r>    2.9885    1.0000 </r>
       <r>    6.2160   -0.0000 </r>
       <r>    6.2160   -0.0000 </r>
       <r>    6.2164   -0.0000 </r>
       <r>    6.2164   -0.0000 </r>
       <r>   10.3255    0.0000 </r>
       <r>   10.3256    0.0000 </r>
       <r>   10.3261    0.0000 </r>
       <r>   10.3261    0.0000 </r>
       <r>   11.1259    0.0000 </r>
       <r>   11.1283    0.0000 </r>
      </set>
      <set comment="kpoint 5">
       <r>  -13.7727    1.0000 </r>
       <r>  -13.7716    1.0000 </r>
       <r>  -13.7383    1.0000 </r>
       <r>  -13.7374    1.0000 </r>
       <r>  -13.7108    1.0000 </r>
       <r>  -13.7096    1.0000 </r>
       <r>  -13.6598    1.0000 </r>
       <r>  -13.6592    1.0000 </r>
       <r>  -13.6506    1.0000 </r>
       <r>  -13.6502    1.0000 </r>
       <r>  -13.6478    1.0000 </r>
       <r>  -13.6473    1.0000 </r>
       <r>  -13.6014    1.0000 </r>
       <r>  -13.6009    1.0000 </r>
       <r>  -13.5982    1.0000 </r>
       <r>  -13.5974    1.0000 </r>
       <r>  -13.5360    1.0000 </r>
       <r>  -13.5349    1.0000 </r>
       <r>  -13.4901    1.0000 </r>
       <r>  -13.4899    1.0000 </r>
       <r>  -13.4402    1.0000 </r>
       <r>  -13.4397    1.0000 </r>
       <r>  -13.3828    1.0000 </r>
       <r>  -13.3825    1.0000 </r>
       <r>  -13.3789    1.0000 </r>
       <r>  -13.3783    1.0000 </r>
       <r>  -13.3453    1.0000 </r>
       <r>  -13.3446    1.0000 </r>
       <r>  -13.3429    1.0000 </r>
       <r>  -13.3420    1.0000 </r>
       <r>  -13.2870    1.0000 </r>
       <r>  -13.2857    1.0000 </r>
       <r>  -13.2643    1.0000 </r>
       <r>  -13.2641    1.0000 </r>
       <r>  -13.2622    1.0000 </r>
       <r>  -13.2621    1.0000 </r>
       <r>  -13.2604    1.0000 </r>
       <r>  -13.2601    1.0000 </r>
       <r>  -13.2315    1.0000 </r>
       <r>  -13.2311    1.0000 </r>
       <r>   -5.7991    1.0000 </r>
       <r>   -5.7871    1.0000 </r>
       <r>   -3.9984    1.0000 </r>
       <r>   -3.9919    1.0000 </r>
       <r>   -0.7743    1.0000 </r>
       <r>   -0.7690    1.0000 </r>
       <r>    3.2940    1.0000 </r>
       <r>    3.2947    1.0000 </r>
       <r>    4.0031    1.0000 </r>
       <r>    4.3054    1.0001 </r>
       <r>    4.5827    1.0197 </r>
       <r>    4.5835    1.0199 </r>
       <r>    5.5235   -0.0001 </r>
       <r>    5.6518   -0.0000 </r>
       <r>    5.6521   -0.0000 </r>
       <r>    5.7110   -0.0000 </r>
       <r>    7.4246   -0.0000 </r>
       <r>    7.4717   -0.0000 </r>
       <r>   10.0298   -0.0000 </r>
       <r>   10.0306   -0.0000 </r>
       <r>   10.4161    0.0000 </r>
       <r>   10.4822    0.0000 </r>
      </set>
      <set comment="kpoint 6">
       <r>  -13.7562    1.0000 </r>
       <r>  -13.7562    1.0000 </r>
       <r>  -13.7554    1.0000 </r>
       <r>  -13.7553    1.0000 </r>
       <r>  -13.7003    1.0000 </r>
       <r>  -13.7002    1.0000 </r>
       <r>  -13.6998    1.0000 </r>
       <r>  -13.6998    1.0000 </r>
       <r>  -13.6858    1.0000 </r>
       <r>  -13.6857    1.0000 </r>
       <r>  -13.6850    1.0000 </r>
       <r>  -13.6850    1.0000 </r>
       <r>  -13.6076    1.0000 </r>
       <r>  -13.6076    1.0000 </r>
       <r>  -13.6066    1.0000 </r>
       <r>  -13.6065    1.0000 </r>
       <r>  -13.4979    1.0000 </r>
       <r>  -13.4978    1.0000 </r>
       <r>  -13.4976    1.0000 </r>
       <r>  -13.4975    1.0000 </r>
       <r>  -13.4019    1.0000 </r>
       <r>  -13.4019    1.0000 </r>
       <r>  -13.4013    1.0000 </r>
       <r>  -13.4012    1.0000 </r>
       <r>  -13.3768    1.0000 </r>
       <r>  -13.3767    1.0000 </r>
       <r>  -13.3765    1.0000 </r>
       <r>  -13.3764    1.0000 </r>
       <r>  -13.3199    1.0000 </r>
       <r>  -13.3199    1.0000 </r>
       <r>  -13.3190    1.0000 </r>
       <r>  -13.3190    1.0000 </r>
       <r>  -13.2418    1.0000 </r>
       <r>  -13.2417    1.0000 </r>
       <r>  -13.2414    1.0000 </r>
       <r>  -13.2413    1.0000 </r>
       <r>  -13.1972    1.0000 </r>
       <r>  -13.1971    1.0000 </r>
       <r>  -13.1966    1.0000 </r>
       <r>  -13.1966    1.0000 </r>
       <r>   -3.6059    1.0000 </r>
       <r>   -3.6059    1.0000 </r>
       <r>   -3.5739    1.0000 </r>
       <r>   -3.5739    1.0000 </r>
       <r>   -1.7152    1.0000 </r>
       <r>   -1.7152    1.0000 </r>
       <r>   -1.6817    1.0000 </r>
       <r>   -1.6817    1.0000 </r>
       <r>    1.9486    1.0000 </r>
       <r>    1.9486    1.0000 </r>
       <r>    1.9640    1.0000 </r>
       <r>    1.9640    1.0000 </r>
       <r>    9.1826   -0.0000 </r>
       <r>    9.1826   -0.0000 </r>
       <r>    9.1900   -0.0000 </r>
       <r>    9.1900   -0.0000 </r>
       <r>   10.5681    0.0000 </r>
       <r>   10.5698    0.0000 </r>
       <r>   10.5728    0.0000 </r>
       <r>   10.5728    0.0000 </r>
       <r>   13.6698    0.0000 </r>
       <r>   13.6794    0.0000 </r>
      </set>
      <set comment="kpoint 7">
       <r>  -13.7528    1.0000 </r>
       <r>  -13.7526    1.0000 </r>
       <r>  -13.7520    1.0000 </r>
       <r>  -13.7517    1.0000 </r>
       <r>  -13.6880    1.0000 </r>
       <r>  -13.6873    1.0000 </r>
       <r>  -13.6869    1.0000 </r>
       <r>  -13.6861    1.0000 </r>
       <r>  -13.6564    1.0000 </r>
       <r>  -13.6564    1.0000 </r>
       <r>  -13.6557    1.0000 </r>
       <r>  -13.6553    1.0000 </r>
       <r>  -13.5987    1.0000 </r>
       <r>  -13.5983    1.0000 </r>
       <r>  -13.5976    1.0000 </r>
       <r>  -13.5967    1.0000 </r>
       <r>  -13.5180    1.0000 </r>
       <r>  -13.5178    1.0000 </r>
       <r>  -13.5176    1.0000 </r>
       <r>  -13.5174    1.0000 </r>
       <r>  -13.4048    1.0000 </r>
       <r>  -13.4046    1.0000 </r>
       <r>  -13.4040    1.0000 </r>
       <r>  -13.4038    1.0000 </r>
       <r>  -13.3661    1.0000 </r>
       <r>  -13.3657    1.0000 </r>
       <r>  -13.3651    1.0000 </r>
       <r>  -13.3643    1.0000 </r>
       <r>  -13.2995    1.0000 </r>
       <r>  -13.2995    1.0000 </r>
       <r>  -13.2991    1.0000 </r>
       <r>  -13.2987    1.0000 </r>
       <r>  -13.2753    1.0000 </r>
       <r>  -13.2747    1.0000 </r>
       <r>  -13.2746    1.0000 </r>
       <r>  -13.2740    1.0000 </r>
       <r>  -13.2433    1.0000 </r>
       <r>  -13.2431    1.0000 </r>
       <r>  -13.2429    1.0000 </r>
       <r>  -13.2424    1.0000 </r>
       <r>   -5.1371    1.0000 </r>
       <r>   -5.1369    1.0000 </r>
       <r>   -5.1259    1.0000 </r>
       <r>   -5.1256    1.0000 </r>
       <r>    1.7391    1.0000 </r>
       <r>    1.7391    1.0000 </r>
       <r>    1.7487    1.0000 </r>
       <r>    1.7487    1.0000 </r>
       <r>    3.8356    1.0000 </r>
       <r>    3.8361    1.0000 </r>
       <r>    3.8371    1.0000 </r>
       <r>    3.8378    1.0000 </r>
       <r>    4.7750    0.9652 </r>
       <r>    4.7751    0.9644 </r>
       <r>    5.0757    0.0123 </r>
       <r>    5.0760    0.0118 </r>
       <r>   10.1994   -0.0000 </r>
       <r>   10.1996   -0.0000 </r>
       <r>   10.2182   -0.0000 </r>
       <r>   10.2184   -0.0000 </r>
       <r>   12.0525    0.0000 </r>
       <r>   12.0530    0.0000 </r>
      </set>
      <set comment="kpoint 8">
       <r>  -13.7343    1.0000 </r>
       <r>  -13.7343    1.0000 </r>
       <r>  -13.7333    1.0000 </r>
       <r>  -13.7332    1.0000 </r>
       <r>  -13.7079    1.0000 </r>
       <r>  -13.7079    1.0000 </r>
       <r>  -13.7072    1.0000 </r>
       <r>  -13.7072    1.0000 </r>
       <r>  -13.6683    1.0000 </r>
       <r>  -13.6682    1.0000 </r>
       <r>  -13.6679    1.0000 </r>
       <r>  -13.6678    1.0000 </r>
       <r>  -13.6671    1.0000 </r>
       <r>  -13.6671    1.0000 </r>
       <r>  -13.6663    1.0000 </r>
       <r>  -13.6663    1.0000 </r>
       <r>  -13.4465    1.0000 </r>
       <r>  -13.4465    1.0000 </r>
       <r>  -13.4459    1.0000 </r>
       <r>  -13.4459    1.0000 </r>
       <r>  -13.4361    1.0000 </r>
       <r>  -13.4361    1.0000 </r>
       <r>  -13.4357    1.0000 </r>
       <r>  -13.4356    1.0000 </r>
       <r>  -13.3449    1.0000 </r>
       <r>  -13.3448    1.0000 </r>
       <r>  -13.3447    1.0000 </r>
       <r>  -13.3446    1.0000 </r>
       <r>  -13.3358    1.0000 </r>
       <r>  -13.3358    1.0000 </r>
       <r>  -13.3352    1.0000 </r>
       <r>  -13.3351    1.0000 </r>
       <r>  -13.2438    1.0000 </r>
       <r>  -13.2437    1.0000 </r>
       <r>  -13.2434    1.0000 </r>
       <r>  -13.2433    1.0000 </r>
       <r>  -13.2004    1.0000 </r>
       <r>  -13.2003    1.0000 </r>
       <r>  -13.1996    1.0000 </r>
       <r>  -13.1995    1.0000 </r>
       <r>   -3.2621    1.0000 </r>
       <r>   -3.2621    1.0000 </r>
       <r>   -3.2613    1.0000 </r>
       <r>   -3.2613    1.0000 </r>
       <r>   -2.4160    1.0000 </r>
       <r>   -2.4159    1.0000 </r>
       <r>   -2.4150    1.0000 </r>
       <r>   -2.4150    1.0000 </r>
       <r>    3.4214    1.0000 </r>
       <r>    3.4214    1.0000 </r>
       <r>    3.4218    1.0000 </r>
       <r>    3.4218    1.0000 </r>
       <r>    6.0747   -0.0000 </r>
       <r>    6.0747   -0.0000 </r>
       <r>    6.0757   -0.0000 </r>
       <r>    6.0757   -0.0000 </r>
       <r>   13.8336    0.0000 </r>
       <r>   13.8337    0.0000 </r>
       <r>   13.8408    0.0000 </r>
       <r>   13.8474    0.0000 </r>
       <r>   13.8529    0.0000 </r>
       <r>   13.8529    0.0000 </r>
      </set>
     </set>
    </set>
   </array>
  </eigenvalues>
  <separator name="orbital magnetization" >
   <v name="MAGDIPOLOUT">      0.00000000      0.00000000      0.00000000</v>
  </separator>
  <dos>
   <i name="efermi">      4.91774386 </i>
   <total>
    <array>
     <dimension dim="1">gridpoints</dimension>
     <dimension dim="2">spin</dimension>
     <field>energy</field>
     <field>total</field>
     <field>integrated</field>
     <set>
      <set comment="spin 1">
       <r>   -15.7753     0.0000     0.0000 </r>
       <r>   -15.6698     0.0000     0.0000 </r>
       <r>   -15.5644     0.0000     0.0000 </r>
       <r>   -15.4590    -0.0000    -0.0000 </r>
       <r>   -15.3536    -0.0000    -0.0000 </r>
       <r>   -15.2481    -0.0000    -0.0000 </r>
       <r>   -15.1427    -0.0000    -0.0000 </r>
       <r>   -15.0373    -0.0000    -0.0000 </r>
       <r>   -14.9319    -0.0000    -0.0000 </r>
       <r>   -14.8264    -0.0000    -0.0000 </r>
       <r>   -14.7210    -0.0000    -0.0000 </r>
       <r>   -14.6156    -0.0000    -0.0000 </r>
       <r>   -14.5101    -0.0000    -0.0000 </r>
       <r>   -14.4047    -0.0017    -0.0002 </r>
       <r>   -14.2993    -0.0338    -0.0037 </r>
       <r>   -14.1939    -0.3719    -0.0430 </r>
       <r>   -14.0884    -2.1071    -0.2651 </r>
       <r>   -13.9830    -4.7999    -0.7711 </r>
       <r>   -13.8776     4.9569    -0.2486 </r>
       <r>   -13.7722    48.1861     4.8316 </r>
       <r>   -13.6667   103.9818    15.7941 </r>
       <r>   -13.5613   126.0665    29.0849 </r>
       <r>   -13.4559   127.9199    42.5712 </r>
       <r>   -13.3504   136.3681    56.9481 </r>
       <r>   -13.2450   125.6962    70.1999 </r>
       <r>   -13.1396    76.8692    78.3041 </r>
       <r>   -13.0342    22.7679    80.7044 </r>
       <r>   -12.9287    -1.8727    80.5070 </r>
       <r>   -12.8233    -3.5624    80.1314 </r>
       <r>   -12.7179    -1.0793    80.0176 </r>
       <r>   -12.6125    -0.1547    80.0013 </r>
       <r>   -12.5070    -0.0119    80.0001 </r>
       <r>   -12.4016    -0.0005    80.0000 </r>
       <r>   -12.2962    -0.0000    80.0000 </r>
       <r>   -12.1907    -0.0000    80.0000 </r>
       <r>   -12.0853    -0.0000    80.0000 </r>
       <r>   -11.9799    -0.0000    80.0000 </r>
       <r>   -11.8745    -0.0000    80.0000 </r>
       <r>   -11.7690     0.0000    80.0000 </r>
       <r>   -11.6636     0.0000    80.0000 </r>
       <r>   -11.5582     0.0000    80.0000 </r>
       <r>   -11.4528     0.0000    80.0000 </r>
       <r>   -11.3473     0.0000    80.0000 </r>
       <r>   -11.2419     0.0000    80.0000 </r>
       <r>   -11.1365     0.0000    80.0000 </r>
       <r>   -11.0310     0.0000    80.0000 </r>
       <r>   -10.9256     0.0000    80.0000 </r>
       <r>   -10.8202     0.0000    80.0000 </r>
       <r>   -10.7148     0.0000    80.0000 </r>
       <r>   -10.6093     0.0000    80.0000 </r>
       <r>   -10.5039     0.0000    80.0000 </r>
       <r>   -10.3985     0.0000    80.0000 </r>
       <r>   -10.2931     0.0000    80.0000 </r>
       <r>   -10.1876     0.0000    80.0000 </r>
       <r>   -10.0822     0.0000    80.0000 </r>
       <r>    -9.9768     0.0000    80.0000 </r>
       <r>    -9.8713     0.0000    80.0000 </r>
       <r>    -9.7659     0.0000    80.0000 </r>
       <r>    -9.6605     0.0000    80.0000 </r>
       <r>    -9.5551    -0.0000    80.0000 </r>
       <r>    -9.4496    -0.0000    80.0000 </r>
       <r>    -9.3442    -0.0000    80.0000 </r>
       <r>    -9.2388    -0.0000    80.0000 </r>
       <r>    -9.1334    -0.0000    80.0000 </r>
       <r>    -9.0279    -0.0000    80.0000 </r>
       <r>    -8.9225    -0.0000    80.0000 </r>
       <r>    -8.8171    -0.0000    80.0000 </r>
       <r>    -8.7116    -0.0000    80.0000 </r>
       <r>    -8.6062    -0.0000    80.0000 </r>
       <r>    -8.5008    -0.0002    80.0000 </r>
       <r>    -8.3954    -0.0029    79.9997 </r>
       <r>    -8.2899    -0.0197    79.9976 </r>
       <r>    -8.1845    -0.0513    79.9922 </r>
       <r>    -8.0791     0.0529    79.9978 </r>
       <r>    -7.9737     0.5350    80.0542 </r>
       <r>    -7.8682     1.0035    80.1600 </r>
       <r>    -7.7628     0.7518    80.2392 </r>
       <r>    -7.6574     0.1594    80.2560 </r>
       <r>    -7.5519    -0.1333    80.2420 </r>
       <r>    -7.4465    -0.0556    80.2361 </r>
       <r>    -7.3411     0.6996    80.3099 </r>
       <r>    -7.2357     1.8357    80.5034 </r>
       <r>    -7.1302     1.8117    80.6944 </r>
       <r>    -7.0248     0.6718    80.7652 </r>
       <r>    -6.9194    -0.0327    80.7618 </r>
       <r>    -6.8140    -0.0862    80.7527 </r>
       <r>    -6.7085    -0.0228    80.7503 </r>
       <r>    -6.6031    -0.0032    80.7500 </r>
       <r>    -6.4977    -0.0063    80.7493 </r>
       <r>    -6.3922    -0.0318    80.7459 </r>
       <r>    -6.2868    -0.0522    80.7404 </r>
       <r>    -6.1814     0.1310    80.7542 </r>
       <r>    -6.0760     0.6061    80.8181 </r>
       <r>    -5.9705     1.0118    80.9248 </r>
       <r>    -5.8651     1.6902    81.1030 </r>
       <r>    -5.7597     3.0613    81.4257 </r>
       <r>    -5.6543     3.4383    81.7882 </r>
       <r>    -5.5488     1.8671    81.9851 </r>
       <r>    -5.4434     0.1076    81.9964 </r>
       <r>    -5.3380    -0.3375    81.9608 </r>
       <r>    -5.2325     1.2815    82.0959 </r>
       <r>    -5.1271     4.8528    82.6076 </r>
       <r>    -5.0217     7.0510    83.3509 </r>
       <r>    -4.9163     5.0853    83.8871 </r>
       <r>    -4.8108     1.5292    84.0483 </r>
       <r>    -4.7054    -0.1592    84.0315 </r>
       <r>    -4.6000    -0.2308    84.0072 </r>
       <r>    -4.4946    -0.0657    84.0002 </r>
       <r>    -4.3891    -0.0441    83.9956 </r>
       <r>    -4.2837    -0.1086    83.9841 </r>
       <r>    -4.1783     0.0312    83.9874 </r>
       <r>    -4.0728     0.8830    84.0805 </r>
       <r>    -3.9674     2.0485    84.2965 </r>
       <r>    -3.8620     2.5415    84.5644 </r>
       <r>    -3.7566     2.7858    84.8581 </r>
       <r>    -3.6511     3.6366    85.2415 </r>
       <r>    -3.5457     4.0267    85.6661 </r>
       <r>    -3.4403     2.8101    85.9623 </r>
       <r>    -3.3349     2.6751    86.2443 </r>
       <r>    -3.2294     4.3110    86.6988 </r>
       <r>    -3.1240     3.9258    87.1127 </r>
       <r>    -3.0186     1.5165    87.2726 </r>
       <r>    -2.9131     0.0165    87.2743 </r>
       <r>    -2.8077    -0.2461    87.2484 </r>
       <r>    -2.7023    -0.2633    87.2206 </r>
       <r>    -2.5969     0.1598    87.2375 </r>
       <r>    -2.4914     2.0421    87.4528 </r>
       <r>    -2.3860     3.9868    87.8731 </r>
       <r>    -2.2806     3.1048    88.2004 </r>
       <r>    -2.1752     0.7865    88.2834 </r>
       <r>    -2.0697    -0.2714    88.2547 </r>
       <r>    -1.9643    -0.3307    88.2199 </r>
       <r>    -1.8589     0.4074    88.2628 </r>
       <r>    -1.7534     2.5274    88.5293 </r>
       <r>    -1.6480     4.0266    88.9538 </r>
       <r>    -1.5426     2.6247    89.2305 </r>
       <r>    -1.4372     0.4485    89.2778 </r>
       <r>    -1.3317    -0.2988    89.2463 </r>
       <r>    -1.2263     0.0623    89.2528 </r>
       <r>    -1.1209     1.1011    89.3689 </r>
       <r>    -1.0155     1.8474    89.5637 </r>
       <r>    -0.9100     2.0234    89.7770 </r>
       <r>    -0.8046     3.1948    90.1138 </r>
       <r>    -0.6992     3.9298    90.5281 </r>
       <r>    -0.5937     2.1670    90.7566 </r>
       <r>    -0.4883     0.2407    90.7820 </r>
       <r>    -0.3829    -0.2067    90.7602 </r>
       <r>    -0.2775    -0.0836    90.7514 </r>
       <r>    -0.1720    -0.0207    90.7492 </r>
       <r>    -0.0666    -0.0437    90.7446 </r>
       <r>     0.0388    -0.0816    90.7360 </r>
       <r>     0.1442     0.1641    90.7533 </r>
       <r>     0.2497     0.9977    90.8585 </r>
       <r>     0.3551     1.7361    91.0415 </r>
       <r>     0.4605     1.6523    91.2157 </r>
       <r>     0.5660     1.6805    91.3929 </r>
       <r>     0.6714     2.0684    91.6109 </r>
       <r>     0.7768     1.9168    91.8130 </r>
       <r>     0.8822     1.6471    91.9867 </r>
       <r>     0.9877     1.4194    92.1363 </r>
       <r>     1.0931     0.6947    92.2096 </r>
       <r>     1.1985     0.3110    92.2423 </r>
       <r>     1.3039     1.7696    92.4289 </r>
       <r>     1.4094     3.7560    92.8249 </r>
       <r>     1.5148     3.7783    93.2232 </r>
       <r>     1.6202     3.6118    93.6040 </r>
       <r>     1.7257     4.7730    94.1072 </r>
       <r>     1.8311     5.2645    94.6623 </r>
       <r>     1.9365     4.9251    95.1815 </r>
       <r>     2.0419     4.3294    95.6379 </r>
       <r>     2.1474     3.1664    95.9718 </r>
       <r>     2.2528     1.8384    96.1656 </r>
       <r>     2.3582     0.8600    96.2562 </r>
       <r>     2.4636     1.3761    96.4013 </r>
       <r>     2.5691     2.5674    96.6720 </r>
       <r>     2.6745     2.6776    96.9543 </r>
       <r>     2.7799     3.5821    97.3319 </r>
       <r>     2.8854     6.3888    98.0055 </r>
       <r>     2.9908     7.7562    98.8232 </r>
       <r>     3.0962     5.2063    99.3721 </r>
       <r>     3.2016     2.1547    99.5992 </r>
       <r>     3.3071     2.7899    99.8934 </r>
       <r>     3.4125     5.0038   100.4209 </r>
       <r>     3.5179     4.6916   100.9155 </r>
       <r>     3.6233     2.4329   101.1720 </r>
       <r>     3.7288     1.9002   101.3724 </r>
       <r>     3.8342     3.6253   101.7546 </r>
       <r>     3.9396     4.1375   102.1908 </r>
       <r>     4.0451     2.3518   102.4387 </r>
       <r>     4.1505     0.7412   102.5168 </r>
       <r>     4.2559     0.5027   102.5698 </r>
       <r>     4.3613     0.9075   102.6655 </r>
       <r>     4.4668     1.6457   102.8390 </r>
       <r>     4.5722     2.8301   103.1374 </r>
       <r>     4.6776     3.3137   103.4867 </r>
       <r>     4.7830     2.7256   103.7741 </r>
       <r>     4.8885     1.7666   103.9603 </r>
       <r>     4.9939     1.4020   104.1082 </r>
       <r>     5.0993     1.7774   104.2955 </r>
       <r>     5.2048     1.4872   104.4523 </r>
       <r>     5.3102     1.1567   104.5743 </r>
       <r>     5.4156     1.9493   104.7798 </r>
       <r>     5.5210     3.0628   105.1027 </r>
       <r>     5.6265     4.4820   105.5752 </r>
       <r>     5.7319     5.0898   106.1118 </r>
       <r>     5.8373     3.0037   106.4285 </r>
       <r>     5.9427     1.2722   106.5626 </r>
       <r>     6.0482     3.1732   106.8972 </r>
       <r>     6.1536     6.0322   107.5331 </r>
       <r>     6.2590     6.0711   108.1732 </r>
       <r>     6.3645     4.3455   108.6313 </r>
       <r>     6.4699     4.2363   109.0779 </r>
       <r>     6.5753     5.1089   109.6166 </r>
       <r>     6.6807     4.1725   110.0564 </r>
       <r>     6.7862     1.8682   110.2534 </r>
       <r>     6.8916     0.2386   110.2786 </r>
       <r>     6.9970    -0.1854   110.2590 </r>
       <r>     7.1025    -0.1728   110.2408 </r>
       <r>     7.2079    -0.1706   110.2228 </r>
       <r>     7.3133     0.3695   110.2618 </r>
       <r>     7.4187     2.1249   110.4858 </r>
       <r>     7.5242     3.6987   110.8757 </r>
       <r>     7.6296     2.9163   111.1832 </r>
       <r>     7.7350     0.8976   111.2778 </r>
       <r>     7.8404    -0.0994   111.2673 </r>
       <r>     7.9459    -0.1624   111.2502 </r>
       <r>     8.0513    -0.1304   111.2365 </r>
       <r>     8.1567     0.0278   111.2394 </r>
       <r>     8.2622     0.8801   111.3322 </r>
       <r>     8.3676     1.9010   111.5326 </r>
       <r>     8.4730     1.5147   111.6923 </r>
       <r>     8.5784     0.3926   111.7337 </r>
       <r>     8.6839     0.9585   111.8347 </r>
       <r>     8.7893     3.1776   112.1697 </r>
       <r>     8.8947     4.2186   112.6145 </r>
       <r>     9.0001     3.6413   112.9984 </r>
       <r>     9.1056     3.8340   113.4026 </r>
       <r>     9.2110     4.4144   113.8680 </r>
       <r>     9.3164     3.0379   114.1883 </r>
       <r>     9.4219     1.0716   114.3012 </r>
       <r>     9.5273     1.0489   114.4118 </r>
       <r>     9.6327     1.8365   114.6054 </r>
       <r>     9.7381     2.0906   114.8258 </r>
       <r>     9.8436     2.4842   115.0878 </r>
       <r>     9.9490     3.0090   115.4050 </r>
       <r>    10.0544     3.5985   115.7844 </r>
       <r>    10.1598     5.8537   116.4015 </r>
       <r>    10.2653     9.2988   117.3819 </r>
       <r>    10.3707    10.4226   118.4807 </r>
       <r>    10.4761     8.7285   119.4009 </r>
       <r>    10.5816     6.4052   120.0762 </r>
       <r>    10.6870     3.5711   120.4527 </r>
       <r>    10.7924     0.7423   120.5309 </r>
       <r>    10.8978    -0.2672   120.5028 </r>
       <r>    11.0033     0.7924   120.5863 </r>
       <r>    11.1087     2.5622   120.8564 </r>
       <r>    11.2141     2.7951   121.1511 </r>
       <r>    11.3195     1.6651   121.3267 </r>
       <r>    11.4250     1.0028   121.4324 </r>
       <r>    11.5304     0.5986   121.4955 </r>
       <r>    11.6358     0.1035   121.5064 </r>
       <r>    11.7413    -0.1419   121.4914 </r>
       <r>    11.8467    -0.0450   121.4867 </r>
       <r>    11.9521     0.7345   121.5641 </r>
       <r>    12.0575     1.8590   121.7601 </r>
       <r>    12.1630     1.7861   121.9484 </r>
       <r>    12.2684     0.6384   122.0157 </r>
       <r>    12.3738    -0.0409   122.0114 </r>
       <r>    12.4792    -0.0841   122.0025 </r>
       <r>    12.5847    -0.0215   122.0003 </r>
       <r>    12.6901    -0.0025   122.0000 </r>
       <r>    12.7955    -0.0001   122.0000 </r>
       <r>    12.9010    -0.0000   122.0000 </r>
       <r>    13.0064    -0.0001   122.0000 </r>
       <r>    13.1118    -0.0012   121.9999 </r>
       <r>    13.2172    -0.0129   121.9985 </r>
       <r>    13.3227    -0.0722   121.9909 </r>
       <r>    13.4281    -0.1699   121.9730 </r>
       <r>    13.5335     0.0779   121.9812 </r>
       <r>    13.6389     1.4642   122.1356 </r>
       <r>    13.7444     4.2860   122.5874 </r>
       <r>    13.8498     6.6920   123.2929 </r>
       <r>    13.9552     5.4289   123.8653 </r>
       <r>    14.0607     1.7728   124.0522 </r>
       <r>    14.1661    -0.1684   124.0344 </r>
       <r>    14.2715    -0.2550   124.0076 </r>
       <r>    14.3769    -0.0639   124.0008 </r>
       <r>    14.4824    -0.0073   124.0000 </r>
       <r>    14.5878    -0.0004   124.0000 </r>
       <r>    14.6932    -0.0000   124.0000 </r>
       <r>    14.7986    -0.0000   124.0000 </r>
       <r>    14.9041    -0.0000   124.0000 </r>
       <r>    15.0095    -0.0000   124.0000 </r>
       <r>    15.1149    -0.0000   124.0000 </r>
       <r>    15.2204     0.0000   124.0000 </r>
       <r>    15.3258     0.0000   124.0000 </r>
       <r>    15.4312     0.0000   124.0000 </r>
       <r>    15.5366     0.0000   124.0000 </r>
       <r>    15.6421     0.0000   124.0000 </r>
       <r>    15.7475     0.0000   124.0000 </r>
       <r>    15.8529     0.0000   124.0000 </r>
      </set>
     </set>
    </array>
   </total>
  </dos>
 </calculation>
 <structure name="finalpos" >
  <crystal>
   <varray name="basis" >
    <v>       4.43204666       0.00000000       0.00000000 </v>
    <v>      -0.00000000       7.59798368       0.00000000 </v>
    <v>       0.00000000       0.00000000       4.55550353 </v>
   </varray>
   <i name="volume">    153.40484207 </i>
   <varray name="rec_basis" >
    <v>       0.22562939       0.00000000      -0.00000000 </v>
    <v>       0.00000000       0.13161387       0.00000000 </v>
    <v>      -0.00000000      -0.00000000       0.21951470 </v>
   </varray>
  </crystal>
  <varray name="positions" >
   <v>       0.00000000       0.33720499       0.40107953 </v>
   <v>       0.00000000       0.16279501       0.90107953 </v>
   <v>       0.00000000       0.66279501       0.59892047 </v>
   <v>       0.00000000       0.83720499       0.09892047 </v>
   <v>       0.50000000       0.83720499       0.40107953 </v>
   <v>       0.50000000       0.66279501       0.90107953 </v>
   <v>       0.50000000       0.16279501       0.59892047 </v>
   <v>       0.50000000       0.33720499       0.09892047 </v>
  </varray>
 </structure>
</modeling>
