 running    4 mpi-ranks, on    1 nodes
 distrk:  each k-point on    1 cores,    4 groups
 distr:  one band on    1 cores,    1 groups
 OpenACC runtime initialized ...    4 GPUs detected
 vasp.6.4.2 20Jul23 (build Nov 12 2023 22:16:35) complex                         
 POSCAR found type information on POSCAR GaO P 
 POSCAR found :  3 types and     119 ions
 scaLAPACK will be used selectively (only on CPU)
 LDA part: xc-table for Pade appr. of Perdew
 POSCAR, INCAR and KPOINTS ok, starting setup
 FFT: planning ... GRIDC
 FFT: planning ... GRID_SOFT
 FFT: planning ... GRID
 WAVECAR not read
 initial charge from wavefunction
 entering main loop
       N       E                     dE             d eps       ncg     rms          ort
DAV:   1    -0.184673996183E+05   -0.18467E+05   -0.54371E+05  5000   0.750E+03
DAV:   2    -0.627240149236E+05   -0.44257E+05   -0.42727E+05  5000   0.123E+03
DAV:   3    -0.676970410990E+05   -0.49730E+04   -0.45404E+04  5000   0.376E+02
DAV:   4    -0.684414420977E+05   -0.74440E+03   -0.65600E+03  5000   0.120E+02
DAV:   5    -0.388791436623E+05    0.29562E+05   -0.70261E+02  5000   0.566E+01
 gam= 0.000 g(H,U,f)=  0.785E+05 0.135E+05 0.385E+04 ort(H,U,f) = 0.000E+00 0.000E+00 0.000E+00
SDA:   6     0.295516131742E+05    0.68431E+05   -0.70261E+02  5000   0.958E+05 0.000E+00
 gam= 0.000 trial= 0.400  step= 0.401 mean= 0.400
 gam= 0.651 g(H,U,f)=  0.325E+05 0.280E+05 0.199E+04 ort(H,U,f) =-0.641E+04-0.215E+05-0.409E+04
CGA:   7     0.103596396871E+05   -0.19192E+05   -0.19241E+05  5000   0.624E+05-0.320E+05
 gam= 0.651 trial= 0.400  step= 0.254 mean= 0.400
 gam= 0.407 g(H,U,f)=  0.148E+05 0.961E+04 0.977E+03 ort(H,U,f) =-0.115E+03 0.130E+05 0.251E+04
CGA:   8     0.493076627343E+04   -0.54289E+04   -0.52840E+04  5000   0.254E+05 0.154E+05
 gam= 0.407 trial= 0.393  step= 0.201 mean= 0.393
 gam= 0.648 g(H,U,f)=  0.135E+05 0.283E+04 0.588E+02 ort(H,U,f) = 0.150E+04-0.721E+03 0.101E+02
CGA:   9     0.346966168007E+04   -0.14611E+04   -0.31785E+04  5000   0.164E+05 0.792E+03
 gam= 0.648 trial= 0.383  step= 0.259 mean= 0.383
 gam= 0.362 g(H,U,f)=  0.493E+04 0.101E+04 0.121E+02 ort(H,U,f) = 0.801E+03 0.636E+03-0.675E+01
CGA:  10     0.164705626085E+04   -0.18226E+04   -0.21926E+04  5000   0.595E+04 0.143E+04
 gam= 0.362 trial= 0.377  step= 0.353 mean= 0.377
 gam= 0.671 g(H,U,f)=  0.241E+04 0.128E+04 0.300E+03 ort(H,U,f) = 0.651E+03-0.499E+01-0.818E+02
CGA:  11     0.523482658834E+03   -0.11236E+04   -0.11398E+04  5000   0.399E+04 0.564E+03
 gam= 0.671 trial= 0.376  step= 0.320 mean= 0.376
 gam= 0.341 g(H,U,f)=  0.119E+04 0.169E+03 0.164E+01 ort(H,U,f) = 0.358E+03 0.187E+03-0.514E+01
CGA:  12    -0.133819770567E+03   -0.65730E+03   -0.69845E+03  5000   0.136E+04 0.540E+03
 gam= 0.341 trial= 0.373  step= 0.549 mean= 0.373
 gam= 0.464 g(H,U,f)=  0.536E+03 0.953E+02 0.304E+00 ort(H,U,f) =-0.569E+02 0.146E+03 0.584E+00
CGA:  13    -0.569945355682E+03   -0.43613E+03   -0.42429E+03  5000   0.631E+03 0.894E+02
 gam= 0.464 trial= 0.382  step= 0.625 mean= 0.382
 gam= 0.538 g(H,U,f)=  0.283E+03 0.571E+02 0.807E-01 ort(H,U,f) =-0.115E+03 0.609E+02 0.314E+00
CGA:  14    -0.773743730135E+03   -0.20380E+03   -0.21036E+03  5000   0.340E+03-0.541E+02
 gam= 0.538 trial= 0.394  step= 0.572 mean= 0.394
 gam= 0.495 g(H,U,f)=  0.152E+03 0.165E+02 0.235E+00 ort(H,U,f) =-0.317E+02 0.125E+02 0.653E+00
CGA:  15    -0.861594708385E+03   -0.87851E+02   -0.88924E+02  5000   0.168E+03-0.185E+02
 gam= 0.495 trial= 0.403  step= 0.504 mean= 0.403
 gam= 0.447 g(H,U,f)=  0.629E+02 0.124E+02 0.419E-03 ort(H,U,f) = 0.418E+01-0.366E+01 0.132E-02
CGA:  16    -0.901845342277E+03   -0.40251E+02   -0.40152E+02  5000   0.753E+02 0.521E+00
 gam= 0.447 trial= 0.408  step= 0.552 mean= 0.408
 gam= 0.510 g(H,U,f)=  0.304E+02 0.801E+01 0.140E-05 ort(H,U,f) =-0.262E+01 0.290E+01 0.342E-04
CGA:  17    -0.922726574448E+03   -0.20881E+02   -0.20835E+02  5000   0.384E+02 0.284E+00
 gam= 0.510 trial= 0.415  step= 0.570 mean= 0.415
 gam= 0.518 g(H,U,f)=  0.155E+02 0.435E+01 0.647E-02 ort(H,U,f) =-0.435E+01 0.445E+01 0.588E-02
CGA:  18    -0.933739247766E+03   -0.11013E+02   -0.10997E+02  5000   0.199E+02 0.991E-01
 gam= 0.518 trial= 0.423  step= 0.596 mean= 0.423
 gam= 0.536 g(H,U,f)=  0.878E+01 0.186E+01 0.228E-01 ort(H,U,f) =-0.291E+01 0.284E+01 0.922E-01
CGA:  19    -0.939693736202E+03   -0.59545E+01   -0.59481E+01  5000   0.107E+02 0.249E-01
 gam= 0.536 trial= 0.432  step= 0.581 mean= 0.432
 gam= 0.478 g(H,U,f)=  0.422E+01 0.858E+00 0.147E-01 ort(H,U,f) =-0.110E+01 0.110E+01-0.513E-01
CGA:  20    -0.942788567868E+03   -0.30948E+01   -0.31006E+01  5000   0.510E+01-0.590E-01
 gam= 0.478 trial= 0.439  step= 0.614 mean= 0.439
 gam= 0.499 g(H,U,f)=  0.220E+01 0.336E+00 0.959E-02 ort(H,U,f) =-0.313E+00 0.339E+00-0.651E-02
CGA:  21    -0.944345237551E+03   -0.15567E+01   -0.15554E+01  5000   0.254E+01 0.200E-01
 gam= 0.499 trial= 0.448  step= 0.569 mean= 0.448
 gam= 0.520 g(H,U,f)=  0.115E+01 0.175E+00 0.391E-04 ort(H,U,f) =-0.586E-01 0.742E-01-0.284E-04
CGA:  22    -0.945072900929E+03   -0.72766E+00   -0.72671E+00  5000   0.132E+01 0.156E-01
 gam= 0.520 trial= 0.454  step= 0.565 mean= 0.454
 gam= 0.508 g(H,U,f)=  0.562E+00 0.110E+00 0.460E-04 ort(H,U,f) =-0.372E-01 0.430E-01 0.107E-03
CGA:  23    -0.945449090031E+03   -0.37619E+00   -0.37579E+00  5000   0.672E+00 0.585E-02
 gam= 0.508 trial= 0.459  step= 0.513 mean= 0.459
 gam= 0.468 g(H,U,f)=  0.246E+00 0.686E-01 0.122E-03 ort(H,U,f) =-0.604E-01 0.603E-01 0.203E-03
CGA:  24    -0.945622067481E+03   -0.17298E+00   -0.17297E+00  5000   0.314E+00 0.854E-04
 gam= 0.468 trial= 0.462  step= 0.608 mean= 0.462
 gam= 0.542 g(H,U,f)=  0.137E+00 0.337E-01 0.872E-04 ort(H,U,f) =-0.465E-01 0.461E-01-0.158E-03
CGA:  25    -0.945717597863E+03   -0.95530E-01   -0.95584E-01  5000   0.170E+00-0.599E-03
 gam= 0.542 trial= 0.469  step= 0.626 mean= 0.469
 gam= 0.501 g(H,U,f)=  0.722E-01 0.131E-01 0.371E-04 ort(H,U,f) =-0.223E-01 0.221E-01-0.516E-05
CGA:  26    -0.945770799494E+03   -0.53202E-01   -0.53221E-01  5000   0.854E-01-0.172E-03
 gam= 0.501 trial= 0.477  step= 0.630 mean= 0.477
 gam= 0.572 g(H,U,f)=  0.429E-01 0.579E-02 0.704E-04 ort(H,U,f) =-0.581E-02 0.575E-02-0.296E-04
CGA:  27    -0.945797632782E+03   -0.26833E-01   -0.26842E-01  5000   0.488E-01-0.887E-04
 gam= 0.572 trial= 0.485  step= 0.587 mean= 0.485
 gam= 0.492 g(H,U,f)=  0.207E-01 0.326E-02 0.181E-04 ort(H,U,f) =-0.452E-03 0.357E-03 0.270E-04
CGA:  28    -0.945811937646E+03   -0.14305E-01   -0.14309E-01  5000   0.240E-01-0.684E-04
 gam= 0.492 trial= 0.490  step= 0.543 mean= 0.490
 gam= 0.484 g(H,U,f)=  0.930E-02 0.230E-02 0.709E-05 ort(H,U,f) =-0.322E-03 0.353E-03-0.157E-04
CGA:  29    -0.945818445903E+03   -0.65083E-02   -0.65079E-02  5000   0.116E-01 0.151E-04
 gam= 0.484 trial= 0.493  step= 0.603 mean= 0.493
 gam= 0.521 g(H,U,f)=  0.464E-02 0.141E-02 0.745E-06 ort(H,U,f) =-0.941E-03 0.100E-02 0.197E-05
CGA:  30    -0.945821949757E+03   -0.35039E-02   -0.35003E-02  5000   0.605E-02 0.652E-04
 gam= 0.521 trial= 0.498  step= 0.614 mean= 0.498
 gam= 0.518 g(H,U,f)=  0.245E-02 0.665E-03 0.121E-04 ort(H,U,f) =-0.836E-03 0.880E-03 0.365E-05
CGA:  31    -0.945823820895E+03   -0.18711E-02   -0.18683E-02  5000   0.313E-02 0.482E-04
 gam= 0.518 trial= 0.504  step= 0.676 mean= 0.504
 gam= 0.594 g(H,U,f)=  0.161E-02 0.252E-03 0.478E-06 ort(H,U,f) =-0.387E-03 0.400E-03 0.475E-06
CGA:  32    -0.945824888603E+03   -0.10677E-02   -0.10666E-02  5000   0.186E-02 0.127E-04
 gam= 0.594 trial= 0.512  step= 0.610 mean= 0.512
 gam= 0.519 g(H,U,f)=  0.859E-03 0.104E-03 0.246E-05 ort(H,U,f) =-0.805E-04 0.806E-04-0.386E-05
CGA:  33    -0.945825458906E+03   -0.57030E-03   -0.57049E-03  5000   0.966E-03-0.378E-05
 gam= 0.519 trial= 0.517  step= 0.573 mean= 0.517
 gam= 0.519 g(H,U,f)=  0.431E-03 0.700E-04 0.406E-07 ort(H,U,f) = 0.602E-05-0.686E-05-0.777E-07
CGA:  34    -0.945825734817E+03   -0.27591E-03   -0.27594E-03  5000   0.501E-03-0.921E-06
 gam= 0.519 trial= 0.520  step= 0.573 mean= 0.520
 gam= 0.498 g(H,U,f)=  0.198E-03 0.516E-04 0.391E-06 ort(H,U,f) =-0.102E-04 0.106E-04-0.582E-07
CGA:  35    -0.945825878111E+03   -0.14329E-03   -0.14328E-03  5000   0.250E-03 0.345E-06
 gam= 0.498 trial= 0.523  step= 0.607 mean= 0.523
 gam= 0.532 g(H,U,f)=  0.103E-03 0.292E-04 0.132E-06 ort(H,U,f) =-0.258E-04 0.237E-04-0.164E-06
CGA:  36    -0.945825953805E+03   -0.75695E-04   -0.75787E-04  5000   0.133E-03-0.223E-05
 gam= 0.532 trial= 0.527  step= 0.675 mean= 0.527
 gam= 0.000 g(H,U,f)=  0.689E-04 0.134E-04 0.391E-06 ort(H,U,f) =-0.209E-04 0.165E-04 0.459E-07
SDA:  37    -0.945825997902E+03   -0.44096E-04   -0.44421E-04  5000   0.827E-04-0.438E-05
 gam= 0.000 trial= 0.534  step= 0.812 mean= 0.534
 gam= 0.423 g(H,U,f)=  0.283E-04 0.660E-05 0.108E-06 ort(H,U,f) =-0.770E-05 0.760E-05-0.201E-06
CGA:  38    -0.945826031443E+03   -0.33542E-04   -0.33585E-04  5000   0.350E-04-0.305E-06
 gam= 0.423 trial= 0.548  step= 0.692 mean= 0.548
 gam= 0.353 g(H,U,f)=  0.103E-04 0.203E-05 0.377E-07 ort(H,U,f) =-0.570E-05 0.540E-05-0.946E-08
CGA:  39    -0.945826043504E+03   -0.12061E-04   -0.12083E-04  5000   0.123E-04-0.300E-06
 gam= 0.353 trial= 0.555  step= 0.632 mean= 0.555
 gam= 0.374 g(H,U,f)=  0.405E-05 0.527E-06 0.394E-07 ort(H,U,f) =-0.173E-05 0.181E-05 0.332E-07
CGA:  40    -0.945826047380E+03   -0.38764E-05   -0.38720E-05  5000   0.462E-05 0.119E-06
 gam= 0.374 trial= 0.559  step= 0.628 mean= 0.559
 final diagonalization
   1 F= -.94582605E+03 E0= -.94582037E+03  d E =-.113514E-01
 writing wavefunctions
Warning: ieee_invalid is signaling
Warning: ieee_divide_by_zero is signaling
Warning: ieee_underflow is signaling
Warning: ieee_inexact is signaling
FORTRAN STOP
Warning: ieee_invalid is signaling
Warning: ieee_divide_by_zero is signaling
Warning: ieee_underflow is signaling
Warning: ieee_inexact is signaling
FORTRAN STOP
Warning: ieee_invalid is signaling
Warning: ieee_divide_by_zero is signaling
Warning: ieee_underflow is signaling
Warning: ieee_inexact is signaling
FORTRAN STOP
Warning: ieee_invalid is signaling
Warning: ieee_divide_by_zero is signaling
Warning: ieee_underflow is signaling
Warning: ieee_inexact is signaling
FORTRAN STOP
