       N       E                     dE             d eps       ncg     rms          ort
DAV:   1    -0.184673996183E+05   -0.18467E+05   -0.54371E+05  5000   0.750E+03
DAV:   2    -0.627240149236E+05   -0.44257E+05   -0.42727E+05  5000   0.123E+03
DAV:   3    -0.676970410990E+05   -0.49730E+04   -0.45404E+04  5000   0.376E+02
DAV:   4    -0.684414420977E+05   -0.74440E+03   -0.65600E+03  5000   0.120E+02
DAV:   5    -0.388791436623E+05    0.29562E+05   -0.70261E+02  5000   0.566E+01
SDA:   6     0.295516131742E+05    0.68431E+05   -0.70261E+02  5000   0.958E+05 0.000E+00
CGA:   7     0.103596396871E+05   -0.19192E+05   -0.19241E+05  5000   0.624E+05-0.320E+05
CGA:   8     0.493076627343E+04   -0.54289E+04   -0.52840E+04  5000   0.254E+05 0.154E+05
CGA:   9     0.346966168007E+04   -0.14611E+04   -0.31785E+04  5000   0.164E+05 0.792E+03
CGA:  10     0.164705626085E+04   -0.18226E+04   -0.21926E+04  5000   0.595E+04 0.143E+04
CGA:  11     0.523482658834E+03   -0.11236E+04   -0.11398E+04  5000   0.399E+04 0.564E+03
CGA:  12    -0.133819770567E+03   -0.65730E+03   -0.69845E+03  5000   0.136E+04 0.540E+03
CGA:  13    -0.569945355682E+03   -0.43613E+03   -0.42429E+03  5000   0.631E+03 0.894E+02
CGA:  14    -0.773743730135E+03   -0.20380E+03   -0.21036E+03  5000   0.340E+03-0.541E+02
CGA:  15    -0.861594708385E+03   -0.87851E+02   -0.88924E+02  5000   0.168E+03-0.185E+02
CGA:  16    -0.901845342277E+03   -0.40251E+02   -0.40152E+02  5000   0.753E+02 0.521E+00
CGA:  17    -0.922726574448E+03   -0.20881E+02   -0.20835E+02  5000   0.384E+02 0.284E+00
CGA:  18    -0.933739247766E+03   -0.11013E+02   -0.10997E+02  5000   0.199E+02 0.991E-01
CGA:  19    -0.939693736202E+03   -0.59545E+01   -0.59481E+01  5000   0.107E+02 0.249E-01
CGA:  20    -0.942788567868E+03   -0.30948E+01   -0.31006E+01  5000   0.510E+01-0.590E-01
CGA:  21    -0.944345237551E+03   -0.15567E+01   -0.15554E+01  5000   0.254E+01 0.200E-01
CGA:  22    -0.945072900929E+03   -0.72766E+00   -0.72671E+00  5000   0.132E+01 0.156E-01
CGA:  23    -0.945449090031E+03   -0.37619E+00   -0.37579E+00  5000   0.672E+00 0.585E-02
CGA:  24    -0.945622067481E+03   -0.17298E+00   -0.17297E+00  5000   0.314E+00 0.854E-04
CGA:  25    -0.945717597863E+03   -0.95530E-01   -0.95584E-01  5000   0.170E+00-0.599E-03
CGA:  26    -0.945770799494E+03   -0.53202E-01   -0.53221E-01  5000   0.854E-01-0.172E-03
CGA:  27    -0.945797632782E+03   -0.26833E-01   -0.26842E-01  5000   0.488E-01-0.887E-04
CGA:  28    -0.945811937646E+03   -0.14305E-01   -0.14309E-01  5000   0.240E-01-0.684E-04
CGA:  29    -0.945818445903E+03   -0.65083E-02   -0.65079E-02  5000   0.116E-01 0.151E-04
CGA:  30    -0.945821949757E+03   -0.35039E-02   -0.35003E-02  5000   0.605E-02 0.652E-04
CGA:  31    -0.945823820895E+03   -0.18711E-02   -0.18683E-02  5000   0.313E-02 0.482E-04
CGA:  32    -0.945824888603E+03   -0.10677E-02   -0.10666E-02  5000   0.186E-02 0.127E-04
CGA:  33    -0.945825458906E+03   -0.57030E-03   -0.57049E-03  5000   0.966E-03-0.378E-05
CGA:  34    -0.945825734817E+03   -0.27591E-03   -0.27594E-03  5000   0.501E-03-0.921E-06
CGA:  35    -0.945825878111E+03   -0.14329E-03   -0.14328E-03  5000   0.250E-03 0.345E-06
CGA:  36    -0.945825953805E+03   -0.75695E-04   -0.75787E-04  5000   0.133E-03-0.223E-05
SDA:  37    -0.945825997902E+03   -0.44096E-04   -0.44421E-04  5000   0.827E-04-0.438E-05
CGA:  38    -0.945826031443E+03   -0.33542E-04   -0.33585E-04  5000   0.350E-04-0.305E-06
CGA:  39    -0.945826043504E+03   -0.12061E-04   -0.12083E-04  5000   0.123E-04-0.300E-06
CGA:  40    -0.945826047380E+03   -0.38764E-05   -0.38720E-05  5000   0.462E-05 0.119E-06
   1 F= -.94582605E+03 E0= -.94582037E+03  d E =-.113514E-01
