<?xml version="1.0" encoding="ISO-8859-1"?>
<modeling>
 <generator>
  <i name="program" type="string">vasp </i>
  <i name="version" type="string">6.4.2  </i>
  <i name="subversion" type="string">20Jul23 (build Nov 12 2023 22:16:35) complex                          parallel </i>
  <i name="platform" type="string">LinuxNV </i>
  <i name="date" type="string">2025 03 16 </i>
  <i name="time" type="string">12:51:19 </i>
 </generator>
 <incar>
  <i type="int" name="ISTART">     0</i>
  <i type="string" name="PREC">Normal</i>
  <i type="string" name="ALGO">All</i>
  <i type="int" name="ISPIN">     1</i>
  <i type="int" name="ICHARG">     0</i>
  <i type="int" name="NELM">   500</i>
  <i type="int" name="IBRION">    -1</i>
  <i name="EDIFF">      0.00001000</i>
  <i name="EDIFFG">     -0.00500000</i>
  <i type="int" name="NSW">     0</i>
  <i type="int" name="ISIF">     2</i>
  <i name="ENCUT">    450.00000000</i>
  <i type="string" name="LREAL">Auto</i>
  <i type="logical" name="LPLANE"> T  </i>
  <i name="TIME">      0.40000000</i>
  <i type="int" name="ISMEAR">     0</i>
  <i name="SIGMA">      0.05000000</i>
  <i type="logical" name="LWAVE"> T  </i>
  <i type="logical" name="LCHARG"> T  </i>
  <i name="HFSCREEN">      0.20000000</i>
  <i type="logical" name="LHFCALC"> T  </i>
  <i type="int" name="LMAXFOCK">     4</i>
  <i name="AEXX">      0.32000000</i>
  <i type="string" name="PRECFOCK">Fast</i>
 </incar>
 <primitive_cell>
  <structure name="primitive_cell" >
   <crystal>
    <varray name="basis" >
     <v>       0.00000000      12.28047342       0.00000000 </v>
     <v>       9.14270205       0.00000000       0.00000000 </v>
     <v>       0.00000000      -2.76826177     -11.30069772 </v>
    </varray>
    <i name="volume">   1268.80515525 </i>
    <varray name="rec_basis" >
     <v>       0.00000000       0.08143009      -0.01994742 </v>
     <v>       0.10937686      -0.00000000       0.00000000 </v>
     <v>       0.00000000       0.00000000      -0.08849011 </v>
    </varray>
   </crystal>
   <varray name="positions" >
    <v>       0.65682255       0.00000000       0.15587234 </v>
    <v>       0.66050280       0.00000000       0.65696829 </v>
    <v>       0.65856673       0.33305875       0.15785831 </v>
    <v>       0.66064973       0.33346769       0.65673483 </v>
    <v>       0.65856673       0.66694125       0.15785831 </v>
    <v>       0.66064973       0.66653231       0.65673483 </v>
    <v>       0.83857518       0.16357439       0.34178553 </v>
    <v>       0.84118771       0.16642315       0.84405648 </v>
    <v>       0.84363971       0.50000000       0.34323002 </v>
    <v>       0.84056778       0.50000000       0.84346049 </v>
    <v>       0.83857518       0.83642561       0.34178553 </v>
    <v>       0.84118771       0.83357685       0.84405648 </v>
    <v>       0.59089909       0.16710913       0.39867719 </v>
    <v>       0.59296747       0.16677628       0.89832987 </v>
    <v>       0.59063110       0.50000000       0.39811751 </v>
    <v>       0.59289749       0.50000000       0.89878614 </v>
    <v>       0.59089909       0.83289087       0.39867719 </v>
    <v>       0.59296747       0.83322372       0.89832987 </v>
    <v>       0.90965338       0.00000000       0.10318880 </v>
    <v>       0.90831525       0.00000000       0.60281283 </v>
    <v>       0.90795363       0.33389951       0.10145927 </v>
    <v>       0.91072572       0.33300183       0.60399302 </v>
    <v>       0.90795363       0.66610049       0.10145927 </v>
    <v>       0.91072572       0.66699817       0.60399302 </v>
    <v>       0.15732697       0.17071049       0.15626192 </v>
    <v>       0.15910536       0.17514756       0.66802125 </v>
    <v>       0.15859865       0.50000000       0.15846921 </v>
    <v>       0.16051428       0.50000000       0.65742403 </v>
    <v>       0.15732697       0.82928951       0.15626192 </v>
    <v>       0.15910536       0.82485244       0.66802125 </v>
    <v>       0.34274499       0.00000000       0.34658800 </v>
    <v>       0.34360687       0.00000000       0.84428083 </v>
    <v>       0.34020072       0.33340396       0.34591442 </v>
    <v>       0.34332032       0.33452603       0.84730070 </v>
    <v>       0.34020072       0.66659604       0.34591442 </v>
    <v>       0.34332032       0.66547397       0.84730070 </v>
    <v>       0.09236830       0.00000000       0.90062018 </v>
    <v>       0.09246348       0.32916263       0.39974992 </v>
    <v>       0.09055110       0.33419847       0.90021988 </v>
    <v>       0.09246348       0.67083737       0.39974992 </v>
    <v>       0.09055110       0.66580153       0.90021988 </v>
    <v>       0.40661365       0.16633237       0.10409236 </v>
    <v>       0.41117529       0.16702533       0.60363976 </v>
    <v>       0.40867671       0.50000000       0.10569121 </v>
    <v>       0.40979577       0.50000000       0.60395864 </v>
    <v>       0.40661365       0.83366763       0.10409236 </v>
    <v>       0.41117529       0.83297467       0.60363976 </v>
    <v>       0.99625178       0.16765596       0.12890124 </v>
    <v>       0.99886083       0.16440332       0.62361770 </v>
    <v>       0.99628722       0.50000000       0.12697919 </v>
    <v>       0.99841970       0.50000000       0.62876964 </v>
    <v>       0.99625178       0.83234404       0.12890124 </v>
    <v>       0.99886083       0.83559668       0.62361770 </v>
    <v>       0.50380630       0.00000000       0.37413086 </v>
    <v>       0.50501002       0.00000000       0.87366029 </v>
    <v>       0.50236970       0.33328543       0.37378490 </v>
    <v>       0.50458276       0.33316467       0.87354082 </v>
    <v>       0.50236970       0.66671457       0.37378490 </v>
    <v>       0.50458276       0.66683533       0.87354082 </v>
    <v>       0.67181070       0.16678144       0.28084974 </v>
    <v>       0.67330681       0.16652490       0.78030457 </v>
    <v>       0.67486049       0.50000000       0.28258327 </v>
    <v>       0.67297849       0.50000000       0.78003508 </v>
    <v>       0.67181070       0.83321856       0.28084974 </v>
    <v>       0.67330681       0.83347510       0.78030457 </v>
    <v>       0.82774055       0.00000000       0.22058764 </v>
    <v>       0.82882803       0.00000000       0.72067600 </v>
    <v>       0.83036187       0.33032547       0.22186319 </v>
    <v>       0.82910766       0.33275673       0.72033710 </v>
    <v>       0.83036187       0.66967453       0.22186319 </v>
    <v>       0.82910766       0.66724327       0.72033710 </v>
    <v>       0.83242823       0.00000000       0.44564958 </v>
    <v>       0.83277644       0.00000000       0.94683403 </v>
    <v>       0.84200941       0.32981784       0.44484316 </v>
    <v>       0.83082374       0.33322324       0.94560336 </v>
    <v>       0.84200941       0.67018216       0.44484316 </v>
    <v>       0.83082374       0.66677676       0.94560336 </v>
    <v>       0.66858889       0.16680346       0.05550678 </v>
    <v>       0.67016371       0.16696648       0.55435098 </v>
    <v>       0.66902181       0.50000000       0.05639708 </v>
    <v>       0.67123951       0.50000000       0.55373749 </v>
    <v>       0.66858889       0.83319654       0.05550678 </v>
    <v>       0.67016371       0.83303352       0.55435098 </v>
    <v>       0.49471903       0.00000000       0.12845182 </v>
    <v>       0.49806223       0.00000000       0.62754328 </v>
    <v>       0.49541979       0.33237565       0.12941657 </v>
    <v>       0.49777716       0.33375776       0.62752798 </v>
    <v>       0.49541979       0.66762435       0.12941657 </v>
    <v>       0.49777716       0.66624224       0.62752798 </v>
    <v>       0.01666230       0.14090449       0.37442049 </v>
    <v>       0.00449403       0.16658938       0.87288174 </v>
    <v>       0.00717754       0.50000000       0.37358883 </v>
    <v>       0.00300238       0.50000000       0.87407192 </v>
    <v>       0.01666230       0.85909551       0.37442049 </v>
    <v>       0.00449403       0.83341062       0.87288174 </v>
    <v>       0.16211394       0.00000000       0.29371646 </v>
    <v>       0.17094122       0.00000000       0.77625034 </v>
    <v>       0.17103033       0.33165344       0.28116755 </v>
    <v>       0.17366092       0.33581644       0.78386097 </v>
    <v>       0.17103033       0.66834656       0.28116755 </v>
    <v>       0.17366092       0.66418356       0.78386097 </v>
    <v>       0.32384630       0.16282172       0.22215234 </v>
    <v>       0.32577062       0.16312310       0.71781965 </v>
    <v>       0.32637267       0.50000000       0.22251331 </v>
    <v>       0.32782949       0.50000000       0.72112779 </v>
    <v>       0.32384630       0.83717828       0.22215234 </v>
    <v>       0.32577062       0.83687690       0.71781965 </v>
    <v>       0.33065452       0.16552614       0.44796600 </v>
    <v>       0.33069427       0.16577033       0.94602960 </v>
    <v>       0.32950112       0.50000000       0.44801665 </v>
    <v>       0.33306910       0.50000000       0.94844429 </v>
    <v>       0.33065452       0.83447386       0.44796600 </v>
    <v>       0.33069427       0.83422967       0.94602960 </v>
    <v>       0.16593165       0.00000000       0.06004126 </v>
    <v>       0.16987046       0.33466272       0.05559861 </v>
    <v>       0.16756820       0.33009195       0.55606107 </v>
    <v>       0.16987046       0.66533728       0.05559861 </v>
    <v>       0.16756820       0.66990805       0.55606107 </v>
    <v>       0.10213498       0.00000000       0.40633080 </v>
   </varray>
  </structure>
  <varray name="primitive_index" >
   <v type="int" >        1 </v>
   <v type="int" >        2 </v>
   <v type="int" >        3 </v>
   <v type="int" >        4 </v>
   <v type="int" >        5 </v>
   <v type="int" >        6 </v>
   <v type="int" >        7 </v>
   <v type="int" >        8 </v>
   <v type="int" >        9 </v>
   <v type="int" >       10 </v>
   <v type="int" >       11 </v>
   <v type="int" >       12 </v>
   <v type="int" >       13 </v>
   <v type="int" >       14 </v>
   <v type="int" >       15 </v>
   <v type="int" >       16 </v>
   <v type="int" >       17 </v>
   <v type="int" >       18 </v>
   <v type="int" >       19 </v>
   <v type="int" >       20 </v>
   <v type="int" >       21 </v>
   <v type="int" >       22 </v>
   <v type="int" >       23 </v>
   <v type="int" >       24 </v>
   <v type="int" >       25 </v>
   <v type="int" >       26 </v>
   <v type="int" >       27 </v>
   <v type="int" >       28 </v>
   <v type="int" >       29 </v>
   <v type="int" >       30 </v>
   <v type="int" >       31 </v>
   <v type="int" >       32 </v>
   <v type="int" >       33 </v>
   <v type="int" >       34 </v>
   <v type="int" >       35 </v>
   <v type="int" >       36 </v>
   <v type="int" >       37 </v>
   <v type="int" >       38 </v>
   <v type="int" >       39 </v>
   <v type="int" >       40 </v>
   <v type="int" >       41 </v>
   <v type="int" >       42 </v>
   <v type="int" >       43 </v>
   <v type="int" >       44 </v>
   <v type="int" >       45 </v>
   <v type="int" >       46 </v>
   <v type="int" >       47 </v>
   <v type="int" >       48 </v>
   <v type="int" >       49 </v>
   <v type="int" >       50 </v>
   <v type="int" >       51 </v>
   <v type="int" >       52 </v>
   <v type="int" >       53 </v>
   <v type="int" >       54 </v>
   <v type="int" >       55 </v>
   <v type="int" >       56 </v>
   <v type="int" >       57 </v>
   <v type="int" >       58 </v>
   <v type="int" >       59 </v>
   <v type="int" >       60 </v>
   <v type="int" >       61 </v>
   <v type="int" >       62 </v>
   <v type="int" >       63 </v>
   <v type="int" >       64 </v>
   <v type="int" >       65 </v>
   <v type="int" >       66 </v>
   <v type="int" >       67 </v>
   <v type="int" >       68 </v>
   <v type="int" >       69 </v>
   <v type="int" >       70 </v>
   <v type="int" >       71 </v>
   <v type="int" >       72 </v>
   <v type="int" >       73 </v>
   <v type="int" >       74 </v>
   <v type="int" >       75 </v>
   <v type="int" >       76 </v>
   <v type="int" >       77 </v>
   <v type="int" >       78 </v>
   <v type="int" >       79 </v>
   <v type="int" >       80 </v>
   <v type="int" >       81 </v>
   <v type="int" >       82 </v>
   <v type="int" >       83 </v>
   <v type="int" >       84 </v>
   <v type="int" >       85 </v>
   <v type="int" >       86 </v>
   <v type="int" >       87 </v>
   <v type="int" >       88 </v>
   <v type="int" >       89 </v>
   <v type="int" >       90 </v>
   <v type="int" >       91 </v>
   <v type="int" >       92 </v>
   <v type="int" >       93 </v>
   <v type="int" >       94 </v>
   <v type="int" >       95 </v>
   <v type="int" >       96 </v>
   <v type="int" >       97 </v>
   <v type="int" >       98 </v>
   <v type="int" >       99 </v>
   <v type="int" >      100 </v>
   <v type="int" >      101 </v>
   <v type="int" >      102 </v>
   <v type="int" >      103 </v>
   <v type="int" >      104 </v>
   <v type="int" >      105 </v>
   <v type="int" >      106 </v>
   <v type="int" >      107 </v>
   <v type="int" >      108 </v>
   <v type="int" >      109 </v>
   <v type="int" >      110 </v>
   <v type="int" >      111 </v>
   <v type="int" >      112 </v>
   <v type="int" >      113 </v>
   <v type="int" >      114 </v>
   <v type="int" >      115 </v>
   <v type="int" >      116 </v>
   <v type="int" >      117 </v>
   <v type="int" >      118 </v>
   <v type="int" >      119 </v>
  </varray>
 </primitive_cell>
 <kpoints>
  <generation param="Gamma">
   <v type="int" name="divisions">       2        2        2 </v>
   <v name="usershift">      0.00000000       0.00000000       0.00000000 </v>
   <v name="genvec1">      0.50000000       0.00000000       0.00000000 </v>
   <v name="genvec2">      0.00000000       0.50000000       0.00000000 </v>
   <v name="genvec3">      0.00000000       0.00000000       0.50000000 </v>
   <v name="shift">      0.00000000       0.00000000       0.00000000 </v>
  </generation>
  <varray name="kpointlist" >
   <v>       0.00000000       0.00000000       0.00000000 </v>
   <v>       0.50000000       0.00000000       0.00000000 </v>
   <v>       0.00000000       0.50000000       0.00000000 </v>
   <v>       0.50000000       0.50000000       0.00000000 </v>
   <v>       0.00000000       0.00000000       0.50000000 </v>
   <v>       0.50000000       0.00000000       0.50000000 </v>
   <v>       0.00000000       0.50000000       0.50000000 </v>
   <v>       0.50000000       0.50000000       0.50000000 </v>
  </varray>
  <varray name="weights" >
   <v>       0.12500000 </v>
   <v>       0.12500000 </v>
   <v>       0.12500000 </v>
   <v>       0.12500000 </v>
   <v>       0.12500000 </v>
   <v>       0.12500000 </v>
   <v>       0.12500000 </v>
   <v>       0.12500000 </v>
  </varray>
 </kpoints>
 <parameters>
  <separator name="general" >
   <i type="string" name="SYSTEM">unknown system</i>
   <i type="logical" name="LCOMPAT"> F  </i>
  </separator>
  <separator name="electronic" >
   <i type="string" name="PREC">normal</i>
   <i name="ENMAX">    450.00000000</i>
   <i name="ENAUG">    605.39200000</i>
   <i name="EDIFF">      0.00001000</i>
   <i type="int" name="IALGO">    58</i>
   <i type="int" name="IWAVPR">    10</i>
   <i type="int" name="NBANDS">   625</i>
   <i type="int" name="NBANDSLOW">    -1</i>
   <i type="int" name="NBANDSHIGH">    -1</i>
   <i name="NELECT">   1042.00000000</i>
   <i type="int" name="TURBO">     0</i>
   <i type="int" name="IRESTART">     0</i>
   <i type="int" name="NREBOOT">     0</i>
   <i type="int" name="NMIN">     0</i>
   <i name="EREF">      0.00000000</i>
   <separator name="electronic smearing" >
    <i type="int" name="ISMEAR">     0</i>
    <i name="SIGMA">      0.05000000</i>
    <i name="KSPACING">      0.50000000</i>
    <i type="logical" name="KGAMMA"> T  </i>
    <i type="logical" name="KBLOWUP"> T  </i>
   </separator>
   <separator name="electronic projectors" >
    <i type="logical" name="LREAL"> T  </i>
    <v name="ROPT">     -0.00050000     -0.00050000     -0.00050000</v>
    <i type="int" name="LMAXPAW">  -100</i>
    <i type="int" name="LMAXMIX">     2</i>
    <i type="logical" name="NLSPLINE"> F  </i>
   </separator>
   <separator name="electronic startup" >
    <i type="int" name="ISTART">     0</i>
    <i type="int" name="ICHARG">     0</i>
    <i type="int" name="INIWAV">     1</i>
   </separator>
   <separator name="electronic spin" >
    <i type="int" name="ISPIN">     1</i>
    <i type="logical" name="LNONCOLLINEAR"> F  </i>
    <v name="MAGMOM">      1.00000000      1.00000000      1.00000000      1.00000000      1.00000000      1.00000000      1.00000000      1.00000000      1.00000000      1.00000000      1.00000000      1.00000000      1.00000000      1.00000000      1.00000000      1.00000000      1.00000000      1.00000000      1.00000000      1.00000000
      1.00000000      1.00000000      1.00000000      1.00000000      1.00000000      1.00000000      1.00000000      1.00000000      1.00000000      1.00000000      1.00000000      1.00000000      1.00000000      1.00000000      1.00000000      1.00000000      1.00000000      1.00000000      1.00000000      1.00000000
      1.00000000      1.00000000      1.00000000      1.00000000      1.00000000      1.00000000      1.00000000      1.00000000      1.00000000      1.00000000      1.00000000      1.00000000      1.00000000      1.00000000      1.00000000      1.00000000      1.00000000      1.00000000      1.00000000      1.00000000
      1.00000000      1.00000000      1.00000000      1.00000000      1.00000000      1.00000000      1.00000000      1.00000000      1.00000000      1.00000000      1.00000000      1.00000000      1.00000000      1.00000000      1.00000000      1.00000000      1.00000000      1.00000000      1.00000000      1.00000000
      1.00000000      1.00000000      1.00000000      1.00000000      1.00000000      1.00000000      1.00000000      1.00000000      1.00000000      1.00000000      1.00000000      1.00000000      1.00000000      1.00000000      1.00000000      1.00000000      1.00000000      1.00000000      1.00000000      1.00000000
      1.00000000      1.00000000      1.00000000      1.00000000      1.00000000      1.00000000      1.00000000      1.00000000      1.00000000      1.00000000      1.00000000      1.00000000      1.00000000      1.00000000      1.00000000      1.00000000      1.00000000      1.00000000      1.00000000</v>
    <i name="NUPDOWN">     -1.00000000</i>
    <i type="logical" name="LSORBIT"> F  </i>
    <v name="SAXIS">      0.00000000      0.00000000      1.00000000</v>
    <i type="logical" name="LSPIRAL"> F  </i>
    <v name="QSPIRAL">      0.00000000      0.00000000      0.00000000</v>
    <i type="logical" name="LZEROZ"> F  </i>
   </separator>
   <separator name="electronic exchange-correlation" >
    <i type="logical" name="LASPH"> F  </i>
    <i type="logical" name="LMETAGGA"> F  </i>
   </separator>
   <separator name="electronic convergence" >
    <i type="int" name="NELM">   500</i>
    <i type="int" name="NELMDL">    -5</i>
    <i type="int" name="NELMIN">     2</i>
    <i name="ENINI">    450.00000000</i>
    <separator name="electronic convergence detail" >
     <i type="logical" name="LDIAG"> T  </i>
     <i type="logical" name="LSUBROT"> F  </i>
     <i name="WEIMIN">      0.00000000</i>
     <i name="EBREAK">      0.00000000</i>
     <i name="DEPER">      0.30000000</i>
     <i type="int" name="NRMM">     4</i>
     <i name="TIME">      0.40000000</i>
    </separator>
   </separator>
   <separator name="electronic mixer" >
    <i name="AMIX">      0.40000000</i>
    <i name="BMIX">      1.00000000</i>
    <i name="AMIN">      0.10000000</i>
    <i name="AMIX_MAG">      1.60000000</i>
    <i name="BMIX_MAG">      1.00000000</i>
    <separator name="electronic mixer details" >
     <i type="int" name="IMIX">     4</i>
     <i type="logical" name="MIXFIRST"> F  </i>
     <i type="int" name="MAXMIX">   -45</i>
     <i name="WC">    100.00000000</i>
     <i type="int" name="INIMIX">     1</i>
     <i type="int" name="MIXPRE">     1</i>
     <i type="int" name="MREMOVE">     5</i>
    </separator>
   </separator>
   <separator name="electronic dipolcorrection" >
    <i type="logical" name="LDIPOL"> F  </i>
    <i type="logical" name="LMONO"> F  </i>
    <i type="int" name="IDIPOL">     0</i>
    <i name="EPSILON">      1.00000000</i>
    <v name="DIPOL">   -100.00000000   -100.00000000   -100.00000000</v>
    <i name="EFIELD">      0.00000000</i>
   </separator>
  </separator>
  <separator name="grids" >
   <i type="int" name="NGX">    64</i>
   <i type="int" name="NGY">    48</i>
   <i type="int" name="NGZ">    60</i>
   <i type="int" name="NGXF">   128</i>
   <i type="int" name="NGYF">    96</i>
   <i type="int" name="NGZF">   120</i>
   <i type="logical" name="ADDGRID"> F  </i>
  </separator>
  <separator name="ionic" >
   <i type="int" name="NSW">     0</i>
   <i type="int" name="IBRION">    -1</i>
   <i type="int" name="MDALGO">     0</i>
   <i type="int" name="ISIF">     2</i>
   <i name="PSTRESS">      0.00000000</i>
   <i name="EDIFFG">     -0.00500000</i>
   <i type="int" name="NFREE">     0</i>
   <i name="POTIM">      0.50000000</i>
   <i name="SMASS">     -3.00000000</i>
   <i name="SCALEE">      1.00000000</i>
  </separator>
  <separator name="ionic md" >
   <i name="TEBEG">      0.00010000</i>
   <i name="TEEND">      0.00010000</i>
   <i type="int" name="NBLOCK">     1</i>
   <i type="int" name="KBLOCK">     1</i>
   <i type="int" name="NPACO">   256</i>
   <i name="APACO">     10.00000000</i>
  </separator>
  <separator name="symmetry" >
   <i type="int" name="ISYM">     3</i>
   <i name="SYMPREC">      0.00001000</i>
  </separator>
  <separator name="dos" >
   <i type="int" name="LORBIT">     0</i>
   <v name="RWIGS">     -1.00000000     -1.00000000     -1.00000000</v>
   <i type="int" name="NEDOS">   301</i>
   <i name="EMIN">     10.00000000</i>
   <i name="EMAX">    -10.00000000</i>
   <i name="EFERMI">      0.00000000</i>
  </separator>
  <separator name="writing" >
   <i type="int" name="NWRITE">     2</i>
   <i type="logical" name="LWAVE"> T  </i>
   <i type="logical" name="LDOWNSAMPLE"> F  </i>
   <i type="logical" name="LCHARG"> T  </i>
   <i type="logical" name="LPARD"> F  </i>
   <i type="logical" name="LVTOT"> F  </i>
   <i type="logical" name="LVHAR"> F  </i>
   <i type="logical" name="LELF"> F  </i>
   <i type="logical" name="LOPTICS"> F  </i>
   <v name="STM">      0.00000000      0.00000000      0.00000000      0.00000000      0.00000000      0.00000000      0.00000000</v>
  </separator>
  <separator name="performance" >
   <i type="int" name="NPAR">     1</i>
   <i type="int" name="NSIM">     4</i>
   <i type="int" name="NBLK">    -1</i>
   <i type="logical" name="LPLANE"> T  </i>
   <i type="logical" name="LSCALAPACK"> T  </i>
   <i type="logical" name="LSCAAWARE"> F  </i>
   <i type="logical" name="LSCALU"> F  </i>
   <i type="logical" name="LASYNC"> F  </i>
   <i type="logical" name="LORBITALREAL"> F  </i>
  </separator>
  <separator name="miscellaneous" >
   <i type="int" name="IDIOT">     3</i>
   <i type="int" name="PHON_NSTRUCT">    -1</i>
   <i type="logical" name="LMUSIC"> F  </i>
   <v name="POMASS">     69.72300000     16.00000000     30.97400000</v>
   <v name="DARWINR">      0.00000000      0.00000000      0.00000000</v>
   <v name="DARWINV">      1.00000000      1.00000000      1.00000000</v>
   <i type="logical" name="LCORR"> T  </i>
  </separator>
  <i type="logical" name="GGA_COMPAT"> T  </i>
  <i type="logical" name="LBERRY"> F  </i>
  <i type="int" name="ICORELEVEL">     0</i>
  <i type="logical" name="LDAU"> F  </i>
  <i type="int" name="I_CONSTRAINED_M">     0</i>
  <separator name="electronic exchange-correlation" >
   <i type="string" name="GGA">--</i>
   <i type="int" name="VOSKOWN">     0</i>
   <i type="logical" name="LHFCALC"> T  </i>
   <i type="string" name="PRECFOCK">fast</i>
   <i type="logical" name="LSYMGRAD"> F  </i>
   <i type="logical" name="LHFONE"> F  </i>
   <i type="logical" name="LRHFCALC"> F  </i>
   <i type="logical" name="LTHOMAS"> F  </i>
   <i type="logical" name="LMODELHF"> F  </i>
   <i type="logical" name="LFOCKACE"> T  </i>
   <i name="ENCUT4O">     -1.00000000</i>
   <i type="int" name="EXXOEP">     0</i>
   <i type="int" name="FOURORBIT">     0</i>
   <i name="AEXX">      0.32000000</i>
   <i name="HFALPHA">     -1.00000000</i>
   <i name="MCALPHA">      0.00000000</i>
   <i name="ALDAX">      0.68000000</i>
   <i name="AGGAX">      0.68000000</i>
   <i name="ALDAC">      1.00000000</i>
   <i name="AGGAC">      1.00000000</i>
   <i type="int" name="NKREDX">     1</i>
   <i type="int" name="NKREDY">     1</i>
   <i type="int" name="NKREDZ">     1</i>
   <i type="logical" name="SHIFTRED"> F  </i>
   <i type="logical" name="ODDONLY"> F  </i>
   <i type="logical" name="EVENONLY"> F  </i>
   <i type="int" name="LMAXFOCK">     4</i>
   <i type="int" name="NMAXFOCKAE">     1</i>
   <i type="logical" name="LFOCKAEDFT"> F  </i>
   <i name="HFSCREEN">      0.20000000</i>
   <i name="HFSCREENC">      0.20000000</i>
   <i type="int" name="NBANDSGWLOW">     1</i>
  </separator>
  <separator name="vdW DFT" >
   <i type="logical" name="LUSE_VDW"> F  </i>
   <i type="int" name="IVDW_NL">     1</i>
   <i type="logical" name="LSPIN_VDW"> F  </i>
   <i name="Zab_VDW">     -0.84910000</i>
   <i name="PARAM1">      0.12340000</i>
   <i name="PARAM2">      1.00000000</i>
   <i name="PARAM3">      0.00000000</i>
  </separator>
  <separator name="model GW" >
   <i type="int" name="MODEL_GW">     0</i>
   <i name="MODEL_EPS0">      6.39733692</i>
   <i name="MODEL_ALPHA">      1.00000000</i>
  </separator>
  <separator name="linear response parameters" >
   <i type="logical" name="LEPSILON"> F  </i>
   <i type="logical" name="LRPA"> F  </i>
   <i type="logical" name="LNABLA"> F  </i>
   <i type="logical" name="LVEL"> F  </i>
   <i name="CSHIFT">      0.10000000</i>
   <i name="OMEGAMAX">     -1.00000000</i>
   <i name="DEG_THRESHOLD">      0.00200000</i>
   <i name="RTIME">     -0.10000000</i>
   <i name="WPLASMAI">      0.00000000</i>
   <v name="DFIELD">      0.00000000      0.00000000      0.00000000</v>
   <v name="WPLASMA">      0.00000000      0.00000000      0.00000000      0.00000000      0.00000000      0.00000000      0.00000000      0.00000000      0.00000000</v>
  </separator>
  <separator name="orbital magnetization" >
   <i type="logical" name="NUCIND"> F  </i>
   <v name="MAGPOS">      0.00000000      0.00000000      0.00000000</v>
   <i type="logical" name="LNICSALL"> T  </i>
   <i type="logical" name="ORBITALMAG"> F  </i>
   <i type="logical" name="LMAGBLOCH"> F  </i>
   <i type="logical" name="LCHIMAG"> F  </i>
   <i type="logical" name="LGAUGE"> T  </i>
   <i type="int" name="MAGATOM">     0</i>
   <v name="MAGDIPOL">      0.00000000      0.00000000      0.00000000</v>
   <v name="AVECCONST">      0.00000000      0.00000000      0.00000000</v>
  </separator>
  <separator name="response functions" >
   <i type="logical" name="LALL_IN_ONE"> F  </i>
   <i type="int" name="IALL_IN_ONE">    -1</i>
   <i type="int" name="NBANDS_WAVE">    -1</i>
   <i type="logical" name="LFINITE_TEMPERATURE"> F  </i>
   <i type="logical" name="LADDER"> F  </i>
   <i type="logical" name="LRPAFORCE"> F  </i>
   <i type="logical" name="LFXC"> F  </i>
   <i type="logical" name="LHARTREE"> T  </i>
   <i type="int" name="IBSE">     0</i>
   <v type="int" name="KPOINT">    -1     0     0     0</v>
   <i type="logical" name="LTCTC"> F  </i>
   <i type="logical" name="LTCTE"> F  </i>
   <i type="logical" name="LTETE"> F  </i>
   <i type="logical" name="LTRIPLET"> F  </i>
   <i type="logical" name="LFXCEPS"> F  </i>
   <i type="logical" name="LFXHEG"> F  </i>
   <i type="int" name="NATURALO">     2</i>
   <i type="logical" name="LHOLEGF"> F  </i>
   <i type="logical" name="L2ORDER"> F  </i>
   <i type="logical" name="LDMP1"> F  </i>
   <i type="logical" name="LMP2LT"> F  </i>
   <i type="logical" name="LSMP2LT"> F  </i>
   <i type="logical" name="LGWLF"> F  </i>
   <i name="ENCUTGW">     -1.60000002</i>
   <i name="ENCUTGWSOFT">     -1.60000002</i>
   <i name="ENCUTLF">     -1.00000000</i>
   <i type="logical" name="LESF_SPLINES"> F  </i>
   <i type="int" name="LMAXMP2">    -1</i>
   <i name="SCISSOR">      0.00000000</i>
   <i type="int" name="NOMEGA">     0</i>
   <i type="int" name="NOMEGAR">     0</i>
   <i type="int" name="NBANDSGW">    -1</i>
   <i type="int" name="NBANDSO">    -1</i>
   <i type="int" name="NBANDSV">    -1</i>
   <i type="int" name="NELMGW">     1</i>
   <i type="int" name="NELMHF">     1</i>
   <i type="int" name="DIM">     3</i>
   <i type="int" name="IESPILON">     4</i>
   <i type="int" name="ANTIRES">     0</i>
   <i name="OMEGAMAX">    -30.00000000</i>
   <i name="OMEGAMIN">    -30.00000000</i>
   <i name="OMEGATL">   -200.00000000</i>
   <i type="int" name="OMEGAGRID">     0</i>
   <i name="CSHIFT">     -0.10000000</i>
   <i type="logical" name="LSELFENERGY"> F  </i>
   <i type="logical" name="LSPECTRAL"> F  </i>
   <i type="logical" name="LSPECTRALGW"> F  </i>
   <i type="logical" name="LSINGLES"> F  </i>
   <i type="logical" name="LFERMIGW"> F  </i>
   <i type="logical" name="ODDONLYGW"> F  </i>
   <i type="logical" name="EVENONLYGW"> F  </i>
   <i type="int" name="NKREDLFX">     1</i>
   <i type="int" name="NKREDLFY">     1</i>
   <i type="int" name="NKREDLFZ">     1</i>
   <i type="int" name="MAXMEM">  2800</i>
   <i type="int" name="TELESCOPE">     0</i>
   <i type="int" name="NTAUPAR">    -1</i>
   <i type="int" name="NOMEGAPAR">    -1</i>
   <i name="DAMP_NEWTON">      0.80000001</i>
   <i name="LAMBDA">      1.00000000</i>
  </separator>
  <separator name="External order field" >
   <i name="OFIELD_KAPPA">      0.00000000</i>
   <v name="OFIELD_K">      0.00000000      0.00000000      0.00000000</v>
   <i name="OFIELD_Q6_NEAR">      0.00000000</i>
   <i name="OFIELD_Q6_FAR">      0.00000000</i>
   <i name="OFIELD_A">      0.00000000</i>
  </separator>
  <separator name="optional k-points parameters" >
   <i type="int" name="KPOINTS_OPT_MODE">     1</i>
   <i type="logical" name="LKPOINTS_OPT"> F  </i>
  </separator>
 </parameters>
 <atominfo>
  <atoms>     119 </atoms>
  <types>       3 </types>
  <array name="atoms" >
   <dimension dim="1">ion</dimension>
   <field type="string">element</field>
   <field type="int">atomtype</field>
   <set>
    <rc><c>Ga</c><c>   1</c></rc>
    <rc><c>Ga</c><c>   1</c></rc>
    <rc><c>Ga</c><c>   1</c></rc>
    <rc><c>Ga</c><c>   1</c></rc>
    <rc><c>Ga</c><c>   1</c></rc>
    <rc><c>Ga</c><c>   1</c></rc>
    <rc><c>Ga</c><c>   1</c></rc>
    <rc><c>Ga</c><c>   1</c></rc>
    <rc><c>Ga</c><c>   1</c></rc>
    <rc><c>Ga</c><c>   1</c></rc>
    <rc><c>Ga</c><c>   1</c></rc>
    <rc><c>Ga</c><c>   1</c></rc>
    <rc><c>Ga</c><c>   1</c></rc>
    <rc><c>Ga</c><c>   1</c></rc>
    <rc><c>Ga</c><c>   1</c></rc>
    <rc><c>Ga</c><c>   1</c></rc>
    <rc><c>Ga</c><c>   1</c></rc>
    <rc><c>Ga</c><c>   1</c></rc>
    <rc><c>Ga</c><c>   1</c></rc>
    <rc><c>Ga</c><c>   1</c></rc>
    <rc><c>Ga</c><c>   1</c></rc>
    <rc><c>Ga</c><c>   1</c></rc>
    <rc><c>Ga</c><c>   1</c></rc>
    <rc><c>Ga</c><c>   1</c></rc>
    <rc><c>Ga</c><c>   1</c></rc>
    <rc><c>Ga</c><c>   1</c></rc>
    <rc><c>Ga</c><c>   1</c></rc>
    <rc><c>Ga</c><c>   1</c></rc>
    <rc><c>Ga</c><c>   1</c></rc>
    <rc><c>Ga</c><c>   1</c></rc>
    <rc><c>Ga</c><c>   1</c></rc>
    <rc><c>Ga</c><c>   1</c></rc>
    <rc><c>Ga</c><c>   1</c></rc>
    <rc><c>Ga</c><c>   1</c></rc>
    <rc><c>Ga</c><c>   1</c></rc>
    <rc><c>Ga</c><c>   1</c></rc>
    <rc><c>Ga</c><c>   1</c></rc>
    <rc><c>Ga</c><c>   1</c></rc>
    <rc><c>Ga</c><c>   1</c></rc>
    <rc><c>Ga</c><c>   1</c></rc>
    <rc><c>Ga</c><c>   1</c></rc>
    <rc><c>Ga</c><c>   1</c></rc>
    <rc><c>Ga</c><c>   1</c></rc>
    <rc><c>Ga</c><c>   1</c></rc>
    <rc><c>Ga</c><c>   1</c></rc>
    <rc><c>Ga</c><c>   1</c></rc>
    <rc><c>Ga</c><c>   1</c></rc>
    <rc><c>O </c><c>   2</c></rc>
    <rc><c>O </c><c>   2</c></rc>
    <rc><c>O </c><c>   2</c></rc>
    <rc><c>O </c><c>   2</c></rc>
    <rc><c>O </c><c>   2</c></rc>
    <rc><c>O </c><c>   2</c></rc>
    <rc><c>O </c><c>   2</c></rc>
    <rc><c>O </c><c>   2</c></rc>
    <rc><c>O </c><c>   2</c></rc>
    <rc><c>O </c><c>   2</c></rc>
    <rc><c>O </c><c>   2</c></rc>
    <rc><c>O </c><c>   2</c></rc>
    <rc><c>O </c><c>   2</c></rc>
    <rc><c>O </c><c>   2</c></rc>
    <rc><c>O </c><c>   2</c></rc>
    <rc><c>O </c><c>   2</c></rc>
    <rc><c>O </c><c>   2</c></rc>
    <rc><c>O </c><c>   2</c></rc>
    <rc><c>O </c><c>   2</c></rc>
    <rc><c>O </c><c>   2</c></rc>
    <rc><c>O </c><c>   2</c></rc>
    <rc><c>O </c><c>   2</c></rc>
    <rc><c>O </c><c>   2</c></rc>
    <rc><c>O </c><c>   2</c></rc>
    <rc><c>O </c><c>   2</c></rc>
    <rc><c>O </c><c>   2</c></rc>
    <rc><c>O </c><c>   2</c></rc>
    <rc><c>O </c><c>   2</c></rc>
    <rc><c>O </c><c>   2</c></rc>
    <rc><c>O </c><c>   2</c></rc>
    <rc><c>O </c><c>   2</c></rc>
    <rc><c>O </c><c>   2</c></rc>
    <rc><c>O </c><c>   2</c></rc>
    <rc><c>O </c><c>   2</c></rc>
    <rc><c>O </c><c>   2</c></rc>
    <rc><c>O </c><c>   2</c></rc>
    <rc><c>O </c><c>   2</c></rc>
    <rc><c>O </c><c>   2</c></rc>
    <rc><c>O </c><c>   2</c></rc>
    <rc><c>O </c><c>   2</c></rc>
    <rc><c>O </c><c>   2</c></rc>
    <rc><c>O </c><c>   2</c></rc>
    <rc><c>O </c><c>   2</c></rc>
    <rc><c>O </c><c>   2</c></rc>
    <rc><c>O </c><c>   2</c></rc>
    <rc><c>O </c><c>   2</c></rc>
    <rc><c>O </c><c>   2</c></rc>
    <rc><c>O </c><c>   2</c></rc>
    <rc><c>O </c><c>   2</c></rc>
    <rc><c>O </c><c>   2</c></rc>
    <rc><c>O </c><c>   2</c></rc>
    <rc><c>O </c><c>   2</c></rc>
    <rc><c>O </c><c>   2</c></rc>
    <rc><c>O </c><c>   2</c></rc>
    <rc><c>O </c><c>   2</c></rc>
    <rc><c>O </c><c>   2</c></rc>
    <rc><c>O </c><c>   2</c></rc>
    <rc><c>O </c><c>   2</c></rc>
    <rc><c>O </c><c>   2</c></rc>
    <rc><c>O </c><c>   2</c></rc>
    <rc><c>O </c><c>   2</c></rc>
    <rc><c>O </c><c>   2</c></rc>
    <rc><c>O </c><c>   2</c></rc>
    <rc><c>O </c><c>   2</c></rc>
    <rc><c>O </c><c>   2</c></rc>
    <rc><c>O </c><c>   2</c></rc>
    <rc><c>O </c><c>   2</c></rc>
    <rc><c>O </c><c>   2</c></rc>
    <rc><c>O </c><c>   2</c></rc>
    <rc><c>O </c><c>   2</c></rc>
    <rc><c>O </c><c>   2</c></rc>
    <rc><c>P </c><c>   3</c></rc>
   </set>
  </array>
  <array name="atomtypes" >
   <dimension dim="1">type</dimension>
   <field type="int">atomspertype</field>
   <field type="string">element</field>
   <field>mass</field>
   <field>valence</field>
   <field type="string">pseudopotential</field>
   <set>
    <rc><c>  47</c><c>Ga</c><c>     69.72300000</c><c>     13.00000000</c><c>  PAW_PBE Ga_d 06Jul2010                </c></rc>
    <rc><c>  71</c><c>O </c><c>     16.00000000</c><c>      6.00000000</c><c>   PAW_PBE O 08Apr2002                  </c></rc>
    <rc><c>   1</c><c>P </c><c>     30.97400000</c><c>      5.00000000</c><c>  PAW_PBE P 06Sep2000                   </c></rc>
   </set>
  </array>
 </atominfo>
 <structure name="initialpos" >
  <crystal>
   <varray name="basis" >
    <v>       0.00000000      12.28047342       0.00000000 </v>
    <v>       9.14270205       0.00000000       0.00000000 </v>
    <v>       0.00000000      -2.76826177     -11.30069772 </v>
   </varray>
   <i name="volume">   1268.80515525 </i>
   <varray name="rec_basis" >
    <v>       0.00000000       0.08143009      -0.01994742 </v>
    <v>       0.10937686      -0.00000000       0.00000000 </v>
    <v>       0.00000000       0.00000000      -0.08849011 </v>
   </varray>
  </crystal>
  <varray name="positions" >
   <v>       0.65682255       0.00000000       0.15587234 </v>
   <v>       0.66050280       0.00000000       0.65696829 </v>
   <v>       0.65856673       0.33305875       0.15785831 </v>
   <v>       0.66064973       0.33346769       0.65673483 </v>
   <v>       0.65856673       0.66694125       0.15785831 </v>
   <v>       0.66064973       0.66653231       0.65673483 </v>
   <v>       0.83857518       0.16357439       0.34178553 </v>
   <v>       0.84118771       0.16642315       0.84405648 </v>
   <v>       0.84363971       0.50000000       0.34323002 </v>
   <v>       0.84056778       0.50000000       0.84346049 </v>
   <v>       0.83857518       0.83642561       0.34178553 </v>
   <v>       0.84118771       0.83357685       0.84405648 </v>
   <v>       0.59089909       0.16710913       0.39867719 </v>
   <v>       0.59296747       0.16677628       0.89832987 </v>
   <v>       0.59063110       0.50000000       0.39811751 </v>
   <v>       0.59289749       0.50000000       0.89878614 </v>
   <v>       0.59089909       0.83289087       0.39867719 </v>
   <v>       0.59296747       0.83322372       0.89832987 </v>
   <v>       0.90965338       0.00000000       0.10318880 </v>
   <v>       0.90831525       0.00000000       0.60281283 </v>
   <v>       0.90795363       0.33389951       0.10145927 </v>
   <v>       0.91072572       0.33300183       0.60399302 </v>
   <v>       0.90795363       0.66610049       0.10145927 </v>
   <v>       0.91072572       0.66699817       0.60399302 </v>
   <v>       0.15732697       0.17071049       0.15626192 </v>
   <v>       0.15910536       0.17514756       0.66802125 </v>
   <v>       0.15859865       0.50000000       0.15846921 </v>
   <v>       0.16051428       0.50000000       0.65742403 </v>
   <v>       0.15732697       0.82928951       0.15626192 </v>
   <v>       0.15910536       0.82485244       0.66802125 </v>
   <v>       0.34274499       0.00000000       0.34658800 </v>
   <v>       0.34360687       0.00000000       0.84428083 </v>
   <v>       0.34020072       0.33340396       0.34591442 </v>
   <v>       0.34332032       0.33452603       0.84730070 </v>
   <v>       0.34020072       0.66659604       0.34591442 </v>
   <v>       0.34332032       0.66547397       0.84730070 </v>
   <v>       0.09236830       0.00000000       0.90062018 </v>
   <v>       0.09246348       0.32916263       0.39974992 </v>
   <v>       0.09055110       0.33419847       0.90021988 </v>
   <v>       0.09246348       0.67083737       0.39974992 </v>
   <v>       0.09055110       0.66580153       0.90021988 </v>
   <v>       0.40661365       0.16633237       0.10409236 </v>
   <v>       0.41117529       0.16702533       0.60363976 </v>
   <v>       0.40867671       0.50000000       0.10569121 </v>
   <v>       0.40979577       0.50000000       0.60395864 </v>
   <v>       0.40661365       0.83366763       0.10409236 </v>
   <v>       0.41117529       0.83297467       0.60363976 </v>
   <v>       0.99625178       0.16765596       0.12890124 </v>
   <v>       0.99886083       0.16440332       0.62361770 </v>
   <v>       0.99628722       0.50000000       0.12697919 </v>
   <v>       0.99841970       0.50000000       0.62876964 </v>
   <v>       0.99625178       0.83234404       0.12890124 </v>
   <v>       0.99886083       0.83559668       0.62361770 </v>
   <v>       0.50380630       0.00000000       0.37413086 </v>
   <v>       0.50501002       0.00000000       0.87366029 </v>
   <v>       0.50236970       0.33328543       0.37378490 </v>
   <v>       0.50458276       0.33316467       0.87354082 </v>
   <v>       0.50236970       0.66671457       0.37378490 </v>
   <v>       0.50458276       0.66683533       0.87354082 </v>
   <v>       0.67181070       0.16678144       0.28084974 </v>
   <v>       0.67330681       0.16652490       0.78030457 </v>
   <v>       0.67486049       0.50000000       0.28258327 </v>
   <v>       0.67297849       0.50000000       0.78003508 </v>
   <v>       0.67181070       0.83321856       0.28084974 </v>
   <v>       0.67330681       0.83347510       0.78030457 </v>
   <v>       0.82774055       0.00000000       0.22058764 </v>
   <v>       0.82882803       0.00000000       0.72067600 </v>
   <v>       0.83036187       0.33032547       0.22186319 </v>
   <v>       0.82910766       0.33275673       0.72033710 </v>
   <v>       0.83036187       0.66967453       0.22186319 </v>
   <v>       0.82910766       0.66724327       0.72033710 </v>
   <v>       0.83242823       0.00000000       0.44564958 </v>
   <v>       0.83277644       0.00000000       0.94683403 </v>
   <v>       0.84200941       0.32981784       0.44484316 </v>
   <v>       0.83082374       0.33322324       0.94560336 </v>
   <v>       0.84200941       0.67018216       0.44484316 </v>
   <v>       0.83082374       0.66677676       0.94560336 </v>
   <v>       0.66858889       0.16680346       0.05550678 </v>
   <v>       0.67016371       0.16696648       0.55435098 </v>
   <v>       0.66902181       0.50000000       0.05639708 </v>
   <v>       0.67123951       0.50000000       0.55373749 </v>
   <v>       0.66858889       0.83319654       0.05550678 </v>
   <v>       0.67016371       0.83303352       0.55435098 </v>
   <v>       0.49471903       0.00000000       0.12845182 </v>
   <v>       0.49806223       0.00000000       0.62754328 </v>
   <v>       0.49541979       0.33237565       0.12941657 </v>
   <v>       0.49777716       0.33375776       0.62752798 </v>
   <v>       0.49541979       0.66762435       0.12941657 </v>
   <v>       0.49777716       0.66624224       0.62752798 </v>
   <v>       0.01666230       0.14090449       0.37442049 </v>
   <v>       0.00449403       0.16658938       0.87288174 </v>
   <v>       0.00717754       0.50000000       0.37358883 </v>
   <v>       0.00300238       0.50000000       0.87407192 </v>
   <v>       0.01666230       0.85909551       0.37442049 </v>
   <v>       0.00449403       0.83341062       0.87288174 </v>
   <v>       0.16211394       0.00000000       0.29371646 </v>
   <v>       0.17094122       0.00000000       0.77625034 </v>
   <v>       0.17103033       0.33165344       0.28116755 </v>
   <v>       0.17366092       0.33581644       0.78386097 </v>
   <v>       0.17103033       0.66834656       0.28116755 </v>
   <v>       0.17366092       0.66418356       0.78386097 </v>
   <v>       0.32384630       0.16282172       0.22215234 </v>
   <v>       0.32577062       0.16312310       0.71781965 </v>
   <v>       0.32637267       0.50000000       0.22251331 </v>
   <v>       0.32782949       0.50000000       0.72112779 </v>
   <v>       0.32384630       0.83717828       0.22215234 </v>
   <v>       0.32577062       0.83687690       0.71781965 </v>
   <v>       0.33065452       0.16552614       0.44796600 </v>
   <v>       0.33069427       0.16577033       0.94602960 </v>
   <v>       0.32950112       0.50000000       0.44801665 </v>
   <v>       0.33306910       0.50000000       0.94844429 </v>
   <v>       0.33065452       0.83447386       0.44796600 </v>
   <v>       0.33069427       0.83422967       0.94602960 </v>
   <v>       0.16593165       0.00000000       0.06004126 </v>
   <v>       0.16987046       0.33466272       0.05559861 </v>
   <v>       0.16756820       0.33009195       0.55606107 </v>
   <v>       0.16987046       0.66533728       0.05559861 </v>
   <v>       0.16756820       0.66990805       0.55606107 </v>
   <v>       0.10213498       0.00000000       0.40633080 </v>
  </varray>
 </structure>
 <calculation>
  <scstep>
   <time name="total">    3.85    3.85</time>
   <energy>
    <i name="alphaZ">   5376.25786726 </i>
    <i name="ewald"> -86550.04632402 </i>
    <i name="hartreedc">  -2080.70350135 </i>
    <i name="XCdc">   2751.55950831 </i>
    <i name="pawpsdc"> 332246.28878934 </i>
    <i name="pawaedc">-360994.36138985 </i>
    <i name="eentropy">     -0.01207590 </i>
    <i name="bandstr"> -40716.62145321 </i>
    <i name="atom"> 131500.23896116 </i>
    <i name="e_fr_energy"> -18467.39961826 </i>
    <i name="e_wo_entrp"> -18467.38754236 </i>
    <i name="e_0_energy"> -18467.39358031 </i>
   </energy>
  </scstep>
  <scstep>
   <time name="total">    3.07    3.07</time>
   <energy>
    <i name="e_fr_energy"> -62724.01492360 </i>
    <i name="e_wo_entrp"> -62723.99490277 </i>
    <i name="e_0_energy"> -62724.00491318 </i>
   </energy>
  </scstep>
  <scstep>
   <time name="total">    3.24    3.24</time>
   <energy>
    <i name="e_fr_energy"> -67697.04109903 </i>
    <i name="e_wo_entrp"> -67697.01276125 </i>
    <i name="e_0_energy"> -67697.02693014 </i>
   </energy>
  </scstep>
  <scstep>
   <time name="total">    3.84    3.84</time>
   <energy>
    <i name="e_fr_energy"> -68441.44209770 </i>
    <i name="e_wo_entrp"> -68441.41490581 </i>
    <i name="e_0_energy"> -68441.42850176 </i>
   </energy>
  </scstep>
  <scstep>
   <time name="total">  230.83  230.82</time>
   <energy>
    <i name="e_fr_energy"> -38879.14366228 </i>
    <i name="e_wo_entrp"> -38879.13811902 </i>
    <i name="e_0_energy"> -38879.14089065 </i>
   </energy>
  </scstep>
  <scstep>
   <time name="total">  459.33  459.35</time>
   <energy>
    <i name="e_fr_energy">  29551.61317419 </i>
    <i name="e_wo_entrp">  29551.63697506 </i>
    <i name="e_0_energy">  29551.62507462 </i>
   </energy>
  </scstep>
  <scstep>
   <time name="total">  460.12  460.11</time>
   <energy>
    <i name="e_fr_energy">  10359.63968715 </i>
    <i name="e_wo_entrp">  10359.67382672 </i>
    <i name="e_0_energy">  10359.65675693 </i>
   </energy>
  </scstep>
  <scstep>
   <time name="total">  459.66  459.65</time>
   <energy>
    <i name="e_fr_energy">   4930.76627343 </i>
    <i name="e_wo_entrp">   4930.80292618 </i>
    <i name="e_0_energy">   4930.78459980 </i>
   </energy>
  </scstep>
  <scstep>
   <time name="total">  459.83  459.84</time>
   <energy>
    <i name="e_fr_energy">   3469.66168007 </i>
    <i name="e_wo_entrp">   3469.68897457 </i>
    <i name="e_0_energy">   3469.67532732 </i>
   </energy>
  </scstep>
  <scstep>
   <time name="total">  460.38  460.36</time>
   <energy>
    <i name="e_fr_energy">   1647.05626085 </i>
    <i name="e_wo_entrp">   1647.07878579 </i>
    <i name="e_0_energy">   1647.06752332 </i>
   </energy>
  </scstep>
  <scstep>
   <time name="total">  459.80  459.81</time>
   <energy>
    <i name="e_fr_energy">    523.48265883 </i>
    <i name="e_wo_entrp">    523.48867953 </i>
    <i name="e_0_energy">    523.48566918 </i>
   </energy>
  </scstep>
  <scstep>
   <time name="total">  459.41  459.41</time>
   <energy>
    <i name="e_fr_energy">   -133.81977057 </i>
    <i name="e_wo_entrp">   -133.81671265 </i>
    <i name="e_0_energy">   -133.81824161 </i>
   </energy>
  </scstep>
  <scstep>
   <time name="total">  459.40  459.43</time>
   <energy>
    <i name="e_fr_energy">   -569.94535568 </i>
    <i name="e_wo_entrp">   -569.94375672 </i>
    <i name="e_0_energy">   -569.94455620 </i>
   </energy>
  </scstep>
  <scstep>
   <time name="total">  458.93  458.96</time>
   <energy>
    <i name="e_fr_energy">   -773.74373013 </i>
    <i name="e_wo_entrp">   -773.73663782 </i>
    <i name="e_0_energy">   -773.74018398 </i>
   </energy>
  </scstep>
  <scstep>
   <time name="total">  459.10  459.12</time>
   <energy>
    <i name="e_fr_energy">   -861.59470839 </i>
    <i name="e_wo_entrp">   -861.59175530 </i>
    <i name="e_0_energy">   -861.59323184 </i>
   </energy>
  </scstep>
  <scstep>
   <time name="total">  459.39  459.43</time>
   <energy>
    <i name="e_fr_energy">   -901.84534228 </i>
    <i name="e_wo_entrp">   -901.84277206 </i>
    <i name="e_0_energy">   -901.84405717 </i>
   </energy>
  </scstep>
  <scstep>
   <time name="total">  459.20  459.20</time>
   <energy>
    <i name="e_fr_energy">   -922.72657445 </i>
    <i name="e_wo_entrp">   -922.72354673 </i>
    <i name="e_0_energy">   -922.72506059 </i>
   </energy>
  </scstep>
  <scstep>
   <time name="total">  459.00  459.01</time>
   <energy>
    <i name="e_fr_energy">   -933.73924777 </i>
    <i name="e_wo_entrp">   -933.72942096 </i>
    <i name="e_0_energy">   -933.73433436 </i>
   </energy>
  </scstep>
  <scstep>
   <time name="total">  458.68  458.71</time>
   <energy>
    <i name="e_fr_energy">   -939.69373620 </i>
    <i name="e_wo_entrp">   -939.68258857 </i>
    <i name="e_0_energy">   -939.68816239 </i>
   </energy>
  </scstep>
  <scstep>
   <time name="total">  459.15  459.13</time>
   <energy>
    <i name="e_fr_energy">   -942.78856787 </i>
    <i name="e_wo_entrp">   -942.77771530 </i>
    <i name="e_0_energy">   -942.78314158 </i>
   </energy>
  </scstep>
  <scstep>
   <time name="total">  459.17  459.17</time>
   <energy>
    <i name="e_fr_energy">   -944.34523755 </i>
    <i name="e_wo_entrp">   -944.33429631 </i>
    <i name="e_0_energy">   -944.33976693 </i>
   </energy>
  </scstep>
  <scstep>
   <time name="total">  458.90  458.89</time>
   <energy>
    <i name="e_fr_energy">   -945.07290093 </i>
    <i name="e_wo_entrp">   -945.06185129 </i>
    <i name="e_0_energy">   -945.06737611 </i>
   </energy>
  </scstep>
  <scstep>
   <time name="total">  458.91  458.94</time>
   <energy>
    <i name="e_fr_energy">   -945.44909003 </i>
    <i name="e_wo_entrp">   -945.43791116 </i>
    <i name="e_0_energy">   -945.44350059 </i>
   </energy>
  </scstep>
  <scstep>
   <time name="total">  459.07  459.09</time>
   <energy>
    <i name="e_fr_energy">   -945.62206748 </i>
    <i name="e_wo_entrp">   -945.61076827 </i>
    <i name="e_0_energy">   -945.61641787 </i>
   </energy>
  </scstep>
  <scstep>
   <time name="total">  459.02  459.03</time>
   <energy>
    <i name="e_fr_energy">   -945.71759786 </i>
    <i name="e_wo_entrp">   -945.70615735 </i>
    <i name="e_0_energy">   -945.71187761 </i>
   </energy>
  </scstep>
  <scstep>
   <time name="total">  458.83  458.82</time>
   <energy>
    <i name="e_fr_energy">   -945.77079949 </i>
    <i name="e_wo_entrp">   -945.75925962 </i>
    <i name="e_0_energy">   -945.76502956 </i>
   </energy>
  </scstep>
  <scstep>
   <time name="total">  458.68  458.67</time>
   <energy>
    <i name="e_fr_energy">   -945.79763278 </i>
    <i name="e_wo_entrp">   -945.78610106 </i>
    <i name="e_0_energy">   -945.79186692 </i>
   </energy>
  </scstep>
  <scstep>
   <time name="total">  458.82  458.85</time>
   <energy>
    <i name="e_fr_energy">   -945.81193765 </i>
    <i name="e_wo_entrp">   -945.80045570 </i>
    <i name="e_0_energy">   -945.80619667 </i>
   </energy>
  </scstep>
  <scstep>
   <time name="total">  458.83  458.81</time>
   <energy>
    <i name="e_fr_energy">   -945.81844590 </i>
    <i name="e_wo_entrp">   -945.80699725 </i>
    <i name="e_0_energy">   -945.81272158 </i>
   </energy>
  </scstep>
  <scstep>
   <time name="total">  459.09  459.07</time>
   <energy>
    <i name="e_fr_energy">   -945.82194976 </i>
    <i name="e_wo_entrp">   -945.81053568 </i>
    <i name="e_0_energy">   -945.81624272 </i>
   </energy>
  </scstep>
  <scstep>
   <time name="total">  458.91  458.89</time>
   <energy>
    <i name="e_fr_energy">   -945.82382089 </i>
    <i name="e_wo_entrp">   -945.81245941 </i>
    <i name="e_0_energy">   -945.81814015 </i>
   </energy>
  </scstep>
  <scstep>
   <time name="total">  458.73  458.70</time>
   <energy>
    <i name="e_fr_energy">   -945.82488860 </i>
    <i name="e_wo_entrp">   -945.81355851 </i>
    <i name="e_0_energy">   -945.81922356 </i>
   </energy>
  </scstep>
  <scstep>
   <time name="total">  459.03  459.06</time>
   <energy>
    <i name="e_fr_energy">   -945.82545891 </i>
    <i name="e_wo_entrp">   -945.81413140 </i>
    <i name="e_0_energy">   -945.81979515 </i>
   </energy>
  </scstep>
  <scstep>
   <time name="total">  458.94  458.91</time>
   <energy>
    <i name="e_fr_energy">   -945.82573482 </i>
    <i name="e_wo_entrp">   -945.81440451 </i>
    <i name="e_0_energy">   -945.82006966 </i>
   </energy>
  </scstep>
  <scstep>
   <time name="total">  459.03  459.02</time>
   <energy>
    <i name="e_fr_energy">   -945.82587811 </i>
    <i name="e_wo_entrp">   -945.81454639 </i>
    <i name="e_0_energy">   -945.82021225 </i>
   </energy>
  </scstep>
  <scstep>
   <time name="total">  458.92  458.92</time>
   <energy>
    <i name="e_fr_energy">   -945.82595381 </i>
    <i name="e_wo_entrp">   -945.81461560 </i>
    <i name="e_0_energy">   -945.82028470 </i>
   </energy>
  </scstep>
  <scstep>
   <time name="total">  459.29  459.26</time>
   <energy>
    <i name="e_fr_energy">   -945.82599790 </i>
    <i name="e_wo_entrp">   -945.81465233 </i>
    <i name="e_0_energy">   -945.82032512 </i>
   </energy>
  </scstep>
  <scstep>
   <time name="total">  458.97  458.96</time>
   <energy>
    <i name="e_fr_energy">   -945.82603144 </i>
    <i name="e_wo_entrp">   -945.81468468 </i>
    <i name="e_0_energy">   -945.82035806 </i>
   </energy>
  </scstep>
  <scstep>
   <time name="total">  459.16  459.15</time>
   <energy>
    <i name="e_fr_energy">   -945.82604350 </i>
    <i name="e_wo_entrp">   -945.81469452 </i>
    <i name="e_0_energy">   -945.82036901 </i>
   </energy>
  </scstep>
  <scstep>
   <time name="total">  684.80  684.80</time>
   <energy>
    <i name="alphaZ">   5376.25786726 </i>
    <i name="ewald"> -86550.04632402 </i>
    <i name="hartreedc"> -33992.84557044 </i>
    <i name="XCdc">   2869.48003001 </i>
    <i name="pawpsdc"> 120432.52822281 </i>
    <i name="pawaedc">-135668.71879108 </i>
    <i name="eentropy">     -0.01135136 </i>
    <i name="bandstr">  -8746.35618521 </i>
    <i name="atom"> 131500.23896116 </i>
    <i name="e_fr_energy">   -945.82604738 </i>
    <i name="e_wo_entrp">   -945.81469603 </i>
    <i name="e_0_energy">   -945.82037170 </i>
   </energy>
  </scstep>
  <structure>
   <crystal>
    <varray name="basis" >
     <v>       0.00000000      12.28047342       0.00000000 </v>
     <v>       9.14270205       0.00000000       0.00000000 </v>
     <v>       0.00000000      -2.76826177     -11.30069772 </v>
    </varray>
    <i name="volume">   1268.80515525 </i>
    <varray name="rec_basis" >
     <v>       0.00000000       0.08143009      -0.01994742 </v>
     <v>       0.10937686      -0.00000000       0.00000000 </v>
     <v>       0.00000000       0.00000000      -0.08849011 </v>
    </varray>
   </crystal>
   <varray name="positions" >
    <v>       0.65682255       0.00000000       0.15587234 </v>
    <v>       0.66050280       0.00000000       0.65696829 </v>
    <v>       0.65856673       0.33305875       0.15785831 </v>
    <v>       0.66064973       0.33346769       0.65673483 </v>
    <v>       0.65856673       0.66694125       0.15785831 </v>
    <v>       0.66064973       0.66653231       0.65673483 </v>
    <v>       0.83857518       0.16357439       0.34178553 </v>
    <v>       0.84118771       0.16642315       0.84405648 </v>
    <v>       0.84363971       0.50000000       0.34323002 </v>
    <v>       0.84056778       0.50000000       0.84346049 </v>
    <v>       0.83857518       0.83642561       0.34178553 </v>
    <v>       0.84118771       0.83357685       0.84405648 </v>
    <v>       0.59089909       0.16710913       0.39867719 </v>
    <v>       0.59296747       0.16677628       0.89832987 </v>
    <v>       0.59063110       0.50000000       0.39811751 </v>
    <v>       0.59289749       0.50000000       0.89878614 </v>
    <v>       0.59089909       0.83289087       0.39867719 </v>
    <v>       0.59296747       0.83322372       0.89832987 </v>
    <v>       0.90965338       0.00000000       0.10318880 </v>
    <v>       0.90831525       0.00000000       0.60281283 </v>
    <v>       0.90795363       0.33389951       0.10145927 </v>
    <v>       0.91072572       0.33300183       0.60399302 </v>
    <v>       0.90795363       0.66610049       0.10145927 </v>
    <v>       0.91072572       0.66699817       0.60399302 </v>
    <v>       0.15732697       0.17071049       0.15626192 </v>
    <v>       0.15910536       0.17514756       0.66802125 </v>
    <v>       0.15859865       0.50000000       0.15846921 </v>
    <v>       0.16051428       0.50000000       0.65742403 </v>
    <v>       0.15732697       0.82928951       0.15626192 </v>
    <v>       0.15910536       0.82485244       0.66802125 </v>
    <v>       0.34274499       0.00000000       0.34658800 </v>
    <v>       0.34360687       0.00000000       0.84428083 </v>
    <v>       0.34020072       0.33340396       0.34591442 </v>
    <v>       0.34332032       0.33452603       0.84730070 </v>
    <v>       0.34020072       0.66659604       0.34591442 </v>
    <v>       0.34332032       0.66547397       0.84730070 </v>
    <v>       0.09236830       0.00000000       0.90062018 </v>
    <v>       0.09246348       0.32916263       0.39974992 </v>
    <v>       0.09055110       0.33419847       0.90021988 </v>
    <v>       0.09246348       0.67083737       0.39974992 </v>
    <v>       0.09055110       0.66580153       0.90021988 </v>
    <v>       0.40661365       0.16633237       0.10409236 </v>
    <v>       0.41117529       0.16702533       0.60363976 </v>
    <v>       0.40867671       0.50000000       0.10569121 </v>
    <v>       0.40979577       0.50000000       0.60395864 </v>
    <v>       0.40661365       0.83366763       0.10409236 </v>
    <v>       0.41117529       0.83297467       0.60363976 </v>
    <v>       0.99625178       0.16765596       0.12890124 </v>
    <v>       0.99886083       0.16440332       0.62361770 </v>
    <v>       0.99628722       0.50000000       0.12697919 </v>
    <v>       0.99841970       0.50000000       0.62876964 </v>
    <v>       0.99625178       0.83234404       0.12890124 </v>
    <v>       0.99886083       0.83559668       0.62361770 </v>
    <v>       0.50380630       0.00000000       0.37413086 </v>
    <v>       0.50501002       0.00000000       0.87366029 </v>
    <v>       0.50236970       0.33328543       0.37378490 </v>
    <v>       0.50458276       0.33316467       0.87354082 </v>
    <v>       0.50236970       0.66671457       0.37378490 </v>
    <v>       0.50458276       0.66683533       0.87354082 </v>
    <v>       0.67181070       0.16678144       0.28084974 </v>
    <v>       0.67330681       0.16652490       0.78030457 </v>
    <v>       0.67486049       0.50000000       0.28258327 </v>
    <v>       0.67297849       0.50000000       0.78003508 </v>
    <v>       0.67181070       0.83321856       0.28084974 </v>
    <v>       0.67330681       0.83347510       0.78030457 </v>
    <v>       0.82774055       0.00000000       0.22058764 </v>
    <v>       0.82882803       0.00000000       0.72067600 </v>
    <v>       0.83036187       0.33032547       0.22186319 </v>
    <v>       0.82910766       0.33275673       0.72033710 </v>
    <v>       0.83036187       0.66967453       0.22186319 </v>
    <v>       0.82910766       0.66724327       0.72033710 </v>
    <v>       0.83242823       0.00000000       0.44564958 </v>
    <v>       0.83277644       0.00000000       0.94683403 </v>
    <v>       0.84200941       0.32981784       0.44484316 </v>
    <v>       0.83082374       0.33322324       0.94560336 </v>
    <v>       0.84200941       0.67018216       0.44484316 </v>
    <v>       0.83082374       0.66677676       0.94560336 </v>
    <v>       0.66858889       0.16680346       0.05550678 </v>
    <v>       0.67016371       0.16696648       0.55435098 </v>
    <v>       0.66902181       0.50000000       0.05639708 </v>
    <v>       0.67123951       0.50000000       0.55373749 </v>
    <v>       0.66858889       0.83319654       0.05550678 </v>
    <v>       0.67016371       0.83303352       0.55435098 </v>
    <v>       0.49471903       0.00000000       0.12845182 </v>
    <v>       0.49806223       0.00000000       0.62754328 </v>
    <v>       0.49541979       0.33237565       0.12941657 </v>
    <v>       0.49777716       0.33375776       0.62752798 </v>
    <v>       0.49541979       0.66762435       0.12941657 </v>
    <v>       0.49777716       0.66624224       0.62752798 </v>
    <v>       0.01666230       0.14090449       0.37442049 </v>
    <v>       0.00449403       0.16658938       0.87288174 </v>
    <v>       0.00717754       0.50000000       0.37358883 </v>
    <v>       0.00300238       0.50000000       0.87407192 </v>
    <v>       0.01666230       0.85909551       0.37442049 </v>
    <v>       0.00449403       0.83341062       0.87288174 </v>
    <v>       0.16211394       0.00000000       0.29371646 </v>
    <v>       0.17094122       0.00000000       0.77625034 </v>
    <v>       0.17103033       0.33165344       0.28116755 </v>
    <v>       0.17366092       0.33581644       0.78386097 </v>
    <v>       0.17103033       0.66834656       0.28116755 </v>
    <v>       0.17366092       0.66418356       0.78386097 </v>
    <v>       0.32384630       0.16282172       0.22215234 </v>
    <v>       0.32577062       0.16312310       0.71781965 </v>
    <v>       0.32637267       0.50000000       0.22251331 </v>
    <v>       0.32782949       0.50000000       0.72112779 </v>
    <v>       0.32384630       0.83717828       0.22215234 </v>
    <v>       0.32577062       0.83687690       0.71781965 </v>
    <v>       0.33065452       0.16552614       0.44796600 </v>
    <v>       0.33069427       0.16577033       0.94602960 </v>
    <v>       0.32950112       0.50000000       0.44801665 </v>
    <v>       0.33306910       0.50000000       0.94844429 </v>
    <v>       0.33065452       0.83447386       0.44796600 </v>
    <v>       0.33069427       0.83422967       0.94602960 </v>
    <v>       0.16593165       0.00000000       0.06004126 </v>
    <v>       0.16987046       0.33466272       0.05559861 </v>
    <v>       0.16756820       0.33009195       0.55606107 </v>
    <v>       0.16987046       0.66533728       0.05559861 </v>
    <v>       0.16756820       0.66990805       0.55606107 </v>
    <v>       0.10213498       0.00000000       0.40633080 </v>
   </varray>
  </structure>
  <varray name="forces" >
   <v>       0.00000000       0.05218494       0.03003978 </v>
   <v>       0.00000000       0.07765236      -0.01231484 </v>
   <v>      -0.01914535       0.04484677       0.02362593 </v>
   <v>      -0.01245282       0.08193065      -0.01050621 </v>
   <v>       0.01914535       0.04484677       0.02362593 </v>
   <v>       0.01245282       0.08193065      -0.01050621 </v>
   <v>      -0.05135554      -0.18273669      -0.01730693 </v>
   <v>      -0.01276917      -0.03458804       0.02404549 </v>
   <v>       0.00000000      -0.03761979      -0.04260908 </v>
   <v>       0.00000000      -0.05455750       0.02088941 </v>
   <v>       0.05135554      -0.18273669      -0.01730693 </v>
   <v>       0.01276917      -0.03458804       0.02404549 </v>
   <v>      -0.02079462      -0.01384623       0.00357662 </v>
   <v>      -0.01198235      -0.04848594       0.03255446 </v>
   <v>       0.00000000      -0.01073452      -0.00582781 </v>
   <v>       0.00000000      -0.04373335       0.03314427 </v>
   <v>       0.02079462      -0.01384623       0.00357662 </v>
   <v>       0.01198235      -0.04848594       0.03255446 </v>
   <v>       0.00000000       0.02786914      -0.02437043 </v>
   <v>       0.00000000       0.14116643      -0.01792714 </v>
   <v>      -0.03097723       0.02644981      -0.01626936 </v>
   <v>      -0.05727338       0.08774690      -0.01219018 </v>
   <v>       0.03097723       0.02644981      -0.01626936 </v>
   <v>       0.05727338       0.08774690      -0.01219018 </v>
   <v>       0.02283912       0.05938221       0.05262243 </v>
   <v>       0.07217142       0.02385696      -0.15156563 </v>
   <v>       0.00000000       0.08486774       0.02848841 </v>
   <v>       0.00000000       0.06460070       0.01333604 </v>
   <v>      -0.02283912       0.05938221       0.05262243 </v>
   <v>      -0.07217142       0.02385696      -0.15156563 </v>
   <v>       0.00000000      -0.03026704      -0.06074652 </v>
   <v>       0.00000000      -0.11910430       0.06104707 </v>
   <v>      -0.00760870      -0.08122072      -0.02469486 </v>
   <v>      -0.01705334      -0.07751421      -0.01255305 </v>
   <v>       0.00760870      -0.08122072      -0.02469486 </v>
   <v>       0.01705334      -0.07751421      -0.01255305 </v>
   <v>       0.00000000       0.02725839       0.07981573 </v>
   <v>       0.04331637       0.10446307      -0.04886159 </v>
   <v>      -0.03813577       0.00227970       0.04860756 </v>
   <v>      -0.04331637       0.10446307      -0.04886159 </v>
   <v>       0.03813577       0.00227970       0.04860756 </v>
   <v>      -0.02946046       0.03136729       0.03384531 </v>
   <v>      -0.03623765      -0.06004762      -0.04970590 </v>
   <v>       0.00000000       0.02244148       0.02305659 </v>
   <v>       0.00000000      -0.00055650      -0.02821080 </v>
   <v>       0.02946046       0.03136729       0.03384531 </v>
   <v>       0.03623765      -0.06004762      -0.04970590 </v>
   <v>       0.02198200      -0.16369246       0.13707930 </v>
   <v>       0.11335260      -0.29982447       0.04304855 </v>
   <v>       0.00000000      -0.17667406       0.11413371 </v>
   <v>       0.00000000      -0.18321362       0.11885868 </v>
   <v>      -0.02198200      -0.16369246       0.13707930 </v>
   <v>      -0.11335260      -0.29982447       0.04304855 </v>
   <v>       0.00000000       0.14966350      -0.11474099 </v>
   <v>       0.00000000       0.19553063      -0.12282344 </v>
   <v>       0.00719885       0.16719673      -0.11572904 </v>
   <v>       0.02595345       0.19071361      -0.13246555 </v>
   <v>      -0.00719885       0.16719673      -0.11572904 </v>
   <v>      -0.02595345       0.19071361      -0.13246555 </v>
   <v>       0.01671552      -0.01715145      -0.11038378 </v>
   <v>       0.00992054      -0.03081505      -0.12357828 </v>
   <v>       0.00000000      -0.04838409      -0.10023298 </v>
   <v>       0.00000000      -0.02176731      -0.12361001 </v>
   <v>      -0.01671552      -0.01715145      -0.11038378 </v>
   <v>      -0.00992054      -0.03081505      -0.12357828 </v>
   <v>       0.00000000       0.02930331       0.04681863 </v>
   <v>       0.00000000      -0.01142740       0.11019388 </v>
   <v>       0.00327736       0.05006533       0.10752747 </v>
   <v>       0.03345981      -0.00086245       0.11632379 </v>
   <v>      -0.00327736       0.05006533       0.10752747 </v>
   <v>      -0.03345981      -0.00086245       0.11632379 </v>
   <v>       0.00000000       0.37328217       0.03380019 </v>
   <v>       0.00000000       0.38073169      -0.09050075 </v>
   <v>       0.01472389       0.29182479      -0.02262677 </v>
   <v>       0.01669348       0.40256616      -0.10186002 </v>
   <v>      -0.01472389       0.29182479      -0.02262677 </v>
   <v>      -0.01669348       0.40256616      -0.10186002 </v>
   <v>       0.00333045      -0.39822860       0.05973408 </v>
   <v>       0.01591416      -0.42008841       0.08685880 </v>
   <v>       0.00000000      -0.39194972       0.06178788 </v>
   <v>       0.00000000      -0.42681398       0.08249846 </v>
   <v>      -0.00333045      -0.39822860       0.05973408 </v>
   <v>      -0.01591416      -0.42008841       0.08685880 </v>
   <v>       0.00000000      -0.15817281       0.10204354 </v>
   <v>       0.00000000      -0.12254326       0.12648016 </v>
   <v>       0.02595526      -0.16938421       0.10156566 </v>
   <v>       0.00939224      -0.16429157       0.12706613 </v>
   <v>      -0.02595526      -0.16938421       0.10156566 </v>
   <v>      -0.00939224      -0.16429157       0.12706613 </v>
   <v>      -0.15719130       0.38313990      -0.13932498 </v>
   <v>       0.05587228       0.10544087      -0.15579025 </v>
   <v>       0.00000000       0.15568860      -0.09965846 </v>
   <v>       0.00000000       0.16723923      -0.14283036 </v>
   <v>       0.15719130       0.38313990      -0.13932498 </v>
   <v>      -0.05587228       0.10544087      -0.15579025 </v>
   <v>       0.00000000      -0.27273521      -0.31293511 </v>
   <v>       0.00000000      -0.06455350      -0.24478486 </v>
   <v>      -0.00264399      -0.03661496      -0.11442520 </v>
   <v>      -0.03774007      -0.04825160      -0.05098559 </v>
   <v>       0.00264399      -0.03661496      -0.11442520 </v>
   <v>       0.03774007      -0.04825160      -0.05098559 </v>
   <v>       0.00987599       0.02974164       0.08960157 </v>
   <v>       0.08450113       0.13837438       0.03516773 </v>
   <v>       0.00000000       0.03714886       0.10078115 </v>
   <v>       0.00000000       0.05356768       0.12268595 </v>
   <v>      -0.00987599       0.02974164       0.08960157 </v>
   <v>      -0.08450113       0.13837438       0.03516773 </v>
   <v>       0.01990487       0.45275367      -0.03300201 </v>
   <v>       0.04944871       0.42920146      -0.12125971 </v>
   <v>       0.00000000       0.43880131      -0.04981694 </v>
   <v>       0.00000000       0.41129785      -0.07472081 </v>
   <v>      -0.01990487       0.45275367      -0.03300201 </v>
   <v>      -0.04944871       0.42920146      -0.12125971 </v>
   <v>       0.00000000      -0.39757397      -0.04321075 </v>
   <v>      -0.00448459      -0.44735947       0.03535343 </v>
   <v>       0.09230987      -0.38932360       0.11597064 </v>
   <v>       0.00448459      -0.44735947       0.03535343 </v>
   <v>      -0.09230987      -0.38932360       0.11597064 </v>
   <v>       0.00000000      -0.35594243       0.98379235 </v>
  </varray>
  <varray name="stress" >
   <v>     -44.36666871       0.00000000       0.00000000 </v>
   <v>       0.00000000     -36.37709864      -0.53045296 </v>
   <v>       0.00000000      -0.53045264     -28.04596976 </v>
  </varray>
  <energy>
   <i name="e_fr_energy">   -945.82604738 </i>
   <i name="e_wo_entrp">   -945.81469603 </i>
   <i name="e_0_energy">   -945.82037170 </i>
  </energy>
  <time name="totalsc">17111.7017114.05</time>
  <eigenvalues>
   <array>
    <dimension dim="1">band</dimension>
    <dimension dim="2">kpoint</dimension>
    <dimension dim="3">spin</dimension>
    <field>eigene</field>
    <field>occ</field>
    <set>
     <set comment="spin 1">
      <set comment="kpoint 1">
       <r>  -19.7840    1.0000 </r>
       <r>  -18.6151    1.0000 </r>
       <r>  -18.3990    1.0000 </r>
       <r>  -18.3785    1.0000 </r>
       <r>  -18.3134    1.0000 </r>
       <r>  -18.2550    1.0000 </r>
       <r>  -18.0888    1.0000 </r>
       <r>  -17.9815    1.0000 </r>
       <r>  -17.9478    1.0000 </r>
       <r>  -17.9082    1.0000 </r>
       <r>  -17.8626    1.0000 </r>
       <r>  -17.8358    1.0000 </r>
       <r>  -17.8037    1.0000 </r>
       <r>  -17.7507    1.0000 </r>
       <r>  -17.7503    1.0000 </r>
       <r>  -17.6833    1.0000 </r>
       <r>  -17.6709    1.0000 </r>
       <r>  -17.6529    1.0000 </r>
       <r>  -17.6273    1.0000 </r>
       <r>  -17.6132    1.0000 </r>
       <r>  -17.5779    1.0000 </r>
       <r>  -17.5250    1.0000 </r>
       <r>  -17.5188    1.0000 </r>
       <r>  -17.4858    1.0000 </r>
       <r>  -17.4759    1.0000 </r>
       <r>  -17.4611    1.0000 </r>
       <r>  -17.4528    1.0000 </r>
       <r>  -17.4122    1.0000 </r>
       <r>  -17.4014    1.0000 </r>
       <r>  -17.3926    1.0000 </r>
       <r>  -17.3746    1.0000 </r>
       <r>  -17.3677    1.0000 </r>
       <r>  -17.3476    1.0000 </r>
       <r>  -17.3296    1.0000 </r>
       <r>  -17.3021    1.0000 </r>
       <r>  -17.2793    1.0000 </r>
       <r>  -17.2740    1.0000 </r>
       <r>  -17.2513    1.0000 </r>
       <r>  -17.2458    1.0000 </r>
       <r>  -17.2349    1.0000 </r>
       <r>  -17.2215    1.0000 </r>
       <r>  -17.2075    1.0000 </r>
       <r>  -17.1938    1.0000 </r>
       <r>  -17.1887    1.0000 </r>
       <r>  -17.1885    1.0000 </r>
       <r>  -17.1727    1.0000 </r>
       <r>  -17.1141    1.0000 </r>
       <r>  -17.1138    1.0000 </r>
       <r>  -17.1015    1.0000 </r>
       <r>  -17.0807    1.0000 </r>
       <r>  -17.0506    1.0000 </r>
       <r>  -17.0368    1.0000 </r>
       <r>  -17.0299    1.0000 </r>
       <r>  -17.0234    1.0000 </r>
       <r>  -17.0098    1.0000 </r>
       <r>  -17.0018    1.0000 </r>
       <r>  -16.9360    1.0000 </r>
       <r>  -16.9319    1.0000 </r>
       <r>  -16.9157    1.0000 </r>
       <r>  -16.9078    1.0000 </r>
       <r>  -16.8999    1.0000 </r>
       <r>  -16.8830    1.0000 </r>
       <r>  -16.8696    1.0000 </r>
       <r>  -16.8683    1.0000 </r>
       <r>  -16.8491    1.0000 </r>
       <r>  -16.8456    1.0000 </r>
       <r>  -16.8363    1.0000 </r>
       <r>  -16.8305    1.0000 </r>
       <r>  -16.8233    1.0000 </r>
       <r>  -16.8158    1.0000 </r>
       <r>  -16.7443    1.0000 </r>
       <r>  -13.2883    1.0000 </r>
       <r>  -13.2361    1.0000 </r>
       <r>  -13.1818    1.0000 </r>
       <r>  -13.1774    1.0000 </r>
       <r>  -13.1752    1.0000 </r>
       <r>  -13.1538    1.0000 </r>
       <r>  -13.1166    1.0000 </r>
       <r>  -13.1115    1.0000 </r>
       <r>  -13.0683    1.0000 </r>
       <r>  -13.0649    1.0000 </r>
       <r>  -13.0338    1.0000 </r>
       <r>  -13.0213    1.0000 </r>
       <r>  -13.0161    1.0000 </r>
       <r>  -13.0029    1.0000 </r>
       <r>  -12.9931    1.0000 </r>
       <r>  -12.9915    1.0000 </r>
       <r>  -12.9795    1.0000 </r>
       <r>  -12.9714    1.0000 </r>
       <r>  -12.9656    1.0000 </r>
       <r>  -12.9652    1.0000 </r>
       <r>  -12.9565    1.0000 </r>
       <r>  -12.9535    1.0000 </r>
       <r>  -12.9498    1.0000 </r>
       <r>  -12.9468    1.0000 </r>
       <r>  -12.9452    1.0000 </r>
       <r>  -12.9404    1.0000 </r>
       <r>  -12.9355    1.0000 </r>
       <r>  -12.9321    1.0000 </r>
       <r>  -12.9319    1.0000 </r>
       <r>  -12.9242    1.0000 </r>
       <r>  -12.9211    1.0000 </r>
       <r>  -12.9199    1.0000 </r>
       <r>  -12.9152    1.0000 </r>
       <r>  -12.9142    1.0000 </r>
       <r>  -12.9121    1.0000 </r>
       <r>  -12.9100    1.0000 </r>
       <r>  -12.9076    1.0000 </r>
       <r>  -12.9067    1.0000 </r>
       <r>  -12.9012    1.0000 </r>
       <r>  -12.8990    1.0000 </r>
       <r>  -12.8929    1.0000 </r>
       <r>  -12.8870    1.0000 </r>
       <r>  -12.8844    1.0000 </r>
       <r>  -12.8828    1.0000 </r>
       <r>  -12.8777    1.0000 </r>
       <r>  -12.8777    1.0000 </r>
       <r>  -12.8726    1.0000 </r>
       <r>  -12.8718    1.0000 </r>
       <r>  -12.8717    1.0000 </r>
       <r>  -12.8676    1.0000 </r>
       <r>  -12.8672    1.0000 </r>
       <r>  -12.8636    1.0000 </r>
       <r>  -12.8565    1.0000 </r>
       <r>  -12.8534    1.0000 </r>
       <r>  -12.8527    1.0000 </r>
       <r>  -12.8492    1.0000 </r>
       <r>  -12.8473    1.0000 </r>
       <r>  -12.8450    1.0000 </r>
       <r>  -12.8425    1.0000 </r>
       <r>  -12.8386    1.0000 </r>
       <r>  -12.8377    1.0000 </r>
       <r>  -12.8331    1.0000 </r>
       <r>  -12.8318    1.0000 </r>
       <r>  -12.8294    1.0000 </r>
       <r>  -12.8286    1.0000 </r>
       <r>  -12.8250    1.0000 </r>
       <r>  -12.8223    1.0000 </r>
       <r>  -12.8196    1.0000 </r>
       <r>  -12.8190    1.0000 </r>
       <r>  -12.8089    1.0000 </r>
       <r>  -12.8065    1.0000 </r>
       <r>  -12.8056    1.0000 </r>
       <r>  -12.8037    1.0000 </r>
       <r>  -12.8006    1.0000 </r>
       <r>  -12.7977    1.0000 </r>
       <r>  -12.7950    1.0000 </r>
       <r>  -12.7831    1.0000 </r>
       <r>  -12.7827    1.0000 </r>
       <r>  -12.7809    1.0000 </r>
       <r>  -12.7733    1.0000 </r>
       <r>  -12.7712    1.0000 </r>
       <r>  -12.7699    1.0000 </r>
       <r>  -12.7646    1.0000 </r>
       <r>  -12.7624    1.0000 </r>
       <r>  -12.7585    1.0000 </r>
       <r>  -12.7569    1.0000 </r>
       <r>  -12.7523    1.0000 </r>
       <r>  -12.7405    1.0000 </r>
       <r>  -12.7388    1.0000 </r>
       <r>  -12.7373    1.0000 </r>
       <r>  -12.7351    1.0000 </r>
       <r>  -12.7341    1.0000 </r>
       <r>  -12.7288    1.0000 </r>
       <r>  -12.7270    1.0000 </r>
       <r>  -12.7248    1.0000 </r>
       <r>  -12.7225    1.0000 </r>
       <r>  -12.7210    1.0000 </r>
       <r>  -12.7175    1.0000 </r>
       <r>  -12.7144    1.0000 </r>
       <r>  -12.7140    1.0000 </r>
       <r>  -12.7125    1.0000 </r>
       <r>  -12.7094    1.0000 </r>
       <r>  -12.7083    1.0000 </r>
       <r>  -12.7069    1.0000 </r>
       <r>  -12.7057    1.0000 </r>
       <r>  -12.7047    1.0000 </r>
       <r>  -12.7015    1.0000 </r>
       <r>  -12.7005    1.0000 </r>
       <r>  -12.6972    1.0000 </r>
       <r>  -12.6956    1.0000 </r>
       <r>  -12.6906    1.0000 </r>
       <r>  -12.6902    1.0000 </r>
       <r>  -12.6872    1.0000 </r>
       <r>  -12.6862    1.0000 </r>
       <r>  -12.6816    1.0000 </r>
       <r>  -12.6799    1.0000 </r>
       <r>  -12.6799    1.0000 </r>
       <r>  -12.6774    1.0000 </r>
       <r>  -12.6730    1.0000 </r>
       <r>  -12.6728    1.0000 </r>
       <r>  -12.6697    1.0000 </r>
       <r>  -12.6663    1.0000 </r>
       <r>  -12.6661    1.0000 </r>
       <r>  -12.6626    1.0000 </r>
       <r>  -12.6615    1.0000 </r>
       <r>  -12.6562    1.0000 </r>
       <r>  -12.6551    1.0000 </r>
       <r>  -12.6503    1.0000 </r>
       <r>  -12.6460    1.0000 </r>
       <r>  -12.6449    1.0000 </r>
       <r>  -12.6400    1.0000 </r>
       <r>  -12.6395    1.0000 </r>
       <r>  -12.6377    1.0000 </r>
       <r>  -12.6350    1.0000 </r>
       <r>  -12.6273    1.0000 </r>
       <r>  -12.6266    1.0000 </r>
       <r>  -12.6233    1.0000 </r>
       <r>  -12.6232    1.0000 </r>
       <r>  -12.6213    1.0000 </r>
       <r>  -12.6193    1.0000 </r>
       <r>  -12.6165    1.0000 </r>
       <r>  -12.6143    1.0000 </r>
       <r>  -12.6108    1.0000 </r>
       <r>  -12.6105    1.0000 </r>
       <r>  -12.6069    1.0000 </r>
       <r>  -12.6029    1.0000 </r>
       <r>  -12.6006    1.0000 </r>
       <r>  -12.5965    1.0000 </r>
       <r>  -12.5947    1.0000 </r>
       <r>  -12.5936    1.0000 </r>
       <r>  -12.5920    1.0000 </r>
       <r>  -12.5877    1.0000 </r>
       <r>  -12.5862    1.0000 </r>
       <r>  -12.5855    1.0000 </r>
       <r>  -12.5840    1.0000 </r>
       <r>  -12.5828    1.0000 </r>
       <r>  -12.5804    1.0000 </r>
       <r>  -12.5757    1.0000 </r>
       <r>  -12.5727    1.0000 </r>
       <r>  -12.5702    1.0000 </r>
       <r>  -12.5684    1.0000 </r>
       <r>  -12.5648    1.0000 </r>
       <r>  -12.5614    1.0000 </r>
       <r>  -12.5609    1.0000 </r>
       <r>  -12.5568    1.0000 </r>
       <r>  -12.5538    1.0000 </r>
       <r>  -12.5482    1.0000 </r>
       <r>  -12.5432    1.0000 </r>
       <r>  -12.5380    1.0000 </r>
       <r>  -12.5251    1.0000 </r>
       <r>  -12.5246    1.0000 </r>
       <r>  -12.5214    1.0000 </r>
       <r>  -12.5200    1.0000 </r>
       <r>  -12.5147    1.0000 </r>
       <r>  -12.5124    1.0000 </r>
       <r>  -12.5017    1.0000 </r>
       <r>  -12.4986    1.0000 </r>
       <r>  -12.4890    1.0000 </r>
       <r>  -12.4878    1.0000 </r>
       <r>  -12.4826    1.0000 </r>
       <r>  -12.4738    1.0000 </r>
       <r>  -12.4730    1.0000 </r>
       <r>  -12.4696    1.0000 </r>
       <r>  -12.4634    1.0000 </r>
       <r>  -12.4561    1.0000 </r>
       <r>  -12.4531    1.0000 </r>
       <r>  -12.4411    1.0000 </r>
       <r>  -12.4355    1.0000 </r>
       <r>  -12.4320    1.0000 </r>
       <r>  -12.4264    1.0000 </r>
       <r>  -12.4208    1.0000 </r>
       <r>  -12.4188    1.0000 </r>
       <r>  -12.4051    1.0000 </r>
       <r>  -12.3937    1.0000 </r>
       <r>  -12.3791    1.0000 </r>
       <r>  -12.3788    1.0000 </r>
       <r>  -12.3565    1.0000 </r>
       <r>  -12.3419    1.0000 </r>
[...]
       <r>   -13.2557    16.2871   144.2537 </r>
       <r>   -13.1179    82.1267   155.5735 </r>
       <r>   -12.9801   161.9416   177.8945 </r>
       <r>   -12.8422   589.1236   259.0957 </r>
       <r>   -12.7044   678.5805   352.6271 </r>
       <r>   -12.5666   779.1573   460.0213 </r>
       <r>   -12.4287   430.1602   519.3119 </r>
       <r>   -12.2909   163.8706   541.8989 </r>
       <r>   -12.1531   111.4974   557.2670 </r>
       <r>   -12.0152    99.9160   571.0388 </r>
       <r>   -11.8774   106.5447   585.7243 </r>
       <r>   -11.7396   116.0307   601.7172 </r>
       <r>   -11.6017    66.2062   610.8427 </r>
       <r>   -11.4639     8.3898   611.9991 </r>
       <r>   -11.3261     0.0068   612.0000 </r>
       <r>   -11.1882     0.0000   612.0000 </r>
       <r>   -11.0504     0.0000   612.0000 </r>
       <r>   -10.9125     0.0000   612.0000 </r>
       <r>   -10.7747     0.0000   612.0000 </r>
       <r>   -10.6369     0.0000   612.0000 </r>
       <r>   -10.4990     0.0000   612.0000 </r>
       <r>   -10.3612     0.0000   612.0000 </r>
       <r>   -10.2234     0.0000   612.0000 </r>
       <r>   -10.0855     0.0000   612.0000 </r>
       <r>    -9.9477     0.0000   612.0000 </r>
       <r>    -9.8099     0.0000   612.0000 </r>
       <r>    -9.6720     0.0000   612.0000 </r>
       <r>    -9.5342     0.0000   612.0000 </r>
       <r>    -9.3964     0.0000   612.0000 </r>
       <r>    -9.2585     0.0000   612.0000 </r>
       <r>    -9.1207     0.0000   612.0000 </r>
       <r>    -8.9829     0.0000   612.0000 </r>
       <r>    -8.8450     0.0000   612.0000 </r>
       <r>    -8.7072     0.0000   612.0000 </r>
       <r>    -8.5694     0.0000   612.0000 </r>
       <r>    -8.4315     0.0000   612.0000 </r>
       <r>    -8.2937     0.0000   612.0000 </r>
       <r>    -8.1559     0.0000   612.0000 </r>
       <r>    -8.0180     0.0000   612.0000 </r>
       <r>    -7.8802     0.0000   612.0000 </r>
       <r>    -7.7424     0.0000   612.0000 </r>
       <r>    -7.6045     0.0000   612.0000 </r>
       <r>    -7.4667     0.0000   612.0000 </r>
       <r>    -7.3289     0.0017   612.0002 </r>
       <r>    -7.1910     6.1628   612.8497 </r>
       <r>    -7.0532     8.3366   613.9988 </r>
       <r>    -6.9154     0.0090   614.0000 </r>
       <r>    -6.7775     0.0000   614.0000 </r>
       <r>    -6.6397     0.0000   614.0000 </r>
       <r>    -6.5019     0.0000   614.0000 </r>
       <r>    -6.3640     0.0000   614.0000 </r>
       <r>    -6.2262     0.0000   614.0000 </r>
       <r>    -6.0884     0.0000   614.0000 </r>
       <r>    -5.9505     0.0000   614.0000 </r>
       <r>    -5.8127     0.0000   614.0000 </r>
       <r>    -5.6749     0.0000   614.0000 </r>
       <r>    -5.5370     0.0000   614.0000 </r>
       <r>    -5.3992     0.0000   614.0000 </r>
       <r>    -5.2614     0.2047   614.0282 </r>
       <r>    -5.1235     6.5302   614.9283 </r>
       <r>    -4.9857    14.7563   616.9622 </r>
       <r>    -4.8479    20.7558   619.8231 </r>
       <r>    -4.7100    26.7874   623.5153 </r>
       <r>    -4.5722    34.3076   628.2440 </r>
       <r>    -4.4344    40.4322   633.8170 </r>
       <r>    -4.2965    46.1477   640.1777 </r>
       <r>    -4.1587    47.3334   646.7018 </r>
       <r>    -4.0209    58.5501   654.7720 </r>
       <r>    -3.8830    40.9219   660.4124 </r>
       <r>    -3.7452    45.2564   666.6503 </r>
       <r>    -3.6074    48.0929   673.2791 </r>
       <r>    -3.4695    35.3502   678.1516 </r>
       <r>    -3.3317    31.7562   682.5287 </r>
       <r>    -3.1939    32.4494   687.0013 </r>
       <r>    -3.0560    35.5568   691.9022 </r>
       <r>    -2.9182    34.7218   696.6880 </r>
       <r>    -2.7804    33.7897   701.3454 </r>
       <r>    -2.6425    40.1053   706.8733 </r>
       <r>    -2.5047    37.8821   712.0947 </r>
       <r>    -2.3669    38.2242   717.3633 </r>
       <r>    -2.2290    42.1421   723.1719 </r>
       <r>    -2.0912    45.4010   729.4297 </r>
       <r>    -1.9533    35.0372   734.2590 </r>
       <r>    -1.8155    48.6728   740.9678 </r>
       <r>    -1.6777    75.2318   751.3373 </r>
       <r>    -1.5398    60.8677   759.7269 </r>
       <r>    -1.4020    56.8354   767.5607 </r>
       <r>    -1.2642    64.9529   776.5134 </r>
       <r>    -1.1263    58.0388   784.5131 </r>
       <r>    -0.9885    53.3264   791.8633 </r>
       <r>    -0.8507    63.3745   800.5985 </r>
       <r>    -0.7128    62.8439   809.2605 </r>
       <r>    -0.5750    73.2892   819.3622 </r>
       <r>    -0.4372    73.3833   829.4769 </r>
       <r>    -0.2993    61.9285   838.0128 </r>
       <r>    -0.1615    68.5033   847.4548 </r>
       <r>    -0.0237    73.3949   857.5711 </r>
       <r>     0.1142    76.2277   868.0779 </r>
       <r>     0.2520    81.9804   879.3776 </r>
       <r>     0.3898    63.0047   888.0618 </r>
       <r>     0.5277    70.6992   897.8065 </r>
       <r>     0.6655    94.3012   910.8044 </r>
       <r>     0.8033    85.8773   922.6412 </r>
       <r>     0.9412    89.0783   934.9192 </r>
       <r>     1.0790    87.2594   946.9465 </r>
       <r>     1.2168   110.7894   962.2170 </r>
       <r>     1.3547   122.6531   979.1228 </r>
       <r>     1.4925   115.9880   995.1098 </r>
       <r>     1.6303   123.6062  1012.1470 </r>
       <r>     1.7682    85.4093  1023.9193 </r>
       <r>     1.9060    40.6281  1029.5192 </r>
       <r>     2.0438    51.6986  1036.6450 </r>
       <r>     2.1817     9.8264  1037.9994 </r>
       <r>     2.3195     0.0043  1038.0000 </r>
       <r>     2.4573     0.0000  1038.0000 </r>
       <r>     2.5952     0.0000  1038.0000 </r>
       <r>     2.7330     0.0004  1038.0001 </r>
       <r>     2.8708     1.6031  1038.2210 </r>
       <r>     3.0087    11.8883  1039.8596 </r>
       <r>     3.1465     1.0183  1040.0000 </r>
       <r>     3.2843     0.0000  1040.0000 </r>
       <r>     3.4222     0.0000  1040.0000 </r>
       <r>     3.5600     0.0000  1040.0000 </r>
       <r>     3.6978     0.0000  1040.0000 </r>
       <r>     3.8357     0.0000  1040.0000 </r>
       <r>     3.9735     0.0000  1040.0000 </r>
       <r>     4.1113     0.0000  1040.0000 </r>
       <r>     4.2492     0.0000  1040.0000 </r>
       <r>     4.3870     0.0000  1040.0000 </r>
       <r>     4.5248     0.0000  1040.0000 </r>
       <r>     4.6627     0.0000  1040.0000 </r>
       <r>     4.8005     0.0000  1040.0000 </r>
       <r>     4.9383     0.0000  1040.0000 </r>
       <r>     5.0762     0.0000  1040.0000 </r>
       <r>     5.2140     0.0000  1040.0000 </r>
       <r>     5.3518     0.0000  1040.0000 </r>
       <r>     5.4897     0.0000  1040.0000 </r>
       <r>     5.6275     0.0000  1040.0000 </r>
       <r>     5.7653     0.0000  1040.0000 </r>
       <r>     5.9032     0.0000  1040.0000 </r>
       <r>     6.0410     0.0000  1040.0000 </r>
       <r>     6.1788     0.0000  1040.0000 </r>
       <r>     6.3167     0.0000  1040.0000 </r>
       <r>     6.4545     0.0012  1040.0002 </r>
       <r>     6.5924     1.3710  1040.1891 </r>
       <r>     6.7302     0.4416  1040.2500 </r>
       <r>     6.8680     0.0000  1040.2500 </r>
       <r>     7.0059     0.0760  1040.2605 </r>
       <r>     7.1437     1.7117  1040.4964 </r>
       <r>     7.2815     1.7360  1040.7357 </r>
       <r>     7.4194     3.5027  1041.2185 </r>
       <r>     7.5572     0.9606  1041.3509 </r>
       <r>     7.6950     3.6729  1041.8571 </r>
       <r>     7.8329     4.9716  1042.5424 </r>
       <r>     7.9707     3.4005  1043.0111 </r>
       <r>     8.1085     4.8596  1043.6809 </r>
       <r>     8.2464     3.0072  1044.0954 </r>
       <r>     8.3842     7.0097  1045.0615 </r>
       <r>     8.5220     5.2382  1045.7835 </r>
       <r>     8.6599     1.6646  1046.0130 </r>
       <r>     8.7977     4.5373  1046.6384 </r>
       <r>     8.9355     5.6264  1047.4139 </r>
       <r>     9.0734    10.4352  1048.8522 </r>
       <r>     9.2112     9.8351  1050.2078 </r>
       <r>     9.3490    13.5454  1052.0748 </r>
       <r>     9.4869     5.9045  1052.8887 </r>
       <r>     9.6247    10.3488  1054.3151 </r>
       <r>     9.7625     9.6866  1055.6502 </r>
       <r>     9.9004    12.6152  1057.3890 </r>
       <r>    10.0382    14.6349  1059.4062 </r>
       <r>    10.1760    17.2753  1061.7873 </r>
       <r>    10.3139    24.5757  1065.1747 </r>
       <r>    10.4517    26.0615  1068.7669 </r>
       <r>    10.5895    37.4922  1073.9346 </r>
       <r>    10.7274    42.4532  1079.7861 </r>
       <r>    10.8652    33.8215  1084.4478 </r>
       <r>    11.0030    28.4481  1088.3689 </r>
       <r>    11.1409    27.6384  1092.1784 </r>
       <r>    11.2787    37.3941  1097.3326 </r>
       <r>    11.4165    22.8994  1100.4889 </r>
       <r>    11.5544    37.1089  1105.6038 </r>
       <r>    11.6922    26.6476  1109.2767 </r>
       <r>    11.8300    38.3460  1114.5621 </r>
       <r>    11.9679    34.0248  1119.2518 </r>
       <r>    12.1057    35.8566  1124.1941 </r>
       <r>    12.2435    36.6950  1129.2519 </r>
       <r>    12.3814    45.1833  1135.4797 </r>
       <r>    12.5192    40.7539  1141.0970 </r>
       <r>    12.6570    32.6876  1145.6024 </r>
       <r>    12.7949    18.5734  1148.1625 </r>
       <r>    12.9327    30.7911  1152.4065 </r>
       <r>    13.0705    27.5388  1156.2023 </r>
       <r>    13.2084    33.7711  1160.8571 </r>
       <r>    13.3462    35.9109  1165.8068 </r>
       <r>    13.4840    25.4190  1169.3104 </r>
       <r>    13.6219    29.0483  1173.3143 </r>
       <r>    13.7597    31.9693  1177.7207 </r>
       <r>    13.8975    32.2911  1182.1715 </r>
       <r>    14.0354    26.7666  1185.8609 </r>
       <r>    14.1732    22.0414  1188.8989 </r>
       <r>    14.3110    27.3830  1192.6732 </r>
       <r>    14.4489    25.1640  1196.1417 </r>
       <r>    14.5867    28.4453  1200.0624 </r>
       <r>    14.7245    27.9836  1203.9195 </r>
       <r>    14.8624    24.4238  1207.2859 </r>
       <r>    15.0002    22.4023  1210.3737 </r>
       <r>    15.1380    24.7241  1213.7815 </r>
       <r>    15.2759    21.3083  1216.7186 </r>
       <r>    15.4137    23.5405  1219.9632 </r>
       <r>    15.5516    20.9912  1222.8565 </r>
       <r>    15.6894    19.9145  1225.6014 </r>
       <r>    15.8272    20.4101  1228.4146 </r>
       <r>    15.9651    18.3851  1230.9487 </r>
       <r>    16.1029    23.7102  1234.2168 </r>
       <r>    16.2407    16.3810  1236.4746 </r>
       <r>    16.3786    20.1941  1239.2580 </r>
       <r>    16.5164    15.7830  1241.4335 </r>
       <r>    16.6542    14.3912  1243.4171 </r>
       <r>    16.7921    11.2853  1244.9726 </r>
       <r>    16.9299     7.7847  1246.0456 </r>
       <r>    17.0677     7.2643  1247.0468 </r>
       <r>    17.2056     3.6966  1247.5563 </r>
       <r>    17.3434     5.4591  1248.3088 </r>
       <r>    17.4812     4.8901  1248.9828 </r>
       <r>    17.6191     1.7080  1249.2182 </r>
       <r>    17.7569     3.7946  1249.7413 </r>
       <r>    17.8947     1.8653  1249.9984 </r>
       <r>    18.0326     0.0119  1250.0000 </r>
       <r>    18.1704     0.0000  1250.0000 </r>
       <r>    18.3082     0.0000  1250.0000 </r>
       <r>    18.4461     0.0000  1250.0000 </r>
       <r>    18.5839     0.0000  1250.0000 </r>
       <r>    18.7217     0.0000  1250.0000 </r>
       <r>    18.8596     0.0000  1250.0000 </r>
       <r>    18.9974     0.0000  1250.0000 </r>
       <r>    19.1352     0.0000  1250.0000 </r>
       <r>    19.2731     0.0000  1250.0000 </r>
       <r>    19.4109     0.0000  1250.0000 </r>
       <r>    19.5487     0.0000  1250.0000 </r>
       <r>    19.6866     0.0000  1250.0000 </r>
      </set>
     </set>
    </array>
   </total>
  </dos>
 </calculation>
 <structure name="finalpos" >
  <crystal>
   <varray name="basis" >
    <v>       0.00000000      12.28047342       0.00000000 </v>
    <v>       9.14270205       0.00000000       0.00000000 </v>
    <v>       0.00000000      -2.76826177     -11.30069772 </v>
   </varray>
   <i name="volume">   1268.80515525 </i>
   <varray name="rec_basis" >
    <v>       0.00000000       0.08143009      -0.01994742 </v>
    <v>       0.10937686      -0.00000000       0.00000000 </v>
    <v>       0.00000000       0.00000000      -0.08849011 </v>
   </varray>
  </crystal>
  <varray name="positions" >
   <v>       0.65682255       0.00000000       0.15587234 </v>
   <v>       0.66050280       0.00000000       0.65696829 </v>
   <v>       0.65856673       0.33305875       0.15785831 </v>
   <v>       0.66064973       0.33346769       0.65673483 </v>
   <v>       0.65856673       0.66694125       0.15785831 </v>
   <v>       0.66064973       0.66653231       0.65673483 </v>
   <v>       0.83857518       0.16357439       0.34178553 </v>
   <v>       0.84118771       0.16642315       0.84405648 </v>
   <v>       0.84363971       0.50000000       0.34323002 </v>
   <v>       0.84056778       0.50000000       0.84346049 </v>
   <v>       0.83857518       0.83642561       0.34178553 </v>
   <v>       0.84118771       0.83357685       0.84405648 </v>
   <v>       0.59089909       0.16710913       0.39867719 </v>
   <v>       0.59296747       0.16677628       0.89832987 </v>
   <v>       0.59063110       0.50000000       0.39811751 </v>
   <v>       0.59289749       0.50000000       0.89878614 </v>
   <v>       0.59089909       0.83289087       0.39867719 </v>
   <v>       0.59296747       0.83322372       0.89832987 </v>
   <v>       0.90965338       0.00000000       0.10318880 </v>
   <v>       0.90831525       0.00000000       0.60281283 </v>
   <v>       0.90795363       0.33389951       0.10145927 </v>
   <v>       0.91072572       0.33300183       0.60399302 </v>
   <v>       0.90795363       0.66610049       0.10145927 </v>
   <v>       0.91072572       0.66699817       0.60399302 </v>
   <v>       0.15732697       0.17071049       0.15626192 </v>
   <v>       0.15910536       0.17514756       0.66802125 </v>
   <v>       0.15859865       0.50000000       0.15846921 </v>
   <v>       0.16051428       0.50000000       0.65742403 </v>
   <v>       0.15732697       0.82928951       0.15626192 </v>
   <v>       0.15910536       0.82485244       0.66802125 </v>
   <v>       0.34274499       0.00000000       0.34658800 </v>
   <v>       0.34360687       0.00000000       0.84428083 </v>
   <v>       0.34020072       0.33340396       0.34591442 </v>
   <v>       0.34332032       0.33452603       0.84730070 </v>
   <v>       0.34020072       0.66659604       0.34591442 </v>
   <v>       0.34332032       0.66547397       0.84730070 </v>
   <v>       0.09236830       0.00000000       0.90062018 </v>
   <v>       0.09246348       0.32916263       0.39974992 </v>
   <v>       0.09055110       0.33419847       0.90021988 </v>
   <v>       0.09246348       0.67083737       0.39974992 </v>
   <v>       0.09055110       0.66580153       0.90021988 </v>
   <v>       0.40661365       0.16633237       0.10409236 </v>
   <v>       0.41117529       0.16702533       0.60363976 </v>
   <v>       0.40867671       0.50000000       0.10569121 </v>
   <v>       0.40979577       0.50000000       0.60395864 </v>
   <v>       0.40661365       0.83366763       0.10409236 </v>
   <v>       0.41117529       0.83297467       0.60363976 </v>
   <v>       0.99625178       0.16765596       0.12890124 </v>
   <v>       0.99886083       0.16440332       0.62361770 </v>
   <v>       0.99628722       0.50000000       0.12697919 </v>
   <v>       0.99841970       0.50000000       0.62876964 </v>
   <v>       0.99625178       0.83234404       0.12890124 </v>
   <v>       0.99886083       0.83559668       0.62361770 </v>
   <v>       0.50380630       0.00000000       0.37413086 </v>
   <v>       0.50501002       0.00000000       0.87366029 </v>
   <v>       0.50236970       0.33328543       0.37378490 </v>
   <v>       0.50458276       0.33316467       0.87354082 </v>
   <v>       0.50236970       0.66671457       0.37378490 </v>
   <v>       0.50458276       0.66683533       0.87354082 </v>
   <v>       0.67181070       0.16678144       0.28084974 </v>
   <v>       0.67330681       0.16652490       0.78030457 </v>
   <v>       0.67486049       0.50000000       0.28258327 </v>
   <v>       0.67297849       0.50000000       0.78003508 </v>
   <v>       0.67181070       0.83321856       0.28084974 </v>
   <v>       0.67330681       0.83347510       0.78030457 </v>
   <v>       0.82774055       0.00000000       0.22058764 </v>
   <v>       0.82882803       0.00000000       0.72067600 </v>
   <v>       0.83036187       0.33032547       0.22186319 </v>
   <v>       0.82910766       0.33275673       0.72033710 </v>
   <v>       0.83036187       0.66967453       0.22186319 </v>
   <v>       0.82910766       0.66724327       0.72033710 </v>
   <v>       0.83242823       0.00000000       0.44564958 </v>
   <v>       0.83277644       0.00000000       0.94683403 </v>
   <v>       0.84200941       0.32981784       0.44484316 </v>
   <v>       0.83082374       0.33322324       0.94560336 </v>
   <v>       0.84200941       0.67018216       0.44484316 </v>
   <v>       0.83082374       0.66677676       0.94560336 </v>
   <v>       0.66858889       0.16680346       0.05550678 </v>
   <v>       0.67016371       0.16696648       0.55435098 </v>
   <v>       0.66902181       0.50000000       0.05639708 </v>
   <v>       0.67123951       0.50000000       0.55373749 </v>
   <v>       0.66858889       0.83319654       0.05550678 </v>
   <v>       0.67016371       0.83303352       0.55435098 </v>
   <v>       0.49471903       0.00000000       0.12845182 </v>
   <v>       0.49806223       0.00000000       0.62754328 </v>
   <v>       0.49541979       0.33237565       0.12941657 </v>
   <v>       0.49777716       0.33375776       0.62752798 </v>
   <v>       0.49541979       0.66762435       0.12941657 </v>
   <v>       0.49777716       0.66624224       0.62752798 </v>
   <v>       0.01666230       0.14090449       0.37442049 </v>
   <v>       0.00449403       0.16658938       0.87288174 </v>
   <v>       0.00717754       0.50000000       0.37358883 </v>
   <v>       0.00300238       0.50000000       0.87407192 </v>
   <v>       0.01666230       0.85909551       0.37442049 </v>
   <v>       0.00449403       0.83341062       0.87288174 </v>
   <v>       0.16211394       0.00000000       0.29371646 </v>
   <v>       0.17094122       0.00000000       0.77625034 </v>
   <v>       0.17103033       0.33165344       0.28116755 </v>
   <v>       0.17366092       0.33581644       0.78386097 </v>
   <v>       0.17103033       0.66834656       0.28116755 </v>
   <v>       0.17366092       0.66418356       0.78386097 </v>
   <v>       0.32384630       0.16282172       0.22215234 </v>
   <v>       0.32577062       0.16312310       0.71781965 </v>
   <v>       0.32637267       0.50000000       0.22251331 </v>
   <v>       0.32782949       0.50000000       0.72112779 </v>
   <v>       0.32384630       0.83717828       0.22215234 </v>
   <v>       0.32577062       0.83687690       0.71781965 </v>
   <v>       0.33065452       0.16552614       0.44796600 </v>
   <v>       0.33069427       0.16577033       0.94602960 </v>
   <v>       0.32950112       0.50000000       0.44801665 </v>
   <v>       0.33306910       0.50000000       0.94844429 </v>
   <v>       0.33065452       0.83447386       0.44796600 </v>
   <v>       0.33069427       0.83422967       0.94602960 </v>
   <v>       0.16593165       0.00000000       0.06004126 </v>
   <v>       0.16987046       0.33466272       0.05559861 </v>
   <v>       0.16756820       0.33009195       0.55606107 </v>
   <v>       0.16987046       0.66533728       0.05559861 </v>
   <v>       0.16756820       0.66990805       0.55606107 </v>
   <v>       0.10213498       0.00000000       0.40633080 </v>
  </varray>
 </structure>
</modeling>
