 running    4 mpi-ranks, on    1 nodes
 distrk:  each k-point on    1 cores,    4 groups
 distr:  one band on    1 cores,    1 groups
 OpenACC runtime initialized ...    4 GPUs detected
 vasp.6.4.2 20Jul23 (build Nov 12 2023 22:16:35) complex                         
 POSCAR found type information on POSCAR GaO P 
 POSCAR found :  3 types and     119 ions
 scaLAPACK will be used selectively (only on CPU)
 LDA part: xc-table for Pade appr. of Perdew
 POSCAR, INCAR and KPOINTS ok, starting setup
 FFT: planning ... GRIDC
 FFT: planning ... GRID_SOFT
 FFT: planning ... GRID
 WAVECAR not read
 initial charge from wavefunction
 entering main loop
       N       E                     dE             d eps       ncg     rms          ort
DAV:   1    -0.176052441305E+05   -0.17605E+05   -0.53995E+05  5064   0.748E+03
DAV:   2    -0.628557624724E+05   -0.45251E+05   -0.43674E+05  5064   0.124E+03
DAV:   3    -0.681592001106E+05   -0.53034E+04   -0.47900E+04  5064   0.381E+02
DAV:   4    -0.689587673536E+05   -0.79957E+03   -0.72391E+03  5064   0.123E+02
DAV:   5    -0.393873119327E+05    0.29571E+05   -0.68299E+02  5064   0.569E+01
 gam= 0.000 g(H,U,f)=  0.821E+05 0.144E+05 0.241E-02 ort(H,U,f) = 0.000E+00 0.000E+00 0.000E+00
SDA:   6     0.310671909390E+05    0.70455E+05   -0.68299E+02  5064   0.965E+05 0.000E+00
 gam= 0.000 trial= 0.400  step= 0.453 mean= 0.400
 gam= 0.709 g(H,U,f)=  0.400E+05 0.241E+05 0.430E+04 ort(H,U,f) =-0.977E+04-0.117E+05-0.100E+04
CGA:   7     0.110891843595E+05   -0.19978E+05   -0.21838E+05  5064   0.684E+05-0.225E+05
 gam= 0.709 trial= 0.403  step= 0.247 mean= 0.403
 gam= 0.358 g(H,U,f)=  0.166E+05 0.741E+04 0.509E+03 ort(H,U,f) = 0.162E+04 0.541E+04-0.206E+03
CGA:   8     0.562033509515E+04   -0.54688E+04   -0.64769E+04  5064   0.245E+05 0.683E+04
 gam= 0.358 trial= 0.395  step= 0.194 mean= 0.395
 gam= 0.726 g(H,U,f)=  0.139E+05 0.365E+04 0.173E+03 ort(H,U,f) = 0.167E+04-0.209E+04-0.323E+02
CGA:   9     0.372605929753E+04   -0.18943E+04   -0.26166E+04  5064   0.178E+05-0.447E+03
 gam= 0.726 trial= 0.385  step= 0.248 mean= 0.385
 gam= 0.460 g(H,U,f)=  0.691E+04 0.126E+04 0.213E+01 ort(H,U,f) = 0.151E+04 0.221E+03-0.165E-01
CGA:  10     0.197473520190E+04   -0.17513E+04   -0.21651E+04  5064   0.817E+04 0.173E+04
 gam= 0.460 trial= 0.378  step= 0.288 mean= 0.378
 gam= 0.401 g(H,U,f)=  0.295E+04 0.301E+03 0.209E+02 ort(H,U,f) = 0.564E+03 0.325E+03-0.127E+02
CGA:  11     0.815465388332E+03   -0.11593E+04   -0.12909E+04  5064   0.328E+04 0.877E+03
 gam= 0.401 trial= 0.373  step= 0.434 mean= 0.373
 gam= 0.404 g(H,U,f)=  0.114E+04 0.185E+03 0.145E+01 ort(H,U,f) = 0.214E+03 0.118E+03-0.522E+01
CGA:  12     0.103861769690E+02   -0.80508E+03   -0.78767E+03  5064   0.132E+04 0.327E+03
 gam= 0.404 trial= 0.377  step= 0.542 mean= 0.377
 gam= 0.650 g(H,U,f)=  0.698E+03 0.158E+03 0.353E+01 ort(H,U,f) =-0.115E+03 0.587E+02-0.172E+01
CGA:  13    -0.390284243198E+03   -0.40067E+03   -0.39437E+03  5064   0.860E+03-0.584E+02
 gam= 0.650 trial= 0.385  step= 0.513 mean= 0.385
 gam= 0.519 g(H,U,f)=  0.389E+03 0.571E+02 0.366E+00 ort(H,U,f) =-0.151E+03 0.132E+03 0.982E+00
CGA:  14    -0.600026012225E+03   -0.20974E+03   -0.21097E+03  5064   0.446E+03-0.182E+02
 gam= 0.519 trial= 0.391  step= 0.519 mean= 0.391
 gam= 0.513 g(H,U,f)=  0.204E+03 0.245E+02 0.383E-01 ort(H,U,f) =-0.369E+02 0.151E+02 0.277E-01
CGA:  15    -0.711782271764E+03   -0.11176E+03   -0.11326E+03  5064   0.229E+03-0.218E+02
 gam= 0.513 trial= 0.398  step= 0.499 mean= 0.398
 gam= 0.558 g(H,U,f)=  0.100E+03 0.249E+02 0.244E+01 ort(H,U,f) = 0.449E+01-0.100E+02 0.476E+01
CGA:  16    -0.766187363699E+03   -0.54405E+02   -0.54321E+02  5064   0.128E+03-0.779E+00
 gam= 0.558 trial= 0.403  step= 0.459 mean= 0.403
 gam= 0.544 g(H,U,f)=  0.530E+02 0.165E+02 0.477E-02 ort(H,U,f) = 0.204E+01 0.211E+01 0.625E-02
CGA:  17    -0.795605413557E+03   -0.29418E+02   -0.29182E+02  5064   0.695E+02 0.415E+01
 gam= 0.544 trial= 0.406  step= 0.514 mean= 0.406
 gam= 0.578 g(H,U,f)=  0.304E+02 0.974E+01 0.308E-02 ort(H,U,f) =-0.744E+01 0.759E+01-0.647E-02
CGA:  18    -0.814073162504E+03   -0.18468E+02   -0.18445E+02  5064   0.402E+02 0.139E+00
 gam= 0.578 trial= 0.411  step= 0.543 mean= 0.411
 gam= 0.618 g(H,U,f)=  0.196E+02 0.522E+01 0.174E-01 ort(H,U,f) =-0.644E+01 0.654E+01-0.114E-01
CGA:  19    -0.825016746563E+03   -0.10944E+02   -0.10939E+02  5064   0.248E+02 0.938E-01
 gam= 0.618 trial= 0.418  step= 0.531 mean= 0.418
 gam= 0.561 g(H,U,f)=  0.114E+02 0.252E+01 0.341E-01 ort(H,U,f) =-0.353E+01 0.369E+01 0.115E-01
CGA:  20    -0.831640706099E+03   -0.66240E+01   -0.66159E+01  5064   0.139E+02 0.169E+00
 gam= 0.561 trial= 0.423  step= 0.521 mean= 0.423
 gam= 0.519 g(H,U,f)=  0.610E+01 0.112E+01 0.181E-02 ort(H,U,f) =-0.119E+01 0.136E+01 0.639E-02
CGA:  21    -0.835305131417E+03   -0.36644E+01   -0.36561E+01  5064   0.722E+01 0.174E+00
 gam= 0.519 trial= 0.428  step= 0.541 mean= 0.428
 gam= 0.555 g(H,U,f)=  0.339E+01 0.613E+00 0.985E-03 ort(H,U,f) =-0.157E+00 0.279E+00-0.113E-02
CGA:  22    -0.837291188587E+03   -0.19861E+01   -0.19788E+01  5064   0.401E+01 0.121E+00
 gam= 0.555 trial= 0.434  step= 0.519 mean= 0.434
 gam= 0.574 g(H,U,f)=  0.188E+01 0.422E+00 0.115E-02 ort(H,U,f) =-0.894E-01 0.137E+00 0.436E-03
CGA:  23    -0.838350557132E+03   -0.10594E+01   -0.10571E+01  5064   0.230E+01 0.477E-01
 gam= 0.574 trial= 0.438  step= 0.496 mean= 0.438
 gam= 0.549 g(H,U,f)=  0.993E+00 0.269E+00 0.752E-04 ort(H,U,f) =-0.161E+00 0.173E+00 0.121E-03
CGA:  24    -0.838927969777E+03   -0.57741E+00   -0.57703E+00  5064   0.126E+01 0.123E-01
 gam= 0.549 trial= 0.441  step= 0.493 mean= 0.441
 gam= 0.554 g(H,U,f)=  0.535E+00 0.165E+00 0.132E-03 ort(H,U,f) =-0.174E+00 0.175E+00-0.165E-03
CGA:  25    -0.839241073970E+03   -0.31310E+00   -0.31309E+00  5064   0.700E+00 0.129E-02
 gam= 0.554 trial= 0.444  step= 0.556 mean= 0.444
 gam= 0.577 g(H,U,f)=  0.327E+00 0.773E-01 0.806E-05 ort(H,U,f) =-0.114E+00 0.114E+00-0.121E-04
CGA:  26    -0.839435817349E+03   -0.19474E+00   -0.19481E+00  5064   0.404E+00-0.505E-03
 gam= 0.577 trial= 0.449  step= 0.566 mean= 0.449
 gam= 0.536 g(H,U,f)=  0.181E+00 0.360E-01 0.930E-04 ort(H,U,f) =-0.421E-01 0.423E-01 0.916E-05
CGA:  27    -0.839549948838E+03   -0.11413E+00   -0.11414E+00  5064   0.217E+00 0.147E-03
 gam= 0.536 trial= 0.455  step= 0.578 mean= 0.455
 gam= 0.591 g(H,U,f)=  0.108E+00 0.198E-01 0.209E-05 ort(H,U,f) =-0.903E-02 0.923E-02 0.126E-04
CGA:  28    -0.839612574969E+03   -0.62626E-01   -0.62617E-01  5064   0.128E+00 0.211E-03
 gam= 0.591 trial= 0.461  step= 0.547 mean= 0.461
 gam= 0.579 g(H,U,f)=  0.603E-01 0.137E-01 0.195E-04 ort(H,U,f) =-0.684E-03 0.820E-03-0.313E-04
CGA:  29    -0.839647617488E+03   -0.35043E-01   -0.35038E-01  5064   0.741E-01 0.104E-03
 gam= 0.579 trial= 0.465  step= 0.507 mean= 0.465
 gam= 0.550 g(H,U,f)=  0.308E-01 0.996E-02 0.310E-05 ort(H,U,f) =-0.320E-02 0.325E-02 0.437E-06
CGA:  30    -0.839666428539E+03   -0.18811E-01   -0.18810E-01  5064   0.408E-01 0.552E-04
 gam= 0.550 trial= 0.468  step= 0.528 mean= 0.468
 gam= 0.600 g(H,U,f)=  0.184E-01 0.607E-02 0.107E-05 ort(H,U,f) =-0.499E-02 0.507E-02-0.212E-05
CGA:  31    -0.839677204785E+03   -0.10776E-01   -0.10774E-01  5064   0.245E-01 0.757E-04
 gam= 0.600 trial= 0.471  step= 0.563 mean= 0.471
 gam= 0.577 g(H,U,f)=  0.110E-01 0.312E-02 0.521E-06 ort(H,U,f) =-0.367E-02 0.377E-02 0.194E-06
CGA:  32    -0.839684117200E+03   -0.69124E-02   -0.69077E-02  5064   0.141E-01 0.965E-04
 gam= 0.577 trial= 0.475  step= 0.569 mean= 0.475
 gam= 0.596 g(H,U,f)=  0.702E-02 0.139E-02 0.507E-06 ort(H,U,f) =-0.175E-02 0.182E-02 0.103E-06
CGA:  33    -0.839688157834E+03   -0.40406E-02   -0.40372E-02  5064   0.842E-02 0.727E-04
 gam= 0.596 trial= 0.480  step= 0.577 mean= 0.480
 gam= 0.602 g(H,U,f)=  0.437E-02 0.693E-03 0.276E-06 ort(H,U,f) =-0.352E-03 0.378E-03-0.227E-06
CGA:  34    -0.839690599866E+03   -0.24420E-02   -0.24408E-02  5064   0.507E-02 0.265E-04
 gam= 0.602 trial= 0.485  step= 0.523 mean= 0.485
 gam= 0.556 g(H,U,f)=  0.234E-02 0.477E-03 0.291E-06 ort(H,U,f) = 0.205E-06-0.103E-04-0.163E-06
CGA:  35    -0.839691929553E+03   -0.13297E-02   -0.13299E-02  5064   0.282E-02-0.103E-04
 gam= 0.556 trial= 0.487  step= 0.516 mean= 0.487
 gam= 0.574 g(H,U,f)=  0.127E-02 0.350E-03 0.200E-07 ort(H,U,f) =-0.896E-04 0.737E-04 0.656E-07
CGA:  36    -0.839692654911E+03   -0.72536E-03   -0.72559E-03  5064   0.162E-02-0.158E-04
 gam= 0.574 trial= 0.488  step= 0.541 mean= 0.488
 gam= 0.000 g(H,U,f)=  0.698E-03 0.234E-03 0.131E-06 ort(H,U,f) =-0.168E-03 0.161E-03 0.209E-07
SDA:  37    -0.839693090370E+03   -0.43546E-03   -0.43564E-03  5064   0.933E-03-0.659E-05
 gam= 0.000 trial= 0.491  step= 0.892 mean= 0.491
 gam= 0.478 g(H,U,f)=  0.343E-03 0.102E-03 0.157E-06 ort(H,U,f) =-0.123E-03 0.129E-03-0.123E-06
CGA:  38    -0.839693507473E+03   -0.41710E-03   -0.41597E-03  5064   0.445E-03 0.564E-05
 gam= 0.478 trial= 0.511  step= 0.728 mean= 0.511
 gam= 0.432 g(H,U,f)=  0.166E-03 0.259E-04 0.218E-07 ort(H,U,f) =-0.859E-04 0.822E-04 0.337E-08
CGA:  39    -0.839693670240E+03   -0.16277E-03   -0.16317E-03  5064   0.192E-03-0.367E-05
 gam= 0.432 trial= 0.522  step= 0.602 mean= 0.522
 gam= 0.290 g(H,U,f)=  0.505E-04 0.537E-05 0.102E-07 ort(H,U,f) =-0.294E-04 0.237E-04 0.921E-09
CGA:  40    -0.839693727473E+03   -0.57233E-04   -0.57464E-04  5064   0.558E-04-0.570E-05
 gam= 0.290 trial= 0.526  step= 0.671 mean= 0.526
 gam= 0.302 g(H,U,f)=  0.162E-04 0.671E-06 0.664E-08 ort(H,U,f) =-0.541E-05 0.357E-05-0.920E-08
CGA:  41    -0.839693745509E+03   -0.18036E-04   -0.18171E-04  5064   0.168E-04-0.185E-05
 gam= 0.302 trial= 0.533  step= 0.601 mean= 0.533
 gam= 0.250 g(H,U,f)=  0.406E-05 0.145E-06 0.401E-09 ort(H,U,f) =-0.331E-06 0.251E-06-0.331E-09
CGA:  42    -0.839693750396E+03   -0.48874E-05   -0.48914E-05  5064   0.420E-05-0.801E-07
 gam= 0.250 trial= 0.536  step= 0.643 mean= 0.536
 final diagonalization
   1 F= -.83969375E+03 E0= -.83969092E+03  d E =-.566487E-02
 writing wavefunctions
Warning: ieee_invalid is signaling
Warning: ieee_divide_by_zero is signaling
Warning: ieee_underflow is signaling
Warning: ieee_inexact is signaling
FORTRAN STOP
Warning: ieee_invalid is signaling
Warning: ieee_divide_by_zero is signaling
Warning: ieee_underflow is signaling
Warning: ieee_inexact is signaling
FORTRAN STOP
Warning: ieee_invalid is signaling
Warning: ieee_divide_by_zero is signaling
Warning: ieee_underflow is signaling
Warning: ieee_inexact is signaling
FORTRAN STOP
Warning: ieee_invalid is signaling
Warning: ieee_divide_by_zero is signaling
Warning: ieee_underflow is signaling
Warning: ieee_inexact is signaling
FORTRAN STOP
