 running    4 mpi-ranks, on    1 nodes
 distrk:  each k-point on    1 cores,    4 groups
 distr:  one band on    1 cores,    1 groups
 OpenACC runtime initialized ...    4 GPUs detected
 vasp.6.4.2 20Jul23 (build Nov 12 2023 22:16:35) complex                         
 POSCAR found type information on POSCAR GaO P 
 POSCAR found :  3 types and     119 ions
 scaLAPACK will be used selectively (only on CPU)
 LDA part: xc-table for Pade appr. of Perdew
 POSCAR, INCAR and KPOINTS ok, starting setup
 FFT: planning ... GRIDC
 FFT: planning ... GRID_SOFT
 FFT: planning ... GRID
 WAVECAR not read
 initial charge from wavefunction
 entering main loop
       N       E                     dE             d eps       ncg     rms          ort
DAV:   1    -0.183395188743E+05   -0.18340E+05   -0.54275E+05  5000   0.749E+03
DAV:   2    -0.627399147449E+05   -0.44400E+05   -0.42976E+05  5000   0.122E+03
DAV:   3    -0.676377976128E+05   -0.48979E+04   -0.44329E+04  5000   0.369E+02
DAV:   4    -0.682921862766E+05   -0.65439E+03   -0.57997E+03  5000   0.114E+02
DAV:   5    -0.386910511404E+05    0.29601E+05   -0.73764E+02  5000   0.570E+01
 gam= 0.000 g(H,U,f)=  0.766E+05 0.151E+05 0.902E+01 ort(H,U,f) = 0.000E+00 0.000E+00 0.000E+00
SDA:   6     0.270034252312E+05    0.65694E+05   -0.73764E+02  5000   0.917E+05 0.000E+00
 gam= 0.000 trial= 0.400  step= 0.422 mean= 0.400
 gam= 0.726 g(H,U,f)=  0.290E+05 0.327E+05 0.480E+04 ort(H,U,f) =-0.775E+04-0.203E+05-0.361E+04
CGA:   7     0.839931549448E+04   -0.18604E+05   -0.19354E+05  5000   0.665E+05-0.317E+05
 gam= 0.726 trial= 0.401  step= 0.214 mean= 0.401
 gam= 0.337 g(H,U,f)=  0.157E+05 0.649E+04 0.273E+03 ort(H,U,f) = 0.274E+04 0.406E+04 0.553E+03
CGA:   8     0.500257349569E+04   -0.33967E+04   -0.46511E+04  5000   0.225E+05 0.735E+04
 gam= 0.337 trial= 0.392  step= 0.213 mean= 0.392
 gam= 0.796 g(H,U,f)=  0.106E+05 0.629E+04 0.968E+03 ort(H,U,f) = 0.251E+04-0.825E+03-0.129E+03
CGA:   9     0.308078219578E+04   -0.19218E+04   -0.26530E+04  5000   0.179E+05 0.156E+04
 gam= 0.796 trial= 0.383  step= 0.221 mean= 0.383
 gam= 0.448 g(H,U,f)=  0.689E+04 0.111E+04 0.834E+01 ort(H,U,f) = 0.192E+04 0.367E+03-0.265E+02
CGA:  10     0.188718894684E+04   -0.11936E+04   -0.21105E+04  5000   0.801E+04 0.226E+04
 gam= 0.448 trial= 0.375  step= 0.290 mean= 0.375
 gam= 0.489 g(H,U,f)=  0.305E+04 0.819E+03 0.513E+02 ort(H,U,f) = 0.634E+03 0.359E+03-0.592E+01
CGA:  11     0.700155312626E+03   -0.11870E+04   -0.13101E+04  5000   0.392E+04 0.987E+03
 gam= 0.489 trial= 0.370  step= 0.355 mean= 0.370
 gam= 0.365 g(H,U,f)=  0.130E+04 0.126E+03 0.292E+00 ort(H,U,f) = 0.509E+03 0.158E+03 0.880E+00
CGA:  12    -0.705507773225E+02   -0.77071E+03   -0.78189E+03  5000   0.143E+04 0.668E+03
 gam= 0.365 trial= 0.370  step= 0.510 mean= 0.370
 gam= 0.509 g(H,U,f)=  0.634E+03 0.942E+02 0.505E+00 ort(H,U,f) =-0.502E+02 0.131E+03 0.815E+00
CGA:  13    -0.506337997585E+03   -0.43579E+03   -0.42649E+03  5000   0.729E+03 0.813E+02
 gam= 0.509 trial= 0.377  step= 0.582 mean= 0.377
 gam= 0.540 g(H,U,f)=  0.341E+03 0.517E+02 0.958E+00 ort(H,U,f) =-0.124E+03 0.982E+02 0.173E+01
CGA:  14    -0.729639754670E+03   -0.22330E+03   -0.22416E+03  5000   0.393E+03-0.244E+02
 gam= 0.540 trial= 0.387  step= 0.558 mean= 0.387
 gam= 0.561 g(H,U,f)=  0.187E+03 0.246E+02 0.864E+01 ort(H,U,f) =-0.479E+02 0.349E+02 0.159E+02
CGA:  15    -0.835416832666E+03   -0.10578E+03   -0.10600E+03  5000   0.221E+03 0.291E+01
 gam= 0.561 trial= 0.396  step= 0.424 mean= 0.396
 gam= 0.447 g(H,U,f)=  0.868E+02 0.114E+02 0.342E+00 ort(H,U,f) = 0.156E+02 0.252E+01 0.803E+00
CGA:  16    -0.883016343323E+03   -0.47600E+02   -0.47067E+02  5000   0.986E+02 0.189E+02
 gam= 0.447 trial= 0.397  step= 0.491 mean= 0.397
 gam= 0.506 g(H,U,f)=  0.417E+02 0.809E+01 0.126E-02 ort(H,U,f) =-0.437E+00 0.192E+01-0.503E-03
CGA:  17    -0.909402042561E+03   -0.26386E+02   -0.26245E+02  5000   0.498E+02 0.148E+01
 gam= 0.506 trial= 0.402  step= 0.568 mean= 0.402
 gam= 0.525 g(H,U,f)=  0.209E+02 0.522E+01 0.648E-01 ort(H,U,f) =-0.439E+01 0.417E+01 0.139E+00
CGA:  18    -0.923791088315E+03   -0.14389E+02   -0.14363E+02  5000   0.262E+02-0.785E-01
 gam= 0.525 trial= 0.410  step= 0.534 mean= 0.410
 gam= 0.559 g(H,U,f)=  0.121E+02 0.254E+01 0.159E-02 ort(H,U,f) =-0.343E+01 0.364E+01 0.673E-03
CGA:  19    -0.930785700829E+03   -0.69946E+01   -0.69712E+01  5000   0.146E+02 0.213E+00
 gam= 0.559 trial= 0.416  step= 0.580 mean= 0.416
 gam= 0.530 g(H,U,f)=  0.660E+01 0.115E+01 0.119E-02 ort(H,U,f) =-0.171E+01 0.171E+01 0.402E-03
CGA:  20    -0.935058939097E+03   -0.42732E+01   -0.42724E+01  5000   0.775E+01 0.432E-02
 gam= 0.530 trial= 0.424  step= 0.550 mean= 0.424
 gam= 0.479 g(H,U,f)=  0.324E+01 0.473E+00 0.979E-04 ort(H,U,f) =-0.668E+00 0.685E+00 0.128E-03
CGA:  21    -0.937191675305E+03   -0.21327E+01   -0.21317E+01  5000   0.372E+01 0.167E-01
 gam= 0.479 trial= 0.431  step= 0.594 mean= 0.431
 gam= 0.519 g(H,U,f)=  0.173E+01 0.196E+00 0.617E-04 ort(H,U,f) =-0.105E+00 0.117E+00 0.386E-04
CGA:  22    -0.938298385861E+03   -0.11067E+01   -0.11058E+01  5000   0.193E+01 0.122E-01
 gam= 0.519 trial= 0.439  step= 0.548 mean= 0.439
 gam= 0.546 g(H,U,f)=  0.919E+00 0.135E+00 0.337E-04 ort(H,U,f) =-0.200E-01 0.261E-01 0.847E-04
CGA:  23    -0.938829522743E+03   -0.53114E+00   -0.53082E+00  5000   0.105E+01 0.625E-02
 gam= 0.546 trial= 0.444  step= 0.526 mean= 0.444
 gam= 0.490 g(H,U,f)=  0.435E+00 0.820E-01 0.156E-04 ort(H,U,f) =-0.429E-01 0.438E-01-0.466E-04
CGA:  24    -0.939107987440E+03   -0.27846E+00   -0.27845E+00  5000   0.517E+00 0.883E-03
 gam= 0.490 trial= 0.448  step= 0.509 mean= 0.448
 gam= 0.523 g(H,U,f)=  0.218E+00 0.522E-01 0.327E-04 ort(H,U,f) =-0.536E-01 0.534E-01-0.313E-04
CGA:  25    -0.939239719100E+03   -0.13173E+00   -0.13175E+00  5000   0.271E+00-0.257E-03
 gam= 0.523 trial= 0.451  step= 0.590 mean= 0.451
 gam= 0.536 g(H,U,f)=  0.122E+00 0.231E-01 0.846E-05 ort(H,U,f) =-0.386E-01 0.384E-01 0.519E-05
CGA:  26    -0.939319503185E+03   -0.79784E-01   -0.79811E-01  5000   0.145E+00-0.190E-03
 gam= 0.536 trial= 0.458  step= 0.582 mean= 0.458
 gam= 0.510 g(H,U,f)=  0.643E-01 0.969E-02 0.165E-06 ort(H,U,f) =-0.157E-01 0.158E-01 0.125E-05
CGA:  27    -0.939361660100E+03   -0.42157E-01   -0.42156E-01  5000   0.740E-01 0.920E-04
 gam= 0.510 trial= 0.464  step= 0.620 mean= 0.464
 gam= 0.586 g(H,U,f)=  0.386E-01 0.472E-02 0.157E-06 ort(H,U,f) =-0.383E-02 0.384E-02 0.484E-06
CGA:  28    -0.939384617454E+03   -0.22957E-01   -0.22957E-01  5000   0.434E-01 0.133E-04
 gam= 0.586 trial= 0.472  step= 0.550 mean= 0.472
 gam= 0.494 g(H,U,f)=  0.187E-01 0.274E-02 0.129E-05 ort(H,U,f) =-0.197E-03 0.170E-03 0.785E-06
CGA:  29    -0.939396547141E+03   -0.11930E-01   -0.11931E-01  5000   0.214E-01-0.263E-04
 gam= 0.494 trial= 0.476  step= 0.532 mean= 0.476
 gam= 0.519 g(H,U,f)=  0.910E-02 0.203E-02 0.116E-05 ort(H,U,f) =-0.393E-03 0.422E-03 0.141E-05
CGA:  30    -0.939402247668E+03   -0.57005E-02   -0.56996E-02  5000   0.111E-01 0.305E-04
 gam= 0.519 trial= 0.479  step= 0.577 mean= 0.479
 gam= 0.534 g(H,U,f)=  0.472E-02 0.122E-02 0.112E-06 ort(H,U,f) =-0.920E-03 0.983E-03 0.434E-06
CGA:  31    -0.939405463993E+03   -0.32163E-02   -0.32132E-02  5000   0.594E-02 0.628E-04
 gam= 0.534 trial= 0.484  step= 0.571 mean= 0.484
 gam= 0.522 g(H,U,f)=  0.251E-02 0.586E-03 0.102E-06 ort(H,U,f) =-0.800E-03 0.841E-03-0.323E-06
CGA:  32    -0.939407171040E+03   -0.17070E-02   -0.17053E-02  5000   0.310E-02 0.407E-04
 gam= 0.522 trial= 0.488  step= 0.647 mean= 0.488
 gam= 0.620 g(H,U,f)=  0.170E-02 0.225E-03 0.946E-07 ort(H,U,f) =-0.357E-03 0.368E-03-0.957E-07
CGA:  33    -0.939408181664E+03   -0.10106E-02   -0.10097E-02  5000   0.192E-02 0.118E-04
 gam= 0.620 trial= 0.496  step= 0.583 mean= 0.496
 gam= 0.523 g(H,U,f)=  0.911E-03 0.951E-04 0.841E-08 ort(H,U,f) =-0.675E-04 0.673E-04 0.663E-08
CGA:  34    -0.939408744711E+03   -0.56305E-03   -0.56306E-03  5000   0.101E-02-0.244E-06
 gam= 0.523 trial= 0.501  step= 0.548 mean= 0.501
 gam= 0.548 g(H,U,f)=  0.484E-03 0.674E-04 0.270E-09 ort(H,U,f) = 0.101E-04-0.923E-05 0.237E-08
CGA:  35    -0.939409020616E+03   -0.27591E-03   -0.27589E-03  5000   0.552E-03 0.891E-06
 gam= 0.548 trial= 0.503  step= 0.541 mean= 0.503
 gam= 0.528 g(H,U,f)=  0.239E-03 0.523E-04 0.565E-08 ort(H,U,f) =-0.860E-05 0.864E-05 0.776E-08
CGA:  36    -0.939409169952E+03   -0.14934E-03   -0.14934E-03  5000   0.291E-03 0.477E-07
 gam= 0.528 trial= 0.505  step= 0.559 mean= 0.505
 gam= 0.000 g(H,U,f)=  0.119E-03 0.319E-04 0.989E-08 ort(H,U,f) =-0.282E-04 0.254E-04 0.126E-07
SDA:  37    -0.939409251255E+03   -0.81303E-04   -0.81378E-04  5000   0.150E-03-0.277E-05
 gam= 0.000 trial= 0.508  step= 0.958 mean= 0.508
 gam= 0.490 g(H,U,f)=  0.613E-04 0.125E-04 0.297E-09 ort(H,U,f) =-0.210E-04 0.180E-04-0.862E-09
CGA:  38    -0.939409322607E+03   -0.71351E-04   -0.72023E-04  5000   0.737E-04-0.299E-05
 gam= 0.490 trial= 0.530  step= 0.690 mean= 0.530
 gam= 0.348 g(H,U,f)=  0.223E-04 0.340E-05 0.820E-10 ort(H,U,f) =-0.117E-04 0.110E-04 0.649E-10
CGA:  39    -0.939409347494E+03   -0.24887E-04   -0.24938E-04  5000   0.257E-04-0.640E-06
 gam= 0.348 trial= 0.538  step= 0.637 mean= 0.538
 gam= 0.310 g(H,U,f)=  0.723E-05 0.723E-06 0.523E-09 ort(H,U,f) =-0.273E-05 0.308E-05 0.282E-09
CGA:  40    -0.939409355611E+03   -0.81171E-05   -0.80990E-05  5000   0.795E-05 0.341E-06
 gam= 0.310 trial= 0.543  step= 0.705 mean= 0.543
 final diagonalization
   1 F= -.93940936E+03 E0= -.93940709E+03  d E =-.453810E-02
 writing wavefunctions
Warning: ieee_invalid is signaling
Warning: ieee_divide_by_zero is signaling
Warning: ieee_underflow is signaling
Warning: ieee_inexact is signaling
FORTRAN STOP
Warning: ieee_invalid is signaling
Warning: ieee_divide_by_zero is signaling
Warning: ieee_underflow is signaling
Warning: ieee_inexact is signaling
FORTRAN STOP
Warning: ieee_invalid is signaling
Warning: ieee_divide_by_zero is signaling
Warning: ieee_underflow is signaling
Warning: ieee_inexact is signaling
FORTRAN STOP
Warning: ieee_invalid is signaling
Warning: ieee_divide_by_zero is signaling
Warning: ieee_underflow is signaling
Warning: ieee_inexact is signaling
FORTRAN STOP
