       N       E                     dE             d eps       ncg     rms          ort
DAV:   1    -0.183395188743E+05   -0.18340E+05   -0.54275E+05  5000   0.749E+03
DAV:   2    -0.627399147449E+05   -0.44400E+05   -0.42976E+05  5000   0.122E+03
DAV:   3    -0.676377976128E+05   -0.48979E+04   -0.44329E+04  5000   0.369E+02
DAV:   4    -0.682921862766E+05   -0.65439E+03   -0.57997E+03  5000   0.114E+02
DAV:   5    -0.386910511404E+05    0.29601E+05   -0.73764E+02  5000   0.570E+01
SDA:   6     0.270034252312E+05    0.65694E+05   -0.73764E+02  5000   0.917E+05 0.000E+00
CGA:   7     0.839931549448E+04   -0.18604E+05   -0.19354E+05  5000   0.665E+05-0.317E+05
CGA:   8     0.500257349569E+04   -0.33967E+04   -0.46511E+04  5000   0.225E+05 0.735E+04
CGA:   9     0.308078219578E+04   -0.19218E+04   -0.26530E+04  5000   0.179E+05 0.156E+04
CGA:  10     0.188718894684E+04   -0.11936E+04   -0.21105E+04  5000   0.801E+04 0.226E+04
CGA:  11     0.700155312626E+03   -0.11870E+04   -0.13101E+04  5000   0.392E+04 0.987E+03
CGA:  12    -0.705507773225E+02   -0.77071E+03   -0.78189E+03  5000   0.143E+04 0.668E+03
CGA:  13    -0.506337997585E+03   -0.43579E+03   -0.42649E+03  5000   0.729E+03 0.813E+02
CGA:  14    -0.729639754670E+03   -0.22330E+03   -0.22416E+03  5000   0.393E+03-0.244E+02
CGA:  15    -0.835416832666E+03   -0.10578E+03   -0.10600E+03  5000   0.221E+03 0.291E+01
CGA:  16    -0.883016343323E+03   -0.47600E+02   -0.47067E+02  5000   0.986E+02 0.189E+02
CGA:  17    -0.909402042561E+03   -0.26386E+02   -0.26245E+02  5000   0.498E+02 0.148E+01
CGA:  18    -0.923791088315E+03   -0.14389E+02   -0.14363E+02  5000   0.262E+02-0.785E-01
CGA:  19    -0.930785700829E+03   -0.69946E+01   -0.69712E+01  5000   0.146E+02 0.213E+00
CGA:  20    -0.935058939097E+03   -0.42732E+01   -0.42724E+01  5000   0.775E+01 0.432E-02
CGA:  21    -0.937191675305E+03   -0.21327E+01   -0.21317E+01  5000   0.372E+01 0.167E-01
CGA:  22    -0.938298385861E+03   -0.11067E+01   -0.11058E+01  5000   0.193E+01 0.122E-01
CGA:  23    -0.938829522743E+03   -0.53114E+00   -0.53082E+00  5000   0.105E+01 0.625E-02
CGA:  24    -0.939107987440E+03   -0.27846E+00   -0.27845E+00  5000   0.517E+00 0.883E-03
CGA:  25    -0.939239719100E+03   -0.13173E+00   -0.13175E+00  5000   0.271E+00-0.257E-03
CGA:  26    -0.939319503185E+03   -0.79784E-01   -0.79811E-01  5000   0.145E+00-0.190E-03
CGA:  27    -0.939361660100E+03   -0.42157E-01   -0.42156E-01  5000   0.740E-01 0.920E-04
CGA:  28    -0.939384617454E+03   -0.22957E-01   -0.22957E-01  5000   0.434E-01 0.133E-04
CGA:  29    -0.939396547141E+03   -0.11930E-01   -0.11931E-01  5000   0.214E-01-0.263E-04
CGA:  30    -0.939402247668E+03   -0.57005E-02   -0.56996E-02  5000   0.111E-01 0.305E-04
CGA:  31    -0.939405463993E+03   -0.32163E-02   -0.32132E-02  5000   0.594E-02 0.628E-04
CGA:  32    -0.939407171040E+03   -0.17070E-02   -0.17053E-02  5000   0.310E-02 0.407E-04
CGA:  33    -0.939408181664E+03   -0.10106E-02   -0.10097E-02  5000   0.192E-02 0.118E-04
CGA:  34    -0.939408744711E+03   -0.56305E-03   -0.56306E-03  5000   0.101E-02-0.244E-06
CGA:  35    -0.939409020616E+03   -0.27591E-03   -0.27589E-03  5000   0.552E-03 0.891E-06
CGA:  36    -0.939409169952E+03   -0.14934E-03   -0.14934E-03  5000   0.291E-03 0.477E-07
SDA:  37    -0.939409251255E+03   -0.81303E-04   -0.81378E-04  5000   0.150E-03-0.277E-05
CGA:  38    -0.939409322607E+03   -0.71351E-04   -0.72023E-04  5000   0.737E-04-0.299E-05
CGA:  39    -0.939409347494E+03   -0.24887E-04   -0.24938E-04  5000   0.257E-04-0.640E-06
CGA:  40    -0.939409355611E+03   -0.81171E-05   -0.80990E-05  5000   0.795E-05 0.341E-06
   1 F= -.93940936E+03 E0= -.93940709E+03  d E =-.453810E-02
