       N       E                     dE             d eps       ncg     rms          ort
DAV:   1    -0.176052441305E+05   -0.17605E+05   -0.53995E+05  5064   0.748E+03
DAV:   2    -0.628557624724E+05   -0.45251E+05   -0.43674E+05  5064   0.124E+03
DAV:   3    -0.681592001106E+05   -0.53034E+04   -0.47900E+04  5064   0.381E+02
DAV:   4    -0.689587673536E+05   -0.79957E+03   -0.72391E+03  5064   0.123E+02
DAV:   5    -0.393873119327E+05    0.29571E+05   -0.68299E+02  5064   0.569E+01
SDA:   6     0.310671909390E+05    0.70455E+05   -0.68299E+02  5064   0.965E+05 0.000E+00
CGA:   7     0.110891843595E+05   -0.19978E+05   -0.21838E+05  5064   0.684E+05-0.225E+05
CGA:   8     0.562033509515E+04   -0.54688E+04   -0.64769E+04  5064   0.245E+05 0.683E+04
CGA:   9     0.372605929753E+04   -0.18943E+04   -0.26166E+04  5064   0.178E+05-0.447E+03
CGA:  10     0.197473520190E+04   -0.17513E+04   -0.21651E+04  5064   0.817E+04 0.173E+04
CGA:  11     0.815465388332E+03   -0.11593E+04   -0.12909E+04  5064   0.328E+04 0.877E+03
CGA:  12     0.103861769690E+02   -0.80508E+03   -0.78767E+03  5064   0.132E+04 0.327E+03
CGA:  13    -0.390284243198E+03   -0.40067E+03   -0.39437E+03  5064   0.860E+03-0.584E+02
CGA:  14    -0.600026012225E+03   -0.20974E+03   -0.21097E+03  5064   0.446E+03-0.182E+02
CGA:  15    -0.711782271764E+03   -0.11176E+03   -0.11326E+03  5064   0.229E+03-0.218E+02
CGA:  16    -0.766187363699E+03   -0.54405E+02   -0.54321E+02  5064   0.128E+03-0.779E+00
CGA:  17    -0.795605413557E+03   -0.29418E+02   -0.29182E+02  5064   0.695E+02 0.415E+01
CGA:  18    -0.814073162504E+03   -0.18468E+02   -0.18445E+02  5064   0.402E+02 0.139E+00
CGA:  19    -0.825016746563E+03   -0.10944E+02   -0.10939E+02  5064   0.248E+02 0.938E-01
CGA:  20    -0.831640706099E+03   -0.66240E+01   -0.66159E+01  5064   0.139E+02 0.169E+00
CGA:  21    -0.835305131417E+03   -0.36644E+01   -0.36561E+01  5064   0.722E+01 0.174E+00
CGA:  22    -0.837291188587E+03   -0.19861E+01   -0.19788E+01  5064   0.401E+01 0.121E+00
CGA:  23    -0.838350557132E+03   -0.10594E+01   -0.10571E+01  5064   0.230E+01 0.477E-01
CGA:  24    -0.838927969777E+03   -0.57741E+00   -0.57703E+00  5064   0.126E+01 0.123E-01
CGA:  25    -0.839241073970E+03   -0.31310E+00   -0.31309E+00  5064   0.700E+00 0.129E-02
CGA:  26    -0.839435817349E+03   -0.19474E+00   -0.19481E+00  5064   0.404E+00-0.505E-03
CGA:  27    -0.839549948838E+03   -0.11413E+00   -0.11414E+00  5064   0.217E+00 0.147E-03
CGA:  28    -0.839612574969E+03   -0.62626E-01   -0.62617E-01  5064   0.128E+00 0.211E-03
CGA:  29    -0.839647617488E+03   -0.35043E-01   -0.35038E-01  5064   0.741E-01 0.104E-03
CGA:  30    -0.839666428539E+03   -0.18811E-01   -0.18810E-01  5064   0.408E-01 0.552E-04
CGA:  31    -0.839677204785E+03   -0.10776E-01   -0.10774E-01  5064   0.245E-01 0.757E-04
CGA:  32    -0.839684117200E+03   -0.69124E-02   -0.69077E-02  5064   0.141E-01 0.965E-04
CGA:  33    -0.839688157834E+03   -0.40406E-02   -0.40372E-02  5064   0.842E-02 0.727E-04
CGA:  34    -0.839690599866E+03   -0.24420E-02   -0.24408E-02  5064   0.507E-02 0.265E-04
CGA:  35    -0.839691929553E+03   -0.13297E-02   -0.13299E-02  5064   0.282E-02-0.103E-04
CGA:  36    -0.839692654911E+03   -0.72536E-03   -0.72559E-03  5064   0.162E-02-0.158E-04
SDA:  37    -0.839693090370E+03   -0.43546E-03   -0.43564E-03  5064   0.933E-03-0.659E-05
CGA:  38    -0.839693507473E+03   -0.41710E-03   -0.41597E-03  5064   0.445E-03 0.564E-05
CGA:  39    -0.839693670240E+03   -0.16277E-03   -0.16317E-03  5064   0.192E-03-0.367E-05
CGA:  40    -0.839693727473E+03   -0.57233E-04   -0.57464E-04  5064   0.558E-04-0.570E-05
CGA:  41    -0.839693745509E+03   -0.18036E-04   -0.18171E-04  5064   0.168E-04-0.185E-05
CGA:  42    -0.839693750396E+03   -0.48874E-05   -0.48914E-05  5064   0.420E-05-0.801E-07
   1 F= -.83969375E+03 E0= -.83969092E+03  d E =-.566487E-02
