 vasp.6.4.2 20Jul23 (build Nov 12 2023 22:16:35) complex                         
 executed on              LinuxNV date 2025.03.29  00:21:01
 running    4 mpi-ranks, on    1 nodes
 distrk:  each k-point on    1 cores,    4 groups
 distr:  one band on NCORE=   1 cores,    1 groups
 OpenACC runtime initialized ...    4 GPUs detected


--------------------------------------------------------------------------------------------------------


 INCAR:
   PREC = Normal
   ENCUT = 450
   NELM = 500
   IBRION = -1
   ISPIN = 1
   NSW = 0
   ISIF = 2
   EDIFF = 1E-5
   EDIFFG = -5E-3
   ISTART = 0
   ICHARG = 0
   ISMEAR = 0
   SIGMA = 0.05
   LWAVE = .T.
   LCHARG = .T.
   LREAL = Auto
   LPLANE = .TRUE.
   NPAR = 1
   KPAR = 4
   NCORE = 1
   ALGO = All
   LHFCALC = .TRUE.
   HSE06 = .TRUE.
   HFSCREEN = 0.2
   TIME = 0.4
   AEXX = 0.32
   LMAXFOCK = 4
   PRECFOCK = Fast
   NELECT = 1043

 POTCAR:    PAW_PBE Ga_d 06Jul2010                
 POTCAR:     PAW_PBE O 08Apr2002                  
 POTCAR:    PAW_PBE P 06Sep2000                   
 POTCAR:    PAW_PBE Ga_d 06Jul2010                
   SHA256 =  a60ddf36e14f00ea098d9e3914b3745f1b7105e68786148f49ae384e44b4226c Ga_d/POTCAR           
   COPYR  = (c) Copyright 06Jul2010 Georg Kresse                                                    
   COPYR  = This file is part of the software VASP. Any use, copying, and all other rights are regul
   COPYR  = If you do not have a valid VASP license, you may not use, copy or distribute this file. 
   VRHFIN =Ga: s2p1                                                                                 
   LEXCH  = PE                                                                                      
   EATOM  =  2148.8298 eV,  157.9345 Ry                                                             
                                                                                                    
   TITEL  = PAW_PBE Ga_d 06Jul2010                                                                  
   LULTRA =        F    use ultrasoft PP ?                                                          
   IUNSCR =        1    unscreen: 0-lin 1-nonlin 2-no                                               
   RPACOR =    1.700    partial core radius                                                         
   POMASS =   69.723; ZVAL   =   13.000    mass and valenz                                          
   RCORE  =    2.300    outmost cutoff radius                                                       
   RWIGS  =    2.300; RWIGS  =    1.217    wigner-seitz radius (au A)                               
   ENMAX  =  282.691; ENMIN  =  212.018 eV                                                          
   ICORE  =        3    local potential                                                             
   LCOR   =        T    correct aug charges                                                         
   LPAW   =        T    paw PP                                                                      
   EAUG   =  490.690                                                                                
   DEXC   =    0.000                                                                                
   RMAX   =    2.341    core radius for proj-oper                                                   
   RAUG   =    1.300    factor for augmentation sphere                                              
   RDEP   =    2.413    radius for radial grids                                                     
   RDEPT  =    1.856    core radius for aug-charge                                                  
                                                                                                    
   Atomic configuration                                                                             
    9 entries                                                                                       
     n  l   j            E        occ.                                                              
     1  0  0.50    -10228.7831   2.0000                                                             
     2  0  0.50     -1262.1604   2.0000                                                             
     2  1  1.50     -1098.6333   6.0000                                                             
     3  0  0.50      -148.1110   2.0000                                                             
     3  1  1.50       -98.8436   6.0000                                                             
     3  2  2.50       -19.1549  10.0000                                                             
     4  0  0.50        -8.9483   2.0000                                                             
     4  1  0.50        -2.5791   1.0000                                                             
     4  3  2.50        -2.7416   0.0000                                                             
   Description                                                                                      
     l       E           TYP  RCUT    TYP  RCUT                                                     
     2    -19.1549037     23  2.300                                                                 
     2     -5.4423304     23  2.300                                                                 
     0     -8.9483111     23  2.300                                                                 
     0     68.0291300     23  2.300                                                                 
     1     -2.5790802     23  2.100                                                                 
     1     81.6349560     23  2.300                                                                 
     3      6.8029130     23  2.300                                                                 
  local pseudopotential read in
  partial core-charges read in
  partial kinetic energy density read in
  atomic valenz-charges read in
  non local Contribution for L=            2  read in
    real space projection operators read in
  non local Contribution for L=            2  read in
    real space projection operators read in
  non local Contribution for L=            0  read in
    real space projection operators read in
  non local Contribution for L=            0  read in
    real space projection operators read in
  non local Contribution for L=            1  read in
    real space projection operators read in
  non local Contribution for L=            1  read in
    real space projection operators read in
    PAW grid and wavefunctions read in
 
   number of l-projection  operators is LMAX  =            6
   number of lm-projection operators is LMMAX =           18
 
 POTCAR:     PAW_PBE O 08Apr2002                  
   SHA256 =  818f92134a0a090dccd8ba1447fa70422a3b330e708bb4f08108d8ae51209ddf O/POTCAR              
   COPYR  = (c) Copyright 08Apr2002 Georg Kresse                                                    
   COPYR  = This file is part of the software VASP. Any use, copying, and all other rights are regul
   COPYR  = If you do not have a valid VASP license, you may not use, copy or distribute this file. 
   VRHFIN =O: s2p4                                                                                  
   LEXCH  = PE                                                                                      
   EATOM  =   432.3788 eV,   31.7789 Ry                                                             
                                                                                                    
   TITEL  = PAW_PBE O 08Apr2002                                                                     
   LULTRA =        F    use ultrasoft PP ?                                                          
   IUNSCR =        1    unscreen: 0-lin 1-nonlin 2-no                                               
   RPACOR =    1.200    partial core radius                                                         
   POMASS =   16.000; ZVAL   =    6.000    mass and valenz                                          
   RCORE  =    1.520    outmost cutoff radius                                                       
   RWIGS  =    1.550; RWIGS  =    0.820    wigner-seitz radius (au A)                               
   ENMAX  =  400.000; ENMIN  =  300.000 eV                                                          
   ICORE  =        2    local potential                                                             
   LCOR   =        T    correct aug charges                                                         
   LPAW   =        T    paw PP                                                                      
   EAUG   =  605.392                                                                                
   DEXC   =    0.000                                                                                
   RMAX   =    1.553    core radius for proj-oper                                                   
   RAUG   =    1.300    factor for augmentation sphere                                              
   RDEP   =    1.550    radius for radial grids                                                     
   RDEPT  =    1.329    core radius for aug-charge                                                  
                                                                                                    
   Atomic configuration                                                                             
    4 entries                                                                                       
     n  l   j            E        occ.                                                              
     1  0  0.50      -514.6923   2.0000                                                             
     2  0  0.50       -23.9615   2.0000                                                             
     2  1  0.50        -9.0305   4.0000                                                             
     3  2  1.50        -9.5241   0.0000                                                             
   Description                                                                                      
     l       E           TYP  RCUT    TYP  RCUT                                                     
     0    -23.9615318     23  1.200                                                                 
     0     -9.5240782     23  1.200                                                                 
     1     -9.0304911     23  1.520                                                                 
     1      8.1634956     23  1.520                                                                 
     2     -9.5240782      7  1.500                                                                 
  local pseudopotential read in
  partial core-charges read in
  partial kinetic energy density read in
  kinetic energy density of atom read in
  atomic valenz-charges read in
  non local Contribution for L=            0  read in
    real space projection operators read in
  non local Contribution for L=            0  read in
    real space projection operators read in
  non local Contribution for L=            1  read in
    real space projection operators read in
  non local Contribution for L=            1  read in
    real space projection operators read in
    PAW grid and wavefunctions read in
 
   number of l-projection  operators is LMAX  =            4
   number of lm-projection operators is LMMAX =            8
 
 POTCAR:    PAW_PBE P 06Sep2000                   
   SHA256 =  df60c54a93efe35c9e85ae94c010c75e9f6960a95d5595d7cdba4096d109af88 P/POTCAR              
   COPYR  = (c) Copyright 06Sep2000 Georg Kresse                                                    
   COPYR  = This file is part of the software VASP. Any use, copying, and all other rights are regul
   COPYR  = If you do not have a valid VASP license, you may not use, copy or distribute this file. 
   VRHFIN =P : s2p3                                                                                 
   LEXCH  = PE                                                                                      
   EATOM  =   176.0430 eV,   12.9388 Ry                                                             
                                                                                                    
   TITEL  = PAW_PBE P 06Sep2000                                                                     
   LULTRA =        F    use ultrasoft PP ?                                                          
   IUNSCR =        1    unscreen: 0-lin 1-nonlin 2-no                                               
   RPACOR =    1.500    partial core radius                                                         
   POMASS =   30.974; ZVAL   =    5.000    mass and valenz                                          
   RCORE  =    1.900    outmost cutoff radius                                                       
   RWIGS  =    2.330; RWIGS  =    1.233    wigner-seitz radius (au A)                               
   ENMAX  =  255.040; ENMIN  =  191.280 eV                                                          
   ICORE  =        2    local potential                                                             
   LCOR   =        T    correct aug charges                                                         
   LPAW   =        T    paw PP                                                                      
   EAUG   =  342.924                                                                                
   DEXC   =    0.000                                                                                
   RMAX   =    1.935    core radius for proj-oper                                                   
   RAUG   =    1.300    factor for augmentation sphere                                              
   RDEP   =    1.931    radius for radial grids                                                     
   RDEPT  =    1.794    core radius for aug-charge                                                  
                                                                                                    
   Atomic configuration                                                                             
    6 entries                                                                                       
     n  l   j            E        occ.                                                              
     1  0  0.50     -2084.0982   2.0000                                                             
     2  0  0.50      -173.9859   2.0000                                                             
     2  1  1.50      -124.4865   6.0000                                                             
     3  0  0.50       -13.9692   2.0000                                                             
     3  1  0.50        -5.5067   3.0000                                                             
     3  2  1.50        -5.4423   0.0000                                                             
   Description                                                                                      
     l       E           TYP  RCUT    TYP  RCUT                                                     
     0    -13.9691527     23  1.900                                                                 
     0    -11.7794650     23  1.900                                                                 
     1     -5.5066937     23  1.900                                                                 
     1     -0.2556953     23  1.900                                                                 
     2     -5.4423304     23  1.900                                                                 
  local pseudopotential read in
  partial core-charges read in
  partial kinetic energy density read in
  atomic valenz-charges read in
  non local Contribution for L=            0  read in
    real space projection operators read in
  non local Contribution for L=            0  read in
    real space projection operators read in
  non local Contribution for L=            1  read in
    real space projection operators read in
  non local Contribution for L=            1  read in
    real space projection operators read in
    PAW grid and wavefunctions read in
 
   number of l-projection  operators is LMAX  =            4
   number of lm-projection operators is LMMAX =            8
 
 Optimization of the real space projectors (new method)

 maximal supplied QI-value         = 16.25
 optimisation between [QCUT,QGAM] = [ 10.73, 21.61] = [ 32.22,130.83] Ry 
 Optimized for a Real-space Cutoff    1.42 Angstroem

   l    n(q)    QCUT    max X(q) W(low)/X(q) W(high)/X(q)  e(spline) 
   2      8    10.726     7.143    0.22E-03    0.16E-03    0.73E-07
   2      8    10.726     5.586    0.40E-03    0.26E-03    0.10E-06
   0      9    10.726    12.382    0.25E-04    0.21E-05    0.37E-07
   0      9    10.726     6.622    0.42E-04    0.48E-05    0.77E-07
   1      9    10.726     7.935    0.27E-03    0.13E-04    0.16E-06
   1      9    10.726     2.425    0.23E-03    0.15E-04    0.14E-06
 Optimization of the real space projectors (new method)

 maximal supplied QI-value         = 24.76
 optimisation between [QCUT,QGAM] = [ 10.64, 21.54] = [ 31.73,129.89] Ry 
 Optimized for a Real-space Cutoff    1.23 Angstroem

   l    n(q)    QCUT    max X(q) W(low)/X(q) W(high)/X(q)  e(spline) 
   0      8    10.645    20.381    0.38E-03    0.60E-03    0.15E-06
   0      8    10.645    15.268    0.40E-03    0.65E-03    0.17E-06
   1      7    10.645     5.964    0.30E-03    0.63E-03    0.18E-06
   1      7    10.645     5.382    0.24E-03    0.53E-03    0.16E-06
 Optimization of the real space projectors (new method)

 maximal supplied QI-value         = 19.84
 optimisation between [QCUT,QGAM] = [ 10.71, 21.63] = [ 32.15,130.99] Ry 
 Optimized for a Real-space Cutoff    1.19 Angstroem

   l    n(q)    QCUT    max X(q) W(low)/X(q) W(high)/X(q)  e(spline) 
   0      8    10.715   160.924    0.37E-03    0.37E-04    0.63E-07
   0      8    10.715   130.086    0.37E-03    0.36E-04    0.63E-07
   1      7    10.715    74.434    0.19E-03    0.56E-03    0.65E-07
   1      7    10.715    49.120    0.19E-03    0.55E-03    0.63E-07
  PAW_PBE Ga_d 06Jul2010                :
 energy of atom  1       EATOM=-2148.8298
 kinetic energy error for atom=    0.0038 (will be added to EATOM!!)
   PAW_PBE O 08Apr2002                  :
 energy of atom  2       EATOM= -432.3788
 kinetic energy error for atom=    0.0389 (will be added to EATOM!!)
  PAW_PBE P 06Sep2000                   :
 energy of atom  3       EATOM= -176.0430
 kinetic energy error for atom=    0.0019 (will be added to EATOM!!)
 
 
 POSCAR: Ga48 O72
  positions in direct lattice
  velocities in cartesian coordinates
 exchange correlation table for  LEXCH =        8
   RHO(1)=    0.500       N(1)  =     2000
   RHO(2)=  100.500       N(2)  =     4000
 


--------------------------------------------------------------------------------------------------------


 ion  position               nearest neighbor table
   1  0.657  0.997  0.156-  82 1.95  84 1.95  78 1.96  66 2.01  64 2.08  60 2.08
   2  0.660  0.002  0.657-  85 1.94  83 1.95  79 1.96  67 2.02  65 2.07  61 2.08
   3  0.658  0.330  0.158-  78 1.95  86 1.96  80 1.96  68 2.05  62 2.05  60 2.06
   4  0.659  0.335  0.657-  87 1.94  81 1.95  79 1.95  69 2.02  63 2.07  61 2.08
   5  0.659  0.664  0.158-  80 1.96  88 1.96  82 1.96  70 2.01  64 2.05  62 2.08
   6  0.660  0.668  0.657-  89 1.94  83 1.95  81 1.96  71 2.02  63 2.08  65 2.09
   7  0.841  0.151  0.342-  72 1.94  74 1.95  66 2.01  60 2.03  68 2.12 119 2.87
   8  0.841  0.168  0.844-  73 1.95  90 1.95  75 1.95  61 2.02  67 2.07  69 2.08
   9  0.847  0.492  0.343-  91 1.95  74 1.96  76 1.96  68 2.05  70 2.08  62 2.08
  10  0.841  0.502  0.844-  92 1.94  77 1.95  75 1.96  63 2.02  71 2.08  69 2.08
  11  0.845  0.826  0.345-  93 1.86  76 1.97  72 1.98  64 2.06  70 2.09  66 2.12
  12  0.842  0.836  0.844-  94 1.95  77 1.95  73 1.96  65 2.03  67 2.08  71 2.08
  13  0.591  0.167  0.398-  79 1.84  54 1.85  56 1.85  60 1.87
  14  0.590  0.167  0.897-  78 1.84  57 1.85  55 1.85  61 1.88
  15  0.592  0.502  0.397-  81 1.85  56 1.85  58 1.85  62 1.87
  16  0.589  0.501  0.897-  80 1.84  57 1.85  59 1.86  63 1.88
  17  0.593  0.835  0.397-  83 1.84  54 1.85  58 1.85  64 1.87
  18  0.591  0.834  0.898-  82 1.84  59 1.85  55 1.85  65 1.87
  19  0.910  0.002  0.105-  52 1.84  73 1.85  48 1.86  66 1.87
  20  0.908  0.000  0.601-  72 1.84  53 1.84  49 1.86  67 1.88
  21  0.909  0.336  0.103-  75 1.84  50 1.84  48 1.85  68 1.87
  22  0.909  0.335  0.602-  74 1.84  51 1.84  49 1.84  69 1.87
  23  0.908  0.667  0.102-  77 1.84  52 1.84  50 1.85  70 1.86
  24  0.907  0.666  0.601-  76 1.84  51 1.85  53 1.85  71 1.88
  25  0.158  0.173  0.159-  48 1.94 115 1.94 113 1.95 101 2.01  97 2.05  95 2.18
  26  0.158  0.175  0.655- 116 1.93  49 1.94 102 2.01 114 2.06  98 2.06  96 2.06
  27  0.161  0.503  0.157-  50 1.95 117 1.95 115 1.96  97 2.00 103 2.04  99 2.07
  28  0.159  0.507  0.657- 116 1.91  51 1.95 118 1.95 100 2.04 104 2.04  98 2.11
  29  0.155  0.831  0.157-  52 1.91 117 1.94 113 1.95 105 2.00  99 2.03  95 2.38
  30  0.154  0.837  0.647- 118 1.92  53 1.92 106 2.02  96 2.08 114 2.14 100 2.14
  31  0.339  0.004  0.348- 111 1.93 107 1.93  54 1.96 101 2.05 105 2.06  95 2.21
  32  0.339  0.001  0.840-  55 1.95 108 1.96 112 1.96 102 2.05  96 2.05 106 2.06
  33  0.343  0.338  0.343-  56 1.93 109 1.95 107 1.96  97 1.99 103 2.08 101 2.12
  34  0.339  0.336  0.844-  57 1.94 110 1.95 108 1.97  98 2.01 104 2.08 102 2.12
  35  0.340  0.670  0.344- 109 1.94 111 1.95  58 1.95  99 2.02 103 2.07 105 2.11
  36  0.338  0.669  0.843-  59 1.95 112 1.95 110 1.96 100 2.01 104 2.04 106 2.16
  37  0.093  0.002  0.898-  94 1.85  90 1.85 113 1.87  96 1.91
  38  0.103  0.316  0.402- 116 1.87  91 1.91  97 1.91 119 2.34
  39  0.091  0.336  0.898- 115 1.84  92 1.85  90 1.85  98 1.87
  40  0.086  0.665  0.395-  93 1.80 118 1.86  91 1.88  99 1.89
  41  0.091  0.668  0.896-  94 1.85 117 1.85  92 1.85 100 1.87
  42  0.406  0.165  0.102-  86 1.85  84 1.85 108 1.85 101 1.89
  43  0.411  0.171  0.604- 107 1.84  87 1.84  85 1.85 102 1.87
  44  0.410  0.501  0.102- 110 1.84  88 1.85  86 1.85 103 1.86
  45  0.408  0.503  0.603- 109 1.84  87 1.85  89 1.85 104 1.87
  46  0.404  0.835  0.102-  84 1.85  88 1.85 112 1.86 105 1.90
  47  0.411  0.836  0.602- 111 1.84  89 1.84  85 1.84 106 1.87
  48  0.996  0.170  0.139-  21 1.85  19 1.86  25 1.94
  49  0.996  0.168  0.622-  22 1.84  20 1.86  26 1.94
  50  0.997  0.502  0.126-  21 1.84  23 1.85  27 1.95
  51  0.996  0.501  0.628-  22 1.84  24 1.85  28 1.95
  52  0.995  0.833  0.126-  19 1.84  23 1.84  29 1.91
  53  0.995  0.833  0.627-  20 1.84  24 1.85  30 1.92
  54  0.503  0.001  0.373-  13 1.85  17 1.85  31 1.96
  55  0.502  0.000  0.872-  18 1.85  14 1.85  32 1.95
  56  0.505  0.335  0.372-  13 1.85  15 1.85  33 1.93
  57  0.501  0.333  0.872-  14 1.85  16 1.85  34 1.94
  58  0.504  0.669  0.373-  17 1.85  15 1.85  35 1.95
  59  0.501  0.669  0.872-  18 1.85  16 1.86  36 1.95
  60  0.672  0.164  0.280-  13 1.87   7 2.03   3 2.06   1 2.08
  61  0.673  0.169  0.781-  14 1.88   8 2.02   4 2.08   2 2.08
  62  0.674  0.495  0.281-  15 1.87   3 2.05   9 2.08   5 2.08
  63  0.672  0.502  0.781-  16 1.88  10 2.02   4 2.07   6 2.08
  64  0.674  0.830  0.280-  17 1.87   5 2.05  11 2.06   1 2.08
  65  0.673  0.836  0.781-  18 1.87  12 2.03   2 2.07   6 2.09
  66  0.824  0.995  0.217-  19 1.87   1 2.01   7 2.01  11 2.12
  67  0.828  0.003  0.720-  20 1.88   2 2.02   8 2.07  12 2.08
  68  0.829  0.326  0.220-  21 1.87   3 2.05   9 2.05   7 2.12
  69  0.828  0.335  0.720-  22 1.87   4 2.02  10 2.08   8 2.08
  70  0.827  0.659  0.218-  23 1.86   5 2.01   9 2.08  11 2.09
  71  0.827  0.669  0.720-  24 1.88   6 2.02  10 2.08  12 2.08
  72  0.824  0.992  0.447-  20 1.84   7 1.94  11 1.98
  73  0.834  0.003  0.947-  19 1.85   8 1.95  12 1.96
  74  0.841  0.321  0.443-  22 1.84   7 1.95   9 1.96
  75  0.833  0.335  0.946-  21 1.84   8 1.95  10 1.96
  76  0.830  0.656  0.445-  24 1.84   9 1.96  11 1.97
  77  0.831  0.668  0.945-  23 1.84  10 1.95  12 1.95
  78  0.666  0.165  0.054-  14 1.84   3 1.95   1 1.96
  79  0.668  0.169  0.554-  13 1.84   4 1.95   2 1.96
  80  0.665  0.498  0.054-  16 1.84   5 1.96   3 1.96
  81  0.669  0.501  0.554-  15 1.85   4 1.95   6 1.96
  82  0.667  0.831  0.054-  18 1.84   1 1.95   5 1.96
  83  0.668  0.834  0.555-  17 1.84   6 1.95   2 1.95
  84  0.494  0.999  0.127-  46 1.85  42 1.85   1 1.95
  85  0.498  0.003  0.628-  47 1.84  43 1.85   2 1.94
  86  0.494  0.331  0.127-  42 1.85  44 1.85   3 1.96
  87  0.497  0.338  0.629-  43 1.84  45 1.85   4 1.94
  88  0.495  0.670  0.127-  44 1.85  46 1.85   5 1.96
  89  0.497  0.669  0.628-  47 1.84  45 1.85   6 1.94
  90  0.004  0.168  0.874-  39 1.85  37 1.85   8 1.95
  91  0.010  0.485  0.374-  40 1.88  38 1.91   9 1.95
  92  0.003  0.502  0.872-  39 1.85  41 1.85  10 1.94
  93  0.001  0.827  0.373-  40 1.80  11 1.86 119 2.31
  94  0.004  0.836  0.873-  41 1.85  37 1.85  12 1.95
  95  0.155  0.017  0.300- 119 1.69  25 2.18  31 2.21  29 2.38
  96  0.169  0.003  0.772-  37 1.91  32 2.05  26 2.06  30 2.08
  97  0.178  0.343  0.277-  38 1.91  33 1.99  27 2.00  25 2.05
  98  0.172  0.336  0.782-  39 1.87  34 2.01  26 2.06  28 2.11
  99  0.173  0.669  0.280-  40 1.89  35 2.02  29 2.03  27 2.07
 100  0.171  0.670  0.778-  41 1.87  36 2.01  28 2.04  30 2.14
 101  0.325  0.163  0.221-  42 1.89  25 2.01  31 2.05  33 2.12
 102  0.326  0.166  0.717-  43 1.87  26 2.01  32 2.05  34 2.12
 103  0.330  0.506  0.220-  44 1.86  27 2.04  35 2.07  33 2.08
 104  0.329  0.505  0.722-  45 1.87  36 2.04  28 2.04  34 2.08
 105  0.321  0.843  0.221-  46 1.90  29 2.00  31 2.06  35 2.11
 106  0.322  0.841  0.713-  47 1.87  30 2.02  32 2.06  36 2.16
 107  0.336  0.172  0.447-  43 1.84  31 1.93  33 1.96
 108  0.328  0.166  0.944-  42 1.85  32 1.96  34 1.97
 109  0.334  0.504  0.446-  45 1.84  35 1.94  33 1.95
 110  0.331  0.502  0.946-  44 1.84  34 1.95  36 1.96
 111  0.333  0.837  0.447-  47 1.84  31 1.93  35 1.95
 112  0.328  0.837  0.944-  46 1.86  36 1.95  32 1.96
 113  0.162  0.002  0.060-  37 1.87  29 1.95  25 1.95
 114  0.144  0.017  0.527- 119 1.68  26 2.06  30 2.14
 115  0.168  0.335  0.054-  39 1.84  25 1.94  27 1.96
 116  0.177  0.343  0.561-  38 1.87  28 1.91  26 1.93
 117  0.169  0.669  0.053-  41 1.85  29 1.94  27 1.95
 118  0.168  0.670  0.552-  40 1.86  30 1.92  28 1.95
 119  0.071  0.063  0.391- 114 1.68  95 1.69  93 2.31  38 2.34   7 2.87
 
  LATTYP: Found a simple monoclinic cell.
 ALAT       =    11.6348202465
 B/A-ratio  =     0.7858051831
 C/A-ratio  =     1.0554931797
 COS(beta)  =    -0.2379290539
  
  Lattice vectors:
  
 A1 = (   0.0000000000,  -2.7682617730, -11.3006977184)
 A2 = (  -9.1427020537,   0.0000000000,   0.0000000000)
 A3 = (   0.0000000000,  12.2804734172,   0.0000000000)


Analysis of symmetry for initial positions (statically):
=====================================================================
 Subroutine PRICEL returns:
 Original cell was already a primitive cell.
 

 Routine SETGRP: Setting up the symmetry group for a 
 simple monoclinic supercell.


 Subroutine GETGRP returns: Found  1 space group operations
 (whereof  1 operations were pure point group operations)
 out of a pool of  4 trial point group operations.


The static configuration has the point symmetry C_1 .


Analysis of symmetry for dynamics (positions and initial velocities):
=====================================================================
 Subroutine PRICEL returns:
 Original cell was already a primitive cell.
 

 Routine SETGRP: Setting up the symmetry group for a 
 simple monoclinic supercell.


 Subroutine GETGRP returns: Found  1 space group operations
 (whereof  1 operations were pure point group operations)
 out of a pool of  4 trial point group operations.


The dynamic configuration has the point symmetry C_1 .


 Subroutine INISYM returns: Found  1 space group operations
 (whereof  1 operations are pure point group operations),
 and found     1 'primitive' translations


----------------------------------------------------------------------------------------

                                     Primitive cell                                     

  volume of cell :    1268.8052

  direct lattice vectors                    reciprocal lattice vectors
     0.000000000 12.280473417  0.000000000     0.000000000  0.081430085 -0.019947423
     9.142702054  0.000000000  0.000000000     0.109376855 -0.000000000  0.000000000
     0.000000000 -2.768261773-11.300697718     0.000000000  0.000000000 -0.088490111

  length of vectors
    12.280473417  9.142702054 11.634820246     0.083837691  0.109376855  0.088490111

  position of ions in fractional coordinates (direct lattice)
     0.656917966  0.996559439  0.155626466
     0.660314400  0.001756795  0.656924507
     0.658351769  0.330277292  0.158068240
     0.659116036  0.335292249  0.657172475
     0.658857368  0.664267483  0.157846108
     0.659600733  0.668112429  0.657056247
     0.840758798  0.151155513  0.342005398
     0.841133473  0.168032794  0.843859455
     0.847105935  0.491670090  0.342616729
     0.840583171  0.502004354  0.843568886
     0.845303298  0.825824388  0.344657911
     0.841623323  0.835653869  0.844277102
     0.591049299  0.166885412  0.397712020
     0.589915633  0.166983641  0.897446308
     0.591851853  0.502355127  0.397252360
     0.588615296  0.500864714  0.897074558
     0.592657677  0.835079693  0.397420552
     0.590662727  0.833968870  0.897560125
     0.910135941  0.001794792  0.104627933
     0.907907317  0.000392278  0.600624673
     0.909132183  0.336447111  0.102721623
     0.908648513  0.334531003  0.602140466
     0.907624041  0.666887345  0.102006429
     0.907173851  0.665998659  0.600755407
     0.158207516  0.173342963  0.159082716
     0.158388058  0.175225737  0.655361467
     0.160687661  0.502851181  0.156834995
     0.158977288  0.506579068  0.656502264
     0.154750741  0.830543078  0.156788062
     0.154211155  0.837121804  0.646514087
     0.339499336  0.004480278  0.347951994
     0.338927692  0.001480041  0.839583863
     0.343222448  0.338416121  0.342767195
     0.339087935  0.335577755  0.844123577
     0.340388327  0.670442001  0.344289173
     0.338413589  0.668964963  0.842732822
     0.093091270  0.001890191  0.897650061
     0.103214814  0.315595023  0.402066166
     0.090673661  0.335788437  0.897957299
     0.086350937  0.664905228  0.394671009
     0.091013842  0.668435071  0.896357285
     0.405965224  0.165342870  0.101681571
     0.411045828  0.170516520  0.603606755
     0.410020196  0.501021975  0.101982107
     0.407922957  0.503274194  0.603330478
     0.404047947  0.834541565  0.102273060
     0.411045193  0.836234192  0.602396869
     0.996431515  0.170116680  0.138580536
     0.995813546  0.167846109  0.622266099
     0.997174379  0.502167325  0.125531658
     0.996211376  0.500801198  0.627718969
     0.994937368  0.833385421  0.125956622
     0.994526891  0.833369544  0.627167800
     0.503267009  0.000573977  0.373105583
     0.501928662  0.000133751  0.871912909
     0.504606900  0.334762471  0.372216097
     0.501348596  0.333192156  0.872032834
     0.503693280  0.669155561  0.372553731
     0.501248754  0.668802910  0.871835739
     0.672046730  0.163534941  0.280331407
     0.672567239  0.168573599  0.781029172
     0.673556900  0.495022817  0.280695075
     0.671986370  0.501627114  0.780990046
     0.673584205  0.829605932  0.280190495
     0.673046568  0.835871273  0.781087681
     0.824064494  0.995315492  0.216999648
     0.828326002  0.002514929  0.719985041
     0.829271472  0.326027299  0.220479089
     0.827598198  0.334966761  0.719553102
     0.826765586  0.658770905  0.218469386
     0.827476665  0.668549962  0.719751634
     0.824042519  0.992048752  0.446752010
     0.834035928  0.002568028  0.947440246
     0.840604826  0.321269440  0.443088804
     0.832897747  0.334617555  0.946191382
     0.830072977  0.656454946  0.444846977
     0.831184149  0.668401146  0.945408697
     0.665872913  0.165015529  0.054099902
     0.667896256  0.169085054  0.554463406
     0.664816091  0.497535493  0.054153964
     0.668686722  0.500865552  0.554176894
     0.667396488  0.830816476  0.053822618
     0.667762910  0.834342878  0.554815884
     0.494161922  0.998999594  0.126780143
     0.497822494  0.003212026  0.628053748
     0.494346439  0.331388536  0.126897602
     0.496885829  0.337562136  0.628762249
     0.494801375  0.669975281  0.127106946
     0.497015685  0.669085669  0.628240327
     0.004270171  0.168056569  0.873831987
     0.010247126  0.485400714  0.374032100
     0.002988275  0.502180621  0.872469942
     0.001018483  0.827444164  0.372705714
     0.004469786  0.835896709  0.873243868
     0.154580375  0.016814101  0.300012956
     0.168555068  0.002881020  0.771651092
     0.178439753  0.342743632  0.277154367
     0.172157019  0.336159185  0.781514128
     0.172644254  0.669365753  0.279833728
     0.171465692  0.670107608  0.778383470
     0.325032449  0.162776123  0.220808282
     0.325682596  0.165880799  0.717108768
     0.330300744  0.505720964  0.219719161
     0.328680733  0.504863044  0.721925607
     0.321087934  0.842800628  0.220959282
     0.321949146  0.841081715  0.712525168
     0.335573343  0.172415266  0.447043789
     0.328405118  0.165792067  0.944452176
     0.334152936  0.503750089  0.446220282
     0.331024300  0.502049260  0.946265387
     0.332670313  0.837223121  0.446581845
     0.327949937  0.836545520  0.943852614
     0.162260474  0.002480080  0.059647419
     0.144163555  0.016831981  0.527137601
     0.168442742  0.335114898  0.053685544
     0.176988611  0.343077349  0.560988397
     0.168892463  0.668518854  0.053110603
     0.168181366  0.669898212  0.551517226
     0.071274647  0.062832139  0.391155494

  ion indices of the primitive-cell ions
   primitive index   ion index
                 1           1
                 2           2
                 3           3
                 4           4
                 5           5
                 6           6
                 7           7
                 8           8
                 9           9
                10          10
                11          11
                12          12
                13          13
                14          14
                15          15
                16          16
                17          17
                18          18
                19          19
                20          20
                21          21
                22          22
                23          23
                24          24
                25          25
                26          26
                27          27
                28          28
                29          29
                30          30
                31          31
                32          32
                33          33
                34          34
                35          35
                36          36
                37          37
                38          38
                39          39
                40          40
                41          41
                42          42
                43          43
                44          44
                45          45
                46          46
                47          47
                48          48
                49          49
                50          50
                51          51
                52          52
                53          53
                54          54
                55          55
                56          56
                57          57
                58          58
                59          59
                60          60
                61          61
                62          62
                63          63
                64          64
                65          65
                66          66
                67          67
                68          68
                69          69
                70          70
                71          71
                72          72
                73          73
                74          74
                75          75
                76          76
                77          77
                78          78
                79          79
                80          80
                81          81
                82          82
                83          83
                84          84
                85          85
                86          86
                87          87
                88          88
                89          89
                90          90
                91          91
                92          92
                93          93
                94          94
                95          95
                96          96
                97          97
                98          98
                99          99
               100         100
               101         101
               102         102
               103         103
               104         104
               105         105
               106         106
               107         107
               108         108
               109         109
               110         110
               111         111
               112         112
               113         113
               114         114
               115         115
               116         116
               117         117
               118         118
               119         119

----------------------------------------------------------------------------------------

 
 
 KPOINTS: Automatic mesh                          

Automatic generation of k-mesh.
 Grid dimensions read from file:
 generate k-points for:    2    2    2

 Generating k-lattice:

  Cartesian coordinates                     Fractional coordinates (reciprocal lattice)
     0.000000000  0.040715043 -0.009973711     0.500000000  0.000000000  0.000000000
     0.054688428 -0.000000000  0.000000000     0.000000000  0.500000000  0.000000000
     0.000000000  0.000000000 -0.044245056     0.000000000  0.000000000  0.500000000

  Length of vectors
     0.041918846  0.054688428  0.044245056

  Shift w.r.t. Gamma in fractional coordinates (k-lattice)
     0.000000000  0.000000000  0.000000000

 
 Subroutine IBZKPT returns following result:
 ===========================================
 
 Found      8 irreducible k-points:
 
 Following reciprocal coordinates:
            Coordinates               Weight
  0.000000  0.000000  0.000000      1.000000
  0.500000  0.000000  0.000000      1.000000
  0.000000  0.500000  0.000000      1.000000
  0.500000  0.500000  0.000000      1.000000
  0.000000  0.000000  0.500000      1.000000
  0.500000  0.000000  0.500000      1.000000
  0.000000  0.500000  0.500000      1.000000
  0.500000  0.500000  0.500000      1.000000
 
 Following cartesian coordinates:
            Coordinates               Weight
  0.000000  0.000000 -0.000000      1.000000
  0.000000  0.040715 -0.009974      1.000000
  0.054688  0.000000 -0.000000      1.000000
  0.054688  0.040715 -0.009974      1.000000
  0.000000  0.000000 -0.044245      1.000000
  0.000000  0.040715 -0.054219      1.000000
  0.054688  0.000000 -0.044245      1.000000
  0.054688  0.040715 -0.054219      1.000000
 
 
 Subroutine IBZKPT_HF returns following result:
 ==============================================
 
 Found      8 k-points in 1st BZ
 the following      8 k-points will be used (e.g. in the exchange kernel)
 Following reciprocal coordinates:   # in IRBZ
  0.000000  0.000000  0.000000    0.12500000   1 t-inv F
  0.500000  0.000000  0.000000    0.12500000   2 t-inv F
  0.000000  0.500000  0.000000    0.12500000   3 t-inv F
  0.500000  0.500000  0.000000    0.12500000   4 t-inv F
  0.000000  0.000000  0.500000    0.12500000   5 t-inv F
  0.500000  0.000000  0.500000    0.12500000   6 t-inv F
  0.000000  0.500000  0.500000    0.12500000   7 t-inv F
  0.500000  0.500000  0.500000    0.12500000   8 t-inv F


--------------------------------------------------------------------------------------------------------




 Dimension of arrays:
   k-points           NKPTS =      8   k-points in BZ     NKDIM =      8   number of bands    NBANDS=    625
   number of dos      NEDOS =    301   number of ions     NIONS =    119
   non local maximal  LDIM  =      6   non local SUM 2l+1 LMDIM =     18
   total plane-waves  NPLWV = 184320
   max r-space proj   IRMAX =   1800   max aug-charges    IRDMAX=   5704
   dimension x,y,z NGX =    64 NGY =   48 NGZ =   60
   dimension x,y,z NGXF=   128 NGYF=   96 NGZF=  120
   support grid    NGXF=   128 NGYF=   96 NGZF=  120
   ions per type =              47  71   1
   NGX,Y,Z   is equivalent  to a cutoff of   8.66,  8.73,  8.57 a.u.
   NGXF,Y,Z  is equivalent  to a cutoff of  17.33, 17.46, 17.15 a.u.

 SYSTEM =  unknown system                          
 POSCAR =  Ga48 O72                                

 Startparameter for this run:
   NWRITE =      2    write-flag & timer
   PREC   = normal    normal or accurate (medium, high low for compatibility)
   ISTART =      0    job   : 0-new  1-cont  2-samecut
   ICHARG =      0    charge: 1-file 2-atom 10-const
   ISPIN  =      1    spin polarized calculation?
   LNONCOLLINEAR =      F non collinear calculations
   LSORBIT =      F    spin-orbit coupling
   INIWAV =      1    electr: 0-lowe 1-rand  2-diag
   LASPH  =      F    aspherical Exc in radial PAW
 Electronic Relaxation 1
   ENCUT  =  450.0 eV  33.07 Ry    5.75 a.u.  21.24 15.81 20.12*2*pi/ulx,y,z
   ENINI  =  450.0     initial cutoff
   ENAUG  =  605.4 eV  augmentation charge cutoff
   NELM   =    500;   NELMIN=  2; NELMDL= -5     # of ELM steps 
   EDIFF  = 0.1E-04   stopping-criterion for ELM
   LREAL  =      T    real-space projection
   NLSPLINE    = F    spline interpolate recip. space projectors
   LCOMPAT=      F    compatible to vasp.4.4
   GGA_COMPAT  = T    GGA compatible to vasp.4.4-vasp.4.6
   LMAXPAW     = -100 max onsite density
   LMAXMIX     =    2 max onsite mixed and CHGCAR
   VOSKOWN=      0    Vosko Wilk Nusair interpolation
   ROPT   =   -0.00050  -0.00050  -0.00050
 Ionic relaxation
   EDIFFG = -.5E-02   stopping-criterion for IOM
   NSW    =      0    number of steps for IOM
   NBLOCK =      1;   KBLOCK =      1    inner block; outer block 
   IBRION =     -1    ionic relax: 0-MD 1-quasi-New 2-CG
   NFREE  =      0    steps in history (QN), initial steepest desc. (CG)
   ISIF   =      2    stress and relaxation
   IWAVPR =     10    prediction:  0-non 1-charg 2-wave 3-comb
   ISYM   =      3    0-nonsym 1-usesym 2-fastsym
   LCORR  =      T    Harris-Foulkes like correction to forces

   POTIM  = 0.5000    time-step for ionic-motion
   TEIN   =    0.0    initial temperature
   TEBEG  =    0.0;   TEEND  =   0.0 temperature during run
   SMASS  =  -3.00    Nose mass-parameter (am)
   estimated Nose-frequenzy (Omega)   =  0.10E-29 period in steps = 0.13E+47 mass=  -0.345E-26a.u.
   SCALEE = 1.0000    scale energy and forces
   NPACO  =    256;   APACO  = 10.0  distance and # of slots for P.C.
   PSTRESS=    0.0 pullay stress

  Mass of Ions in am
   POMASS =  69.72 16.00 30.97
  Ionic Valenz
   ZVAL   =  13.00  6.00  5.00
  Atomic Wigner-Seitz radii
   RWIGS  =  -1.00 -1.00 -1.00
  virtual crystal weights 
   VCA    =   1.00  1.00  1.00
   NELECT =    1043.0000    total number of electrons
   NUPDOWN=      -1.0000    fix difference up-down

 DOS related values:
   EMIN   =  10.00;   EMAX   =-10.00  energy-range for DOS
   EFERMI =   0.00;   METHOD = LEGACY      
   ISMEAR =     0;   SIGMA  =   0.05  broadening in eV -4-tet -1-fermi 0-gaus

 Electronic relaxation 2 (details)
   IALGO  =     58    algorithm
   LDIAG  =      T    sub-space diagonalisation (order eigenvalues)
   LSUBROT=      F    optimize rotation matrix (better conditioning)
   TURBO    =      0    0=normal 1=particle mesh
   IRESTART =      0    0=no restart 2=restart with 2 vectors
   NREBOOT  =      0    no. of reboots
   NMIN     =      0    reboot dimension
   EREF     =   0.00    reference energy to select bands
   IMIX   =      4    mixing-type and parameters
     AMIX     =   0.40;   BMIX     =  1.00
     AMIX_MAG =   1.60;   BMIX_MAG =  1.00
     AMIN     =   0.10
     WC   =   100.;   INIMIX=   1;  MIXPRE=   1;  MAXMIX= -45

 Intra band minimization:
   WEIMIN = 0.0000     energy-eigenvalue tresh-hold
   EBREAK =  0.40E-08  absolut break condition
   DEPER  =   0.30     relativ break condition  

   TIME   =   0.40     timestep for ELM

  volume/ion in A,a.u.               =      10.66        71.95
  Fermi-wavevector in a.u.,A,eV,Ry     =   1.533574  2.898034 31.998834  2.351848
  Thomas-Fermi vector in A             =   2.640622
 
 Write flags
   LWAVE        =      T    write WAVECAR
   LDOWNSAMPLE  =      F    k-point downsampling of WAVECAR
   LCHARG       =      T    write CHGCAR
   LVTOT        =      F    write LOCPOT, total local potential
   LVHAR        =      F    write LOCPOT, Hartree potential only
   LELF         =      F    write electronic localiz. function (ELF)
   LORBIT       =      0    0 simple, 1 ext, 2 COOP (PROOUT), +10 PAW based schemes


 Dipole corrections
   LMONO  =      F    monopole corrections only (constant potential shift)
   LDIPOL =      F    correct potential (dipole corrections)
   IDIPOL =      0    1-x, 2-y, 3-z, 4-all directions 
   EPSILON=  1.0000000 bulk dielectric constant

 Exchange correlation treatment:
   GGA     =    --    GGA type
   LEXCH   =     8    internal setting for exchange type
   LIBXC   =     F    Libxc                    
   VOSKOWN =     0    Vosko Wilk Nusair interpolation
   EXXOEP  =     0    0=HF, 1=EXX-LHF (local Hartree Fock) 2=EXX OEP
   LHFCALC =     T    Hartree Fock is set to
   LSYMGRAD=     F    symmetrize gradient (conserves proper symmetry)
   PRECFOCK=fast      Normal, Fast or Accurate (Low or Medium for compatibility)
   LRHFCALC=     F    long range Hartree Fock
   LRSCOR  =     F    long range correlation only (use DFT for short range part)
   LTHOMAS =     F    Thomas Fermi screening in HF
   LMODELHF=     F    short range full HF, long range fraction AEXX
   FOCKCORR=     1    mode to apply convergence corrections
   LFOCKACE=     T    use Adeptively-Compressed-Exchange operator
   ENCUT4O =  -1.0   cutoff for four orbital integrals eV
   LMAXFOCK=     4    L truncation for augmentation on plane wave grid
   LMAXFOCKAE=  -1    L truncation for all-electron charge restoration on plane wave grid
   NMAXFOCKAE=   1    number of basis functions for all-electron charge restoration
   LFOCKAEDFT=     F  apply the AE augmentation even for DFT
   NKREDX  =     1    reduce k-point grid by
   NKREDY  =     1    reduce k-point grid by
   NKREDZ  =     1    reduce k-point grid by
   SHIFTRED=     F    shift reduced grid of Gamma
   HFKIDENT=     F    idential grid for each k-point
   ODDONLY =     F    use only odd q-grid points
   EVENONLY=     F    use only even q-grid points
   HFALPHA =   -1.0000 decay constant for conv. correction
   MCALPHA =    0.0000 extent of test-charge in conv. correction in multipole expansion
   AEXX    =    0.3200 exact exchange contribution
   HFSCREEN=    0.2000 screening length (either q_TF or 0.3 A-1)
   HFSCREENC=   0.2000 screening length for correlation (either q_TF or 0.3 A-1)
   HFRCUT  =    0.0000 spherical cutoff for potential kernel
   ALDAX   =    0.6800 LDA exchange part
   AGGAX   =    0.6800 GGA exchange part
   ALDAC   =    1.0000 LDA correlation
   AGGAC   =    1.0000 GGA correlation
   ENCUTFOCK=  -1.0 apply spherical cutoff to Coloumb kernel
   NBANDSGWLOW=     1    first orbital included in HF term
   NBLOCK_FOCK=    64    blocking factor in FOCK_ACC

 Linear response parameters
   LEPSILON=     F    determine dielectric tensor
   LRPA    =     F    only Hartree local field effects (RPA)
   LNABLA  =     F    use nabla operator in PAW spheres
   LVEL    =     F    velocity operator in full k-point grid
   CSHIFT  =0.1000    complex shift for real part using Kramers Kronig
   OMEGAMAX=  -1.0    maximum frequency
   DEG_THRESHOLD= 0.2000000E-02 threshold for treating states as degnerate
   RTIME   =   -0.100 relaxation time in fs
  (WPLASMAI=    0.000 imaginary part of plasma frequency in eV, 0.658/RTIME)
   DFIELD  = 0.0000000 0.0000000 0.0000000 field for delta impulse in time
 
  Optional k-point grid parameters
   LKPOINTS_OPT  =     F    use optional k-point grid
   KPOINTS_OPT_MODE=     1    mode for optional k-point grid
 
 Orbital magnetization related:
   ORBITALMAG=     F  switch on orbital magnetization
   LCHIMAG   =     F  perturbation theory with respect to B field
   DQ        =  0.001000  dq finite difference perturbation B field
   LLRAUG    =     F  two centre corrections for induced B field
   LBONE     =     F  B-component reconstruction in AE one-centre
   LVGVCALC  =     T  calculate vGv susceptibility
   LVGVAPPL  =     F  apply vGv susceptibility instead of pGv for G=0

 Random number generation:
   RANDOM_GENERATOR = DEFAULT
   PCG_SEED         = not used


--------------------------------------------------------------------------------------------------------


 Static calculation
 charge density and potential will be updated during run
 non-spin polarized calculation
 Conjugate gradient for all bands (Freysoldt, et al. PRB 79, 241103 (2009))
 preconditioned conjugated gradient                                        
 perform sub-space diagonalisation
    before iterative eigenvector-optimisation
 modified Broyden-mixing scheme, WC =      100.0
 initial mixing is a Kerker type mixing with AMIX =  0.4000 and BMIX =      1.0000
 Hartree-type preconditioning will be used
 using additional bands           103
 real space projection scheme for non local part
 use partial core corrections
 no Harris-corrections to forces 
 use gradient corrections 
 use of overlap-Matrix (Vanderbilt PP)
 Gauss-broadening in eV      SIGMA  =   0.05


--------------------------------------------------------------------------------------------------------


  energy-cutoff  :      450.00
  volume of cell :     1268.81
      direct lattice vectors                 reciprocal lattice vectors
     0.000000000 12.280473417  0.000000000     0.000000000  0.081430085 -0.019947423
     9.142702054  0.000000000  0.000000000     0.109376855 -0.000000000  0.000000000
     0.000000000 -2.768261773-11.300697718     0.000000000  0.000000000 -0.088490111

  length of vectors
    12.280473417  9.142702054 11.634820246     0.083837691  0.109376855  0.088490111


 
 k-points in units of 2pi/SCALE and weight: Automatic mesh                          
   0.00000000  0.00000000 -0.00000000       0.125
   0.00000000  0.04071504 -0.00997371       0.125
   0.05468843  0.00000000 -0.00000000       0.125
   0.05468843  0.04071504 -0.00997371       0.125
   0.00000000  0.00000000 -0.04424506       0.125
   0.00000000  0.04071504 -0.05421877       0.125
   0.05468843  0.00000000 -0.04424506       0.125
   0.05468843  0.04071504 -0.05421877       0.125
 
 k-points in reciprocal lattice and weights: Automatic mesh                          
   0.00000000  0.00000000  0.00000000       0.125
   0.50000000  0.00000000  0.00000000       0.125
   0.00000000  0.50000000  0.00000000       0.125
   0.50000000  0.50000000  0.00000000       0.125
   0.00000000  0.00000000  0.50000000       0.125
   0.50000000  0.00000000  0.50000000       0.125
   0.00000000  0.50000000  0.50000000       0.125
   0.50000000  0.50000000  0.50000000       0.125
 
 position of ions in fractional coordinates (direct lattice) 
   0.65691797  0.99655944  0.15562647
   0.66031440  0.00175680  0.65692451
   0.65835177  0.33027729  0.15806824
   0.65911604  0.33529225  0.65717248
   0.65885737  0.66426748  0.15784611
   0.65960073  0.66811243  0.65705625
   0.84075880  0.15115551  0.34200540
   0.84113347  0.16803279  0.84385945
   0.84710593  0.49167009  0.34261673
   0.84058317  0.50200435  0.84356889
   0.84530330  0.82582439  0.34465791
   0.84162332  0.83565387  0.84427710
   0.59104930  0.16688541  0.39771202
   0.58991563  0.16698364  0.89744631
   0.59185185  0.50235513  0.39725236
   0.58861530  0.50086471  0.89707456
   0.59265768  0.83507969  0.39742055
   0.59066273  0.83396887  0.89756012
   0.91013594  0.00179479  0.10462793
   0.90790732  0.00039228  0.60062467
   0.90913218  0.33644711  0.10272162
   0.90864851  0.33453100  0.60214047
   0.90762404  0.66688734  0.10200643
   0.90717385  0.66599866  0.60075541
   0.15820752  0.17334296  0.15908272
   0.15838806  0.17522574  0.65536147
   0.16068766  0.50285118  0.15683499
   0.15897729  0.50657907  0.65650226
   0.15475074  0.83054308  0.15678806
   0.15421116  0.83712180  0.64651409
   0.33949934  0.00448028  0.34795199
   0.33892769  0.00148004  0.83958386
   0.34322245  0.33841612  0.34276720
   0.33908794  0.33557775  0.84412358
   0.34038833  0.67044200  0.34428917
   0.33841359  0.66896496  0.84273282
   0.09309127  0.00189019  0.89765006
   0.10321481  0.31559502  0.40206617
   0.09067366  0.33578844  0.89795730
   0.08635094  0.66490523  0.39467101
   0.09101384  0.66843507  0.89635729
   0.40596522  0.16534287  0.10168157
   0.41104583  0.17051652  0.60360676
   0.41002020  0.50102197  0.10198211
   0.40792296  0.50327419  0.60333048
   0.40404795  0.83454157  0.10227306
   0.41104519  0.83623419  0.60239687
   0.99643152  0.17011668  0.13858054
   0.99581355  0.16784611  0.62226610
   0.99717438  0.50216732  0.12553166
   0.99621138  0.50080120  0.62771897
   0.99493737  0.83338542  0.12595662
   0.99452689  0.83336954  0.62716780
   0.50326701  0.00057398  0.37310558
   0.50192866  0.00013375  0.87191291
   0.50460690  0.33476247  0.37221610
   0.50134860  0.33319216  0.87203283
   0.50369328  0.66915556  0.37255373
   0.50124875  0.66880291  0.87183574
   0.67204673  0.16353494  0.28033141
   0.67256724  0.16857360  0.78102917
   0.67355690  0.49502282  0.28069508
   0.67198637  0.50162711  0.78099005
   0.67358420  0.82960593  0.28019050
   0.67304657  0.83587127  0.78108768
   0.82406449  0.99531549  0.21699965
   0.82832600  0.00251493  0.71998504
   0.82927147  0.32602730  0.22047909
   0.82759820  0.33496676  0.71955310
   0.82676559  0.65877090  0.21846939
   0.82747666  0.66854996  0.71975163
   0.82404252  0.99204875  0.44675201
   0.83403593  0.00256803  0.94744025
   0.84060483  0.32126944  0.44308880
   0.83289775  0.33461756  0.94619138
   0.83007298  0.65645495  0.44484698
   0.83118415  0.66840115  0.94540870
   0.66587291  0.16501553  0.05409990
   0.66789626  0.16908505  0.55446341
   0.66481609  0.49753549  0.05415396
   0.66868672  0.50086555  0.55417689
   0.66739649  0.83081648  0.05382262
   0.66776291  0.83434288  0.55481588
   0.49416192  0.99899959  0.12678014
   0.49782249  0.00321203  0.62805375
   0.49434644  0.33138854  0.12689760
   0.49688583  0.33756214  0.62876225
   0.49480137  0.66997528  0.12710695
   0.49701568  0.66908567  0.62824033
   0.00427017  0.16805657  0.87383199
   0.01024713  0.48540071  0.37403210
   0.00298827  0.50218062  0.87246994
   0.00101848  0.82744416  0.37270571
   0.00446979  0.83589671  0.87324387
   0.15458037  0.01681410  0.30001296
   0.16855507  0.00288102  0.77165109
   0.17843975  0.34274363  0.27715437
   0.17215702  0.33615918  0.78151413
   0.17264425  0.66936575  0.27983373
   0.17146569  0.67010761  0.77838347
   0.32503245  0.16277612  0.22080828
   0.32568260  0.16588080  0.71710877
   0.33030074  0.50572096  0.21971916
   0.32868073  0.50486304  0.72192561
   0.32108793  0.84280063  0.22095928
   0.32194915  0.84108172  0.71252517
   0.33557334  0.17241527  0.44704379
   0.32840512  0.16579207  0.94445218
   0.33415294  0.50375009  0.44622028
   0.33102430  0.50204926  0.94626539
   0.33267031  0.83722312  0.44658184
   0.32794994  0.83654552  0.94385261
   0.16226047  0.00248008  0.05964742
   0.14416355  0.01683198  0.52713760
   0.16844274  0.33511490  0.05368554
   0.17698861  0.34307735  0.56098840
   0.16889246  0.66851885  0.05311060
   0.16818137  0.66989821  0.55151723
   0.07127465  0.06283214  0.39115549
 
 position of ions in cartesian coordinates  (Angst):
   9.11124603  7.63644883 -1.75868765
   0.01606186  6.29043444 -7.42370528
   3.01962688  7.64729714 -1.78628139
   3.06547713  6.27503151 -7.42650749
   6.07319968  7.65412104 -1.78377115
   6.10835287  6.28130558 -7.42519404
   1.38196982  9.37815560 -3.86489962
   1.53627377  7.99349339 -9.53620061
   4.49519314  9.45440912 -3.87180808
   4.58967624  7.98753978 -9.53291699
   7.55026633  9.42662136 -3.89487487
   7.64013435  7.99835282 -9.54092032
   1.52578360  6.15739423 -4.49442331
   1.52668168  4.76007694-10.14176945
   4.59288326  6.16852243 -4.48922884
   4.57925685  4.74513729-10.13756841
   7.63488482  6.17795272 -4.49112953
   7.62472890  4.76893654-10.14305565
   0.01640925 10.88726272 -1.18236865
   0.00358648  9.48684535 -6.78747787
   3.07603569 10.88021326 -1.16082601
   3.05851729  9.49175148 -6.80460739
   6.09715230 10.86367241 -1.15274382
   6.08902730  9.47747614 -6.78895525
   1.58482307  1.50248059 -1.79774568
   1.60203670  0.13086824 -7.40604183
   4.59741852  1.53916023 -1.77234487
   4.63150149  0.13494624 -7.41893364
   7.59340790  1.46638196 -1.77181449
   7.65355524  0.10406576 -7.30606026
   0.04096185  3.20599036 -3.93210030
   0.01353158  1.83800460 -9.48788344
   3.09403777  3.26606483 -3.87350846
   3.06808743  1.82740535 -9.53918538
   6.12965146  3.22704724 -3.89070787
   6.11614734  1.82297403 -9.52346887
   0.01728145 -1.34172548-10.14407199
   2.88539127  0.15450238 -4.54362821
   3.07001363 -1.37226538-10.14754400
   6.07903039 -0.03212229 -4.46005777
   6.11130270 -1.36365855-10.12946273
   1.51168060  4.70396394 -1.14907269
   1.55898173  3.37689586 -6.82117748
   4.58069464  4.75292895 -1.15246896
   4.60128600  3.33931033 -6.81805536
   7.62996488  4.67878147 -1.15575694
   7.64544006  3.38023734 -6.80750493
   1.55532612 11.85302353 -1.56605675
   1.53456696 10.50646632 -7.03204109
   4.59116623 11.89826897 -1.41859532
   4.57867614 10.49625690 -7.09366232
   7.61939460 11.86962100 -1.42339771
   7.61924945 10.47709640 -7.08743373
   0.00524770  5.14750320 -4.21635341
   0.00122285  3.75023841 -9.85322423
   3.06063353  5.16642002 -4.20630160
   3.04627661  3.74278295 -9.85457946
   6.11788992  5.15426568 -4.21011710
   6.11466574  3.74210245 -9.85235214
   1.49515124  7.47702129 -3.16794049
   1.54121819  6.09735090 -8.82617459
   4.52584613  7.49456016 -3.17205019
   4.58622724  6.09032587 -8.82573243
   7.58483986  7.49629228 -3.16634809
   7.64212201  6.10307532 -8.82683578
   9.09987300  9.51919029 -2.45224743
   0.02299325  8.17912838 -8.13633332
   2.98077046  9.57350243 -2.49156754
   3.06250129  8.17138632 -8.13145210
   6.02294610  9.54829235 -2.46885649
   6.11235311  8.16934425 -8.13369564
   9.07000617  8.88290574 -5.04860942
   0.02347872  7.61959342-10.70673582
   2.93727077  9.09643942 -5.00721264
   3.05930861  7.60907320-10.69262280
   6.00177199  8.96223624 -5.02708122
   6.11099253  7.59019610-10.68377790
   1.50868782  8.02747191 -0.61136664
   1.54589427  6.66718236 -6.26582335
   4.54881878  8.01434399 -0.61197757
   4.57926451  6.67768280 -6.26258557
   7.59590750  8.04694973 -0.60823313
   7.62814835  6.66456906 -6.26980659
   9.13355564  5.71758172 -1.43270408
   0.02936660  4.37487872 -7.09744556
   3.02978665  5.71952253 -1.43403145
   3.08623004  4.36141472 -7.10545211
   6.12538438  5.72452983 -1.43639718
   6.11725092  4.36445422 -7.09955403
   1.53649113 -2.36655596 -9.87491114
   4.43787410 -0.90957921 -4.22682370
   4.59128780 -2.37852776 -9.85951908
   7.56507545 -1.01923953 -4.21183461
   7.64235456 -2.36247653 -9.86826499
   0.15372632  1.06780579 -3.39035573
   0.02634031 -0.06619619 -8.72019573
   3.13360291  1.42408880 -3.13203772
   3.07340327 -0.04926599 -8.83165493
   6.11981164  1.34550015 -3.16231637
   6.12659421 -0.04908933 -8.79627630
   1.48821359  3.38029723 -2.49528764
   1.51659872  2.01439167 -8.10382941
   4.62365610  3.44800936 -2.48297982
   4.61581239  2.03787595 -8.15826306
   7.70547503  3.33143870 -2.49699406
   7.68975952  1.98123174 -8.05203154
   1.57634141  2.88346529 -5.05190673
   1.51578747  1.41847946-10.67296855
   4.60563698  2.86830170 -5.04260052
   4.59008680  1.44562481-10.69345910
   7.65448154  2.84909349 -5.04668643
   7.64828644  1.41454937-10.66619308
   0.02267463  1.82751577 -0.67405745
   0.15388979  0.31114183 -5.95702269
   3.06385567  1.91994098 -0.60668411
   3.13665398  0.62054120 -6.33956030
   6.11206870  1.92705534 -0.60018687
   6.12467976  0.53860274 -6.23252946
   0.57445552 -0.20753440 -4.42033000
 


--------------------------------------------------------------------------------------------------------


 k-point   1 :   0.0000 0.0000 0.0000  plane waves:   27533
 k-point   2 :   0.5000 0.0000 0.0000  plane waves:   27522
 k-point   3 :   0.0000 0.5000 0.0000  plane waves:   27488
 k-point   4 :   0.5000 0.5000 0.0000  plane waves:   27488
 k-point   5 :   0.0000 0.0000 0.5000  plane waves:   27482
 k-point   6 :   0.5000 0.0000 0.5000  plane waves:   27476
 k-point   7 :   0.0000 0.5000 0.5000  plane waves:   27468
 k-point   8 :   0.5000 0.5000 0.5000  plane waves:   27564

 maximum and minimum number of plane-waves per node :     27564    27468

 maximum number of plane-waves:     27564
 maximum index in each direction: 
   IXMAX=   21   IYMAX=   15   IZMAX=   20
   IXMIN=  -21   IYMIN=  -16   IZMIN=  -20


 serial   3D FFT for wavefunctions
 parallel 3D FFT for charge:
    minimum data exchange during FFTs selected (reduces bandwidth)


 FFT grid for exact exchange (Hartree Fock) 
  NGX = 48; NGY = 36; NGZ = 48

 
 Radii for the augmentation spheres in the non-local exchange
 for species   1 augmentation radius   1.392 (default was   1.031)
       energy cutoff for augmentation   1800.0
 for species   2 augmentation radius   0.974 (default was   0.722)
       energy cutoff for augmentation   1800.0
 for species   3 augmentation radius   1.294 (default was   0.959)
       energy cutoff for augmentation   1800.0
 Maximum index for augmentation-charges in exchange           747
  SETUP_FOCK is finished

 total amount of memory used by VASP MPI-rank0  7175140. kBytes
=======================================================================

   base      :      30000. kBytes
   nonlr-proj:      32471. kBytes
   fftplans  :      51012. kBytes
   grid      :     102973. kBytes
   one-center:       1850. kBytes
   HF        :        194. kBytes
   wavefun   :    6956640. kBytes
 
     INWAV:  cpu time      0.0001: real time      0.0001
 Broyden mixing: mesh for mixing (old mesh)
   NGX = 43   NGY = 31   NGZ = 41
  (NGX  =128   NGY  = 96   NGZ  =120)
  gives a total of  54653 points

 charge density for first step will be calculated from the start-wavefunctions


--------------------------------------------------------------------------------------------------------


 Maximum index for non-local projection operator          1717
 Maximum index for augmentation-charges          5365 (set IRDMAX)


--------------------------------------------------------------------------------------------------------


 initial charge from wavefunction
 First call to EWALD:  gamma=   0.164
 Maximum number of real-space cells 3x 3x 3
 Maximum number of reciprocal cells 3x 2x 3

    FEWALD:  cpu time      0.0718: real time      0.0718


--------------------------------------- Ionic step        1  -------------------------------------------




--------------------------------------- Iteration      1(   1)  ---------------------------------------


    POTLOK:  cpu time      0.0357: real time      0.0357
    SETDIJ:  cpu time      0.1275: real time      0.1275
    TRIAL :  cpu time      2.8311: real time      2.8417
    CORREC:  cpu time      0.0015: real time      0.0015
    --------------------------------------------
      LOOP:  cpu time      3.8547: real time      3.8677

 eigenvalue-minimisations  : 10440
 total energy-change (2. order) :-0.1833952E+05  (-0.5427507E+05)
 number of electron    1042.9999890 magnetization 
 augmentation part      118.5451805 magnetization 

 Free energy of the ion-electron system (eV)
  ---------------------------------------------------
  alpha Z        PSCENC =      5376.25786726
  Ewald energy   TEWEN  =    -86735.82064714
  -Hartree energ DENC   =     -2076.05041174
  -exchange      EXHF   =         0.00000000
  -V(xc)+E(xc)   XCENC  =      2756.15070067
  PAW double counting   =    339640.99414220  -368393.21540101
  entropy T*S    EENTRO =        -0.01623753
  eigenvalues    EBANDS =    -40408.05784818
  atomic energy  EATOM  =    131500.23896116
  ---------------------------------------------------
  free energy    TOTEN  =    -18339.51887433 eV

  energy without entropy =   -18339.50263679  energy(sigma->0) =   -18339.51075556
  exchange ACFDT corr.  =         0.00000000  see jH, gK, PRB 81, 115126


--------------------------------------------------------------------------------------------------------




--------------------------------------- Iteration      1(   2)  ---------------------------------------


    TRIAL :  cpu time      3.1079: real time      3.1073
    CORREC:  cpu time      0.0014: real time      0.0014
    --------------------------------------------
      LOOP:  cpu time      3.1096: real time      3.1098

 eigenvalue-minimisations  : 13304
 total energy-change (2. order) :-0.4440040E+05  (-0.4297632E+05)
 number of electron    1042.9999890 magnetization 
 augmentation part      118.5451805 magnetization 

 Free energy of the ion-electron system (eV)
  ---------------------------------------------------
  alpha Z        PSCENC =      5376.25786726
  Ewald energy   TEWEN  =    -86735.82064714
  -Hartree energ DENC   =     -2076.05041174
  -exchange      EXHF   =         0.00000000
  -V(xc)+E(xc)   XCENC  =      2756.15070067
  PAW double counting   =    339640.99414220  -368393.21540101
  entropy T*S    EENTRO =        -0.01263582
  eigenvalues    EBANDS =    -84808.45732045
  atomic energy  EATOM  =    131500.23896116
  ---------------------------------------------------
  free energy    TOTEN  =    -62739.91474489 eV

  energy without entropy =   -62739.90210906  energy(sigma->0) =   -62739.90842697
  exchange ACFDT corr.  =         0.00000000  see jH, gK, PRB 81, 115126


--------------------------------------------------------------------------------------------------------




--------------------------------------- Iteration      1(   3)  ---------------------------------------


    TRIAL :  cpu time      3.2666: real time      3.2660
    CORREC:  cpu time      0.0016: real time      0.0016
    --------------------------------------------
      LOOP:  cpu time      3.2684: real time      3.2682

 eigenvalue-minimisations  : 14340
 total energy-change (2. order) :-0.4897883E+04  (-0.4432877E+04)
 number of electron    1042.9999890 magnetization 
 augmentation part      118.5451805 magnetization 

 Free energy of the ion-electron system (eV)
  ---------------------------------------------------
  alpha Z        PSCENC =      5376.25786726
  Ewald energy   TEWEN  =    -86735.82064714
  -Hartree energ DENC   =     -2076.05041174
  -exchange      EXHF   =         0.00000000
  -V(xc)+E(xc)   XCENC  =      2756.15070067
  PAW double counting   =    339640.99414220  -368393.21540101
  entropy T*S    EENTRO =        -0.03174263
  eigenvalues    EBANDS =    -89706.32108160
  atomic energy  EATOM  =    131500.23896116
  ---------------------------------------------------
  free energy    TOTEN  =    -67637.79761284 eV

  energy without entropy =   -67637.76587022  energy(sigma->0) =   -67637.78174153
  exchange ACFDT corr.  =         0.00000000  see jH, gK, PRB 81, 115126


--------------------------------------------------------------------------------------------------------




--------------------------------------- Iteration      1(   4)  ---------------------------------------


    TRIAL :  cpu time      3.7155: real time      3.7149
    CORREC:  cpu time      0.0016: real time      0.0016
    --------------------------------------------
      LOOP:  cpu time      3.7173: real time      3.7172

 eigenvalue-minimisations  : 17464
 total energy-change (2. order) :-0.6543887E+03  (-0.5799673E+03)
 number of electron    1042.9999890 magnetization 
 augmentation part      118.5451805 magnetization 

 Free energy of the ion-electron system (eV)
  ---------------------------------------------------
  alpha Z        PSCENC =      5376.25786726
  Ewald energy   TEWEN  =    -86735.82064714
  -Hartree energ DENC   =     -2076.05041174
  -exchange      EXHF   =         0.00000000
  -V(xc)+E(xc)   XCENC  =      2756.15070067
  PAW double counting   =    339640.99414220  -368393.21540101
  entropy T*S    EENTRO =        -0.04949377
  eigenvalues    EBANDS =    -90360.69199420
  atomic energy  EATOM  =    131500.23896116
  ---------------------------------------------------
  free energy    TOTEN  =    -68292.18627658 eV

  energy without entropy =   -68292.13678281  energy(sigma->0) =   -68292.16152970
  exchange ACFDT corr.  =         0.00000000  see jH, gK, PRB 81, 115126


--------------------------------------------------------------------------------------------------------




--------------------------------------- Iteration      1(   5)  ---------------------------------------


    POTLOK:  cpu time      1.3759: real time      1.3757
    SETDIJ:  cpu time      0.6632: real time      0.6630
    TRIAL :  cpu time    229.1339: real time    229.5542
    CORREC:  cpu time      0.0016: real time      0.0016
    CHARGE:  cpu time      0.2041: real time      0.2041
    --------------------------------------------
      LOOP:  cpu time    231.3788: real time    231.7992

 eigenvalue-minimisations  : 18416
 total energy-change (2. order) : 0.2960114E+05  (-0.7376390E+02)
 number of electron    1043.0000409 magnetization 
 augmentation part      477.0424304 magnetization 

 Free energy of the ion-electron system (eV)
  ---------------------------------------------------
  alpha Z        PSCENC =      5376.25786726
  Ewald energy   TEWEN  =    -86735.82064714
  -Hartree energ DENC   =     -2076.05041174
  -exchange      EXHF   =      4704.72145053
  -V(xc)+E(xc)   XCENC  =      1905.25199399
  PAW double counting   =    340862.20727615  -342856.71677794
  entropy T*S    EENTRO =        -0.02323050
  eigenvalues    EBANDS =    -91371.11762220
  atomic energy  EATOM  =    131500.23896116
  ---------------------------------------------------
  free energy    TOTEN  =    -38691.05114044 eV

  energy without entropy =   -38691.02790994  energy(sigma->0) =   -38691.03952519
  exchange ACFDT corr.  =        -0.51434056  see jH, gK, PRB 81, 115126


--------------------------------------------------------------------------------------------------------




--------------------------------------- Iteration      1(   6)  ---------------------------------------


    POTLOK:  cpu time      1.3980: real time      1.3978
    SETDIJ:  cpu time      0.4387: real time      0.4386
    TRIAL :  cpu time    227.5803: real time    227.5535
    CORREC:  cpu time    230.0480: real time    230.0184
    CHARGE:  cpu time      0.2050: real time      0.2050
    --------------------------------------------
      LOOP:  cpu time    459.6702: real time    459.6138

 eigenvalue-minimisations  :     0
 total energy-change (2. order) : 0.6569448E+05  (-0.1935447E+05)
 number of electron    1043.0000162 magnetization 
 augmentation part      459.2794716 magnetization 

 Free energy of the ion-electron system (eV)
  ---------------------------------------------------
  alpha Z        PSCENC =      5376.25786726
  Ewald energy   TEWEN  =    -86735.82064714
  -Hartree energ DENC   =    -75271.18769944
  -exchange      EXHF   =      4795.72868947
  -V(xc)+E(xc)   XCENC  =      3721.21583100
  PAW double counting   =    147857.68354860  -172479.31411529
  entropy T*S    EENTRO =        -0.02711136
  eigenvalues    EBANDS =     68238.64602612
  atomic energy  EATOM  =    131500.23896116
  ---------------------------------------------------
  free energy    TOTEN  =     27003.42523124 eV

  energy without entropy =    27003.45234259  energy(sigma->0) =    27003.43878691
  exchange ACFDT corr.  =        -0.50536613  see jH, gK, PRB 81, 115126


--------------------------------------------------------------------------------------------------------




--------------------------------------- Iteration      1(   7)  ---------------------------------------


    POTLOK:  cpu time      1.4819: real time      1.4816
    SETDIJ:  cpu time      0.4512: real time      0.4511
    TRIAL :  cpu time    228.0009: real time    227.9701
    CORREC:  cpu time    229.8374: real time    229.8148
    CHARGE:  cpu time      0.2028: real time      0.2028
    --------------------------------------------
      LOOP:  cpu time    459.9744: real time    459.9209

 eigenvalue-minimisations  :     0
 total energy-change (2. order) :-0.1860411E+05  (-0.4651127E+04)
 number of electron    1043.0000102 magnetization 
 augmentation part      430.1796147 magnetization 

 Free energy of the ion-electron system (eV)
  ---------------------------------------------------
  alpha Z        PSCENC =      5376.25786726
  Ewald energy   TEWEN  =    -86735.82064714
  -Hartree energ DENC   =    -40175.68706743
  -exchange      EXHF   =      3739.42587496
  -V(xc)+E(xc)   XCENC  =      2895.41937465
  PAW double counting   =    144967.29007561  -162590.07624753
  entropy T*S    EENTRO =        -0.01777967
  eigenvalues    EBANDS =      9422.29441431
  atomic energy  EATOM  =    131500.23896116
  ---------------------------------------------------
  free energy    TOTEN  =      8399.31549448 eV

  energy without entropy =     8399.33327415  energy(sigma->0) =     8399.32438432
  exchange ACFDT corr.  =      -159.46224105  see jH, gK, PRB 81, 115126


--------------------------------------------------------------------------------------------------------




--------------------------------------- Iteration      1(   8)  ---------------------------------------


    POTLOK:  cpu time      1.4976: real time      1.4974
    SETDIJ:  cpu time      0.4185: real time      0.4184
    TRIAL :  cpu time    228.6220: real time    228.5892
    CORREC:  cpu time    229.8749: real time    229.8407
    CHARGE:  cpu time      0.2079: real time      0.2079
    --------------------------------------------
      LOOP:  cpu time    460.6211: real time    460.5605

 eigenvalue-minimisations  :     0
 total energy-change (2. order) :-0.3396742E+04  (-0.2653034E+04)
 number of electron    1043.0000032 magnetization 
 augmentation part      430.2018719 magnetization 

 Free energy of the ion-electron system (eV)
  ---------------------------------------------------
  alpha Z        PSCENC =      5376.25786726
  Ewald energy   TEWEN  =    -86735.82064714
  -Hartree energ DENC   =    -31569.05897494
  -exchange      EXHF   =      3469.51872842
  -V(xc)+E(xc)   XCENC  =      2701.14152953
  PAW double counting   =    141030.16847788  -155615.73837943
  entropy T*S    EENTRO =        -0.02886400
  eigenvalues    EBANDS =     -5154.11628739
  atomic energy  EATOM  =    131500.23896116
  ---------------------------------------------------
  free energy    TOTEN  =      5002.57349569 eV

  energy without entropy =     5002.60235969  energy(sigma->0) =     5002.58792769
  exchange ACFDT corr.  =      -120.27891568  see jH, gK, PRB 81, 115126


--------------------------------------------------------------------------------------------------------




--------------------------------------- Iteration      1(   9)  ---------------------------------------


    POTLOK:  cpu time      1.5152: real time      1.5149
    SETDIJ:  cpu time      0.4517: real time      0.4517
    TRIAL :  cpu time    228.5082: real time    228.4738
    CORREC:  cpu time    229.2826: real time    229.2499
    CHARGE:  cpu time      0.2006: real time      0.2006
    --------------------------------------------
      LOOP:  cpu time    459.9584: real time    459.8914

 eigenvalue-minimisations  :     0
 total energy-change (2. order) :-0.1921791E+04  (-0.2110517E+04)
 number of electron    1043.0000038 magnetization 
 augmentation part      444.9495348 magnetization 

 Free energy of the ion-electron system (eV)
  ---------------------------------------------------
  alpha Z        PSCENC =      5376.25786726
  Ewald energy   TEWEN  =    -86735.82064714
  -Hartree energ DENC   =    -30509.14594567
  -exchange      EXHF   =      3440.61646580
  -V(xc)+E(xc)   XCENC  =      2679.96623278
  PAW double counting   =    134179.98941909  -148584.77011583
  entropy T*S    EENTRO =        -0.01752307
  eigenvalues    EBANDS =     -8266.52117767
  atomic energy  EATOM  =    131500.23896116
  ---------------------------------------------------
  free energy    TOTEN  =      3080.78219578 eV

  energy without entropy =     3080.79971885  energy(sigma->0) =     3080.79095732
  exchange ACFDT corr.  =       -77.68324073  see jH, gK, PRB 81, 115126


--------------------------------------------------------------------------------------------------------




--------------------------------------- Iteration      1(  10)  ---------------------------------------


    POTLOK:  cpu time      1.4595: real time      1.4592
    SETDIJ:  cpu time      0.4618: real time      0.4617
    TRIAL :  cpu time    227.5769: real time    227.5487
    CORREC:  cpu time    229.4649: real time    229.4350
    CHARGE:  cpu time      0.2000: real time      0.2000
    --------------------------------------------
      LOOP:  cpu time    459.1659: real time    459.1079

 eigenvalue-minimisations  :     0
 total energy-change (2. order) :-0.1193593E+04  (-0.1310075E+04)
 number of electron    1043.0000062 magnetization 
 augmentation part      454.4500384 magnetization 

 Free energy of the ion-electron system (eV)
  ---------------------------------------------------
  alpha Z        PSCENC =      5376.25786726
  Ewald energy   TEWEN  =    -86735.82064714
  -Hartree energ DENC   =    -32060.90436084
  -exchange      EXHF   =      3534.18124465
  -V(xc)+E(xc)   XCENC  =      2748.36839553
  PAW double counting   =    137311.71531561  -152466.71562645
  entropy T*S    EENTRO =        -0.03311094
  eigenvalues    EBANDS =     -7320.11467987
  atomic energy  EATOM  =    131500.23896116
  ---------------------------------------------------
  free energy    TOTEN  =      1887.18894684 eV

  energy without entropy =     1887.22205777  energy(sigma->0) =     1887.20550231
  exchange ACFDT corr.  =       -15.75043121  see jH, gK, PRB 81, 115126


--------------------------------------------------------------------------------------------------------




--------------------------------------- Iteration      1(  11)  ---------------------------------------


    POTLOK:  cpu time      1.5166: real time      1.5164
    SETDIJ:  cpu time      0.4365: real time      0.4364
    TRIAL :  cpu time    228.2194: real time    228.1834
    CORREC:  cpu time    229.2937: real time    229.2633
    CHARGE:  cpu time      0.1999: real time      0.1999
    --------------------------------------------
      LOOP:  cpu time    459.6698: real time    459.6035

 eigenvalue-minimisations  :     0
[...]
   0.351E+02 0.107E+03 -.608E+02   -.348E+02 -.106E+03 0.628E+02   -.298E+00 -.169E+01 -.191E+01
   0.433E+01 0.400E+02 -.199E+02   -.370E+01 -.391E+02 0.210E+02   -.563E+00 -.752E+00 -.109E+01
   -.794E+01 0.736E+02 -.564E+02   0.811E+01 -.715E+02 0.581E+02   -.173E+00 -.181E+01 -.162E+01
   -.380E+01 0.812E+02 -.102E+02   0.481E+01 -.771E+02 0.122E+02   -.888E+00 -.362E+01 -.193E+01
   -.217E+02 0.115E+03 -.626E+02   0.219E+02 -.114E+03 0.646E+02   -.182E+00 -.114E+01 -.182E+01
   0.246E+02 -.643E+01 0.107E+03   -.249E+02 0.123E+02 -.114E+03   0.268E+00 -.504E+01 0.593E+01
   0.236E+02 -.458E+02 -.537E+02   -.245E+02 0.530E+02 0.513E+02   0.732E+00 -.617E+01 0.211E+01
   0.916E+01 -.215E+02 0.410E+02   -.889E+01 0.298E+02 -.443E+02   -.236E+00 -.712E+01 0.284E+01
   0.109E+02 -.310E+02 -.102E+02   -.109E+02 0.386E+02 0.596E+01   -.165E-01 -.651E+01 0.369E+01
   -.319E+02 -.199E+02 0.660E+02   0.320E+02 0.256E+02 -.689E+02   -.105E-01 -.490E+01 0.251E+01
   -.224E+02 -.426E+02 -.160E+02   0.218E+02 0.482E+02 0.108E+02   0.471E+00 -.482E+01 0.447E+01
   0.642E+01 0.390E+02 -.251E+02   -.696E+01 -.471E+02 0.294E+02   0.465E+00 0.697E+01 -.365E+01
   0.349E+01 0.268E+02 -.124E+02   -.362E+01 -.339E+02 0.158E+02   0.114E+00 0.613E+01 -.296E+01
   0.630E+01 0.124E+02 -.159E+02   -.626E+01 -.185E+02 0.195E+02   -.311E-01 0.528E+01 -.310E+01
   0.693E+01 0.165E+02 -.117E+02   -.704E+01 -.233E+02 0.155E+02   0.956E-01 0.581E+01 -.326E+01
   -.716E+01 0.280E+02 -.189E+02   0.718E+01 -.355E+02 0.227E+02   -.209E-01 0.642E+01 -.326E+01
   -.802E+01 0.220E+02 -.138E+02   0.790E+01 -.291E+02 0.175E+02   0.103E+00 0.609E+01 -.321E+01
   -.360E+01 0.338E+02 0.463E+02   0.340E+01 -.316E+02 -.418E+02   0.175E+00 -.191E+01 -.393E+01
   0.716E+00 0.596E+02 0.428E+02   -.671E+00 -.577E+02 -.384E+02   -.350E-01 -.170E+01 -.380E+01
   0.770E+01 0.327E+02 0.522E+02   -.746E+01 -.288E+02 -.485E+02   -.214E+00 -.344E+01 -.313E+01
   0.555E+00 0.622E+02 0.435E+02   -.452E+00 -.604E+02 -.393E+02   -.875E-01 -.160E+01 -.357E+01
   -.512E+01 0.380E+02 0.436E+02   0.542E+01 -.345E+02 -.396E+02   -.262E+00 -.310E+01 -.343E+01
   -.317E+01 0.625E+02 0.404E+02   0.313E+01 -.604E+02 -.359E+02   0.403E-01 -.177E+01 -.390E+01
   -.158E+01 -.122E+03 0.344E+01   -.149E+01 0.120E+03 -.718E+01   0.268E+01 0.188E+01 0.321E+01
   -.423E+01 -.900E+02 -.425E+02   0.416E+01 0.887E+02 0.378E+02   0.679E-01 0.110E+01 0.404E+01
   0.448E+02 -.966E+02 0.825E+01   -.467E+02 0.935E+02 -.130E+02   0.164E+01 0.265E+01 0.405E+01
   0.716E+01 -.808E+02 -.454E+02   -.714E+01 0.788E+02 0.404E+02   -.947E-02 0.169E+01 0.433E+01
   -.202E+01 -.777E+02 -.152E+02   0.181E+01 0.751E+02 0.991E+01   0.167E+00 0.227E+01 0.457E+01
   -.645E+01 -.808E+02 -.401E+02   0.689E+01 0.794E+02 0.352E+02   -.379E+00 0.118E+01 0.428E+01
   -.108E+02 0.582E+02 0.430E+02   0.875E+01 -.731E+02 -.395E+02   0.178E+01 0.128E+02 -.294E+01
   -.482E+01 0.107E+03 0.836E+02   0.462E+01 -.119E+03 -.805E+02   0.171E+00 0.104E+02 -.270E+01
   0.355E+02 0.476E+02 0.366E+02   -.358E+02 -.578E+02 -.326E+02   0.233E+00 0.879E+01 -.342E+01
   0.917E+01 0.115E+03 0.785E+02   -.916E+01 -.127E+03 -.748E+02   -.135E-01 0.107E+02 -.318E+01
   0.309E+01 0.102E+03 0.458E+02   -.344E+01 -.115E+03 -.411E+02   0.299E+00 0.116E+02 -.405E+01
   -.465E+01 0.118E+03 0.740E+02   0.489E+01 -.130E+03 -.705E+02   -.221E+00 0.109E+02 -.299E+01
   0.113E+01 -.134E+03 -.471E+02   -.146E+01 0.146E+03 0.435E+02   0.286E+00 -.106E+02 0.315E+01
   -.478E+01 -.135E+03 -.737E+02   0.489E+01 0.147E+03 0.704E+02   -.984E-01 -.106E+02 0.290E+01
   0.764E+01 -.126E+03 -.514E+02   -.802E+01 0.138E+03 0.480E+02   0.332E+00 -.101E+02 0.295E+01
   0.552E+01 -.131E+03 -.744E+02   -.535E+01 0.144E+03 0.710E+02   -.144E+00 -.107E+02 0.291E+01
   0.148E+01 -.130E+03 -.503E+02   -.225E+01 0.142E+03 0.466E+02   0.667E+00 -.109E+02 0.318E+01
   -.146E+01 -.123E+03 -.709E+02   0.155E+01 0.136E+03 0.677E+02   -.740E-01 -.105E+02 0.276E+01
   0.114E+01 -.164E+02 0.209E+02   -.112E+01 0.239E+02 -.246E+02   -.162E-01 -.644E+01 0.316E+01
   0.142E+01 0.378E+01 0.362E+01   -.128E+01 0.344E+01 -.761E+01   -.117E+00 -.620E+01 0.344E+01
   0.757E+01 -.203E+02 0.203E+02   -.778E+01 0.280E+02 -.239E+02   0.180E+00 -.657E+01 0.313E+01
   -.130E+01 -.105E+02 0.678E+01   0.221E+01 0.178E+02 -.108E+02   -.783E+00 -.621E+01 0.345E+01
   -.151E+02 -.205E+02 0.200E+02   0.161E+02 0.283E+02 -.236E+02   -.835E+00 -.674E+01 0.311E+01
   -.303E+01 -.639E+01 0.658E+01   0.228E+01 0.137E+02 -.106E+02   0.645E+00 -.628E+01 0.345E+01
   0.107E+02 0.137E+02 -.103E+02   -.111E+02 -.211E+02 0.137E+02   0.319E+00 0.632E+01 -.291E+01
   0.549E+02 -.588E+01 -.600E+01   -.575E+02 0.220E+01 0.851E+01   0.223E+01 0.315E+01 -.216E+01
   0.175E+01 0.162E+02 -.145E+02   -.169E+01 -.235E+02 0.182E+02   -.557E-01 0.621E+01 -.323E+01
   -.209E+03 -.125E+03 0.202E+02   0.225E+03 0.130E+03 -.197E+02   -.147E+02 -.434E+01 -.473E+00
   -.126E+02 0.106E+02 -.137E+02   0.129E+02 -.179E+02 0.172E+02   -.216E+00 0.627E+01 -.306E+01
   0.479E+02 0.161E+03 0.135E+03   -.572E+02 -.148E+03 -.124E+03   0.792E+01 -.110E+02 -.936E+01
   0.845E+01 0.742E+02 -.308E+01   -.904E+01 -.731E+02 0.619E+01   0.512E+00 -.890E+00 -.269E+01
   0.191E+02 0.128E+03 0.701E+02   -.176E+02 -.129E+03 -.684E+02   -.128E+01 0.140E+01 -.144E+01
   0.803E+01 0.764E+02 0.172E+02   -.683E+01 -.749E+02 -.120E+02   -.103E+01 -.132E+01 -.445E+01
   -.402E+02 0.942E+02 0.787E+02   0.396E+02 -.932E+02 -.765E+02   0.439E+00 -.929E+00 -.188E+01
   -.340E+02 0.697E+02 0.136E+02   0.365E+02 -.683E+02 -.842E+01   -.217E+01 -.125E+01 -.447E+01
   0.250E+02 -.356E+02 -.244E+02   -.243E+02 0.349E+02 0.200E+02   -.568E+00 0.656E+00 0.376E+01
   0.176E+02 -.418E+02 -.646E+02   -.169E+02 0.399E+02 0.597E+02   -.576E+00 0.161E+01 0.418E+01
   -.892E+01 -.532E+02 -.291E+02   0.942E+01 0.508E+02 0.245E+02   -.436E+00 0.206E+01 0.394E+01
   0.466E+00 -.566E+02 -.481E+02   -.131E+01 0.543E+02 0.437E+02   0.731E+00 0.199E+01 0.382E+01
   -.300E+02 -.290E+02 -.186E+02   0.302E+02 0.285E+02 0.144E+02   -.183E+00 0.492E+00 0.361E+01
   -.797E+01 -.301E+02 -.683E+02   0.667E+01 0.273E+02 0.633E+02   0.113E+01 0.240E+01 0.433E+01
   0.255E+02 0.167E+03 0.491E+02   -.240E+02 -.179E+03 -.459E+02   -.130E+01 0.103E+02 -.279E+01
   0.112E+02 0.130E+03 0.627E+02   -.111E+02 -.142E+03 -.594E+02   -.464E-01 0.107E+02 -.290E+01
   -.501E+01 0.140E+03 0.554E+02   0.460E+01 -.152E+03 -.519E+02   0.356E+00 0.105E+02 -.303E+01
   -.440E+01 0.125E+03 0.646E+02   0.489E+01 -.137E+03 -.613E+02   -.422E+00 0.108E+02 -.279E+01
   -.241E+02 0.191E+03 0.456E+02   0.231E+02 -.204E+03 -.426E+02   0.899E+00 0.115E+02 -.254E+01
   -.128E+02 0.126E+03 0.615E+02   0.132E+02 -.138E+03 -.587E+02   -.374E+00 0.105E+02 -.246E+01
   -.267E+01 -.857E+02 -.282E+02   0.281E+01 0.960E+02 0.260E+02   -.121E+00 -.884E+01 0.186E+01
   0.382E+02 -.408E+02 -.194E+03   -.461E+02 0.532E+02 0.180E+03   0.668E+01 -.107E+02 0.119E+02
   0.154E+02 -.109E+03 -.501E+02   -.149E+02 0.122E+03 0.467E+02   -.361E+00 -.110E+02 0.289E+01
   0.187E+02 -.941E+02 -.123E+03   -.171E+02 0.107E+03 0.123E+03   -.133E+01 -.113E+02 -.112E-01
   -.130E+02 -.116E+03 -.520E+02   0.129E+02 0.129E+03 0.494E+02   0.167E+00 -.112E+02 0.223E+01
   -.352E+02 -.117E+03 -.109E+03   0.340E+02 0.131E+03 0.108E+03   0.102E+01 -.116E+02 0.663E+00
   0.183E+02 0.772E+02 -.200E+02   -.115E+02 -.894E+02 0.231E+02   -.651E+01 0.122E+02 -.319E+01
 -----------------------------------------------------------------------------------------------
   -.235E+02 0.189E+02 -.150E+02   -.162E-12 0.853E-12 -.476E-12   0.213E+02 -.149E+02 0.125E+02
 
 
 POSITION                                       TOTAL-FORCE (eV/Angst)
 -----------------------------------------------------------------------------------
      9.11125      7.63645     -1.75869        -0.018156      0.106190      0.010490
      0.01606      6.29043     -7.42371        -0.002910      0.067336     -0.001188
      3.01963      7.64730     -1.78628         0.002155      0.044155      0.016777
      3.06548      6.27503     -7.42651         0.011065      0.065204      0.003512
      6.07320      7.65412     -1.78377         0.019508      0.089997      0.005553
      6.10835      6.28131     -7.42519         0.010721      0.075713      0.005953
      1.38197      9.37816     -3.86490        -0.113640     -0.487804      0.068870
      1.53627      7.99349     -9.53620        -0.008389     -0.065132     -0.016756
      4.49519      9.45441     -3.87181         0.000897     -0.076210     -0.000969
      4.58968      7.98754     -9.53292         0.017063     -0.063935     -0.012937
      7.55027      9.42662     -3.89487        -0.002640      0.108974     -0.054433
      7.64013      7.99835     -9.54092         0.000695     -0.063513     -0.016916
      1.52578      6.15739     -4.49442         0.001491     -0.018846      0.019171
      1.52668      4.76008    -10.14177         0.000538     -0.020025      0.000459
      4.59288      6.16852     -4.48923        -0.021773     -0.008254      0.016232
      4.57926      4.74514    -10.13757        -0.009458     -0.011893      0.002020
      7.63488      6.17795     -4.49113        -0.012385     -0.017704      0.019860
      7.62473      4.76894    -10.14306        -0.010282     -0.021147      0.001095
      0.01641     10.88726     -1.18237        -0.047268     -0.002859     -0.045788
      0.00359      9.48685     -6.78748        -0.045576      0.022702      0.003155
      3.07604     10.88021     -1.16083        -0.030388      0.028092     -0.037106
      3.05852      9.49175     -6.80461        -0.041484      0.073294     -0.016717
      6.09715     10.86367     -1.15274         0.017254      0.026405     -0.011534
      6.08903      9.47748     -6.78896         0.001975      0.031364     -0.023696
      1.58482      1.50248     -1.79775         0.072822      0.043720      0.008698
      1.60204      0.13087     -7.40604         0.075880      0.038788      0.006056
      4.59742      1.53916     -1.77234        -0.022005      0.057441     -0.054746
      4.63150      0.13495     -7.41893        -0.003799      0.099286      0.065426
      7.59341      1.46638     -1.77181        -0.138008      0.043947      0.085369
      7.65356      0.10407     -7.30606        -0.128768      0.000638     -0.021402
      0.04096      3.20599     -3.93210         0.005795      0.013100     -0.061701
      0.01353      1.83800     -9.48788         0.004132     -0.050242      0.001614
      3.09404      3.26606     -3.87351         0.039512     -0.107809     -0.035863
      3.06809      1.82741     -9.53919         0.032562     -0.078005     -0.022456
      6.12965      3.22705     -3.89071        -0.031076     -0.101530     -0.032878
      6.11615      1.82297     -9.52347        -0.063753     -0.082325     -0.019150
      0.01728     -1.34173    -10.14407         0.000845     -0.129285      0.032189
      2.88539      0.15450     -4.54363         0.337114      0.310222     -0.078701
      3.07001     -1.37227    -10.14754         0.003008     -0.010862      0.014148
      6.07903     -0.03212     -4.46006         0.190209     -0.014680     -0.006412
      6.11130     -1.36366    -10.12946         0.016273     -0.023872      0.016884
      1.51168      4.70396     -1.14907        -0.003763      0.048309     -0.012462
      1.55898      3.37690     -6.82118         0.010424      0.008784      0.003610
      4.58069      4.75293     -1.15247         0.015013     -0.012836     -0.023126
      4.60129      3.33931     -6.81806         0.002442      0.029742     -0.008924
      7.62996      4.67878     -1.15576         0.023943      0.074862     -0.001002
      7.64544      3.38024     -6.80750         0.006797     -0.011754      0.006633
      1.55533     11.85302     -1.56606         0.014658     -0.131226      0.218678
      1.53457     10.50647     -7.03204         0.036989     -0.178285      0.068832
      4.59117     11.89827     -1.41860        -0.014086     -0.210114      0.101557
      4.57868     10.49626     -7.09366        -0.002690     -0.187241      0.135999
      7.61939     11.86962     -1.42340         0.000065     -0.123200      0.091291
      7.61925     10.47710     -7.08743         0.010428     -0.126465      0.156549
      0.00525      5.14750     -4.21635         0.018703      0.202771     -0.134424
      0.00122      3.75024     -9.85322         0.006616      0.173568     -0.105614
      3.06063      5.16642     -4.20630         0.000134      0.140726     -0.107613
      3.04628      3.74278     -9.85458         0.006678      0.160604     -0.116208
      6.11789      5.15427     -4.21012        -0.000968      0.180415     -0.116015
      6.11467      3.74210     -9.85235        -0.002674      0.172569     -0.113339
      1.49515      7.47702     -3.16794         0.011457     -0.052175     -0.107936
      1.54122      6.09735     -8.82617        -0.002224     -0.037891     -0.103244
      4.52585      7.49456     -3.17205        -0.003662     -0.100449     -0.081052
      4.58623      6.09033     -8.82573        -0.004986     -0.032402     -0.095214
      7.58484      7.49629     -3.16635        -0.005146     -0.093190     -0.093357
      7.64212      6.10308     -8.82684        -0.001562     -0.041458     -0.105825
      9.09987      9.51919     -2.45225         0.155256      0.027339      0.041741
      0.02299      8.17913     -8.13633         0.002929      0.007528      0.112599
      2.98077      9.57350     -2.49157         0.030804      0.084426      0.075557
      3.06250      8.17139     -8.13145        -0.000949      0.038366      0.132517
      6.02295      9.54829     -2.46886        -0.001176      0.058590      0.125453
      6.11235      8.16934     -8.13370        -0.018760      0.013158      0.125867
      9.07001      8.88291     -5.04861         0.107910      0.480946     -0.042527
      0.02348      7.61959    -10.70674         0.007485      0.379788     -0.058131
      2.93727      9.09644     -5.00721        -0.025783      0.350926     -0.054957
      3.05931      7.60907    -10.69262         0.001171      0.391916     -0.085088
      6.00177      8.96224     -5.02708         0.009457      0.431863     -0.106247
      6.11099      7.59020    -10.68378        -0.015812      0.400180     -0.070809
      1.50869      8.02747     -0.61137         0.011576     -0.386096      0.073099
      1.54589      6.66718     -6.26582        -0.007880     -0.391652      0.070732
      4.54882      8.01434     -0.61198         0.016858     -0.366851      0.067893
      4.57926      6.67768     -6.26259         0.000642     -0.395378      0.068820
      7.59591      8.04695     -0.60823         0.028375     -0.406867      0.081037
      7.62815      6.66457     -6.26981        -0.002116     -0.389989      0.068765
      9.13356      5.71758     -1.43270         0.000707     -0.188216      0.113181
      0.02937      4.37488     -7.09745        -0.006413     -0.165592      0.122007
      3.02979      5.71952     -1.43403         0.014080     -0.175942      0.108797
      3.08623      4.36141     -7.10545        -0.031754     -0.165641      0.118731
      6.12538      5.72453     -1.43640        -0.046253     -0.186077      0.108453
      6.11725      4.36445     -7.09955         0.017511     -0.170421      0.120152
      1.53649     -2.36656     -9.87491         0.008539      0.181972     -0.104397
      4.43787     -0.90958     -4.22682         0.031522      0.067795     -0.079274
      4.59129     -2.37853     -9.85952        -0.004831      0.171205     -0.117135
      7.56508     -1.01924     -4.21183        -0.692110     -0.217199     -0.015726
      7.64235     -2.36248     -9.86826        -0.004983      0.175392     -0.110602
      0.15373      1.06781     -3.39036         0.219594     -0.309586     -0.241945
      0.02634     -0.06620     -8.72020         0.015719     -0.006354     -0.078051
      3.13360      1.42409     -3.13204        -0.063130      0.058665     -0.051103
      3.07340     -0.04927     -8.83165        -0.037154     -0.015428     -0.114905
      6.11981      1.34550     -3.16232        -0.005644     -0.000609     -0.010662
      6.12659     -0.04909     -8.79628        -0.089436     -0.016217     -0.128736
      1.48821      3.38030     -2.49529        -0.002758     -0.005500      0.102414
      1.51660      2.01439     -8.10383        -0.014084      0.029028      0.116187
      4.62366      3.44801     -2.48298        -0.027755      0.045762      0.109899
      4.61581      2.03788     -8.15826         0.017203      0.039441      0.109149
      7.70548      3.33144     -2.49699        -0.019229     -0.003993      0.109178
      7.68976      1.98123     -8.05203         0.031016      0.054395      0.118443
      1.57634      2.88347     -5.05191        -0.049027      0.365902     -0.059140
      1.51579      1.41848    -10.67297         0.004111      0.398119     -0.067148
      4.60564      2.86830     -5.04260         0.006449      0.391320     -0.075945
      4.59009      1.44562    -10.69346        -0.018472      0.398562     -0.064808
      7.65448      2.84909     -5.04669         0.023446      0.430644     -0.064625
      7.64829      1.41455    -10.66619        -0.019237      0.393415     -0.057765
      0.02267      1.82752     -0.67406        -0.006642     -0.319426      0.032115
      0.15389      0.31114     -5.95702         0.163279     -0.324693      0.258093
      3.06386      1.91994     -0.60668        -0.008270     -0.402580      0.062158
      3.13665      0.62054     -6.33956        -0.070804     -0.437037      0.005111
      6.11207      1.92706     -0.60019        -0.002006     -0.409783      0.049623
      6.12468      0.53860     -6.23253         0.014930     -0.439886     -0.027088
      0.57446     -0.20753     -4.42033         0.119558      0.686072     -0.210931
 -----------------------------------------------------------------------------------
    total drift:                               -0.036672     -0.028637      0.049548


--------------------------------------------------------------------------------------------------------



  FREE ENERGIE OF THE ION-ELECTRON SYSTEM (eV)
  ---------------------------------------------------
  free  energy   TOTEN  =      -939.40935561 eV

  energy  without entropy=     -939.40481751  energy(sigma->0) =     -939.40708656
 


--------------------------------------------------------------------------------------------------------


    POTLOK:  cpu time      1.9334: real time      1.9405


--------------------------------------------------------------------------------------------------------


 writing wavefunctions
     LOOP+:  cpu time  17105.9774: real time  17104.4808
    4ORBIT:  cpu time      0.0000: real time      0.0000

 total amount of memory used by VASP MPI-rank0  7418440. kBytes
=======================================================================

   base      :      30000. kBytes
   nonlr-proj:      46538. kBytes
   fftplans  :      51012. kBytes
   grid      :     102973. kBytes
   one-center:       1850. kBytes
   HF        :        194. kBytes
   wavefun   :    6956640. kBytes
   fock_wrk  :     229233. kBytes
 
  
  
 General timing and accounting informations for this job:
 ========================================================
  
                  Total CPU time used (sec):    17137.234
                            User time (sec):    17124.355
                          System time (sec):       12.880
                         Elapsed time (sec):    17137.531
  
                   Maximum memory used (kb):    13280384.
                   Average memory used (kb):          N/A
  
                          Minor page faults:      1223164
                          Major page faults:            6
                 Voluntary context switches:       315037
