<?xml version="1.0" encoding="ISO-8859-1"?>
<modeling>
 <generator>
  <i name="program" type="string">vasp </i>
  <i name="version" type="string">6.4.2  </i>
  <i name="subversion" type="string">20Jul23 (build Nov 12 2023 22:16:35) complex                          parallel </i>
  <i name="platform" type="string">LinuxNV </i>
  <i name="date" type="string">2025 03 15 </i>
  <i name="time" type="string">21:04:34 </i>
 </generator>
 <incar>
  <i type="int" name="ISTART">     0</i>
  <i type="string" name="PREC">Normal</i>
  <i type="string" name="ALGO">All</i>
  <i type="int" name="ISPIN">     1</i>
  <i type="int" name="ICHARG">     0</i>
  <i type="int" name="NELM">   500</i>
  <i type="int" name="IBRION">    -1</i>
  <i name="EDIFF">      0.00001000</i>
  <i name="EDIFFG">     -0.00500000</i>
  <i type="int" name="NSW">     0</i>
  <i type="int" name="ISIF">     2</i>
  <i name="ENCUT">    450.00000000</i>
  <i name="NELECT">   1056.00000000</i>
  <i type="string" name="LREAL">Auto</i>
  <i type="logical" name="LPLANE"> T  </i>
  <i name="TIME">      0.40000000</i>
  <i type="int" name="ISMEAR">     0</i>
  <i name="SIGMA">      0.05000000</i>
  <i type="logical" name="LWAVE"> T  </i>
  <i type="logical" name="LCHARG"> T  </i>
  <i name="HFSCREEN">      0.20000000</i>
  <i type="logical" name="LHFCALC"> T  </i>
  <i type="int" name="LMAXFOCK">     4</i>
  <i name="AEXX">      0.32000000</i>
  <i type="string" name="PRECFOCK">Fast</i>
 </incar>
 <primitive_cell>
  <structure name="primitive_cell" >
   <crystal>
    <varray name="basis" >
     <v>       0.00000000      12.28047342       0.00000000 </v>
     <v>       9.14270205       0.00000000       0.00000000 </v>
     <v>       0.00000000      -2.76826177     -11.30069772 </v>
    </varray>
    <i name="volume">   1268.80515525 </i>
    <varray name="rec_basis" >
     <v>       0.00000000       0.08143009      -0.01994742 </v>
     <v>       0.10937686      -0.00000000       0.00000000 </v>
     <v>       0.00000000       0.00000000      -0.08849011 </v>
    </varray>
   </crystal>
   <varray name="positions" >
    <v>       0.65636472       0.00249363       0.15829709 </v>
    <v>       0.65377920       0.00472659       0.65592006 </v>
    <v>       0.68397387       0.33376138       0.15112817 </v>
    <v>       0.65751226       0.33996796       0.65521033 </v>
    <v>       0.65662751       0.66387789       0.15752554 </v>
    <v>       0.64755763       0.67342395       0.65675819 </v>
    <v>       0.84281639       0.16198895       0.36377123 </v>
    <v>       0.83529535       0.17157624       0.83954741 </v>
    <v>       0.84328874       0.50512090       0.34891692 </v>
    <v>       0.83581685       0.51098011       0.83701711 </v>
    <v>       0.84407342       0.83600636       0.35043301 </v>
    <v>       0.83845245       0.84323675       0.83970047 </v>
    <v>       0.58804752       0.17027148       0.39114538 </v>
    <v>       0.59635450       0.20015459       0.90575161 </v>
    <v>       0.59262686       0.50204136       0.39236870 </v>
    <v>       0.60441057       0.45931355       0.90703482 </v>
    <v>       0.58735609       0.83971285       0.39782000 </v>
    <v>       0.57464444       0.83071967       0.89452324 </v>
    <v>       0.90441189       0.00385563       0.10579153 </v>
    <v>       0.92246548       0.03542500       0.60578920 </v>
    <v>       0.91232321       0.34151118       0.10154709 </v>
    <v>       0.90749202       0.30131070       0.59822699 </v>
    <v>       0.90044298       0.67350640       0.10112324 </v>
    <v>       0.90813634       0.66188531       0.60224292 </v>
    <v>       0.15671249       0.16377673       0.15528652 </v>
    <v>       0.16022273       0.13370050       0.59199551 </v>
    <v>       0.15911016       0.50953879       0.15532765 </v>
    <v>       0.15399100       0.49399671       0.65381130 </v>
    <v>       0.15709442       0.84639510       0.14903071 </v>
    <v>       0.14913290       0.82625277       0.66379005 </v>
    <v>       0.33013878       0.00502471       0.33897137 </v>
    <v>       0.34822997       0.98728660       0.84821774 </v>
    <v>       0.33568193       0.33635604       0.34056614 </v>
    <v>       0.31273621       0.32062210       0.84493665 </v>
    <v>       0.34086382       0.66830009       0.33406174 </v>
    <v>       0.35800502       0.65352898       0.84696204 </v>
    <v>       0.09465691       0.01846222       0.87120200 </v>
    <v>       0.08673726       0.33937964       0.39625814 </v>
    <v>       0.07891519       0.34920300       0.89521920 </v>
    <v>       0.09222079       0.68546375       0.39800356 </v>
    <v>       0.09393756       0.68710157       0.89088646 </v>
    <v>       0.39836267       0.19921971       0.09098320 </v>
    <v>       0.40537446       0.17424385       0.60893256 </v>
    <v>       0.40393369       0.46197974       0.09301287 </v>
    <v>       0.40315596       0.50849089       0.60128016 </v>
    <v>       0.43132744       0.82950397       0.11656189 </v>
    <v>       0.38134868       0.84863660       0.59556741 </v>
    <v>       0.99344882       0.17060014       0.13008840 </v>
    <v>       0.07506671       0.07682862       0.69896815 </v>
    <v>       0.99568756       0.51184052       0.12608450 </v>
    <v>       0.98842706       0.48557664       0.61784592 </v>
    <v>       0.99274852       0.83677713       0.12094831 </v>
    <v>       0.98938386       0.83309599       0.61935511 </v>
    <v>       0.49713570       0.00616006       0.37117159 </v>
    <v>       0.51222674       0.01995896       0.87825372 </v>
    <v>       0.50004345       0.33791192       0.36993502 </v>
    <v>       0.46287332       0.32498429       0.86870251 </v>
    <v>       0.50395002       0.66794777       0.37005665 </v>
    <v>       0.52054646       0.63730151       0.88099534 </v>
    <v>       0.68142457       0.16086809       0.28737395 </v>
    <v>       0.66928592       0.16603058       0.77263627 </v>
    <v>       0.67934006       0.50833606       0.28360128 </v>
    <v>       0.66970941       0.51056124       0.77231537 </v>
    <v>       0.66468842       0.83330394       0.27712023 </v>
    <v>       0.66468171       0.83865637       0.78101260 </v>
    <v>       0.82316907       0.98812335       0.22072313 </v>
    <v>       0.82572147       0.00362971       0.71879654 </v>
    <v>       0.84019963       0.33785792       0.22739948 </v>
    <v>       0.82251842       0.34433611       0.71947528 </v>
    <v>       0.82742900       0.67359867       0.22457662 </v>
    <v>       0.82256604       0.67541345       0.71585721 </v>
    <v>       0.81600296       0.98747200       0.45593246 </v>
    <v>       0.83057281       0.00633265       0.94588874 </v>
    <v>       0.81438281       0.34556219       0.44519756 </v>
    <v>       0.83914079       0.34244219       0.94373528 </v>
    <v>       0.82242210       0.66711816       0.44888601 </v>
    <v>       0.82857908       0.67716460       0.94178902 </v>
    <v>       0.69115341       0.15460697       0.06087872 </v>
    <v>       0.65859768       0.17302142       0.55075736 </v>
    <v>       0.69670973       0.51326953       0.06188120 </v>
    <v>       0.65909155       0.50654295       0.55163104 </v>
    <v>       0.65561224       0.83284453       0.05267890 </v>
    <v>       0.65988511       0.83776585       0.55569941 </v>
    <v>       0.49311144       0.02016480       0.12835308 </v>
    <v>       0.48848675       0.00414114       0.62260577 </v>
    <v>       0.53584223       0.33247304       0.13779737 </v>
    <v>       0.49383329       0.34099801       0.62851573 </v>
    <v>       0.49627772       0.64153410       0.13109851 </v>
    <v>       0.48569297       0.67839304       0.61669910 </v>
    <v>       0.99651313       0.17838721       0.87540969 </v>
    <v>       0.00471918       0.51220202       0.37350233 </v>
    <v>       0.99785332       0.52094005       0.87175751 </v>
    <v>       0.99740940       0.83323962       0.37527944 </v>
    <v>       0.99918454       0.84851181       0.86703009 </v>
    <v>       0.17347656       0.99791244       0.26602088 </v>
    <v>       0.19983372       0.90306619       0.82433936 </v>
    <v>       0.17029900       0.34636640       0.27714380 </v>
    <v>       0.15919203       0.34697807       0.78061091 </v>
    <v>       0.17099302       0.67389467       0.27759591 </v>
    <v>       0.16252428       0.65104889       0.76804163 </v>
    <v>       0.32481899       0.16983401       0.22415296 </v>
    <v>       0.31127115       0.15751794       0.71293896 </v>
    <v>       0.32525938       0.50741117       0.21885089 </v>
    <v>       0.32379601       0.50465135       0.71650357 </v>
    <v>       0.32987280       0.83217010       0.21143714 </v>
    <v>       0.36969354       0.81880961       0.74823766 </v>
    <v>       0.33025570       0.17243659       0.44874199 </v>
    <v>       0.30242788       0.14173539       0.93548959 </v>
    <v>       0.33346242       0.50429907       0.44223759 </v>
    <v>       0.31321380       0.51199264       0.94138200 </v>
    <v>       0.33948889       0.83149830       0.43355824 </v>
    <v>       0.37984816       0.82078169       0.95840755 </v>
    <v>       0.15347879       0.00950064       0.03983295 </v>
    <v>       0.22454282       0.94383761       0.57413711 </v>
    <v>       0.15299249       0.33937906       0.05302182 </v>
    <v>       0.18329754       0.34420119       0.55109047 </v>
    <v>       0.16451629       0.67702507       0.05010366 </v>
    <v>       0.17054307       0.66195346       0.55315762 </v>
    <v>       0.03092073       0.11353905       0.40082011 </v>
   </varray>
  </structure>
  <varray name="primitive_index" >
   <v type="int" >        1 </v>
   <v type="int" >        2 </v>
   <v type="int" >        3 </v>
   <v type="int" >        4 </v>
   <v type="int" >        5 </v>
   <v type="int" >        6 </v>
   <v type="int" >        7 </v>
   <v type="int" >        8 </v>
   <v type="int" >        9 </v>
   <v type="int" >       10 </v>
   <v type="int" >       11 </v>
   <v type="int" >       12 </v>
   <v type="int" >       13 </v>
   <v type="int" >       14 </v>
   <v type="int" >       15 </v>
   <v type="int" >       16 </v>
   <v type="int" >       17 </v>
   <v type="int" >       18 </v>
   <v type="int" >       19 </v>
   <v type="int" >       20 </v>
   <v type="int" >       21 </v>
   <v type="int" >       22 </v>
   <v type="int" >       23 </v>
   <v type="int" >       24 </v>
   <v type="int" >       25 </v>
   <v type="int" >       26 </v>
   <v type="int" >       27 </v>
   <v type="int" >       28 </v>
   <v type="int" >       29 </v>
   <v type="int" >       30 </v>
   <v type="int" >       31 </v>
   <v type="int" >       32 </v>
   <v type="int" >       33 </v>
   <v type="int" >       34 </v>
   <v type="int" >       35 </v>
   <v type="int" >       36 </v>
   <v type="int" >       37 </v>
   <v type="int" >       38 </v>
   <v type="int" >       39 </v>
   <v type="int" >       40 </v>
   <v type="int" >       41 </v>
   <v type="int" >       42 </v>
   <v type="int" >       43 </v>
   <v type="int" >       44 </v>
   <v type="int" >       45 </v>
   <v type="int" >       46 </v>
   <v type="int" >       47 </v>
   <v type="int" >       48 </v>
   <v type="int" >       49 </v>
   <v type="int" >       50 </v>
   <v type="int" >       51 </v>
   <v type="int" >       52 </v>
   <v type="int" >       53 </v>
   <v type="int" >       54 </v>
   <v type="int" >       55 </v>
   <v type="int" >       56 </v>
   <v type="int" >       57 </v>
   <v type="int" >       58 </v>
   <v type="int" >       59 </v>
   <v type="int" >       60 </v>
   <v type="int" >       61 </v>
   <v type="int" >       62 </v>
   <v type="int" >       63 </v>
   <v type="int" >       64 </v>
   <v type="int" >       65 </v>
   <v type="int" >       66 </v>
   <v type="int" >       67 </v>
   <v type="int" >       68 </v>
   <v type="int" >       69 </v>
   <v type="int" >       70 </v>
   <v type="int" >       71 </v>
   <v type="int" >       72 </v>
   <v type="int" >       73 </v>
   <v type="int" >       74 </v>
   <v type="int" >       75 </v>
   <v type="int" >       76 </v>
   <v type="int" >       77 </v>
   <v type="int" >       78 </v>
   <v type="int" >       79 </v>
   <v type="int" >       80 </v>
   <v type="int" >       81 </v>
   <v type="int" >       82 </v>
   <v type="int" >       83 </v>
   <v type="int" >       84 </v>
   <v type="int" >       85 </v>
   <v type="int" >       86 </v>
   <v type="int" >       87 </v>
   <v type="int" >       88 </v>
   <v type="int" >       89 </v>
   <v type="int" >       90 </v>
   <v type="int" >       91 </v>
   <v type="int" >       92 </v>
   <v type="int" >       93 </v>
   <v type="int" >       94 </v>
   <v type="int" >       95 </v>
   <v type="int" >       96 </v>
   <v type="int" >       97 </v>
   <v type="int" >       98 </v>
   <v type="int" >       99 </v>
   <v type="int" >      100 </v>
   <v type="int" >      101 </v>
   <v type="int" >      102 </v>
   <v type="int" >      103 </v>
   <v type="int" >      104 </v>
   <v type="int" >      105 </v>
   <v type="int" >      106 </v>
   <v type="int" >      107 </v>
   <v type="int" >      108 </v>
   <v type="int" >      109 </v>
   <v type="int" >      110 </v>
   <v type="int" >      111 </v>
   <v type="int" >      112 </v>
   <v type="int" >      113 </v>
   <v type="int" >      114 </v>
   <v type="int" >      115 </v>
   <v type="int" >      116 </v>
   <v type="int" >      117 </v>
   <v type="int" >      118 </v>
   <v type="int" >      119 </v>
  </varray>
 </primitive_cell>
 <kpoints>
  <generation param="Gamma">
   <v type="int" name="divisions">       2        2        2 </v>
   <v name="usershift">      0.00000000       0.00000000       0.00000000 </v>
   <v name="genvec1">      0.50000000       0.00000000       0.00000000 </v>
   <v name="genvec2">      0.00000000       0.50000000       0.00000000 </v>
   <v name="genvec3">      0.00000000       0.00000000       0.50000000 </v>
   <v name="shift">      0.00000000       0.00000000       0.00000000 </v>
  </generation>
  <varray name="kpointlist" >
   <v>       0.00000000       0.00000000       0.00000000 </v>
   <v>       0.50000000       0.00000000       0.00000000 </v>
   <v>       0.00000000       0.50000000       0.00000000 </v>
   <v>       0.50000000       0.50000000       0.00000000 </v>
   <v>       0.00000000       0.00000000       0.50000000 </v>
   <v>       0.50000000       0.00000000       0.50000000 </v>
   <v>       0.00000000       0.50000000       0.50000000 </v>
   <v>       0.50000000       0.50000000       0.50000000 </v>
  </varray>
  <varray name="weights" >
   <v>       0.12500000 </v>
   <v>       0.12500000 </v>
   <v>       0.12500000 </v>
   <v>       0.12500000 </v>
   <v>       0.12500000 </v>
   <v>       0.12500000 </v>
   <v>       0.12500000 </v>
   <v>       0.12500000 </v>
  </varray>
 </kpoints>
 <parameters>
  <separator name="general" >
   <i type="string" name="SYSTEM">unknown system</i>
   <i type="logical" name="LCOMPAT"> F  </i>
  </separator>
  <separator name="electronic" >
   <i type="string" name="PREC">normal</i>
   <i name="ENMAX">    450.00000000</i>
   <i name="ENAUG">    605.39200000</i>
   <i name="EDIFF">      0.00001000</i>
   <i type="int" name="IALGO">    58</i>
   <i type="int" name="IWAVPR">    10</i>
   <i type="int" name="NBANDS">   633</i>
   <i type="int" name="NBANDSLOW">    -1</i>
   <i type="int" name="NBANDSHIGH">    -1</i>
   <i name="NELECT">   1056.00000000</i>
   <i type="int" name="TURBO">     0</i>
   <i type="int" name="IRESTART">     0</i>
   <i type="int" name="NREBOOT">     0</i>
   <i type="int" name="NMIN">     0</i>
   <i name="EREF">      0.00000000</i>
   <separator name="electronic smearing" >
    <i type="int" name="ISMEAR">     0</i>
    <i name="SIGMA">      0.05000000</i>
    <i name="KSPACING">      0.50000000</i>
    <i type="logical" name="KGAMMA"> T  </i>
    <i type="logical" name="KBLOWUP"> T  </i>
   </separator>
   <separator name="electronic projectors" >
    <i type="logical" name="LREAL"> T  </i>
    <v name="ROPT">     -0.00050000     -0.00050000     -0.00050000</v>
    <i type="int" name="LMAXPAW">  -100</i>
    <i type="int" name="LMAXMIX">     2</i>
    <i type="logical" name="NLSPLINE"> F  </i>
   </separator>
   <separator name="electronic startup" >
    <i type="int" name="ISTART">     0</i>
    <i type="int" name="ICHARG">     0</i>
    <i type="int" name="INIWAV">     1</i>
   </separator>
   <separator name="electronic spin" >
    <i type="int" name="ISPIN">     1</i>
    <i type="logical" name="LNONCOLLINEAR"> F  </i>
    <v name="MAGMOM">      1.00000000      1.00000000      1.00000000      1.00000000      1.00000000      1.00000000      1.00000000      1.00000000      1.00000000      1.00000000      1.00000000      1.00000000      1.00000000      1.00000000      1.00000000      1.00000000      1.00000000      1.00000000      1.00000000      1.00000000
      1.00000000      1.00000000      1.00000000      1.00000000      1.00000000      1.00000000      1.00000000      1.00000000      1.00000000      1.00000000      1.00000000      1.00000000      1.00000000      1.00000000      1.00000000      1.00000000      1.00000000      1.00000000      1.00000000      1.00000000
      1.00000000      1.00000000      1.00000000      1.00000000      1.00000000      1.00000000      1.00000000      1.00000000      1.00000000      1.00000000      1.00000000      1.00000000      1.00000000      1.00000000      1.00000000      1.00000000      1.00000000      1.00000000      1.00000000      1.00000000
      1.00000000      1.00000000      1.00000000      1.00000000      1.00000000      1.00000000      1.00000000      1.00000000      1.00000000      1.00000000      1.00000000      1.00000000      1.00000000      1.00000000      1.00000000      1.00000000      1.00000000      1.00000000      1.00000000      1.00000000
      1.00000000      1.00000000      1.00000000      1.00000000      1.00000000      1.00000000      1.00000000      1.00000000      1.00000000      1.00000000      1.00000000      1.00000000      1.00000000      1.00000000      1.00000000      1.00000000      1.00000000      1.00000000      1.00000000      1.00000000
      1.00000000      1.00000000      1.00000000      1.00000000      1.00000000      1.00000000      1.00000000      1.00000000      1.00000000      1.00000000      1.00000000      1.00000000      1.00000000      1.00000000      1.00000000      1.00000000      1.00000000      1.00000000      1.00000000</v>
    <i name="NUPDOWN">     -1.00000000</i>
    <i type="logical" name="LSORBIT"> F  </i>
    <v name="SAXIS">      0.00000000      0.00000000      1.00000000</v>
    <i type="logical" name="LSPIRAL"> F  </i>
    <v name="QSPIRAL">      0.00000000      0.00000000      0.00000000</v>
    <i type="logical" name="LZEROZ"> F  </i>
   </separator>
   <separator name="electronic exchange-correlation" >
    <i type="logical" name="LASPH"> F  </i>
    <i type="logical" name="LMETAGGA"> F  </i>
   </separator>
   <separator name="electronic convergence" >
    <i type="int" name="NELM">   500</i>
    <i type="int" name="NELMDL">    -5</i>
    <i type="int" name="NELMIN">     2</i>
    <i name="ENINI">    450.00000000</i>
    <separator name="electronic convergence detail" >
     <i type="logical" name="LDIAG"> T  </i>
     <i type="logical" name="LSUBROT"> F  </i>
     <i name="WEIMIN">      0.00000000</i>
     <i name="EBREAK">      0.00000000</i>
     <i name="DEPER">      0.30000000</i>
     <i type="int" name="NRMM">     4</i>
     <i name="TIME">      0.40000000</i>
    </separator>
   </separator>
   <separator name="electronic mixer" >
    <i name="AMIX">      0.40000000</i>
    <i name="BMIX">      1.00000000</i>
    <i name="AMIN">      0.10000000</i>
    <i name="AMIX_MAG">      1.60000000</i>
    <i name="BMIX_MAG">      1.00000000</i>
    <separator name="electronic mixer details" >
     <i type="int" name="IMIX">     4</i>
     <i type="logical" name="MIXFIRST"> F  </i>
     <i type="int" name="MAXMIX">   -45</i>
     <i name="WC">    100.00000000</i>
     <i type="int" name="INIMIX">     1</i>
     <i type="int" name="MIXPRE">     1</i>
     <i type="int" name="MREMOVE">     5</i>
    </separator>
   </separator>
   <separator name="electronic dipolcorrection" >
    <i type="logical" name="LDIPOL"> F  </i>
    <i type="logical" name="LMONO"> F  </i>
    <i type="int" name="IDIPOL">     0</i>
    <i name="EPSILON">      1.00000000</i>
    <v name="DIPOL">   -100.00000000   -100.00000000   -100.00000000</v>
    <i name="EFIELD">      0.00000000</i>
   </separator>
  </separator>
  <separator name="grids" >
   <i type="int" name="NGX">    64</i>
   <i type="int" name="NGY">    48</i>
   <i type="int" name="NGZ">    60</i>
   <i type="int" name="NGXF">   128</i>
   <i type="int" name="NGYF">    96</i>
   <i type="int" name="NGZF">   120</i>
   <i type="logical" name="ADDGRID"> F  </i>
  </separator>
  <separator name="ionic" >
   <i type="int" name="NSW">     0</i>
   <i type="int" name="IBRION">    -1</i>
   <i type="int" name="MDALGO">     0</i>
   <i type="int" name="ISIF">     2</i>
   <i name="PSTRESS">      0.00000000</i>
   <i name="EDIFFG">     -0.00500000</i>
   <i type="int" name="NFREE">     0</i>
   <i name="POTIM">      0.50000000</i>
   <i name="SMASS">     -3.00000000</i>
   <i name="SCALEE">      1.00000000</i>
  </separator>
  <separator name="ionic md" >
   <i name="TEBEG">      0.00010000</i>
   <i name="TEEND">      0.00010000</i>
   <i type="int" name="NBLOCK">     1</i>
   <i type="int" name="KBLOCK">     1</i>
   <i type="int" name="NPACO">   256</i>
   <i name="APACO">     10.00000000</i>
  </separator>
  <separator name="symmetry" >
   <i type="int" name="ISYM">     3</i>
   <i name="SYMPREC">      0.00001000</i>
  </separator>
  <separator name="dos" >
   <i type="int" name="LORBIT">     0</i>
   <v name="RWIGS">     -1.00000000     -1.00000000     -1.00000000</v>
   <i type="int" name="NEDOS">   301</i>
   <i name="EMIN">     10.00000000</i>
   <i name="EMAX">    -10.00000000</i>
   <i name="EFERMI">      0.00000000</i>
  </separator>
  <separator name="writing" >
   <i type="int" name="NWRITE">     2</i>
   <i type="logical" name="LWAVE"> T  </i>
   <i type="logical" name="LDOWNSAMPLE"> F  </i>
   <i type="logical" name="LCHARG"> T  </i>
   <i type="logical" name="LPARD"> F  </i>
   <i type="logical" name="LVTOT"> F  </i>
   <i type="logical" name="LVHAR"> F  </i>
   <i type="logical" name="LELF"> F  </i>
   <i type="logical" name="LOPTICS"> F  </i>
   <v name="STM">      0.00000000      0.00000000      0.00000000      0.00000000      0.00000000      0.00000000      0.00000000</v>
  </separator>
  <separator name="performance" >
   <i type="int" name="NPAR">     1</i>
   <i type="int" name="NSIM">     4</i>
   <i type="int" name="NBLK">    -1</i>
   <i type="logical" name="LPLANE"> T  </i>
   <i type="logical" name="LSCALAPACK"> T  </i>
   <i type="logical" name="LSCAAWARE"> F  </i>
   <i type="logical" name="LSCALU"> F  </i>
   <i type="logical" name="LASYNC"> F  </i>
   <i type="logical" name="LORBITALREAL"> F  </i>
  </separator>
  <separator name="miscellaneous" >
   <i type="int" name="IDIOT">     3</i>
   <i type="int" name="PHON_NSTRUCT">    -1</i>
   <i type="logical" name="LMUSIC"> F  </i>
   <v name="POMASS">     69.72300000     16.00000000     30.97400000</v>
   <v name="DARWINR">      0.00000000      0.00000000      0.00000000</v>
   <v name="DARWINV">      1.00000000      1.00000000      1.00000000</v>
   <i type="logical" name="LCORR"> T  </i>
  </separator>
  <i type="logical" name="GGA_COMPAT"> T  </i>
  <i type="logical" name="LBERRY"> F  </i>
  <i type="int" name="ICORELEVEL">     0</i>
  <i type="logical" name="LDAU"> F  </i>
  <i type="int" name="I_CONSTRAINED_M">     0</i>
  <separator name="electronic exchange-correlation" >
   <i type="string" name="GGA">--</i>
   <i type="int" name="VOSKOWN">     0</i>
   <i type="logical" name="LHFCALC"> T  </i>
   <i type="string" name="PRECFOCK">fast</i>
   <i type="logical" name="LSYMGRAD"> F  </i>
   <i type="logical" name="LHFONE"> F  </i>
   <i type="logical" name="LRHFCALC"> F  </i>
   <i type="logical" name="LTHOMAS"> F  </i>
   <i type="logical" name="LMODELHF"> F  </i>
   <i type="logical" name="LFOCKACE"> T  </i>
   <i name="ENCUT4O">     -1.00000000</i>
   <i type="int" name="EXXOEP">     0</i>
   <i type="int" name="FOURORBIT">     0</i>
   <i name="AEXX">      0.32000000</i>
   <i name="HFALPHA">     -1.00000000</i>
   <i name="MCALPHA">      0.00000000</i>
   <i name="ALDAX">      0.68000000</i>
   <i name="AGGAX">      0.68000000</i>
   <i name="ALDAC">      1.00000000</i>
   <i name="AGGAC">      1.00000000</i>
   <i type="int" name="NKREDX">     1</i>
   <i type="int" name="NKREDY">     1</i>
   <i type="int" name="NKREDZ">     1</i>
   <i type="logical" name="SHIFTRED"> F  </i>
   <i type="logical" name="ODDONLY"> F  </i>
   <i type="logical" name="EVENONLY"> F  </i>
   <i type="int" name="LMAXFOCK">     4</i>
   <i type="int" name="NMAXFOCKAE">     1</i>
   <i type="logical" name="LFOCKAEDFT"> F  </i>
   <i name="HFSCREEN">      0.20000000</i>
   <i name="HFSCREENC">      0.20000000</i>
   <i type="int" name="NBANDSGWLOW">     1</i>
  </separator>
  <separator name="vdW DFT" >
   <i type="logical" name="LUSE_VDW"> F  </i>
   <i type="int" name="IVDW_NL">     1</i>
   <i type="logical" name="LSPIN_VDW"> F  </i>
   <i name="Zab_VDW">     -0.84910000</i>
   <i name="PARAM1">      0.12340000</i>
   <i name="PARAM2">      1.00000000</i>
   <i name="PARAM3">      0.00000000</i>
  </separator>
  <separator name="model GW" >
   <i type="int" name="MODEL_GW">     0</i>
   <i name="MODEL_EPS0">      6.39733692</i>
   <i name="MODEL_ALPHA">      1.00000000</i>
  </separator>
  <separator name="linear response parameters" >
   <i type="logical" name="LEPSILON"> F  </i>
   <i type="logical" name="LRPA"> F  </i>
   <i type="logical" name="LNABLA"> F  </i>
   <i type="logical" name="LVEL"> F  </i>
   <i name="CSHIFT">      0.10000000</i>
   <i name="OMEGAMAX">     -1.00000000</i>
   <i name="DEG_THRESHOLD">      0.00200000</i>
   <i name="RTIME">     -0.10000000</i>
   <i name="WPLASMAI">      0.00000000</i>
   <v name="DFIELD">      0.00000000      0.00000000      0.00000000</v>
   <v name="WPLASMA">      0.00000000      0.00000000      0.00000000      0.00000000      0.00000000      0.00000000      0.00000000      0.00000000      0.00000000</v>
  </separator>
  <separator name="orbital magnetization" >
   <i type="logical" name="NUCIND"> F  </i>
   <v name="MAGPOS">      0.00000000      0.00000000      0.00000000</v>
   <i type="logical" name="LNICSALL"> T  </i>
   <i type="logical" name="ORBITALMAG"> F  </i>
   <i type="logical" name="LMAGBLOCH"> F  </i>
   <i type="logical" name="LCHIMAG"> F  </i>
   <i type="logical" name="LGAUGE"> T  </i>
   <i type="int" name="MAGATOM">     0</i>
   <v name="MAGDIPOL">      0.00000000      0.00000000      0.00000000</v>
   <v name="AVECCONST">      0.00000000      0.00000000      0.00000000</v>
  </separator>
  <separator name="response functions" >
   <i type="logical" name="LALL_IN_ONE"> F  </i>
   <i type="int" name="IALL_IN_ONE">    -1</i>
   <i type="int" name="NBANDS_WAVE">    -1</i>
   <i type="logical" name="LFINITE_TEMPERATURE"> F  </i>
   <i type="logical" name="LADDER"> F  </i>
   <i type="logical" name="LRPAFORCE"> F  </i>
   <i type="logical" name="LFXC"> F  </i>
   <i type="logical" name="LHARTREE"> T  </i>
   <i type="int" name="IBSE">     0</i>
   <v type="int" name="KPOINT">    -1     0     0     0</v>
   <i type="logical" name="LTCTC"> F  </i>
   <i type="logical" name="LTCTE"> F  </i>
   <i type="logical" name="LTETE"> F  </i>
   <i type="logical" name="LTRIPLET"> F  </i>
   <i type="logical" name="LFXCEPS"> F  </i>
   <i type="logical" name="LFXHEG"> F  </i>
   <i type="int" name="NATURALO">     2</i>
   <i type="logical" name="LHOLEGF"> F  </i>
   <i type="logical" name="L2ORDER"> F  </i>
   <i type="logical" name="LDMP1"> F  </i>
   <i type="logical" name="LMP2LT"> F  </i>
   <i type="logical" name="LSMP2LT"> F  </i>
   <i type="logical" name="LGWLF"> F  </i>
   <i name="ENCUTGW">     -1.60000002</i>
   <i name="ENCUTGWSOFT">     -1.60000002</i>
   <i name="ENCUTLF">     -1.00000000</i>
   <i type="logical" name="LESF_SPLINES"> F  </i>
   <i type="int" name="LMAXMP2">    -1</i>
   <i name="SCISSOR">      0.00000000</i>
   <i type="int" name="NOMEGA">     0</i>
   <i type="int" name="NOMEGAR">     0</i>
   <i type="int" name="NBANDSGW">    -1</i>
   <i type="int" name="NBANDSO">    -1</i>
   <i type="int" name="NBANDSV">    -1</i>
   <i type="int" name="NELMGW">     1</i>
   <i type="int" name="NELMHF">     1</i>
   <i type="int" name="DIM">     3</i>
   <i type="int" name="IESPILON">     4</i>
   <i type="int" name="ANTIRES">     0</i>
   <i name="OMEGAMAX">    -30.00000000</i>
   <i name="OMEGAMIN">    -30.00000000</i>
   <i name="OMEGATL">   -200.00000000</i>
   <i type="int" name="OMEGAGRID">     0</i>
   <i name="CSHIFT">     -0.10000000</i>
   <i type="logical" name="LSELFENERGY"> F  </i>
   <i type="logical" name="LSPECTRAL"> F  </i>
   <i type="logical" name="LSPECTRALGW"> F  </i>
   <i type="logical" name="LSINGLES"> F  </i>
   <i type="logical" name="LFERMIGW"> F  </i>
   <i type="logical" name="ODDONLYGW"> F  </i>
   <i type="logical" name="EVENONLYGW"> F  </i>
   <i type="int" name="NKREDLFX">     1</i>
   <i type="int" name="NKREDLFY">     1</i>
   <i type="int" name="NKREDLFZ">     1</i>
   <i type="int" name="MAXMEM">  2800</i>
   <i type="int" name="TELESCOPE">     0</i>
   <i type="int" name="NTAUPAR">    -1</i>
   <i type="int" name="NOMEGAPAR">    -1</i>
   <i name="DAMP_NEWTON">      0.80000001</i>
   <i name="LAMBDA">      1.00000000</i>
  </separator>
  <separator name="External order field" >
   <i name="OFIELD_KAPPA">      0.00000000</i>
   <v name="OFIELD_K">      0.00000000      0.00000000      0.00000000</v>
   <i name="OFIELD_Q6_NEAR">      0.00000000</i>
   <i name="OFIELD_Q6_FAR">      0.00000000</i>
   <i name="OFIELD_A">      0.00000000</i>
  </separator>
  <separator name="optional k-points parameters" >
   <i type="int" name="KPOINTS_OPT_MODE">     1</i>
   <i type="logical" name="LKPOINTS_OPT"> F  </i>
  </separator>
 </parameters>
 <atominfo>
  <atoms>     119 </atoms>
  <types>       3 </types>
  <array name="atoms" >
   <dimension dim="1">ion</dimension>
   <field type="string">element</field>
   <field type="int">atomtype</field>
   <set>
    <rc><c>Ga</c><c>   1</c></rc>
    <rc><c>Ga</c><c>   1</c></rc>
    <rc><c>Ga</c><c>   1</c></rc>
    <rc><c>Ga</c><c>   1</c></rc>
    <rc><c>Ga</c><c>   1</c></rc>
    <rc><c>Ga</c><c>   1</c></rc>
    <rc><c>Ga</c><c>   1</c></rc>
    <rc><c>Ga</c><c>   1</c></rc>
    <rc><c>Ga</c><c>   1</c></rc>
    <rc><c>Ga</c><c>   1</c></rc>
    <rc><c>Ga</c><c>   1</c></rc>
    <rc><c>Ga</c><c>   1</c></rc>
    <rc><c>Ga</c><c>   1</c></rc>
    <rc><c>Ga</c><c>   1</c></rc>
    <rc><c>Ga</c><c>   1</c></rc>
    <rc><c>Ga</c><c>   1</c></rc>
    <rc><c>Ga</c><c>   1</c></rc>
    <rc><c>Ga</c><c>   1</c></rc>
    <rc><c>Ga</c><c>   1</c></rc>
    <rc><c>Ga</c><c>   1</c></rc>
    <rc><c>Ga</c><c>   1</c></rc>
    <rc><c>Ga</c><c>   1</c></rc>
    <rc><c>Ga</c><c>   1</c></rc>
    <rc><c>Ga</c><c>   1</c></rc>
    <rc><c>Ga</c><c>   1</c></rc>
    <rc><c>Ga</c><c>   1</c></rc>
    <rc><c>Ga</c><c>   1</c></rc>
    <rc><c>Ga</c><c>   1</c></rc>
    <rc><c>Ga</c><c>   1</c></rc>
    <rc><c>Ga</c><c>   1</c></rc>
    <rc><c>Ga</c><c>   1</c></rc>
    <rc><c>Ga</c><c>   1</c></rc>
    <rc><c>Ga</c><c>   1</c></rc>
    <rc><c>Ga</c><c>   1</c></rc>
    <rc><c>Ga</c><c>   1</c></rc>
    <rc><c>Ga</c><c>   1</c></rc>
    <rc><c>Ga</c><c>   1</c></rc>
    <rc><c>Ga</c><c>   1</c></rc>
    <rc><c>Ga</c><c>   1</c></rc>
    <rc><c>Ga</c><c>   1</c></rc>
    <rc><c>Ga</c><c>   1</c></rc>
    <rc><c>Ga</c><c>   1</c></rc>
    <rc><c>Ga</c><c>   1</c></rc>
    <rc><c>Ga</c><c>   1</c></rc>
    <rc><c>Ga</c><c>   1</c></rc>
    <rc><c>Ga</c><c>   1</c></rc>
    <rc><c>Ga</c><c>   1</c></rc>
    <rc><c>O </c><c>   2</c></rc>
    <rc><c>O </c><c>   2</c></rc>
    <rc><c>O </c><c>   2</c></rc>
    <rc><c>O </c><c>   2</c></rc>
    <rc><c>O </c><c>   2</c></rc>
    <rc><c>O </c><c>   2</c></rc>
    <rc><c>O </c><c>   2</c></rc>
    <rc><c>O </c><c>   2</c></rc>
    <rc><c>O </c><c>   2</c></rc>
    <rc><c>O </c><c>   2</c></rc>
    <rc><c>O </c><c>   2</c></rc>
    <rc><c>O </c><c>   2</c></rc>
    <rc><c>O </c><c>   2</c></rc>
    <rc><c>O </c><c>   2</c></rc>
    <rc><c>O </c><c>   2</c></rc>
    <rc><c>O </c><c>   2</c></rc>
    <rc><c>O </c><c>   2</c></rc>
    <rc><c>O </c><c>   2</c></rc>
    <rc><c>O </c><c>   2</c></rc>
    <rc><c>O </c><c>   2</c></rc>
    <rc><c>O </c><c>   2</c></rc>
    <rc><c>O </c><c>   2</c></rc>
    <rc><c>O </c><c>   2</c></rc>
    <rc><c>O </c><c>   2</c></rc>
    <rc><c>O </c><c>   2</c></rc>
    <rc><c>O </c><c>   2</c></rc>
    <rc><c>O </c><c>   2</c></rc>
    <rc><c>O </c><c>   2</c></rc>
    <rc><c>O </c><c>   2</c></rc>
    <rc><c>O </c><c>   2</c></rc>
    <rc><c>O </c><c>   2</c></rc>
    <rc><c>O </c><c>   2</c></rc>
    <rc><c>O </c><c>   2</c></rc>
    <rc><c>O </c><c>   2</c></rc>
    <rc><c>O </c><c>   2</c></rc>
    <rc><c>O </c><c>   2</c></rc>
    <rc><c>O </c><c>   2</c></rc>
    <rc><c>O </c><c>   2</c></rc>
    <rc><c>O </c><c>   2</c></rc>
    <rc><c>O </c><c>   2</c></rc>
    <rc><c>O </c><c>   2</c></rc>
    <rc><c>O </c><c>   2</c></rc>
    <rc><c>O </c><c>   2</c></rc>
    <rc><c>O </c><c>   2</c></rc>
    <rc><c>O </c><c>   2</c></rc>
    <rc><c>O </c><c>   2</c></rc>
    <rc><c>O </c><c>   2</c></rc>
    <rc><c>O </c><c>   2</c></rc>
    <rc><c>O </c><c>   2</c></rc>
    <rc><c>O </c><c>   2</c></rc>
    <rc><c>O </c><c>   2</c></rc>
    <rc><c>O </c><c>   2</c></rc>
    <rc><c>O </c><c>   2</c></rc>
    <rc><c>O </c><c>   2</c></rc>
    <rc><c>O </c><c>   2</c></rc>
    <rc><c>O </c><c>   2</c></rc>
    <rc><c>O </c><c>   2</c></rc>
    <rc><c>O </c><c>   2</c></rc>
    <rc><c>O </c><c>   2</c></rc>
    <rc><c>O </c><c>   2</c></rc>
    <rc><c>O </c><c>   2</c></rc>
    <rc><c>O </c><c>   2</c></rc>
    <rc><c>O </c><c>   2</c></rc>
    <rc><c>O </c><c>   2</c></rc>
    <rc><c>O </c><c>   2</c></rc>
    <rc><c>O </c><c>   2</c></rc>
    <rc><c>O </c><c>   2</c></rc>
    <rc><c>O </c><c>   2</c></rc>
    <rc><c>O </c><c>   2</c></rc>
    <rc><c>O </c><c>   2</c></rc>
    <rc><c>O </c><c>   2</c></rc>
    <rc><c>P </c><c>   3</c></rc>
   </set>
  </array>
  <array name="atomtypes" >
   <dimension dim="1">type</dimension>
   <field type="int">atomspertype</field>
   <field type="string">element</field>
   <field>mass</field>
   <field>valence</field>
   <field type="string">pseudopotential</field>
   <set>
    <rc><c>  47</c><c>Ga</c><c>     69.72300000</c><c>     13.00000000</c><c>  PAW_PBE Ga_d 06Jul2010                </c></rc>
    <rc><c>  71</c><c>O </c><c>     16.00000000</c><c>      6.00000000</c><c>   PAW_PBE O 08Apr2002                  </c></rc>
    <rc><c>   1</c><c>P </c><c>     30.97400000</c><c>      5.00000000</c><c>  PAW_PBE P 06Sep2000                   </c></rc>
   </set>
  </array>
 </atominfo>
 <structure name="initialpos" >
  <crystal>
   <varray name="basis" >
    <v>       0.00000000      12.28047342       0.00000000 </v>
    <v>       9.14270205       0.00000000       0.00000000 </v>
    <v>       0.00000000      -2.76826177     -11.30069772 </v>
   </varray>
   <i name="volume">   1268.80515525 </i>
   <varray name="rec_basis" >
    <v>       0.00000000       0.08143009      -0.01994742 </v>
    <v>       0.10937686      -0.00000000       0.00000000 </v>
    <v>       0.00000000       0.00000000      -0.08849011 </v>
   </varray>
  </crystal>
  <varray name="positions" >
   <v>       0.65636472       0.00249363       0.15829709 </v>
   <v>       0.65377920       0.00472659       0.65592006 </v>
   <v>       0.68397387       0.33376138       0.15112817 </v>
   <v>       0.65751226       0.33996796       0.65521033 </v>
   <v>       0.65662751       0.66387789       0.15752554 </v>
   <v>       0.64755763       0.67342395       0.65675819 </v>
   <v>       0.84281639       0.16198895       0.36377123 </v>
   <v>       0.83529535       0.17157624       0.83954741 </v>
   <v>       0.84328874       0.50512090       0.34891692 </v>
   <v>       0.83581685       0.51098011       0.83701711 </v>
   <v>       0.84407342       0.83600636       0.35043301 </v>
   <v>       0.83845245       0.84323675       0.83970047 </v>
   <v>       0.58804752       0.17027148       0.39114538 </v>
   <v>       0.59635450       0.20015459       0.90575161 </v>
   <v>       0.59262686       0.50204136       0.39236870 </v>
   <v>       0.60441057       0.45931355       0.90703482 </v>
   <v>       0.58735609       0.83971285       0.39782000 </v>
   <v>       0.57464444       0.83071967       0.89452324 </v>
   <v>       0.90441189       0.00385563       0.10579153 </v>
   <v>       0.92246548       0.03542500       0.60578920 </v>
   <v>       0.91232321       0.34151118       0.10154709 </v>
   <v>       0.90749202       0.30131070       0.59822699 </v>
   <v>       0.90044298       0.67350640       0.10112324 </v>
   <v>       0.90813634       0.66188531       0.60224292 </v>
   <v>       0.15671249       0.16377673       0.15528652 </v>
   <v>       0.16022273       0.13370050       0.59199551 </v>
   <v>       0.15911016       0.50953879       0.15532765 </v>
   <v>       0.15399100       0.49399671       0.65381130 </v>
   <v>       0.15709442       0.84639510       0.14903071 </v>
   <v>       0.14913290       0.82625277       0.66379005 </v>
   <v>       0.33013878       0.00502471       0.33897137 </v>
   <v>       0.34822997       0.98728660       0.84821774 </v>
   <v>       0.33568193       0.33635604       0.34056614 </v>
   <v>       0.31273621       0.32062210       0.84493665 </v>
   <v>       0.34086382       0.66830009       0.33406174 </v>
   <v>       0.35800502       0.65352898       0.84696204 </v>
   <v>       0.09465691       0.01846222       0.87120200 </v>
   <v>       0.08673726       0.33937964       0.39625814 </v>
   <v>       0.07891519       0.34920300       0.89521920 </v>
   <v>       0.09222079       0.68546375       0.39800356 </v>
   <v>       0.09393756       0.68710157       0.89088646 </v>
   <v>       0.39836267       0.19921971       0.09098320 </v>
   <v>       0.40537446       0.17424385       0.60893256 </v>
   <v>       0.40393369       0.46197974       0.09301287 </v>
   <v>       0.40315596       0.50849089       0.60128016 </v>
   <v>       0.43132744       0.82950397       0.11656189 </v>
   <v>       0.38134868       0.84863660       0.59556741 </v>
   <v>       0.99344882       0.17060014       0.13008840 </v>
   <v>       0.07506671       0.07682862       0.69896815 </v>
   <v>       0.99568756       0.51184052       0.12608450 </v>
   <v>       0.98842706       0.48557664       0.61784592 </v>
   <v>       0.99274852       0.83677713       0.12094831 </v>
   <v>       0.98938386       0.83309599       0.61935511 </v>
   <v>       0.49713570       0.00616006       0.37117159 </v>
   <v>       0.51222674       0.01995896       0.87825372 </v>
   <v>       0.50004345       0.33791192       0.36993502 </v>
   <v>       0.46287332       0.32498429       0.86870251 </v>
   <v>       0.50395002       0.66794777       0.37005665 </v>
   <v>       0.52054646       0.63730151       0.88099534 </v>
   <v>       0.68142457       0.16086809       0.28737395 </v>
   <v>       0.66928592       0.16603058       0.77263627 </v>
   <v>       0.67934006       0.50833606       0.28360128 </v>
   <v>       0.66970941       0.51056124       0.77231537 </v>
   <v>       0.66468842       0.83330394       0.27712023 </v>
   <v>       0.66468171       0.83865637       0.78101260 </v>
   <v>       0.82316907       0.98812335       0.22072313 </v>
   <v>       0.82572147       0.00362971       0.71879654 </v>
   <v>       0.84019963       0.33785792       0.22739948 </v>
   <v>       0.82251842       0.34433611       0.71947528 </v>
   <v>       0.82742900       0.67359867       0.22457662 </v>
   <v>       0.82256604       0.67541345       0.71585721 </v>
   <v>       0.81600296       0.98747200       0.45593246 </v>
   <v>       0.83057281       0.00633265       0.94588874 </v>
   <v>       0.81438281       0.34556219       0.44519756 </v>
   <v>       0.83914079       0.34244219       0.94373528 </v>
   <v>       0.82242210       0.66711816       0.44888601 </v>
   <v>       0.82857908       0.67716460       0.94178902 </v>
   <v>       0.69115341       0.15460697       0.06087872 </v>
   <v>       0.65859768       0.17302142       0.55075736 </v>
   <v>       0.69670973       0.51326953       0.06188120 </v>
   <v>       0.65909155       0.50654295       0.55163104 </v>
   <v>       0.65561224       0.83284453       0.05267890 </v>
   <v>       0.65988511       0.83776585       0.55569941 </v>
   <v>       0.49311144       0.02016480       0.12835308 </v>
   <v>       0.48848675       0.00414114       0.62260577 </v>
   <v>       0.53584223       0.33247304       0.13779737 </v>
   <v>       0.49383329       0.34099801       0.62851573 </v>
   <v>       0.49627772       0.64153410       0.13109851 </v>
   <v>       0.48569297       0.67839304       0.61669910 </v>
   <v>       0.99651313       0.17838721       0.87540969 </v>
   <v>       0.00471918       0.51220202       0.37350233 </v>
   <v>       0.99785332       0.52094005       0.87175751 </v>
   <v>       0.99740940       0.83323962       0.37527944 </v>
   <v>       0.99918454       0.84851181       0.86703009 </v>
   <v>       0.17347656       0.99791244       0.26602088 </v>
   <v>       0.19983372       0.90306619       0.82433936 </v>
   <v>       0.17029900       0.34636640       0.27714380 </v>
   <v>       0.15919203       0.34697807       0.78061091 </v>
   <v>       0.17099302       0.67389467       0.27759591 </v>
   <v>       0.16252428       0.65104889       0.76804163 </v>
   <v>       0.32481899       0.16983401       0.22415296 </v>
   <v>       0.31127115       0.15751794       0.71293896 </v>
   <v>       0.32525938       0.50741117       0.21885089 </v>
   <v>       0.32379601       0.50465135       0.71650357 </v>
   <v>       0.32987280       0.83217010       0.21143714 </v>
   <v>       0.36969354       0.81880961       0.74823766 </v>
   <v>       0.33025570       0.17243659       0.44874199 </v>
   <v>       0.30242788       0.14173539       0.93548959 </v>
   <v>       0.33346242       0.50429907       0.44223759 </v>
   <v>       0.31321380       0.51199264       0.94138200 </v>
   <v>       0.33948889       0.83149830       0.43355824 </v>
   <v>       0.37984816       0.82078169       0.95840755 </v>
   <v>       0.15347879       0.00950064       0.03983295 </v>
   <v>       0.22454282       0.94383761       0.57413711 </v>
   <v>       0.15299249       0.33937906       0.05302182 </v>
   <v>       0.18329754       0.34420119       0.55109047 </v>
   <v>       0.16451629       0.67702507       0.05010366 </v>
   <v>       0.17054307       0.66195346       0.55315762 </v>
   <v>       0.03092073       0.11353905       0.40082011 </v>
  </varray>
 </structure>
 <calculation>
  <scstep>
   <time name="total">    3.88    3.89</time>
   <energy>
    <i name="alphaZ">   5376.25786726 </i>
    <i name="ewald"> -86690.37289493 </i>
    <i name="hartreedc">  -2117.57481341 </i>
    <i name="XCdc">   2816.09132553 </i>
    <i name="pawpsdc"> 339968.36323797 </i>
    <i name="pawaedc">-368770.28864552 </i>
    <i name="eentropy">     -0.00550896 </i>
    <i name="bandstr"> -39687.95365958 </i>
    <i name="atom"> 131500.23896116 </i>
    <i name="e_fr_energy"> -17605.24413049 </i>
    <i name="e_wo_entrp"> -17605.23862153 </i>
    <i name="e_0_energy"> -17605.24137601 </i>
   </energy>
  </scstep>
  <scstep>
   <time name="total">    3.08    3.08</time>
   <energy>
    <i name="e_fr_energy"> -62855.76247235 </i>
    <i name="e_wo_entrp"> -62855.74769595 </i>
    <i name="e_0_energy"> -62855.75508415 </i>
   </energy>
  </scstep>
  <scstep>
   <time name="total">    3.30    3.30</time>
   <energy>
    <i name="e_fr_energy"> -68159.20011062 </i>
    <i name="e_wo_entrp"> -68159.16928259 </i>
    <i name="e_0_energy"> -68159.18469661 </i>
   </energy>
  </scstep>
  <scstep>
   <time name="total">    3.90    3.90</time>
   <energy>
    <i name="e_fr_energy"> -68958.76735357 </i>
    <i name="e_wo_entrp"> -68958.71633289 </i>
    <i name="e_0_energy"> -68958.74184323 </i>
   </energy>
  </scstep>
  <scstep>
   <time name="total">  236.30  236.30</time>
   <energy>
    <i name="e_fr_energy"> -39387.31193274 </i>
    <i name="e_wo_entrp"> -39387.31193237 </i>
    <i name="e_0_energy"> -39387.31193256 </i>
   </energy>
  </scstep>
  <scstep>
   <time name="total">  469.05  469.03</time>
   <energy>
    <i name="e_fr_energy">  31067.19093896 </i>
    <i name="e_wo_entrp">  31067.23159072 </i>
    <i name="e_0_energy">  31067.21126484 </i>
   </energy>
  </scstep>
  <scstep>
   <time name="total">  469.75  469.75</time>
   <energy>
    <i name="e_fr_energy">  11089.18435946 </i>
    <i name="e_wo_entrp">  11089.22128704 </i>
    <i name="e_0_energy">  11089.20282325 </i>
   </energy>
  </scstep>
  <scstep>
   <time name="total">  469.76  469.76</time>
   <energy>
    <i name="e_fr_energy">   5620.33509515 </i>
    <i name="e_wo_entrp">   5620.37313731 </i>
    <i name="e_0_energy">   5620.35411623 </i>
   </energy>
  </scstep>
  <scstep>
   <time name="total">  469.48  469.49</time>
   <energy>
    <i name="e_fr_energy">   3726.05929753 </i>
    <i name="e_wo_entrp">   3726.06101058 </i>
    <i name="e_0_energy">   3726.06015406 </i>
   </energy>
  </scstep>
  <scstep>
   <time name="total">  468.78  468.81</time>
   <energy>
    <i name="e_fr_energy">   1974.73520190 </i>
    <i name="e_wo_entrp">   1974.74277981 </i>
    <i name="e_0_energy">   1974.73899085 </i>
   </energy>
  </scstep>
  <scstep>
   <time name="total">  468.37  468.39</time>
   <energy>
    <i name="e_fr_energy">    815.46538833 </i>
    <i name="e_wo_entrp">    815.47276169 </i>
    <i name="e_0_energy">    815.46907501 </i>
   </energy>
  </scstep>
  <scstep>
   <time name="total">  468.78  468.79</time>
   <energy>
    <i name="e_fr_energy">     10.38617697 </i>
    <i name="e_wo_entrp">     10.40129852 </i>
    <i name="e_0_energy">     10.39373774 </i>
   </energy>
  </scstep>
  <scstep>
   <time name="total">  468.55  468.59</time>
   <energy>
    <i name="e_fr_energy">   -390.28424320 </i>
    <i name="e_wo_entrp">   -390.27215997 </i>
    <i name="e_0_energy">   -390.27820159 </i>
   </energy>
  </scstep>
  <scstep>
   <time name="total">  468.66  468.67</time>
   <energy>
    <i name="e_fr_energy">   -600.02601223 </i>
    <i name="e_wo_entrp">   -600.02021170 </i>
    <i name="e_0_energy">   -600.02311196 </i>
   </energy>
  </scstep>
  <scstep>
   <time name="total">  468.94  468.95</time>
   <energy>
    <i name="e_fr_energy">   -711.78227176 </i>
    <i name="e_wo_entrp">   -711.76948691 </i>
    <i name="e_0_energy">   -711.77587934 </i>
   </energy>
  </scstep>
  <scstep>
   <time name="total">  468.63  468.67</time>
   <energy>
    <i name="e_fr_energy">   -766.18736370 </i>
    <i name="e_wo_entrp">   -766.18258900 </i>
    <i name="e_0_energy">   -766.18497635 </i>
   </energy>
  </scstep>
  <scstep>
   <time name="total">  468.52  468.49</time>
   <energy>
    <i name="e_fr_energy">   -795.60541356 </i>
    <i name="e_wo_entrp">   -795.59714551 </i>
    <i name="e_0_energy">   -795.60127953 </i>
   </energy>
  </scstep>
  <scstep>
   <time name="total">  468.64  468.65</time>
   <energy>
    <i name="e_fr_energy">   -814.07316250 </i>
    <i name="e_wo_entrp">   -814.06501228 </i>
    <i name="e_0_energy">   -814.06908739 </i>
   </energy>
  </scstep>
  <scstep>
   <time name="total">  468.46  468.47</time>
   <energy>
    <i name="e_fr_energy">   -825.01674656 </i>
    <i name="e_wo_entrp">   -825.00792136 </i>
    <i name="e_0_energy">   -825.01233396 </i>
   </energy>
  </scstep>
  <scstep>
   <time name="total">  468.24  468.25</time>
   <energy>
    <i name="e_fr_energy">   -831.64070610 </i>
    <i name="e_wo_entrp">   -831.63229381 </i>
    <i name="e_0_energy">   -831.63649995 </i>
   </energy>
  </scstep>
  <scstep>
   <time name="total">  468.21  468.23</time>
   <energy>
    <i name="e_fr_energy">   -835.30513142 </i>
    <i name="e_wo_entrp">   -835.29802806 </i>
    <i name="e_0_energy">   -835.30157974 </i>
   </energy>
  </scstep>
  <scstep>
   <time name="total">  468.30  468.32</time>
   <energy>
    <i name="e_fr_energy">   -837.29118859 </i>
    <i name="e_wo_entrp">   -837.28448505 </i>
    <i name="e_0_energy">   -837.28783682 </i>
   </energy>
  </scstep>
  <scstep>
   <time name="total">  468.08  468.10</time>
   <energy>
    <i name="e_fr_energy">   -838.35055713 </i>
    <i name="e_wo_entrp">   -838.34439252 </i>
    <i name="e_0_energy">   -838.34747483 </i>
   </energy>
  </scstep>
  <scstep>
   <time name="total">  467.91  467.91</time>
   <energy>
    <i name="e_fr_energy">   -838.92796978 </i>
    <i name="e_wo_entrp">   -838.92213477 </i>
    <i name="e_0_energy">   -838.92505227 </i>
   </energy>
  </scstep>
  <scstep>
   <time name="total">  468.26  468.26</time>
   <energy>
    <i name="e_fr_energy">   -839.24107397 </i>
    <i name="e_wo_entrp">   -839.23522859 </i>
    <i name="e_0_energy">   -839.23815128 </i>
   </energy>
  </scstep>
  <scstep>
   <time name="total">  468.49  468.50</time>
   <energy>
    <i name="e_fr_energy">   -839.43581735 </i>
    <i name="e_wo_entrp">   -839.42998916 </i>
    <i name="e_0_energy">   -839.43290325 </i>
   </energy>
  </scstep>
  <scstep>
   <time name="total">  468.52  468.60</time>
   <energy>
    <i name="e_fr_energy">   -839.54994884 </i>
    <i name="e_wo_entrp">   -839.54428854 </i>
    <i name="e_0_energy">   -839.54711869 </i>
   </energy>
  </scstep>
  <scstep>
   <time name="total">  468.57  468.55</time>
   <energy>
    <i name="e_fr_energy">   -839.61257497 </i>
    <i name="e_wo_entrp">   -839.60701822 </i>
    <i name="e_0_energy">   -839.60979660 </i>
   </energy>
  </scstep>
  <scstep>
   <time name="total">  468.14  468.15</time>
   <energy>
    <i name="e_fr_energy">   -839.64761749 </i>
    <i name="e_wo_entrp">   -839.64204090 </i>
    <i name="e_0_energy">   -839.64482920 </i>
   </energy>
  </scstep>
  <scstep>
   <time name="total">  468.68  468.64</time>
   <energy>
    <i name="e_fr_energy">   -839.66642854 </i>
    <i name="e_wo_entrp">   -839.66081296 </i>
    <i name="e_0_energy">   -839.66362075 </i>
   </energy>
  </scstep>
  <scstep>
   <time name="total">  468.59  468.58</time>
   <energy>
    <i name="e_fr_energy">   -839.67720478 </i>
    <i name="e_wo_entrp">   -839.67157831 </i>
    <i name="e_0_energy">   -839.67439155 </i>
   </energy>
  </scstep>
  <scstep>
   <time name="total">  468.32  468.33</time>
   <energy>
    <i name="e_fr_energy">   -839.68411720 </i>
    <i name="e_wo_entrp">   -839.67848334 </i>
    <i name="e_0_energy">   -839.68130027 </i>
   </energy>
  </scstep>
  <scstep>
   <time name="total">  468.36  468.36</time>
   <energy>
    <i name="e_fr_energy">   -839.68815783 </i>
    <i name="e_wo_entrp">   -839.68250440 </i>
    <i name="e_0_energy">   -839.68533112 </i>
   </energy>
  </scstep>
  <scstep>
   <time name="total">  468.36  468.35</time>
   <energy>
    <i name="e_fr_energy">   -839.69059987 </i>
    <i name="e_wo_entrp">   -839.68493596 </i>
    <i name="e_0_energy">   -839.68776791 </i>
   </energy>
  </scstep>
  <scstep>
   <time name="total">  468.36  468.36</time>
   <energy>
    <i name="e_fr_energy">   -839.69192955 </i>
    <i name="e_wo_entrp">   -839.68626820 </i>
    <i name="e_0_energy">   -839.68909887 </i>
   </energy>
  </scstep>
  <scstep>
   <time name="total">  468.67  468.64</time>
   <energy>
    <i name="e_fr_energy">   -839.69265491 </i>
    <i name="e_wo_entrp">   -839.68699532 </i>
    <i name="e_0_energy">   -839.68982511 </i>
   </energy>
  </scstep>
  <scstep>
   <time name="total">  468.35  468.35</time>
   <energy>
    <i name="e_fr_energy">   -839.69309037 </i>
    <i name="e_wo_entrp">   -839.68741990 </i>
    <i name="e_0_energy">   -839.69025513 </i>
   </energy>
  </scstep>
  <scstep>
   <time name="total">  468.84  468.84</time>
   <energy>
    <i name="e_fr_energy">   -839.69350747 </i>
    <i name="e_wo_entrp">   -839.68784285 </i>
    <i name="e_0_energy">   -839.69067516 </i>
   </energy>
  </scstep>
  <scstep>
   <time name="total">  468.22  468.20</time>
   <energy>
    <i name="e_fr_energy">   -839.69367024 </i>
    <i name="e_wo_entrp">   -839.68800631 </i>
    <i name="e_0_energy">   -839.69083827 </i>
   </energy>
  </scstep>
  <scstep>
   <time name="total">  468.30  468.32</time>
   <energy>
    <i name="e_fr_energy">   -839.69372747 </i>
    <i name="e_wo_entrp">   -839.68806139 </i>
    <i name="e_0_energy">   -839.69089443 </i>
   </energy>
  </scstep>
  <scstep>
   <time name="total">  468.28  468.27</time>
   <energy>
    <i name="e_fr_energy">   -839.69374551 </i>
    <i name="e_wo_entrp">   -839.68808044 </i>
    <i name="e_0_energy">   -839.69091297 </i>
   </energy>
  </scstep>
  <scstep>
   <time name="total">  698.41  698.42</time>
   <energy>
    <i name="alphaZ">   5376.25786726 </i>
    <i name="ewald"> -86690.37289493 </i>
    <i name="hartreedc"> -33893.62933457 </i>
    <i name="XCdc">   2905.68852609 </i>
    <i name="pawpsdc"> 121502.16196265 </i>
    <i name="pawaedc">-136769.12945549 </i>
    <i name="eentropy">     -0.00566487 </i>
    <i name="bandstr">  -8639.20319367 </i>
    <i name="atom"> 131500.23896116 </i>
    <i name="e_fr_energy">   -839.69375040 </i>
    <i name="e_wo_entrp">   -839.68808553 </i>
    <i name="e_0_energy">   -839.69091796 </i>
   </energy>
  </scstep>
  <structure>
   <crystal>
    <varray name="basis" >
     <v>       0.00000000      12.28047342       0.00000000 </v>
     <v>       9.14270205       0.00000000       0.00000000 </v>
     <v>       0.00000000      -2.76826177     -11.30069772 </v>
    </varray>
    <i name="volume">   1268.80515525 </i>
    <varray name="rec_basis" >
     <v>       0.00000000       0.08143009      -0.01994742 </v>
     <v>       0.10937686      -0.00000000       0.00000000 </v>
     <v>       0.00000000       0.00000000      -0.08849011 </v>
    </varray>
   </crystal>
   <varray name="positions" >
    <v>       0.65636472       0.00249363       0.15829709 </v>
    <v>       0.65377920       0.00472659       0.65592006 </v>
    <v>       0.68397387       0.33376138       0.15112817 </v>
    <v>       0.65751226       0.33996796       0.65521033 </v>
    <v>       0.65662751       0.66387789       0.15752554 </v>
    <v>       0.64755763       0.67342395       0.65675819 </v>
    <v>       0.84281639       0.16198895       0.36377123 </v>
    <v>       0.83529535       0.17157624       0.83954741 </v>
    <v>       0.84328874       0.50512090       0.34891692 </v>
    <v>       0.83581685       0.51098011       0.83701711 </v>
    <v>       0.84407342       0.83600636       0.35043301 </v>
    <v>       0.83845245       0.84323675       0.83970047 </v>
    <v>       0.58804752       0.17027148       0.39114538 </v>
    <v>       0.59635450       0.20015459       0.90575161 </v>
    <v>       0.59262686       0.50204136       0.39236870 </v>
    <v>       0.60441057       0.45931355       0.90703482 </v>
    <v>       0.58735609       0.83971285       0.39782000 </v>
    <v>       0.57464444       0.83071967       0.89452324 </v>
    <v>       0.90441189       0.00385563       0.10579153 </v>
    <v>       0.92246548       0.03542500       0.60578920 </v>
    <v>       0.91232321       0.34151118       0.10154709 </v>
    <v>       0.90749202       0.30131070       0.59822699 </v>
    <v>       0.90044298       0.67350640       0.10112324 </v>
    <v>       0.90813634       0.66188531       0.60224292 </v>
    <v>       0.15671249       0.16377673       0.15528652 </v>
    <v>       0.16022273       0.13370050       0.59199551 </v>
    <v>       0.15911016       0.50953879       0.15532765 </v>
    <v>       0.15399100       0.49399671       0.65381130 </v>
    <v>       0.15709442       0.84639510       0.14903071 </v>
    <v>       0.14913290       0.82625277       0.66379005 </v>
    <v>       0.33013878       0.00502471       0.33897137 </v>
    <v>       0.34822997       0.98728660       0.84821774 </v>
    <v>       0.33568193       0.33635604       0.34056614 </v>
    <v>       0.31273621       0.32062210       0.84493665 </v>
    <v>       0.34086382       0.66830009       0.33406174 </v>
    <v>       0.35800502       0.65352898       0.84696204 </v>
    <v>       0.09465691       0.01846222       0.87120200 </v>
    <v>       0.08673726       0.33937964       0.39625814 </v>
    <v>       0.07891519       0.34920300       0.89521920 </v>
    <v>       0.09222079       0.68546375       0.39800356 </v>
    <v>       0.09393756       0.68710157       0.89088646 </v>
    <v>       0.39836267       0.19921971       0.09098320 </v>
    <v>       0.40537446       0.17424385       0.60893256 </v>
    <v>       0.40393369       0.46197974       0.09301287 </v>
    <v>       0.40315596       0.50849089       0.60128016 </v>
    <v>       0.43132744       0.82950397       0.11656189 </v>
    <v>       0.38134868       0.84863660       0.59556741 </v>
    <v>       0.99344882       0.17060014       0.13008840 </v>
    <v>       0.07506671       0.07682862       0.69896815 </v>
    <v>       0.99568756       0.51184052       0.12608450 </v>
    <v>       0.98842706       0.48557664       0.61784592 </v>
    <v>       0.99274852       0.83677713       0.12094831 </v>
    <v>       0.98938386       0.83309599       0.61935511 </v>
    <v>       0.49713570       0.00616006       0.37117159 </v>
    <v>       0.51222674       0.01995896       0.87825372 </v>
    <v>       0.50004345       0.33791192       0.36993502 </v>
    <v>       0.46287332       0.32498429       0.86870251 </v>
    <v>       0.50395002       0.66794777       0.37005665 </v>
    <v>       0.52054646       0.63730151       0.88099534 </v>
    <v>       0.68142457       0.16086809       0.28737395 </v>
    <v>       0.66928592       0.16603058       0.77263627 </v>
    <v>       0.67934006       0.50833606       0.28360128 </v>
    <v>       0.66970941       0.51056124       0.77231537 </v>
    <v>       0.66468842       0.83330394       0.27712023 </v>
    <v>       0.66468171       0.83865637       0.78101260 </v>
    <v>       0.82316907       0.98812335       0.22072313 </v>
    <v>       0.82572147       0.00362971       0.71879654 </v>
    <v>       0.84019963       0.33785792       0.22739948 </v>
    <v>       0.82251842       0.34433611       0.71947528 </v>
    <v>       0.82742900       0.67359867       0.22457662 </v>
    <v>       0.82256604       0.67541345       0.71585721 </v>
    <v>       0.81600296       0.98747200       0.45593246 </v>
    <v>       0.83057281       0.00633265       0.94588874 </v>
    <v>       0.81438281       0.34556219       0.44519756 </v>
    <v>       0.83914079       0.34244219       0.94373528 </v>
    <v>       0.82242210       0.66711816       0.44888601 </v>
    <v>       0.82857908       0.67716460       0.94178902 </v>
    <v>       0.69115341       0.15460697       0.06087872 </v>
    <v>       0.65859768       0.17302142       0.55075736 </v>
    <v>       0.69670973       0.51326953       0.06188120 </v>
    <v>       0.65909155       0.50654295       0.55163104 </v>
    <v>       0.65561224       0.83284453       0.05267890 </v>
    <v>       0.65988511       0.83776585       0.55569941 </v>
    <v>       0.49311144       0.02016480       0.12835308 </v>
    <v>       0.48848675       0.00414114       0.62260577 </v>
    <v>       0.53584223       0.33247304       0.13779737 </v>
    <v>       0.49383329       0.34099801       0.62851573 </v>
    <v>       0.49627772       0.64153410       0.13109851 </v>
    <v>       0.48569297       0.67839304       0.61669910 </v>
    <v>       0.99651313       0.17838721       0.87540969 </v>
    <v>       0.00471918       0.51220202       0.37350233 </v>
    <v>       0.99785332       0.52094005       0.87175751 </v>
    <v>       0.99740940       0.83323962       0.37527944 </v>
    <v>       0.99918454       0.84851181       0.86703009 </v>
    <v>       0.17347656       0.99791244       0.26602088 </v>
    <v>       0.19983372       0.90306619       0.82433936 </v>
    <v>       0.17029900       0.34636640       0.27714380 </v>
    <v>       0.15919203       0.34697807       0.78061091 </v>
    <v>       0.17099302       0.67389467       0.27759591 </v>
    <v>       0.16252428       0.65104889       0.76804163 </v>
    <v>       0.32481899       0.16983401       0.22415296 </v>
    <v>       0.31127115       0.15751794       0.71293896 </v>
    <v>       0.32525938       0.50741117       0.21885089 </v>
    <v>       0.32379601       0.50465135       0.71650357 </v>
    <v>       0.32987280       0.83217010       0.21143714 </v>
    <v>       0.36969354       0.81880961       0.74823766 </v>
    <v>       0.33025570       0.17243659       0.44874199 </v>
    <v>       0.30242788       0.14173539       0.93548959 </v>
    <v>       0.33346242       0.50429907       0.44223759 </v>
    <v>       0.31321380       0.51199264       0.94138200 </v>
    <v>       0.33948889       0.83149830       0.43355824 </v>
    <v>       0.37984816       0.82078169       0.95840755 </v>
    <v>       0.15347879       0.00950064       0.03983295 </v>
    <v>       0.22454282       0.94383761       0.57413711 </v>
    <v>       0.15299249       0.33937906       0.05302182 </v>
    <v>       0.18329754       0.34420119       0.55109047 </v>
    <v>       0.16451629       0.67702507       0.05010366 </v>
    <v>       0.17054307       0.66195346       0.55315762 </v>
    <v>       0.03092073       0.11353905       0.40082011 </v>
   </varray>
  </structure>
  <varray name="forces" >
   <v>       0.06961760       0.15185262       0.01284426 </v>
   <v>       0.04274995       0.06252867      -0.00679708 </v>
   <v>      -0.00057308      -0.23199738       0.11218434 </v>
   <v>       0.03331775       0.07161118      -0.01749368 </v>
   <v>      -0.10607786       0.07983128       0.00092919 </v>
   <v>      -0.02225665       0.04037680       0.01413158 </v>
   <v>      -0.07494457      -0.41002709      -0.04432323 </v>
   <v>      -0.00290222      -0.03835538      -0.01073693 </v>
   <v>       0.03641933      -0.20321319      -0.03128612 </v>
   <v>       0.00802369      -0.06086436       0.04183790 </v>
   <v>       0.06123557       0.10859356      -0.04451541 </v>
   <v>       0.04168122       0.01377572       0.00484782 </v>
   <v>      -0.04821788      -0.03771215      -0.00510717 </v>
   <v>       0.08209514      -0.01554419       0.00112472 </v>
   <v>       0.06319160      -0.03965505       0.01709350 </v>
   <v>       0.11667726       0.05403985      -0.00049839 </v>
   <v>      -0.01513344      -0.02051114       0.02432814 </v>
   <v>       0.01136377       0.13157799      -0.08542835 </v>
   <v>      -0.03288046       0.03839323      -0.06825628 </v>
   <v>      -0.21552509      -0.02888812      -0.08590404 </v>
   <v>      -0.01517278       0.05387408      -0.02703604 </v>
   <v>       0.44089116      -0.31692238       0.11030630 </v>
   <v>       0.01487327       0.07080154      -0.03987987 </v>
   <v>       0.11468444      -0.08655142       0.07479832 </v>
   <v>      -0.15287992       0.03651150      -0.03137934 </v>
   <v>      -0.18069410       0.04616979      -0.30139308 </v>
   <v>      -0.03206684       0.08690773      -0.04435563 </v>
   <v>       0.04856240       0.11362751      -0.09300745 </v>
   <v>       0.14132529      -0.00626916      -0.07859112 </v>
   <v>      -0.03301761       0.01413635      -0.06942523 </v>
   <v>       0.02779389      -0.13398984       0.07189321 </v>
   <v>      -0.16967364      -0.18498831      -0.16620388 </v>
   <v>      -0.01088883      -0.05157689       0.05359555 </v>
   <v>      -0.04698624       0.17073601      -0.12648286 </v>
   <v>       0.01665462      -0.01705014       0.01571392 </v>
   <v>      -0.02712334       0.08809229      -0.09324669 </v>
   <v>      -0.25744890       0.03572875       0.06697843 </v>
   <v>       0.22493328       0.25776054      -0.06128207 </v>
   <v>      -0.01203072       0.01650587       0.01003161 </v>
   <v>       0.09518660      -0.12189068       0.01194062 </v>
   <v>      -0.03450212      -0.02688973       0.04081204 </v>
   <v>       0.08645046      -0.07672082      -0.06493033 </v>
   <v>      -0.07510367       0.00116930       0.04940441 </v>
   <v>      -0.13274497      -0.07955650       0.03414003 </v>
   <v>       0.02879674       0.00110394      -0.01047504 </v>
   <v>      -0.02655273      -0.13899252       0.19105998 </v>
   <v>       0.07503221       0.02646930      -0.03141762 </v>
   <v>       0.03988737      -0.19303467       0.20208874 </v>
   <v>      -0.11454967       0.10813367       0.12832853 </v>
   <v>      -0.07536225      -0.18291693       0.10548371 </v>
   <v>       0.06701778      -0.07283831       0.05057130 </v>
   <v>       0.01855744      -0.24479345       0.08672965 </v>
   <v>      -0.16119329       0.07922133      -0.04498296 </v>
   <v>       0.01411350       0.20825836      -0.09746355 </v>
   <v>      -0.19020428       0.02727424      -0.05469703 </v>
   <v>      -0.00027444       0.23234466      -0.11057827 </v>
   <v>      -0.12311730      -0.50018527       0.05249967 </v>
   <v>      -0.03350289       0.13992652      -0.08435956 </v>
   <v>       0.16622930      -0.00598473      -0.03598639 </v>
   <v>      -0.04409926       0.02415869      -0.20234765 </v>
   <v>      -0.08175943       0.22773530       0.08559702 </v>
   <v>       0.07834854      -0.01399877      -0.18521896 </v>
   <v>       0.04512291       0.20038742       0.10536866 </v>
   <v>       0.00172931      -0.08717723      -0.03181091 </v>
   <v>      -0.03126661      -0.05420580      -0.01735595 </v>
   <v>      -0.06223611       0.05816098       0.22310979 </v>
   <v>       0.01494453      -0.09923062      -0.17724968 </v>
   <v>       0.10739631      -0.17633396       0.35103106 </v>
   <v>      -0.05194268      -0.16636582      -0.02463562 </v>
   <v>      -0.02026703       0.08854663       0.13729710 </v>
   <v>      -0.06572798       0.05774083       0.00861959 </v>
   <v>       0.08735610       0.50287430       0.17471055 </v>
   <v>       0.00577070       0.35626721      -0.01863056 </v>
   <v>      -0.08041843       0.51246911       0.02396785 </v>
   <v>      -0.03840792       0.34398457      -0.09329535 </v>
   <v>      -0.06401342       0.51712406      -0.04805463 </v>
   <v>       0.01531895       0.36409246      -0.04324362 </v>
   <v>       0.02133635      -0.43916680      -0.21315417 </v>
   <v>       0.03443672      -0.31302258       0.02055451 </v>
   <v>      -0.02743500      -0.44918981      -0.22721889 </v>
   <v>      -0.05975112      -0.32877210       0.07537944 </v>
   <v>      -0.02247190      -0.35039743       0.06299934 </v>
   <v>       0.00135380      -0.38739189      -0.01600511 </v>
   <v>      -0.14583451       0.02543420       0.08304353 </v>
   <v>       0.12285960      -0.22309342       0.04477303 </v>
   <v>       0.09201794       0.58011822      -0.00420074 </v>
   <v>      -0.03471140      -0.19939966       0.11200874 </v>
   <v>       0.19082980       0.05374682       0.08357931 </v>
   <v>      -0.20939491      -0.10179701      -0.01386033 </v>
   <v>       0.07603256       0.18965025       0.04194958 </v>
   <v>      -0.09737227       0.07719269      -0.10136938 </v>
   <v>      -0.13300617       0.13602458      -0.06821867 </v>
   <v>      -0.70706647      -0.20808149      -0.02853715 </v>
   <v>      -0.09879785       0.11357752      -0.01331575 </v>
   <v>      -0.00736636       0.62183028       0.50357378 </v>
   <v>       0.31709046      -0.10143899       0.26922558 </v>
   <v>       0.05676153       0.05250465      -0.09826032 </v>
   <v>       0.20504965       0.14900822      -0.39754203 </v>
   <v>      -0.08500760      -0.00217971      -0.11127732 </v>
   <v>       0.10974577      -0.19505504       0.00876915 </v>
   <v>      -0.06304344      -0.25435688      -0.09904117 </v>
   <v>      -0.01913060       0.19555160       0.27111146 </v>
   <v>       0.08647252      -0.21361613      -0.11350888 </v>
   <v>       0.13502702       0.11223693       0.17865864 </v>
   <v>      -0.07152425       0.08169576       0.08181440 </v>
   <v>       0.01389779      -0.05466884       0.10772461 </v>
   <v>       0.03717036       0.30331418      -0.07882159 </v>
   <v>      -0.03321041       0.44617649       0.26372831 </v>
   <v>      -0.03793653       0.31924396      -0.06673824 </v>
   <v>       0.12838307       0.49973346       0.20101282 </v>
   <v>       0.02039223       0.14903072      -0.04609712 </v>
   <v>       0.02349938       0.14412827      -0.12011785 </v>
   <v>       0.03145488      -0.22597728      -0.08626392 </v>
   <v>       0.00118753      -0.20204447      -0.52502693 </v>
   <v>       0.03892586      -0.35880950       0.09502288 </v>
   <v>      -0.03791433      -0.45454873       0.08091383 </v>
   <v>       0.06728449      -0.34993208       0.06059596 </v>
   <v>       0.00683737      -0.40036715       0.12822959 </v>
   <v>       0.49331909      -0.13253559      -0.13212840 </v>
  </varray>
  <varray name="stress" >
   <v>     179.97695294      -5.39599751      -2.74659261 </v>
   <v>      -5.39599708     207.30212968       4.78519104 </v>
   <v>      -2.74659191       4.78519126     216.01361193 </v>
  </varray>
  <energy>
   <i name="e_fr_energy">   -839.69375040 </i>
   <i name="e_wo_entrp">   -839.68808553 </i>
   <i name="e_0_energy">   -839.69091796 </i>
  </energy>
  <time name="totalsc">18403.7618406.28</time>
  <eigenvalues>
   <array>
    <dimension dim="1">band</dimension>
    <dimension dim="2">kpoint</dimension>
    <dimension dim="3">spin</dimension>
    <field>eigene</field>
    <field>occ</field>
    <set>
     <set comment="spin 1">
      <set comment="kpoint 1">
       <r>  -18.8034    1.0000 </r>
       <r>  -18.5274    1.0000 </r>
       <r>  -18.4458    1.0000 </r>
       <r>  -18.3546    1.0000 </r>
       <r>  -18.2615    1.0000 </r>
       <r>  -18.1123    1.0000 </r>
       <r>  -18.0804    1.0000 </r>
       <r>  -17.9852    1.0000 </r>
       <r>  -17.9176    1.0000 </r>
       <r>  -17.9062    1.0000 </r>
       <r>  -17.8933    1.0000 </r>
       <r>  -17.8719    1.0000 </r>
       <r>  -17.8308    1.0000 </r>
       <r>  -17.8042    1.0000 </r>
       <r>  -17.7725    1.0000 </r>
       <r>  -17.7654    1.0000 </r>
       <r>  -17.6838    1.0000 </r>
       <r>  -17.6456    1.0000 </r>
       <r>  -17.6157    1.0000 </r>
       <r>  -17.5974    1.0000 </r>
       <r>  -17.5539    1.0000 </r>
       <r>  -17.5059    1.0000 </r>
       <r>  -17.4936    1.0000 </r>
       <r>  -17.4674    1.0000 </r>
       <r>  -17.4337    1.0000 </r>
       <r>  -17.4241    1.0000 </r>
       <r>  -17.3869    1.0000 </r>
       <r>  -17.3673    1.0000 </r>
       <r>  -17.3436    1.0000 </r>
       <r>  -17.3208    1.0000 </r>
       <r>  -17.3077    1.0000 </r>
       <r>  -17.2757    1.0000 </r>
       <r>  -17.2751    1.0000 </r>
       <r>  -17.2358    1.0000 </r>
       <r>  -17.2289    1.0000 </r>
       <r>  -17.2208    1.0000 </r>
       <r>  -17.2140    1.0000 </r>
       <r>  -17.1857    1.0000 </r>
       <r>  -17.1722    1.0000 </r>
       <r>  -17.1641    1.0000 </r>
       <r>  -17.1483    1.0000 </r>
       <r>  -17.1211    1.0000 </r>
       <r>  -17.1128    1.0000 </r>
       <r>  -17.0935    1.0000 </r>
       <r>  -17.0757    1.0000 </r>
       <r>  -17.0666    1.0000 </r>
       <r>  -17.0494    1.0000 </r>
       <r>  -17.0362    1.0000 </r>
       <r>  -17.0231    1.0000 </r>
       <r>  -16.9731    1.0000 </r>
       <r>  -16.9286    1.0000 </r>
       <r>  -16.9253    1.0000 </r>
       <r>  -16.8901    1.0000 </r>
       <r>  -16.8342    1.0000 </r>
       <r>  -16.8095    1.0000 </r>
       <r>  -16.8013    1.0000 </r>
       <r>  -16.7818    1.0000 </r>
       <r>  -16.7480    1.0000 </r>
       <r>  -16.7173    1.0000 </r>
       <r>  -16.6902    1.0000 </r>
       <r>  -16.6473    1.0000 </r>
       <r>  -16.6118    1.0000 </r>
       <r>  -16.5589    1.0000 </r>
       <r>  -16.4791    1.0000 </r>
       <r>  -16.4156    1.0000 </r>
       <r>  -16.3412    1.0000 </r>
       <r>  -16.2593    1.0000 </r>
       <r>  -16.1830    1.0000 </r>
       <r>  -16.1292    1.0000 </r>
       <r>  -16.0353    1.0000 </r>
       <r>  -16.0117    1.0000 </r>
       <r>  -13.4476    1.0000 </r>
       <r>  -13.4118    1.0000 </r>
       <r>  -13.3849    1.0000 </r>
       <r>  -13.3636    1.0000 </r>
       <r>  -13.3564    1.0000 </r>
       <r>  -13.3381    1.0000 </r>
       <r>  -13.3174    1.0000 </r>
       <r>  -13.3094    1.0000 </r>
       <r>  -13.3044    1.0000 </r>
       <r>  -13.2909    1.0000 </r>
       <r>  -13.2885    1.0000 </r>
       <r>  -13.2741    1.0000 </r>
       <r>  -13.2642    1.0000 </r>
       <r>  -13.2617    1.0000 </r>
       <r>  -13.2540    1.0000 </r>
       <r>  -13.2495    1.0000 </r>
       <r>  -13.2439    1.0000 </r>
       <r>  -13.2370    1.0000 </r>
       <r>  -13.2262    1.0000 </r>
       <r>  -13.2200    1.0000 </r>
       <r>  -13.2180    1.0000 </r>
       <r>  -13.2066    1.0000 </r>
       <r>  -13.1955    1.0000 </r>
       <r>  -13.1921    1.0000 </r>
       <r>  -13.1880    1.0000 </r>
       <r>  -13.1835    1.0000 </r>
       <r>  -13.1779    1.0000 </r>
       <r>  -13.1707    1.0000 </r>
       <r>  -13.1631    1.0000 </r>
       <r>  -13.1610    1.0000 </r>
       <r>  -13.1553    1.0000 </r>
       <r>  -13.1514    1.0000 </r>
       <r>  -13.1472    1.0000 </r>
       <r>  -13.1412    1.0000 </r>
       <r>  -13.1359    1.0000 </r>
       <r>  -13.1351    1.0000 </r>
       <r>  -13.1315    1.0000 </r>
       <r>  -13.1293    1.0000 </r>
       <r>  -13.1283    1.0000 </r>
       <r>  -13.1216    1.0000 </r>
       <r>  -13.1131    1.0000 </r>
       <r>  -13.1101    1.0000 </r>
       <r>  -13.1051    1.0000 </r>
       <r>  -13.0974    1.0000 </r>
       <r>  -13.0951    1.0000 </r>
       <r>  -13.0894    1.0000 </r>
       <r>  -13.0856    1.0000 </r>
       <r>  -13.0833    1.0000 </r>
       <r>  -13.0772    1.0000 </r>
       <r>  -13.0722    1.0000 </r>
       <r>  -13.0687    1.0000 </r>
       <r>  -13.0647    1.0000 </r>
       <r>  -13.0620    1.0000 </r>
       <r>  -13.0577    1.0000 </r>
       <r>  -13.0529    1.0000 </r>
       <r>  -13.0513    1.0000 </r>
       <r>  -13.0469    1.0000 </r>
       <r>  -13.0419    1.0000 </r>
       <r>  -13.0379    1.0000 </r>
       <r>  -13.0347    1.0000 </r>
       <r>  -13.0327    1.0000 </r>
       <r>  -13.0268    1.0000 </r>
       <r>  -13.0203    1.0000 </r>
       <r>  -13.0171    1.0000 </r>
       <r>  -13.0167    1.0000 </r>
       <r>  -13.0105    1.0000 </r>
       <r>  -13.0097    1.0000 </r>
       <r>  -13.0052    1.0000 </r>
       <r>  -13.0028    1.0000 </r>
       <r>  -12.9945    1.0000 </r>
       <r>  -12.9925    1.0000 </r>
       <r>  -12.9886    1.0000 </r>
       <r>  -12.9871    1.0000 </r>
       <r>  -12.9806    1.0000 </r>
       <r>  -12.9765    1.0000 </r>
       <r>  -12.9727    1.0000 </r>
       <r>  -12.9694    1.0000 </r>
       <r>  -12.9647    1.0000 </r>
       <r>  -12.9602    1.0000 </r>
       <r>  -12.9506    1.0000 </r>
       <r>  -12.9465    1.0000 </r>
       <r>  -12.9421    1.0000 </r>
       <r>  -12.9337    1.0000 </r>
       <r>  -12.9253    1.0000 </r>
       <r>  -12.9124    1.0000 </r>
       <r>  -12.9043    1.0000 </r>
       <r>  -12.8996    1.0000 </r>
       <r>  -12.8954    1.0000 </r>
       <r>  -12.8887    1.0000 </r>
       <r>  -12.8857    1.0000 </r>
       <r>  -12.8806    1.0000 </r>
       <r>  -12.8805    1.0000 </r>
       <r>  -12.8759    1.0000 </r>
       <r>  -12.8680    1.0000 </r>
       <r>  -12.8664    1.0000 </r>
       <r>  -12.8656    1.0000 </r>
       <r>  -12.8598    1.0000 </r>
       <r>  -12.8526    1.0000 </r>
       <r>  -12.8455    1.0000 </r>
       <r>  -12.8433    1.0000 </r>
       <r>  -12.8386    1.0000 </r>
       <r>  -12.8338    1.0000 </r>
       <r>  -12.8262    1.0000 </r>
       <r>  -12.8180    1.0000 </r>
       <r>  -12.8131    1.0000 </r>
       <r>  -12.8042    1.0000 </r>
       <r>  -12.7979    1.0000 </r>
       <r>  -12.7861    1.0000 </r>
       <r>  -12.7837    1.0000 </r>
       <r>  -12.7740    1.0000 </r>
       <r>  -12.7666    1.0000 </r>
       <r>  -12.7633    1.0000 </r>
       <r>  -12.7572    1.0000 </r>
       <r>  -12.7538    1.0000 </r>
       <r>  -12.7497    1.0000 </r>
       <r>  -12.7422    1.0000 </r>
       <r>  -12.7372    1.0000 </r>
       <r>  -12.7338    1.0000 </r>
       <r>  -12.7265    1.0000 </r>
       <r>  -12.7220    1.0000 </r>
       <r>  -12.7140    1.0000 </r>
       <r>  -12.7103    1.0000 </r>
       <r>  -12.7057    1.0000 </r>
       <r>  -12.7005    1.0000 </r>
       <r>  -12.6949    1.0000 </r>
       <r>  -12.6878    1.0000 </r>
       <r>  -12.6824    1.0000 </r>
       <r>  -12.6768    1.0000 </r>
       <r>  -12.6762    1.0000 </r>
       <r>  -12.6699    1.0000 </r>
       <r>  -12.6665    1.0000 </r>
       <r>  -12.6652    1.0000 </r>
       <r>  -12.6610    1.0000 </r>
       <r>  -12.6589    1.0000 </r>
       <r>  -12.6552    1.0000 </r>
       <r>  -12.6481    1.0000 </r>
       <r>  -12.6470    1.0000 </r>
       <r>  -12.6416    1.0000 </r>
       <r>  -12.6376    1.0000 </r>
       <r>  -12.6268    1.0000 </r>
       <r>  -12.6206    1.0000 </r>
       <r>  -12.6172    1.0000 </r>
       <r>  -12.6131    1.0000 </r>
       <r>  -12.6101    1.0000 </r>
       <r>  -12.6024    1.0000 </r>
       <r>  -12.5996    1.0000 </r>
       <r>  -12.5952    1.0000 </r>
       <r>  -12.5832    1.0000 </r>
       <r>  -12.5809    1.0000 </r>
       <r>  -12.5732    1.0000 </r>
       <r>  -12.5660    1.0000 </r>
       <r>  -12.5595    1.0000 </r>
       <r>  -12.5551    1.0000 </r>
       <r>  -12.5466    1.0000 </r>
       <r>  -12.5435    1.0000 </r>
       <r>  -12.5420    1.0000 </r>
       <r>  -12.5364    1.0000 </r>
       <r>  -12.5340    1.0000 </r>
       <r>  -12.5264    1.0000 </r>
       <r>  -12.5172    1.0000 </r>
       <r>  -12.5140    1.0000 </r>
       <r>  -12.5060    1.0000 </r>
       <r>  -12.4974    1.0000 </r>
       <r>  -12.4959    1.0000 </r>
       <r>  -12.4921    1.0000 </r>
       <r>  -12.4801    1.0000 </r>
       <r>  -12.4726    1.0000 </r>
       <r>  -12.4589    1.0000 </r>
       <r>  -12.4583    1.0000 </r>
       <r>  -12.4533    1.0000 </r>
       <r>  -12.4472    1.0000 </r>
       <r>  -12.4425    1.0000 </r>
       <r>  -12.4360    1.0000 </r>
       <r>  -12.4268    1.0000 </r>
       <r>  -12.4188    1.0000 </r>
       <r>  -12.4175    1.0000 </r>
       <r>  -12.4101    1.0000 </r>
       <r>  -12.4015    1.0000 </r>
       <r>  -12.3899    1.0000 </r>
       <r>  -12.3827    1.0000 </r>
       <r>  -12.3720    1.0000 </r>
       <r>  -12.3624    1.0000 </r>
       <r>  -12.3564    1.0000 </r>
[...]
       <r>   -12.5245   386.1029   459.0276 </r>
       <r>   -12.3919   300.9684   498.9261 </r>
       <r>   -12.2594   198.6834   525.2651 </r>
       <r>   -12.1268   155.9903   545.9443 </r>
       <r>   -11.9942   139.1865   564.3958 </r>
       <r>   -11.8617   111.9266   579.2336 </r>
       <r>   -11.7291   108.8943   593.6695 </r>
       <r>   -11.5965    68.2457   602.7166 </r>
       <r>   -11.4640    51.3601   609.5253 </r>
       <r>   -11.3314    18.5951   611.9904 </r>
       <r>   -11.1988     0.0726   612.0000 </r>
       <r>   -11.0663     0.0000   612.0000 </r>
       <r>   -10.9337     0.0000   612.0000 </r>
       <r>   -10.8011     0.0000   612.0000 </r>
       <r>   -10.6686     0.0000   612.0000 </r>
       <r>   -10.5360     0.0000   612.0000 </r>
       <r>   -10.4034     0.0000   612.0000 </r>
       <r>   -10.2709     0.0000   612.0000 </r>
       <r>   -10.1383     0.0000   612.0000 </r>
       <r>   -10.0057     0.0000   612.0000 </r>
       <r>    -9.8732     0.0000   612.0000 </r>
       <r>    -9.7406     0.0000   612.0000 </r>
       <r>    -9.6080     0.0000   612.0000 </r>
       <r>    -9.4755     0.0000   612.0000 </r>
       <r>    -9.3429     0.0000   612.0000 </r>
       <r>    -9.2103     0.0000   612.0000 </r>
       <r>    -9.0778     0.0000   612.0000 </r>
       <r>    -8.9452     0.0000   612.0000 </r>
       <r>    -8.8126     0.0000   612.0000 </r>
       <r>    -8.6801     0.0000   612.0000 </r>
       <r>    -8.5475     0.0000   612.0000 </r>
       <r>    -8.4149     0.0000   612.0000 </r>
       <r>    -8.2824     0.0000   612.0000 </r>
       <r>    -8.1498     0.0000   612.0000 </r>
       <r>    -8.0172     0.0000   612.0000 </r>
       <r>    -7.8847     0.0000   612.0000 </r>
       <r>    -7.7521     0.0000   612.0000 </r>
       <r>    -7.6195     0.0000   612.0000 </r>
       <r>    -7.4870     0.0000   612.0000 </r>
       <r>    -7.3544     0.0000   612.0000 </r>
       <r>    -7.2218     0.0000   612.0000 </r>
       <r>    -7.0893     0.0000   612.0000 </r>
       <r>    -6.9567     0.0000   612.0000 </r>
       <r>    -6.8241     0.0000   612.0000 </r>
       <r>    -6.6916     0.0002   612.0000 </r>
       <r>    -6.5590     4.7536   612.6302 </r>
       <r>    -6.4264    10.3232   613.9987 </r>
       <r>    -6.2939     0.0097   614.0000 </r>
       <r>    -6.1613     0.0000   614.0000 </r>
       <r>    -6.0287     0.0000   614.0000 </r>
       <r>    -5.8962     0.0000   614.0000 </r>
       <r>    -5.7636     0.0000   614.0000 </r>
       <r>    -5.6310     0.0000   614.0000 </r>
       <r>    -5.4985     0.0000   614.0000 </r>
       <r>    -5.3659     0.0634   614.0084 </r>
       <r>    -5.2333     7.8280   615.0461 </r>
       <r>    -5.1007    14.4831   616.9661 </r>
       <r>    -4.9682    18.7353   619.4498 </r>
       <r>    -4.8356    22.5404   622.4379 </r>
       <r>    -4.7030    37.7777   627.4460 </r>
       <r>    -4.5705    37.5163   632.4194 </r>
       <r>    -4.4379    39.4573   637.6502 </r>
       <r>    -4.3053    37.7554   642.6553 </r>
       <r>    -4.1728    46.3174   648.7955 </r>
       <r>    -4.0402    39.5718   654.0414 </r>
       <r>    -3.9076    40.4827   659.4081 </r>
       <r>    -3.7751    43.1208   665.1245 </r>
       <r>    -3.6425    32.8947   669.4853 </r>
       <r>    -3.5099    37.7066   674.4839 </r>
       <r>    -3.3774    28.9347   678.3197 </r>
       <r>    -3.2448    33.3315   682.7384 </r>
       <r>    -3.1122    29.6884   686.6741 </r>
       <r>    -2.9797    38.9852   691.8423 </r>
       <r>    -2.8471    44.0316   697.6794 </r>
       <r>    -2.7145    32.0547   701.9288 </r>
       <r>    -2.5820    37.0138   706.8356 </r>
       <r>    -2.4494    37.9661   711.8687 </r>
       <r>    -2.3168    35.7699   716.6106 </r>
       <r>    -2.1843    43.1719   722.3338 </r>
       <r>    -2.0517    43.2185   728.0631 </r>
       <r>    -1.9191    54.9411   735.3465 </r>
       <r>    -1.7866    61.2541   743.4668 </r>
       <r>    -1.6540    59.4437   751.3471 </r>
       <r>    -1.5214    51.8949   758.2267 </r>
       <r>    -1.3889    59.9849   766.1787 </r>
       <r>    -1.2563    55.2253   773.4998 </r>
       <r>    -1.1237    57.4605   781.1172 </r>
       <r>    -0.9912    68.7452   790.2305 </r>
       <r>    -0.8586    59.4473   798.1113 </r>
       <r>    -0.7260    55.8007   805.5086 </r>
       <r>    -0.5935    62.0442   813.7337 </r>
       <r>    -0.4609    58.1317   821.4400 </r>
       <r>    -0.3283    56.7486   828.9630 </r>
       <r>    -0.1958    60.9503   837.0430 </r>
       <r>    -0.0632    65.3922   845.7119 </r>
       <r>     0.0694    66.0867   854.4728 </r>
       <r>     0.2019    69.4726   863.6826 </r>
       <r>     0.3345    77.8264   873.9999 </r>
       <r>     0.4671    79.5447   884.5449 </r>
       <r>     0.5996    77.1298   894.7698 </r>
       <r>     0.7322    79.0281   905.2463 </r>
       <r>     0.8648    86.9853   916.7777 </r>
       <r>     0.9973    90.8113   928.8163 </r>
       <r>     1.1299    99.5216   942.0096 </r>
       <r>     1.2625   104.8195   955.9053 </r>
       <r>     1.3950   112.5162   970.8212 </r>
       <r>     1.5276   103.0483   984.4821 </r>
       <r>     1.6602    87.7610   996.1163 </r>
       <r>     1.7927    79.0774  1006.5994 </r>
       <r>     1.9253    59.0577  1014.4285 </r>
       <r>     2.0579    48.0481  1020.7981 </r>
       <r>     2.1904    47.9534  1027.1551 </r>
       <r>     2.3230    35.3744  1031.8446 </r>
       <r>     2.4556    14.8958  1033.8193 </r>
       <r>     2.5882    17.6700  1036.1618 </r>
       <r>     2.7207    22.8530  1039.1913 </r>
       <r>     2.8533     6.0985  1039.9998 </r>
       <r>     2.9859     0.0014  1040.0000 </r>
       <r>     3.1184     0.0000  1040.0000 </r>
       <r>     3.2510     0.0000  1040.0000 </r>
       <r>     3.3836     0.1071  1040.0142 </r>
       <r>     3.5161     9.4881  1041.2720 </r>
       <r>     3.6487     5.5032  1042.0016 </r>
       <r>     3.7813     6.2794  1042.8340 </r>
       <r>     3.9138     8.5796  1043.9714 </r>
       <r>     4.0464     0.2160  1044.0000 </r>
       <r>     4.1790     2.6195  1044.3473 </r>
       <r>     4.3115     8.1325  1045.4254 </r>
       <r>     4.4441     4.3324  1045.9997 </r>
       <r>     4.5767     0.0022  1046.0000 </r>
       <r>     4.7092     0.0000  1046.0000 </r>
       <r>     4.8418     0.0000  1046.0000 </r>
       <r>     4.9744     0.0000  1046.0000 </r>
       <r>     5.1069     0.0002  1046.0000 </r>
       <r>     5.2395     1.0019  1046.1328 </r>
       <r>     5.3721     7.9045  1047.1807 </r>
       <r>     5.5046     6.1712  1047.9988 </r>
       <r>     5.6372     1.6491  1048.2174 </r>
       <r>     5.7698     5.3744  1048.9299 </r>
       <r>     5.9023     7.1153  1049.8732 </r>
       <r>     6.0349     1.7383  1050.1036 </r>
       <r>     6.1675    11.5614  1051.6363 </r>
       <r>     6.3000     2.7435  1052.0000 </r>
       <r>     6.4326     0.0002  1052.0000 </r>
       <r>     6.5652     0.0000  1052.0000 </r>
       <r>     6.6977     0.0000  1052.0000 </r>
       <r>     6.8303     0.0000  1052.0000 </r>
       <r>     6.9629     0.0000  1052.0000 </r>
       <r>     7.0954     0.0000  1052.0000 </r>
       <r>     7.2280     0.0070  1052.0009 </r>
       <r>     7.3606     1.6119  1052.2146 </r>
       <r>     7.4931     0.2735  1052.2509 </r>
       <r>     7.6257     2.2754  1052.5525 </r>
       <r>     7.7583     2.9207  1052.9397 </r>
       <r>     7.8908     2.5552  1053.2785 </r>
       <r>     8.0234     3.8660  1053.7910 </r>
       <r>     8.1560     3.4351  1054.2463 </r>
       <r>     8.2885     1.6487  1054.4649 </r>
       <r>     8.4211     9.3733  1055.7075 </r>
       <r>     8.5537     1.5546  1055.9136 </r>
       <r>     8.6862     4.0222  1056.4468 </r>
       <r>     8.8188     5.2402  1057.1415 </r>
       <r>     8.9514     8.4784  1058.2654 </r>
       <r>     9.0839     6.8000  1059.1669 </r>
       <r>     9.2165     6.9243  1060.0848 </r>
       <r>     9.3491     7.7619  1061.1138 </r>
       <r>     9.4816    14.3544  1063.0167 </r>
       <r>     9.6142    15.0071  1065.0062 </r>
       <r>     9.7468     9.4640  1066.2608 </r>
       <r>     9.8794    11.2983  1067.7586 </r>
       <r>    10.0119    19.2992  1070.3170 </r>
       <r>    10.1445    17.5493  1072.6435 </r>
       <r>    10.2771    23.5666  1075.7676 </r>
       <r>    10.4096    26.0471  1079.2206 </r>
       <r>    10.5422    34.2159  1083.7565 </r>
       <r>    10.6748    27.9435  1087.4609 </r>
       <r>    10.8073    27.1674  1091.0624 </r>
       <r>    10.9399    22.5548  1094.0525 </r>
       <r>    11.0725    31.1093  1098.1766 </r>
       <r>    11.2050    27.7102  1101.8500 </r>
       <r>    11.3376    37.4174  1106.8103 </r>
       <r>    11.4702    33.7872  1111.2894 </r>
       <r>    11.6027    39.6631  1116.5474 </r>
       <r>    11.7353    35.4423  1121.2459 </r>
       <r>    11.8679    34.3309  1125.7971 </r>
       <r>    12.0004    34.4676  1130.3664 </r>
       <r>    12.1330    34.5634  1134.9483 </r>
       <r>    12.2656    36.4614  1139.7819 </r>
       <r>    12.3981    34.1611  1144.3106 </r>
       <r>    12.5307    38.3724  1149.3975 </r>
       <r>    12.6633    32.4117  1153.6942 </r>
       <r>    12.7958    32.3779  1157.9865 </r>
       <r>    12.9284    33.8872  1162.4788 </r>
       <r>    13.0610    29.7378  1166.4211 </r>
       <r>    13.1935    33.6289  1170.8792 </r>
       <r>    13.3261    35.6678  1175.6076 </r>
       <r>    13.4587    33.4184  1180.0377 </r>
       <r>    13.5912    29.4236  1183.9383 </r>
       <r>    13.7238    31.5875  1188.1258 </r>
       <r>    13.8564    31.3410  1192.2806 </r>
       <r>    13.9889    33.0985  1196.6684 </r>
       <r>    14.1215    26.4044  1200.1687 </r>
       <r>    14.2541    25.9767  1203.6124 </r>
       <r>    14.3866    29.8849  1207.5741 </r>
       <r>    14.5192    29.4748  1211.4815 </r>
       <r>    14.6518    29.3816  1215.3766 </r>
       <r>    14.7843    27.1858  1218.9805 </r>
       <r>    14.9169    25.6226  1222.3772 </r>
       <r>    15.0495    26.6896  1225.9154 </r>
       <r>    15.1820    23.1784  1228.9881 </r>
       <r>    15.3146    22.6855  1231.9954 </r>
       <r>    15.4472    22.6688  1235.0006 </r>
       <r>    15.5797    20.3129  1237.6934 </r>
       <r>    15.7123    21.3490  1240.5236 </r>
       <r>    15.8449    23.7820  1243.6763 </r>
       <r>    15.9774    24.5750  1246.9341 </r>
       <r>    16.1100    17.9267  1249.3106 </r>
       <r>    16.2426    21.5853  1252.1721 </r>
       <r>    16.3751    20.5938  1254.9022 </r>
       <r>    16.5077    20.0125  1257.5552 </r>
       <r>    16.6403    12.6329  1259.2299 </r>
       <r>    16.7728    16.2054  1261.3782 </r>
       <r>    16.9054    14.9794  1263.3640 </r>
       <r>    17.0380     6.8206  1264.2682 </r>
       <r>    17.1706     6.9747  1265.1928 </r>
       <r>    17.3031     4.2091  1265.7508 </r>
       <r>    17.4357     1.8636  1265.9979 </r>
       <r>    17.5683     0.0161  1266.0000 </r>
       <r>    17.7008     0.0000  1266.0000 </r>
       <r>    17.8334     0.0000  1266.0000 </r>
       <r>    17.9660     0.0000  1266.0000 </r>
       <r>    18.0985     0.0000  1266.0000 </r>
       <r>    18.2311     0.0000  1266.0000 </r>
       <r>    18.3637     0.0000  1266.0000 </r>
       <r>    18.4962     0.0000  1266.0000 </r>
       <r>    18.6288     0.0000  1266.0000 </r>
       <r>    18.7614     0.0000  1266.0000 </r>
       <r>    18.8939     0.0000  1266.0000 </r>
       <r>    19.0265     0.0000  1266.0000 </r>
       <r>    19.1591     0.0000  1266.0000 </r>
      </set>
     </set>
    </array>
   </total>
  </dos>
 </calculation>
 <structure name="finalpos" >
  <crystal>
   <varray name="basis" >
    <v>       0.00000000      12.28047342       0.00000000 </v>
    <v>       9.14270205       0.00000000       0.00000000 </v>
    <v>       0.00000000      -2.76826177     -11.30069772 </v>
   </varray>
   <i name="volume">   1268.80515525 </i>
   <varray name="rec_basis" >
    <v>       0.00000000       0.08143009      -0.01994742 </v>
    <v>       0.10937686      -0.00000000       0.00000000 </v>
    <v>       0.00000000       0.00000000      -0.08849011 </v>
   </varray>
  </crystal>
  <varray name="positions" >
   <v>       0.65636472       0.00249363       0.15829709 </v>
   <v>       0.65377920       0.00472659       0.65592006 </v>
   <v>       0.68397387       0.33376138       0.15112817 </v>
   <v>       0.65751226       0.33996796       0.65521033 </v>
   <v>       0.65662751       0.66387789       0.15752554 </v>
   <v>       0.64755763       0.67342395       0.65675819 </v>
   <v>       0.84281639       0.16198895       0.36377123 </v>
   <v>       0.83529535       0.17157624       0.83954741 </v>
   <v>       0.84328874       0.50512090       0.34891692 </v>
   <v>       0.83581685       0.51098011       0.83701711 </v>
   <v>       0.84407342       0.83600636       0.35043301 </v>
   <v>       0.83845245       0.84323675       0.83970047 </v>
   <v>       0.58804752       0.17027148       0.39114538 </v>
   <v>       0.59635450       0.20015459       0.90575161 </v>
   <v>       0.59262686       0.50204136       0.39236870 </v>
   <v>       0.60441057       0.45931355       0.90703482 </v>
   <v>       0.58735609       0.83971285       0.39782000 </v>
   <v>       0.57464444       0.83071967       0.89452324 </v>
   <v>       0.90441189       0.00385563       0.10579153 </v>
   <v>       0.92246548       0.03542500       0.60578920 </v>
   <v>       0.91232321       0.34151118       0.10154709 </v>
   <v>       0.90749202       0.30131070       0.59822699 </v>
   <v>       0.90044298       0.67350640       0.10112324 </v>
   <v>       0.90813634       0.66188531       0.60224292 </v>
   <v>       0.15671249       0.16377673       0.15528652 </v>
   <v>       0.16022273       0.13370050       0.59199551 </v>
   <v>       0.15911016       0.50953879       0.15532765 </v>
   <v>       0.15399100       0.49399671       0.65381130 </v>
   <v>       0.15709442       0.84639510       0.14903071 </v>
   <v>       0.14913290       0.82625277       0.66379005 </v>
   <v>       0.33013878       0.00502471       0.33897137 </v>
   <v>       0.34822997       0.98728660       0.84821774 </v>
   <v>       0.33568193       0.33635604       0.34056614 </v>
   <v>       0.31273621       0.32062210       0.84493665 </v>
   <v>       0.34086382       0.66830009       0.33406174 </v>
   <v>       0.35800502       0.65352898       0.84696204 </v>
   <v>       0.09465691       0.01846222       0.87120200 </v>
   <v>       0.08673726       0.33937964       0.39625814 </v>
   <v>       0.07891519       0.34920300       0.89521920 </v>
   <v>       0.09222079       0.68546375       0.39800356 </v>
   <v>       0.09393756       0.68710157       0.89088646 </v>
   <v>       0.39836267       0.19921971       0.09098320 </v>
   <v>       0.40537446       0.17424385       0.60893256 </v>
   <v>       0.40393369       0.46197974       0.09301287 </v>
   <v>       0.40315596       0.50849089       0.60128016 </v>
   <v>       0.43132744       0.82950397       0.11656189 </v>
   <v>       0.38134868       0.84863660       0.59556741 </v>
   <v>       0.99344882       0.17060014       0.13008840 </v>
   <v>       0.07506671       0.07682862       0.69896815 </v>
   <v>       0.99568756       0.51184052       0.12608450 </v>
   <v>       0.98842706       0.48557664       0.61784592 </v>
   <v>       0.99274852       0.83677713       0.12094831 </v>
   <v>       0.98938386       0.83309599       0.61935511 </v>
   <v>       0.49713570       0.00616006       0.37117159 </v>
   <v>       0.51222674       0.01995896       0.87825372 </v>
   <v>       0.50004345       0.33791192       0.36993502 </v>
   <v>       0.46287332       0.32498429       0.86870251 </v>
   <v>       0.50395002       0.66794777       0.37005665 </v>
   <v>       0.52054646       0.63730151       0.88099534 </v>
   <v>       0.68142457       0.16086809       0.28737395 </v>
   <v>       0.66928592       0.16603058       0.77263627 </v>
   <v>       0.67934006       0.50833606       0.28360128 </v>
   <v>       0.66970941       0.51056124       0.77231537 </v>
   <v>       0.66468842       0.83330394       0.27712023 </v>
   <v>       0.66468171       0.83865637       0.78101260 </v>
   <v>       0.82316907       0.98812335       0.22072313 </v>
   <v>       0.82572147       0.00362971       0.71879654 </v>
   <v>       0.84019963       0.33785792       0.22739948 </v>
   <v>       0.82251842       0.34433611       0.71947528 </v>
   <v>       0.82742900       0.67359867       0.22457662 </v>
   <v>       0.82256604       0.67541345       0.71585721 </v>
   <v>       0.81600296       0.98747200       0.45593246 </v>
   <v>       0.83057281       0.00633265       0.94588874 </v>
   <v>       0.81438281       0.34556219       0.44519756 </v>
   <v>       0.83914079       0.34244219       0.94373528 </v>
   <v>       0.82242210       0.66711816       0.44888601 </v>
   <v>       0.82857908       0.67716460       0.94178902 </v>
   <v>       0.69115341       0.15460697       0.06087872 </v>
   <v>       0.65859768       0.17302142       0.55075736 </v>
   <v>       0.69670973       0.51326953       0.06188120 </v>
   <v>       0.65909155       0.50654295       0.55163104 </v>
   <v>       0.65561224       0.83284453       0.05267890 </v>
   <v>       0.65988511       0.83776585       0.55569941 </v>
   <v>       0.49311144       0.02016480       0.12835308 </v>
   <v>       0.48848675       0.00414114       0.62260577 </v>
   <v>       0.53584223       0.33247304       0.13779737 </v>
   <v>       0.49383329       0.34099801       0.62851573 </v>
   <v>       0.49627772       0.64153410       0.13109851 </v>
   <v>       0.48569297       0.67839304       0.61669910 </v>
   <v>       0.99651313       0.17838721       0.87540969 </v>
   <v>       0.00471918       0.51220202       0.37350233 </v>
   <v>       0.99785332       0.52094005       0.87175751 </v>
   <v>       0.99740940       0.83323962       0.37527944 </v>
   <v>       0.99918454       0.84851181       0.86703009 </v>
   <v>       0.17347656       0.99791244       0.26602088 </v>
   <v>       0.19983372       0.90306619       0.82433936 </v>
   <v>       0.17029900       0.34636640       0.27714380 </v>
   <v>       0.15919203       0.34697807       0.78061091 </v>
   <v>       0.17099302       0.67389467       0.27759591 </v>
   <v>       0.16252428       0.65104889       0.76804163 </v>
   <v>       0.32481899       0.16983401       0.22415296 </v>
   <v>       0.31127115       0.15751794       0.71293896 </v>
   <v>       0.32525938       0.50741117       0.21885089 </v>
   <v>       0.32379601       0.50465135       0.71650357 </v>
   <v>       0.32987280       0.83217010       0.21143714 </v>
   <v>       0.36969354       0.81880961       0.74823766 </v>
   <v>       0.33025570       0.17243659       0.44874199 </v>
   <v>       0.30242788       0.14173539       0.93548959 </v>
   <v>       0.33346242       0.50429907       0.44223759 </v>
   <v>       0.31321380       0.51199264       0.94138200 </v>
   <v>       0.33948889       0.83149830       0.43355824 </v>
   <v>       0.37984816       0.82078169       0.95840755 </v>
   <v>       0.15347879       0.00950064       0.03983295 </v>
   <v>       0.22454282       0.94383761       0.57413711 </v>
   <v>       0.15299249       0.33937906       0.05302182 </v>
   <v>       0.18329754       0.34420119       0.55109047 </v>
   <v>       0.16451629       0.67702507       0.05010366 </v>
   <v>       0.17054307       0.66195346       0.55315762 </v>
   <v>       0.03092073       0.11353905       0.40082011 </v>
  </varray>
 </structure>
</modeling>
