<?xml version="1.0" encoding="ISO-8859-1"?>
<modeling>
 <generator>
  <i name="program" type="string">vasp </i>
  <i name="version" type="string">6.4.2  </i>
  <i name="subversion" type="string">20Jul23 (build Nov 12 2023 22:16:35) complex                          parallel </i>
  <i name="platform" type="string">LinuxNV </i>
  <i name="date" type="string">2025 03 29 </i>
  <i name="time" type="string">00:21:01 </i>
 </generator>
 <incar>
  <i type="int" name="ISTART">     0</i>
  <i type="string" name="PREC">Normal</i>
  <i type="string" name="ALGO">All</i>
  <i type="int" name="ISPIN">     1</i>
  <i type="int" name="ICHARG">     0</i>
  <i type="int" name="NELM">   500</i>
  <i type="int" name="IBRION">    -1</i>
  <i name="EDIFF">      0.00001000</i>
  <i name="EDIFFG">     -0.00500000</i>
  <i type="int" name="NSW">     0</i>
  <i type="int" name="ISIF">     2</i>
  <i name="ENCUT">    450.00000000</i>
  <i name="NELECT">   1043.00000000</i>
  <i type="string" name="LREAL">Auto</i>
  <i type="logical" name="LPLANE"> T  </i>
  <i name="TIME">      0.40000000</i>
  <i type="int" name="ISMEAR">     0</i>
  <i name="SIGMA">      0.05000000</i>
  <i type="logical" name="LWAVE"> T  </i>
  <i type="logical" name="LCHARG"> T  </i>
  <i name="HFSCREEN">      0.20000000</i>
  <i type="logical" name="LHFCALC"> T  </i>
  <i type="int" name="LMAXFOCK">     4</i>
  <i name="AEXX">      0.32000000</i>
  <i type="string" name="PRECFOCK">Fast</i>
 </incar>
 <primitive_cell>
  <structure name="primitive_cell" >
   <crystal>
    <varray name="basis" >
     <v>       0.00000000      12.28047342       0.00000000 </v>
     <v>       9.14270205       0.00000000       0.00000000 </v>
     <v>       0.00000000      -2.76826177     -11.30069772 </v>
    </varray>
    <i name="volume">   1268.80515525 </i>
    <varray name="rec_basis" >
     <v>       0.00000000       0.08143009      -0.01994742 </v>
     <v>       0.10937686      -0.00000000       0.00000000 </v>
     <v>       0.00000000       0.00000000      -0.08849011 </v>
    </varray>
   </crystal>
   <varray name="positions" >
    <v>       0.65691797       0.99655944       0.15562647 </v>
    <v>       0.66031440       0.00175680       0.65692451 </v>
    <v>       0.65835177       0.33027729       0.15806824 </v>
    <v>       0.65911604       0.33529225       0.65717248 </v>
    <v>       0.65885737       0.66426748       0.15784611 </v>
    <v>       0.65960073       0.66811243       0.65705625 </v>
    <v>       0.84075880       0.15115551       0.34200540 </v>
    <v>       0.84113347       0.16803279       0.84385945 </v>
    <v>       0.84710593       0.49167009       0.34261673 </v>
    <v>       0.84058317       0.50200435       0.84356889 </v>
    <v>       0.84530330       0.82582439       0.34465791 </v>
    <v>       0.84162332       0.83565387       0.84427710 </v>
    <v>       0.59104930       0.16688541       0.39771202 </v>
    <v>       0.58991563       0.16698364       0.89744631 </v>
    <v>       0.59185185       0.50235513       0.39725236 </v>
    <v>       0.58861530       0.50086471       0.89707456 </v>
    <v>       0.59265768       0.83507969       0.39742055 </v>
    <v>       0.59066273       0.83396887       0.89756012 </v>
    <v>       0.91013594       0.00179479       0.10462793 </v>
    <v>       0.90790732       0.00039228       0.60062467 </v>
    <v>       0.90913218       0.33644711       0.10272162 </v>
    <v>       0.90864851       0.33453100       0.60214047 </v>
    <v>       0.90762404       0.66688734       0.10200643 </v>
    <v>       0.90717385       0.66599866       0.60075541 </v>
    <v>       0.15820752       0.17334296       0.15908272 </v>
    <v>       0.15838806       0.17522574       0.65536147 </v>
    <v>       0.16068766       0.50285118       0.15683499 </v>
    <v>       0.15897729       0.50657907       0.65650226 </v>
    <v>       0.15475074       0.83054308       0.15678806 </v>
    <v>       0.15421116       0.83712180       0.64651409 </v>
    <v>       0.33949934       0.00448028       0.34795199 </v>
    <v>       0.33892769       0.00148004       0.83958386 </v>
    <v>       0.34322245       0.33841612       0.34276720 </v>
    <v>       0.33908794       0.33557775       0.84412358 </v>
    <v>       0.34038833       0.67044200       0.34428917 </v>
    <v>       0.33841359       0.66896496       0.84273282 </v>
    <v>       0.09309127       0.00189019       0.89765006 </v>
    <v>       0.10321481       0.31559502       0.40206617 </v>
    <v>       0.09067366       0.33578844       0.89795730 </v>
    <v>       0.08635094       0.66490523       0.39467101 </v>
    <v>       0.09101384       0.66843507       0.89635729 </v>
    <v>       0.40596522       0.16534287       0.10168157 </v>
    <v>       0.41104583       0.17051652       0.60360676 </v>
    <v>       0.41002020       0.50102197       0.10198211 </v>
    <v>       0.40792296       0.50327419       0.60333048 </v>
    <v>       0.40404795       0.83454157       0.10227306 </v>
    <v>       0.41104519       0.83623419       0.60239687 </v>
    <v>       0.99643152       0.17011668       0.13858054 </v>
    <v>       0.99581355       0.16784611       0.62226610 </v>
    <v>       0.99717438       0.50216732       0.12553166 </v>
    <v>       0.99621138       0.50080120       0.62771897 </v>
    <v>       0.99493737       0.83338542       0.12595662 </v>
    <v>       0.99452689       0.83336954       0.62716780 </v>
    <v>       0.50326701       0.00057398       0.37310558 </v>
    <v>       0.50192866       0.00013375       0.87191291 </v>
    <v>       0.50460690       0.33476247       0.37221610 </v>
    <v>       0.50134860       0.33319216       0.87203283 </v>
    <v>       0.50369328       0.66915556       0.37255373 </v>
    <v>       0.50124875       0.66880291       0.87183574 </v>
    <v>       0.67204673       0.16353494       0.28033141 </v>
    <v>       0.67256724       0.16857360       0.78102917 </v>
    <v>       0.67355690       0.49502282       0.28069508 </v>
    <v>       0.67198637       0.50162711       0.78099005 </v>
    <v>       0.67358420       0.82960593       0.28019050 </v>
    <v>       0.67304657       0.83587127       0.78108768 </v>
    <v>       0.82406449       0.99531549       0.21699965 </v>
    <v>       0.82832600       0.00251493       0.71998504 </v>
    <v>       0.82927147       0.32602730       0.22047909 </v>
    <v>       0.82759820       0.33496676       0.71955310 </v>
    <v>       0.82676559       0.65877090       0.21846939 </v>
    <v>       0.82747666       0.66854996       0.71975163 </v>
    <v>       0.82404252       0.99204875       0.44675201 </v>
    <v>       0.83403593       0.00256803       0.94744025 </v>
    <v>       0.84060483       0.32126944       0.44308880 </v>
    <v>       0.83289775       0.33461756       0.94619138 </v>
    <v>       0.83007298       0.65645495       0.44484698 </v>
    <v>       0.83118415       0.66840115       0.94540870 </v>
    <v>       0.66587291       0.16501553       0.05409990 </v>
    <v>       0.66789626       0.16908505       0.55446341 </v>
    <v>       0.66481609       0.49753549       0.05415396 </v>
    <v>       0.66868672       0.50086555       0.55417689 </v>
    <v>       0.66739649       0.83081648       0.05382262 </v>
    <v>       0.66776291       0.83434288       0.55481588 </v>
    <v>       0.49416192       0.99899959       0.12678014 </v>
    <v>       0.49782249       0.00321203       0.62805375 </v>
    <v>       0.49434644       0.33138854       0.12689760 </v>
    <v>       0.49688583       0.33756214       0.62876225 </v>
    <v>       0.49480137       0.66997528       0.12710695 </v>
    <v>       0.49701568       0.66908567       0.62824033 </v>
    <v>       0.00427017       0.16805657       0.87383199 </v>
    <v>       0.01024713       0.48540071       0.37403210 </v>
    <v>       0.00298827       0.50218062       0.87246994 </v>
    <v>       0.00101848       0.82744416       0.37270571 </v>
    <v>       0.00446979       0.83589671       0.87324387 </v>
    <v>       0.15458037       0.01681410       0.30001296 </v>
    <v>       0.16855507       0.00288102       0.77165109 </v>
    <v>       0.17843975       0.34274363       0.27715437 </v>
    <v>       0.17215702       0.33615918       0.78151413 </v>
    <v>       0.17264425       0.66936575       0.27983373 </v>
    <v>       0.17146569       0.67010761       0.77838347 </v>
    <v>       0.32503245       0.16277612       0.22080828 </v>
    <v>       0.32568260       0.16588080       0.71710877 </v>
    <v>       0.33030074       0.50572096       0.21971916 </v>
    <v>       0.32868073       0.50486304       0.72192561 </v>
    <v>       0.32108793       0.84280063       0.22095928 </v>
    <v>       0.32194915       0.84108172       0.71252517 </v>
    <v>       0.33557334       0.17241527       0.44704379 </v>
    <v>       0.32840512       0.16579207       0.94445218 </v>
    <v>       0.33415294       0.50375009       0.44622028 </v>
    <v>       0.33102430       0.50204926       0.94626539 </v>
    <v>       0.33267031       0.83722312       0.44658184 </v>
    <v>       0.32794994       0.83654552       0.94385261 </v>
    <v>       0.16226047       0.00248008       0.05964742 </v>
    <v>       0.14416355       0.01683198       0.52713760 </v>
    <v>       0.16844274       0.33511490       0.05368554 </v>
    <v>       0.17698861       0.34307735       0.56098840 </v>
    <v>       0.16889246       0.66851885       0.05311060 </v>
    <v>       0.16818137       0.66989821       0.55151723 </v>
    <v>       0.07127465       0.06283214       0.39115549 </v>
   </varray>
  </structure>
  <varray name="primitive_index" >
   <v type="int" >        1 </v>
   <v type="int" >        2 </v>
   <v type="int" >        3 </v>
   <v type="int" >        4 </v>
   <v type="int" >        5 </v>
   <v type="int" >        6 </v>
   <v type="int" >        7 </v>
   <v type="int" >        8 </v>
   <v type="int" >        9 </v>
   <v type="int" >       10 </v>
   <v type="int" >       11 </v>
   <v type="int" >       12 </v>
   <v type="int" >       13 </v>
   <v type="int" >       14 </v>
   <v type="int" >       15 </v>
   <v type="int" >       16 </v>
   <v type="int" >       17 </v>
   <v type="int" >       18 </v>
   <v type="int" >       19 </v>
   <v type="int" >       20 </v>
   <v type="int" >       21 </v>
   <v type="int" >       22 </v>
   <v type="int" >       23 </v>
   <v type="int" >       24 </v>
   <v type="int" >       25 </v>
   <v type="int" >       26 </v>
   <v type="int" >       27 </v>
   <v type="int" >       28 </v>
   <v type="int" >       29 </v>
   <v type="int" >       30 </v>
   <v type="int" >       31 </v>
   <v type="int" >       32 </v>
   <v type="int" >       33 </v>
   <v type="int" >       34 </v>
   <v type="int" >       35 </v>
   <v type="int" >       36 </v>
   <v type="int" >       37 </v>
   <v type="int" >       38 </v>
   <v type="int" >       39 </v>
   <v type="int" >       40 </v>
   <v type="int" >       41 </v>
   <v type="int" >       42 </v>
   <v type="int" >       43 </v>
   <v type="int" >       44 </v>
   <v type="int" >       45 </v>
   <v type="int" >       46 </v>
   <v type="int" >       47 </v>
   <v type="int" >       48 </v>
   <v type="int" >       49 </v>
   <v type="int" >       50 </v>
   <v type="int" >       51 </v>
   <v type="int" >       52 </v>
   <v type="int" >       53 </v>
   <v type="int" >       54 </v>
   <v type="int" >       55 </v>
   <v type="int" >       56 </v>
   <v type="int" >       57 </v>
   <v type="int" >       58 </v>
   <v type="int" >       59 </v>
   <v type="int" >       60 </v>
   <v type="int" >       61 </v>
   <v type="int" >       62 </v>
   <v type="int" >       63 </v>
   <v type="int" >       64 </v>
   <v type="int" >       65 </v>
   <v type="int" >       66 </v>
   <v type="int" >       67 </v>
   <v type="int" >       68 </v>
   <v type="int" >       69 </v>
   <v type="int" >       70 </v>
   <v type="int" >       71 </v>
   <v type="int" >       72 </v>
   <v type="int" >       73 </v>
   <v type="int" >       74 </v>
   <v type="int" >       75 </v>
   <v type="int" >       76 </v>
   <v type="int" >       77 </v>
   <v type="int" >       78 </v>
   <v type="int" >       79 </v>
   <v type="int" >       80 </v>
   <v type="int" >       81 </v>
   <v type="int" >       82 </v>
   <v type="int" >       83 </v>
   <v type="int" >       84 </v>
   <v type="int" >       85 </v>
   <v type="int" >       86 </v>
   <v type="int" >       87 </v>
   <v type="int" >       88 </v>
   <v type="int" >       89 </v>
   <v type="int" >       90 </v>
   <v type="int" >       91 </v>
   <v type="int" >       92 </v>
   <v type="int" >       93 </v>
   <v type="int" >       94 </v>
   <v type="int" >       95 </v>
   <v type="int" >       96 </v>
   <v type="int" >       97 </v>
   <v type="int" >       98 </v>
   <v type="int" >       99 </v>
   <v type="int" >      100 </v>
   <v type="int" >      101 </v>
   <v type="int" >      102 </v>
   <v type="int" >      103 </v>
   <v type="int" >      104 </v>
   <v type="int" >      105 </v>
   <v type="int" >      106 </v>
   <v type="int" >      107 </v>
   <v type="int" >      108 </v>
   <v type="int" >      109 </v>
   <v type="int" >      110 </v>
   <v type="int" >      111 </v>
   <v type="int" >      112 </v>
   <v type="int" >      113 </v>
   <v type="int" >      114 </v>
   <v type="int" >      115 </v>
   <v type="int" >      116 </v>
   <v type="int" >      117 </v>
   <v type="int" >      118 </v>
   <v type="int" >      119 </v>
  </varray>
 </primitive_cell>
 <kpoints>
  <generation param="Gamma">
   <v type="int" name="divisions">       2        2        2 </v>
   <v name="usershift">      0.00000000       0.00000000       0.00000000 </v>
   <v name="genvec1">      0.50000000       0.00000000       0.00000000 </v>
   <v name="genvec2">      0.00000000       0.50000000       0.00000000 </v>
   <v name="genvec3">      0.00000000       0.00000000       0.50000000 </v>
   <v name="shift">      0.00000000       0.00000000       0.00000000 </v>
  </generation>
  <varray name="kpointlist" >
   <v>       0.00000000       0.00000000       0.00000000 </v>
   <v>       0.50000000       0.00000000       0.00000000 </v>
   <v>       0.00000000       0.50000000       0.00000000 </v>
   <v>       0.50000000       0.50000000       0.00000000 </v>
   <v>       0.00000000       0.00000000       0.50000000 </v>
   <v>       0.50000000       0.00000000       0.50000000 </v>
   <v>       0.00000000       0.50000000       0.50000000 </v>
   <v>       0.50000000       0.50000000       0.50000000 </v>
  </varray>
  <varray name="weights" >
   <v>       0.12500000 </v>
   <v>       0.12500000 </v>
   <v>       0.12500000 </v>
   <v>       0.12500000 </v>
   <v>       0.12500000 </v>
   <v>       0.12500000 </v>
   <v>       0.12500000 </v>
   <v>       0.12500000 </v>
  </varray>
 </kpoints>
 <parameters>
  <separator name="general" >
   <i type="string" name="SYSTEM">unknown system</i>
   <i type="logical" name="LCOMPAT"> F  </i>
  </separator>
  <separator name="electronic" >
   <i type="string" name="PREC">normal</i>
   <i name="ENMAX">    450.00000000</i>
   <i name="ENAUG">    605.39200000</i>
   <i name="EDIFF">      0.00001000</i>
   <i type="int" name="IALGO">    58</i>
   <i type="int" name="IWAVPR">    10</i>
   <i type="int" name="NBANDS">   625</i>
   <i type="int" name="NBANDSLOW">    -1</i>
   <i type="int" name="NBANDSHIGH">    -1</i>
   <i name="NELECT">   1043.00000000</i>
   <i type="int" name="TURBO">     0</i>
   <i type="int" name="IRESTART">     0</i>
   <i type="int" name="NREBOOT">     0</i>
   <i type="int" name="NMIN">     0</i>
   <i name="EREF">      0.00000000</i>
   <separator name="electronic smearing" >
    <i type="int" name="ISMEAR">     0</i>
    <i name="SIGMA">      0.05000000</i>
    <i name="KSPACING">      0.50000000</i>
    <i type="logical" name="KGAMMA"> T  </i>
    <i type="logical" name="KBLOWUP"> T  </i>
   </separator>
   <separator name="electronic projectors" >
    <i type="logical" name="LREAL"> T  </i>
    <v name="ROPT">     -0.00050000     -0.00050000     -0.00050000</v>
    <i type="int" name="LMAXPAW">  -100</i>
    <i type="int" name="LMAXMIX">     2</i>
    <i type="logical" name="NLSPLINE"> F  </i>
   </separator>
   <separator name="electronic startup" >
    <i type="int" name="ISTART">     0</i>
    <i type="int" name="ICHARG">     0</i>
    <i type="int" name="INIWAV">     1</i>
   </separator>
   <separator name="electronic spin" >
    <i type="int" name="ISPIN">     1</i>
    <i type="logical" name="LNONCOLLINEAR"> F  </i>
    <v name="MAGMOM">      1.00000000      1.00000000      1.00000000      1.00000000      1.00000000      1.00000000      1.00000000      1.00000000      1.00000000      1.00000000      1.00000000      1.00000000      1.00000000      1.00000000      1.00000000      1.00000000      1.00000000      1.00000000      1.00000000      1.00000000
      1.00000000      1.00000000      1.00000000      1.00000000      1.00000000      1.00000000      1.00000000      1.00000000      1.00000000      1.00000000      1.00000000      1.00000000      1.00000000      1.00000000      1.00000000      1.00000000      1.00000000      1.00000000      1.00000000      1.00000000
      1.00000000      1.00000000      1.00000000      1.00000000      1.00000000      1.00000000      1.00000000      1.00000000      1.00000000      1.00000000      1.00000000      1.00000000      1.00000000      1.00000000      1.00000000      1.00000000      1.00000000      1.00000000      1.00000000      1.00000000
      1.00000000      1.00000000      1.00000000      1.00000000      1.00000000      1.00000000      1.00000000      1.00000000      1.00000000      1.00000000      1.00000000      1.00000000      1.00000000      1.00000000      1.00000000      1.00000000      1.00000000      1.00000000      1.00000000      1.00000000
      1.00000000      1.00000000      1.00000000      1.00000000      1.00000000      1.00000000      1.00000000      1.00000000      1.00000000      1.00000000      1.00000000      1.00000000      1.00000000      1.00000000      1.00000000      1.00000000      1.00000000      1.00000000      1.00000000      1.00000000
      1.00000000      1.00000000      1.00000000      1.00000000      1.00000000      1.00000000      1.00000000      1.00000000      1.00000000      1.00000000      1.00000000      1.00000000      1.00000000      1.00000000      1.00000000      1.00000000      1.00000000      1.00000000      1.00000000</v>
    <i name="NUPDOWN">     -1.00000000</i>
    <i type="logical" name="LSORBIT"> F  </i>
    <v name="SAXIS">      0.00000000      0.00000000      1.00000000</v>
    <i type="logical" name="LSPIRAL"> F  </i>
    <v name="QSPIRAL">      0.00000000      0.00000000      0.00000000</v>
    <i type="logical" name="LZEROZ"> F  </i>
   </separator>
   <separator name="electronic exchange-correlation" >
    <i type="logical" name="LASPH"> F  </i>
    <i type="logical" name="LMETAGGA"> F  </i>
   </separator>
   <separator name="electronic convergence" >
    <i type="int" name="NELM">   500</i>
    <i type="int" name="NELMDL">    -5</i>
    <i type="int" name="NELMIN">     2</i>
    <i name="ENINI">    450.00000000</i>
    <separator name="electronic convergence detail" >
     <i type="logical" name="LDIAG"> T  </i>
     <i type="logical" name="LSUBROT"> F  </i>
     <i name="WEIMIN">      0.00000000</i>
     <i name="EBREAK">      0.00000000</i>
     <i name="DEPER">      0.30000000</i>
     <i type="int" name="NRMM">     4</i>
     <i name="TIME">      0.40000000</i>
    </separator>
   </separator>
   <separator name="electronic mixer" >
    <i name="AMIX">      0.40000000</i>
    <i name="BMIX">      1.00000000</i>
    <i name="AMIN">      0.10000000</i>
    <i name="AMIX_MAG">      1.60000000</i>
    <i name="BMIX_MAG">      1.00000000</i>
    <separator name="electronic mixer details" >
     <i type="int" name="IMIX">     4</i>
     <i type="logical" name="MIXFIRST"> F  </i>
     <i type="int" name="MAXMIX">   -45</i>
     <i name="WC">    100.00000000</i>
     <i type="int" name="INIMIX">     1</i>
     <i type="int" name="MIXPRE">     1</i>
     <i type="int" name="MREMOVE">     5</i>
    </separator>
   </separator>
   <separator name="electronic dipolcorrection" >
    <i type="logical" name="LDIPOL"> F  </i>
    <i type="logical" name="LMONO"> F  </i>
    <i type="int" name="IDIPOL">     0</i>
    <i name="EPSILON">      1.00000000</i>
    <v name="DIPOL">   -100.00000000   -100.00000000   -100.00000000</v>
    <i name="EFIELD">      0.00000000</i>
   </separator>
  </separator>
  <separator name="grids" >
   <i type="int" name="NGX">    64</i>
   <i type="int" name="NGY">    48</i>
   <i type="int" name="NGZ">    60</i>
   <i type="int" name="NGXF">   128</i>
   <i type="int" name="NGYF">    96</i>
   <i type="int" name="NGZF">   120</i>
   <i type="logical" name="ADDGRID"> F  </i>
  </separator>
  <separator name="ionic" >
   <i type="int" name="NSW">     0</i>
   <i type="int" name="IBRION">    -1</i>
   <i type="int" name="MDALGO">     0</i>
   <i type="int" name="ISIF">     2</i>
   <i name="PSTRESS">      0.00000000</i>
   <i name="EDIFFG">     -0.00500000</i>
   <i type="int" name="NFREE">     0</i>
   <i name="POTIM">      0.50000000</i>
   <i name="SMASS">     -3.00000000</i>
   <i name="SCALEE">      1.00000000</i>
  </separator>
  <separator name="ionic md" >
   <i name="TEBEG">      0.00010000</i>
   <i name="TEEND">      0.00010000</i>
   <i type="int" name="NBLOCK">     1</i>
   <i type="int" name="KBLOCK">     1</i>
   <i type="int" name="NPACO">   256</i>
   <i name="APACO">     10.00000000</i>
  </separator>
  <separator name="symmetry" >
   <i type="int" name="ISYM">     3</i>
   <i name="SYMPREC">      0.00001000</i>
  </separator>
  <separator name="dos" >
   <i type="int" name="LORBIT">     0</i>
   <v name="RWIGS">     -1.00000000     -1.00000000     -1.00000000</v>
   <i type="int" name="NEDOS">   301</i>
   <i name="EMIN">     10.00000000</i>
   <i name="EMAX">    -10.00000000</i>
   <i name="EFERMI">      0.00000000</i>
  </separator>
  <separator name="writing" >
   <i type="int" name="NWRITE">     2</i>
   <i type="logical" name="LWAVE"> T  </i>
   <i type="logical" name="LDOWNSAMPLE"> F  </i>
   <i type="logical" name="LCHARG"> T  </i>
   <i type="logical" name="LPARD"> F  </i>
   <i type="logical" name="LVTOT"> F  </i>
   <i type="logical" name="LVHAR"> F  </i>
   <i type="logical" name="LELF"> F  </i>
   <i type="logical" name="LOPTICS"> F  </i>
   <v name="STM">      0.00000000      0.00000000      0.00000000      0.00000000      0.00000000      0.00000000      0.00000000</v>
  </separator>
  <separator name="performance" >
   <i type="int" name="NPAR">     1</i>
   <i type="int" name="NSIM">     4</i>
   <i type="int" name="NBLK">    -1</i>
   <i type="logical" name="LPLANE"> T  </i>
   <i type="logical" name="LSCALAPACK"> T  </i>
   <i type="logical" name="LSCAAWARE"> F  </i>
   <i type="logical" name="LSCALU"> F  </i>
   <i type="logical" name="LASYNC"> F  </i>
   <i type="logical" name="LORBITALREAL"> F  </i>
  </separator>
  <separator name="miscellaneous" >
   <i type="int" name="IDIOT">     3</i>
   <i type="int" name="PHON_NSTRUCT">    -1</i>
   <i type="logical" name="LMUSIC"> F  </i>
   <v name="POMASS">     69.72300000     16.00000000     30.97400000</v>
   <v name="DARWINR">      0.00000000      0.00000000      0.00000000</v>
   <v name="DARWINV">      1.00000000      1.00000000      1.00000000</v>
   <i type="logical" name="LCORR"> T  </i>
  </separator>
  <i type="logical" name="GGA_COMPAT"> T  </i>
  <i type="logical" name="LBERRY"> F  </i>
  <i type="int" name="ICORELEVEL">     0</i>
  <i type="logical" name="LDAU"> F  </i>
  <i type="int" name="I_CONSTRAINED_M">     0</i>
  <separator name="electronic exchange-correlation" >
   <i type="string" name="GGA">--</i>
   <i type="int" name="VOSKOWN">     0</i>
   <i type="logical" name="LHFCALC"> T  </i>
   <i type="string" name="PRECFOCK">fast</i>
   <i type="logical" name="LSYMGRAD"> F  </i>
   <i type="logical" name="LHFONE"> F  </i>
   <i type="logical" name="LRHFCALC"> F  </i>
   <i type="logical" name="LTHOMAS"> F  </i>
   <i type="logical" name="LMODELHF"> F  </i>
   <i type="logical" name="LFOCKACE"> T  </i>
   <i name="ENCUT4O">     -1.00000000</i>
   <i type="int" name="EXXOEP">     0</i>
   <i type="int" name="FOURORBIT">     0</i>
   <i name="AEXX">      0.32000000</i>
   <i name="HFALPHA">     -1.00000000</i>
   <i name="MCALPHA">      0.00000000</i>
   <i name="ALDAX">      0.68000000</i>
   <i name="AGGAX">      0.68000000</i>
   <i name="ALDAC">      1.00000000</i>
   <i name="AGGAC">      1.00000000</i>
   <i type="int" name="NKREDX">     1</i>
   <i type="int" name="NKREDY">     1</i>
   <i type="int" name="NKREDZ">     1</i>
   <i type="logical" name="SHIFTRED"> F  </i>
   <i type="logical" name="ODDONLY"> F  </i>
   <i type="logical" name="EVENONLY"> F  </i>
   <i type="int" name="LMAXFOCK">     4</i>
   <i type="int" name="NMAXFOCKAE">     1</i>
   <i type="logical" name="LFOCKAEDFT"> F  </i>
   <i name="HFSCREEN">      0.20000000</i>
   <i name="HFSCREENC">      0.20000000</i>
   <i type="int" name="NBANDSGWLOW">     1</i>
  </separator>
  <separator name="vdW DFT" >
   <i type="logical" name="LUSE_VDW"> F  </i>
   <i type="int" name="IVDW_NL">     1</i>
   <i type="logical" name="LSPIN_VDW"> F  </i>
   <i name="Zab_VDW">     -0.84910000</i>
   <i name="PARAM1">      0.12340000</i>
   <i name="PARAM2">      1.00000000</i>
   <i name="PARAM3">      0.00000000</i>
  </separator>
  <separator name="model GW" >
   <i type="int" name="MODEL_GW">     0</i>
   <i name="MODEL_EPS0">      6.39733692</i>
   <i name="MODEL_ALPHA">      1.00000000</i>
  </separator>
  <separator name="linear response parameters" >
   <i type="logical" name="LEPSILON"> F  </i>
   <i type="logical" name="LRPA"> F  </i>
   <i type="logical" name="LNABLA"> F  </i>
   <i type="logical" name="LVEL"> F  </i>
   <i name="CSHIFT">      0.10000000</i>
   <i name="OMEGAMAX">     -1.00000000</i>
   <i name="DEG_THRESHOLD">      0.00200000</i>
   <i name="RTIME">     -0.10000000</i>
   <i name="WPLASMAI">      0.00000000</i>
   <v name="DFIELD">      0.00000000      0.00000000      0.00000000</v>
   <v name="WPLASMA">      0.00000000      0.00000000      0.00000000      0.00000000      0.00000000      0.00000000      0.00000000      0.00000000      0.00000000</v>
  </separator>
  <separator name="orbital magnetization" >
   <i type="logical" name="NUCIND"> F  </i>
   <v name="MAGPOS">      0.00000000      0.00000000      0.00000000</v>
   <i type="logical" name="LNICSALL"> T  </i>
   <i type="logical" name="ORBITALMAG"> F  </i>
   <i type="logical" name="LMAGBLOCH"> F  </i>
   <i type="logical" name="LCHIMAG"> F  </i>
   <i type="logical" name="LGAUGE"> T  </i>
   <i type="int" name="MAGATOM">     0</i>
   <v name="MAGDIPOL">      0.00000000      0.00000000      0.00000000</v>
   <v name="AVECCONST">      0.00000000      0.00000000      0.00000000</v>
  </separator>
  <separator name="response functions" >
   <i type="logical" name="LALL_IN_ONE"> F  </i>
   <i type="int" name="IALL_IN_ONE">    -1</i>
   <i type="int" name="NBANDS_WAVE">    -1</i>
   <i type="logical" name="LFINITE_TEMPERATURE"> F  </i>
   <i type="logical" name="LADDER"> F  </i>
   <i type="logical" name="LRPAFORCE"> F  </i>
   <i type="logical" name="LFXC"> F  </i>
   <i type="logical" name="LHARTREE"> T  </i>
   <i type="int" name="IBSE">     0</i>
   <v type="int" name="KPOINT">    -1     0     0     0</v>
   <i type="logical" name="LTCTC"> F  </i>
   <i type="logical" name="LTCTE"> F  </i>
   <i type="logical" name="LTETE"> F  </i>
   <i type="logical" name="LTRIPLET"> F  </i>
   <i type="logical" name="LFXCEPS"> F  </i>
   <i type="logical" name="LFXHEG"> F  </i>
   <i type="int" name="NATURALO">     2</i>
   <i type="logical" name="LHOLEGF"> F  </i>
   <i type="logical" name="L2ORDER"> F  </i>
   <i type="logical" name="LDMP1"> F  </i>
   <i type="logical" name="LMP2LT"> F  </i>
   <i type="logical" name="LSMP2LT"> F  </i>
   <i type="logical" name="LGWLF"> F  </i>
   <i name="ENCUTGW">     -1.60000002</i>
   <i name="ENCUTGWSOFT">     -1.60000002</i>
   <i name="ENCUTLF">     -1.00000000</i>
   <i type="logical" name="LESF_SPLINES"> F  </i>
   <i type="int" name="LMAXMP2">    -1</i>
   <i name="SCISSOR">      0.00000000</i>
   <i type="int" name="NOMEGA">     0</i>
   <i type="int" name="NOMEGAR">     0</i>
   <i type="int" name="NBANDSGW">    -1</i>
   <i type="int" name="NBANDSO">    -1</i>
   <i type="int" name="NBANDSV">    -1</i>
   <i type="int" name="NELMGW">     1</i>
   <i type="int" name="NELMHF">     1</i>
   <i type="int" name="DIM">     3</i>
   <i type="int" name="IESPILON">     4</i>
   <i type="int" name="ANTIRES">     0</i>
   <i name="OMEGAMAX">    -30.00000000</i>
   <i name="OMEGAMIN">    -30.00000000</i>
   <i name="OMEGATL">   -200.00000000</i>
   <i type="int" name="OMEGAGRID">     0</i>
   <i name="CSHIFT">     -0.10000000</i>
   <i type="logical" name="LSELFENERGY"> F  </i>
   <i type="logical" name="LSPECTRAL"> F  </i>
   <i type="logical" name="LSPECTRALGW"> F  </i>
   <i type="logical" name="LSINGLES"> F  </i>
   <i type="logical" name="LFERMIGW"> F  </i>
   <i type="logical" name="ODDONLYGW"> F  </i>
   <i type="logical" name="EVENONLYGW"> F  </i>
   <i type="int" name="NKREDLFX">     1</i>
   <i type="int" name="NKREDLFY">     1</i>
   <i type="int" name="NKREDLFZ">     1</i>
   <i type="int" name="MAXMEM">  2800</i>
   <i type="int" name="TELESCOPE">     0</i>
   <i type="int" name="NTAUPAR">    -1</i>
   <i type="int" name="NOMEGAPAR">    -1</i>
   <i name="DAMP_NEWTON">      0.80000001</i>
   <i name="LAMBDA">      1.00000000</i>
  </separator>
  <separator name="External order field" >
   <i name="OFIELD_KAPPA">      0.00000000</i>
   <v name="OFIELD_K">      0.00000000      0.00000000      0.00000000</v>
   <i name="OFIELD_Q6_NEAR">      0.00000000</i>
   <i name="OFIELD_Q6_FAR">      0.00000000</i>
   <i name="OFIELD_A">      0.00000000</i>
  </separator>
  <separator name="optional k-points parameters" >
   <i type="int" name="KPOINTS_OPT_MODE">     1</i>
   <i type="logical" name="LKPOINTS_OPT"> F  </i>
  </separator>
 </parameters>
 <atominfo>
  <atoms>     119 </atoms>
  <types>       3 </types>
  <array name="atoms" >
   <dimension dim="1">ion</dimension>
   <field type="string">element</field>
   <field type="int">atomtype</field>
   <set>
    <rc><c>Ga</c><c>   1</c></rc>
    <rc><c>Ga</c><c>   1</c></rc>
    <rc><c>Ga</c><c>   1</c></rc>
    <rc><c>Ga</c><c>   1</c></rc>
    <rc><c>Ga</c><c>   1</c></rc>
    <rc><c>Ga</c><c>   1</c></rc>
    <rc><c>Ga</c><c>   1</c></rc>
    <rc><c>Ga</c><c>   1</c></rc>
    <rc><c>Ga</c><c>   1</c></rc>
    <rc><c>Ga</c><c>   1</c></rc>
    <rc><c>Ga</c><c>   1</c></rc>
    <rc><c>Ga</c><c>   1</c></rc>
    <rc><c>Ga</c><c>   1</c></rc>
    <rc><c>Ga</c><c>   1</c></rc>
    <rc><c>Ga</c><c>   1</c></rc>
    <rc><c>Ga</c><c>   1</c></rc>
    <rc><c>Ga</c><c>   1</c></rc>
    <rc><c>Ga</c><c>   1</c></rc>
    <rc><c>Ga</c><c>   1</c></rc>
    <rc><c>Ga</c><c>   1</c></rc>
    <rc><c>Ga</c><c>   1</c></rc>
    <rc><c>Ga</c><c>   1</c></rc>
    <rc><c>Ga</c><c>   1</c></rc>
    <rc><c>Ga</c><c>   1</c></rc>
    <rc><c>Ga</c><c>   1</c></rc>
    <rc><c>Ga</c><c>   1</c></rc>
    <rc><c>Ga</c><c>   1</c></rc>
    <rc><c>Ga</c><c>   1</c></rc>
    <rc><c>Ga</c><c>   1</c></rc>
    <rc><c>Ga</c><c>   1</c></rc>
    <rc><c>Ga</c><c>   1</c></rc>
    <rc><c>Ga</c><c>   1</c></rc>
    <rc><c>Ga</c><c>   1</c></rc>
    <rc><c>Ga</c><c>   1</c></rc>
    <rc><c>Ga</c><c>   1</c></rc>
    <rc><c>Ga</c><c>   1</c></rc>
    <rc><c>Ga</c><c>   1</c></rc>
    <rc><c>Ga</c><c>   1</c></rc>
    <rc><c>Ga</c><c>   1</c></rc>
    <rc><c>Ga</c><c>   1</c></rc>
    <rc><c>Ga</c><c>   1</c></rc>
    <rc><c>Ga</c><c>   1</c></rc>
    <rc><c>Ga</c><c>   1</c></rc>
    <rc><c>Ga</c><c>   1</c></rc>
    <rc><c>Ga</c><c>   1</c></rc>
    <rc><c>Ga</c><c>   1</c></rc>
    <rc><c>Ga</c><c>   1</c></rc>
    <rc><c>O </c><c>   2</c></rc>
    <rc><c>O </c><c>   2</c></rc>
    <rc><c>O </c><c>   2</c></rc>
    <rc><c>O </c><c>   2</c></rc>
    <rc><c>O </c><c>   2</c></rc>
    <rc><c>O </c><c>   2</c></rc>
    <rc><c>O </c><c>   2</c></rc>
    <rc><c>O </c><c>   2</c></rc>
    <rc><c>O </c><c>   2</c></rc>
    <rc><c>O </c><c>   2</c></rc>
    <rc><c>O </c><c>   2</c></rc>
    <rc><c>O </c><c>   2</c></rc>
    <rc><c>O </c><c>   2</c></rc>
    <rc><c>O </c><c>   2</c></rc>
    <rc><c>O </c><c>   2</c></rc>
    <rc><c>O </c><c>   2</c></rc>
    <rc><c>O </c><c>   2</c></rc>
    <rc><c>O </c><c>   2</c></rc>
    <rc><c>O </c><c>   2</c></rc>
    <rc><c>O </c><c>   2</c></rc>
    <rc><c>O </c><c>   2</c></rc>
    <rc><c>O </c><c>   2</c></rc>
    <rc><c>O </c><c>   2</c></rc>
    <rc><c>O </c><c>   2</c></rc>
    <rc><c>O </c><c>   2</c></rc>
    <rc><c>O </c><c>   2</c></rc>
    <rc><c>O </c><c>   2</c></rc>
    <rc><c>O </c><c>   2</c></rc>
    <rc><c>O </c><c>   2</c></rc>
    <rc><c>O </c><c>   2</c></rc>
    <rc><c>O </c><c>   2</c></rc>
    <rc><c>O </c><c>   2</c></rc>
    <rc><c>O </c><c>   2</c></rc>
    <rc><c>O </c><c>   2</c></rc>
    <rc><c>O </c><c>   2</c></rc>
    <rc><c>O </c><c>   2</c></rc>
    <rc><c>O </c><c>   2</c></rc>
    <rc><c>O </c><c>   2</c></rc>
    <rc><c>O </c><c>   2</c></rc>
    <rc><c>O </c><c>   2</c></rc>
    <rc><c>O </c><c>   2</c></rc>
    <rc><c>O </c><c>   2</c></rc>
    <rc><c>O </c><c>   2</c></rc>
    <rc><c>O </c><c>   2</c></rc>
    <rc><c>O </c><c>   2</c></rc>
    <rc><c>O </c><c>   2</c></rc>
    <rc><c>O </c><c>   2</c></rc>
    <rc><c>O </c><c>   2</c></rc>
    <rc><c>O </c><c>   2</c></rc>
    <rc><c>O </c><c>   2</c></rc>
    <rc><c>O </c><c>   2</c></rc>
    <rc><c>O </c><c>   2</c></rc>
    <rc><c>O </c><c>   2</c></rc>
    <rc><c>O </c><c>   2</c></rc>
    <rc><c>O </c><c>   2</c></rc>
    <rc><c>O </c><c>   2</c></rc>
    <rc><c>O </c><c>   2</c></rc>
    <rc><c>O </c><c>   2</c></rc>
    <rc><c>O </c><c>   2</c></rc>
    <rc><c>O </c><c>   2</c></rc>
    <rc><c>O </c><c>   2</c></rc>
    <rc><c>O </c><c>   2</c></rc>
    <rc><c>O </c><c>   2</c></rc>
    <rc><c>O </c><c>   2</c></rc>
    <rc><c>O </c><c>   2</c></rc>
    <rc><c>O </c><c>   2</c></rc>
    <rc><c>O </c><c>   2</c></rc>
    <rc><c>O </c><c>   2</c></rc>
    <rc><c>O </c><c>   2</c></rc>
    <rc><c>O </c><c>   2</c></rc>
    <rc><c>O </c><c>   2</c></rc>
    <rc><c>P </c><c>   3</c></rc>
   </set>
  </array>
  <array name="atomtypes" >
   <dimension dim="1">type</dimension>
   <field type="int">atomspertype</field>
   <field type="string">element</field>
   <field>mass</field>
   <field>valence</field>
   <field type="string">pseudopotential</field>
   <set>
    <rc><c>  47</c><c>Ga</c><c>     69.72300000</c><c>     13.00000000</c><c>  PAW_PBE Ga_d 06Jul2010                </c></rc>
    <rc><c>  71</c><c>O </c><c>     16.00000000</c><c>      6.00000000</c><c>   PAW_PBE O 08Apr2002                  </c></rc>
    <rc><c>   1</c><c>P </c><c>     30.97400000</c><c>      5.00000000</c><c>  PAW_PBE P 06Sep2000                   </c></rc>
   </set>
  </array>
 </atominfo>
 <structure name="initialpos" >
  <crystal>
   <varray name="basis" >
    <v>       0.00000000      12.28047342       0.00000000 </v>
    <v>       9.14270205       0.00000000       0.00000000 </v>
    <v>       0.00000000      -2.76826177     -11.30069772 </v>
   </varray>
   <i name="volume">   1268.80515525 </i>
   <varray name="rec_basis" >
    <v>       0.00000000       0.08143009      -0.01994742 </v>
    <v>       0.10937686      -0.00000000       0.00000000 </v>
    <v>       0.00000000       0.00000000      -0.08849011 </v>
   </varray>
  </crystal>
  <varray name="positions" >
   <v>       0.65691797       0.99655944       0.15562647 </v>
   <v>       0.66031440       0.00175680       0.65692451 </v>
   <v>       0.65835177       0.33027729       0.15806824 </v>
   <v>       0.65911604       0.33529225       0.65717248 </v>
   <v>       0.65885737       0.66426748       0.15784611 </v>
   <v>       0.65960073       0.66811243       0.65705625 </v>
   <v>       0.84075880       0.15115551       0.34200540 </v>
   <v>       0.84113347       0.16803279       0.84385945 </v>
   <v>       0.84710593       0.49167009       0.34261673 </v>
   <v>       0.84058317       0.50200435       0.84356889 </v>
   <v>       0.84530330       0.82582439       0.34465791 </v>
   <v>       0.84162332       0.83565387       0.84427710 </v>
   <v>       0.59104930       0.16688541       0.39771202 </v>
   <v>       0.58991563       0.16698364       0.89744631 </v>
   <v>       0.59185185       0.50235513       0.39725236 </v>
   <v>       0.58861530       0.50086471       0.89707456 </v>
   <v>       0.59265768       0.83507969       0.39742055 </v>
   <v>       0.59066273       0.83396887       0.89756012 </v>
   <v>       0.91013594       0.00179479       0.10462793 </v>
   <v>       0.90790732       0.00039228       0.60062467 </v>
   <v>       0.90913218       0.33644711       0.10272162 </v>
   <v>       0.90864851       0.33453100       0.60214047 </v>
   <v>       0.90762404       0.66688734       0.10200643 </v>
   <v>       0.90717385       0.66599866       0.60075541 </v>
   <v>       0.15820752       0.17334296       0.15908272 </v>
   <v>       0.15838806       0.17522574       0.65536147 </v>
   <v>       0.16068766       0.50285118       0.15683499 </v>
   <v>       0.15897729       0.50657907       0.65650226 </v>
   <v>       0.15475074       0.83054308       0.15678806 </v>
   <v>       0.15421116       0.83712180       0.64651409 </v>
   <v>       0.33949934       0.00448028       0.34795199 </v>
   <v>       0.33892769       0.00148004       0.83958386 </v>
   <v>       0.34322245       0.33841612       0.34276720 </v>
   <v>       0.33908794       0.33557775       0.84412358 </v>
   <v>       0.34038833       0.67044200       0.34428917 </v>
   <v>       0.33841359       0.66896496       0.84273282 </v>
   <v>       0.09309127       0.00189019       0.89765006 </v>
   <v>       0.10321481       0.31559502       0.40206617 </v>
   <v>       0.09067366       0.33578844       0.89795730 </v>
   <v>       0.08635094       0.66490523       0.39467101 </v>
   <v>       0.09101384       0.66843507       0.89635729 </v>
   <v>       0.40596522       0.16534287       0.10168157 </v>
   <v>       0.41104583       0.17051652       0.60360676 </v>
   <v>       0.41002020       0.50102197       0.10198211 </v>
   <v>       0.40792296       0.50327419       0.60333048 </v>
   <v>       0.40404795       0.83454157       0.10227306 </v>
   <v>       0.41104519       0.83623419       0.60239687 </v>
   <v>       0.99643152       0.17011668       0.13858054 </v>
   <v>       0.99581355       0.16784611       0.62226610 </v>
   <v>       0.99717438       0.50216732       0.12553166 </v>
   <v>       0.99621138       0.50080120       0.62771897 </v>
   <v>       0.99493737       0.83338542       0.12595662 </v>
   <v>       0.99452689       0.83336954       0.62716780 </v>
   <v>       0.50326701       0.00057398       0.37310558 </v>
   <v>       0.50192866       0.00013375       0.87191291 </v>
   <v>       0.50460690       0.33476247       0.37221610 </v>
   <v>       0.50134860       0.33319216       0.87203283 </v>
   <v>       0.50369328       0.66915556       0.37255373 </v>
   <v>       0.50124875       0.66880291       0.87183574 </v>
   <v>       0.67204673       0.16353494       0.28033141 </v>
   <v>       0.67256724       0.16857360       0.78102917 </v>
   <v>       0.67355690       0.49502282       0.28069508 </v>
   <v>       0.67198637       0.50162711       0.78099005 </v>
   <v>       0.67358420       0.82960593       0.28019050 </v>
   <v>       0.67304657       0.83587127       0.78108768 </v>
   <v>       0.82406449       0.99531549       0.21699965 </v>
   <v>       0.82832600       0.00251493       0.71998504 </v>
   <v>       0.82927147       0.32602730       0.22047909 </v>
   <v>       0.82759820       0.33496676       0.71955310 </v>
   <v>       0.82676559       0.65877090       0.21846939 </v>
   <v>       0.82747666       0.66854996       0.71975163 </v>
   <v>       0.82404252       0.99204875       0.44675201 </v>
   <v>       0.83403593       0.00256803       0.94744025 </v>
   <v>       0.84060483       0.32126944       0.44308880 </v>
   <v>       0.83289775       0.33461756       0.94619138 </v>
   <v>       0.83007298       0.65645495       0.44484698 </v>
   <v>       0.83118415       0.66840115       0.94540870 </v>
   <v>       0.66587291       0.16501553       0.05409990 </v>
   <v>       0.66789626       0.16908505       0.55446341 </v>
   <v>       0.66481609       0.49753549       0.05415396 </v>
   <v>       0.66868672       0.50086555       0.55417689 </v>
   <v>       0.66739649       0.83081648       0.05382262 </v>
   <v>       0.66776291       0.83434288       0.55481588 </v>
   <v>       0.49416192       0.99899959       0.12678014 </v>
   <v>       0.49782249       0.00321203       0.62805375 </v>
   <v>       0.49434644       0.33138854       0.12689760 </v>
   <v>       0.49688583       0.33756214       0.62876225 </v>
   <v>       0.49480137       0.66997528       0.12710695 </v>
   <v>       0.49701568       0.66908567       0.62824033 </v>
   <v>       0.00427017       0.16805657       0.87383199 </v>
   <v>       0.01024713       0.48540071       0.37403210 </v>
   <v>       0.00298827       0.50218062       0.87246994 </v>
   <v>       0.00101848       0.82744416       0.37270571 </v>
   <v>       0.00446979       0.83589671       0.87324387 </v>
   <v>       0.15458037       0.01681410       0.30001296 </v>
   <v>       0.16855507       0.00288102       0.77165109 </v>
   <v>       0.17843975       0.34274363       0.27715437 </v>
   <v>       0.17215702       0.33615918       0.78151413 </v>
   <v>       0.17264425       0.66936575       0.27983373 </v>
   <v>       0.17146569       0.67010761       0.77838347 </v>
   <v>       0.32503245       0.16277612       0.22080828 </v>
   <v>       0.32568260       0.16588080       0.71710877 </v>
   <v>       0.33030074       0.50572096       0.21971916 </v>
   <v>       0.32868073       0.50486304       0.72192561 </v>
   <v>       0.32108793       0.84280063       0.22095928 </v>
   <v>       0.32194915       0.84108172       0.71252517 </v>
   <v>       0.33557334       0.17241527       0.44704379 </v>
   <v>       0.32840512       0.16579207       0.94445218 </v>
   <v>       0.33415294       0.50375009       0.44622028 </v>
   <v>       0.33102430       0.50204926       0.94626539 </v>
   <v>       0.33267031       0.83722312       0.44658184 </v>
   <v>       0.32794994       0.83654552       0.94385261 </v>
   <v>       0.16226047       0.00248008       0.05964742 </v>
   <v>       0.14416355       0.01683198       0.52713760 </v>
   <v>       0.16844274       0.33511490       0.05368554 </v>
   <v>       0.17698861       0.34307735       0.56098840 </v>
   <v>       0.16889246       0.66851885       0.05311060 </v>
   <v>       0.16818137       0.66989821       0.55151723 </v>
   <v>       0.07127465       0.06283214       0.39115549 </v>
  </varray>
 </structure>
 <calculation>
  <scstep>
   <time name="total">    3.85    3.87</time>
   <energy>
    <i name="alphaZ">   5376.25786726 </i>
    <i name="ewald"> -86735.82064714 </i>
    <i name="hartreedc">  -2076.05041174 </i>
    <i name="XCdc">   2756.15070067 </i>
    <i name="pawpsdc"> 339640.99414220 </i>
    <i name="pawaedc">-368393.21540101 </i>
    <i name="eentropy">     -0.01623753 </i>
    <i name="bandstr"> -40408.05784818 </i>
    <i name="atom"> 131500.23896116 </i>
    <i name="e_fr_energy"> -18339.51887433 </i>
    <i name="e_wo_entrp"> -18339.50263679 </i>
    <i name="e_0_energy"> -18339.51075556 </i>
   </energy>
  </scstep>
  <scstep>
   <time name="total">    3.11    3.11</time>
   <energy>
    <i name="e_fr_energy"> -62739.91474489 </i>
    <i name="e_wo_entrp"> -62739.90210906 </i>
    <i name="e_0_energy"> -62739.90842697 </i>
   </energy>
  </scstep>
  <scstep>
   <time name="total">    3.27    3.27</time>
   <energy>
    <i name="e_fr_energy"> -67637.79761284 </i>
    <i name="e_wo_entrp"> -67637.76587022 </i>
    <i name="e_0_energy"> -67637.78174153 </i>
   </energy>
  </scstep>
  <scstep>
   <time name="total">    3.72    3.72</time>
   <energy>
    <i name="e_fr_energy"> -68292.18627658 </i>
    <i name="e_wo_entrp"> -68292.13678281 </i>
    <i name="e_0_energy"> -68292.16152970 </i>
   </energy>
  </scstep>
  <scstep>
   <time name="total">  231.38  231.80</time>
   <energy>
    <i name="e_fr_energy"> -38691.05114044 </i>
    <i name="e_wo_entrp"> -38691.02790994 </i>
    <i name="e_0_energy"> -38691.03952519 </i>
   </energy>
  </scstep>
  <scstep>
   <time name="total">  459.67  459.61</time>
   <energy>
    <i name="e_fr_energy">  27003.42523124 </i>
    <i name="e_wo_entrp">  27003.45234259 </i>
    <i name="e_0_energy">  27003.43878691 </i>
   </energy>
  </scstep>
  <scstep>
   <time name="total">  459.97  459.92</time>
   <energy>
    <i name="e_fr_energy">   8399.31549448 </i>
    <i name="e_wo_entrp">   8399.33327415 </i>
    <i name="e_0_energy">   8399.32438432 </i>
   </energy>
  </scstep>
  <scstep>
   <time name="total">  460.62  460.56</time>
   <energy>
    <i name="e_fr_energy">   5002.57349569 </i>
    <i name="e_wo_entrp">   5002.60235969 </i>
    <i name="e_0_energy">   5002.58792769 </i>
   </energy>
  </scstep>
  <scstep>
   <time name="total">  459.96  459.89</time>
   <energy>
    <i name="e_fr_energy">   3080.78219578 </i>
    <i name="e_wo_entrp">   3080.79971885 </i>
    <i name="e_0_energy">   3080.79095732 </i>
   </energy>
  </scstep>
  <scstep>
   <time name="total">  459.17  459.11</time>
   <energy>
    <i name="e_fr_energy">   1887.18894684 </i>
    <i name="e_wo_entrp">   1887.22205777 </i>
    <i name="e_0_energy">   1887.20550231 </i>
   </energy>
  </scstep>
  <scstep>
   <time name="total">  459.67  459.60</time>
   <energy>
    <i name="e_fr_energy">    700.15531263 </i>
    <i name="e_wo_entrp">    700.17263866 </i>
    <i name="e_0_energy">    700.16397564 </i>
   </energy>
  </scstep>
  <scstep>
   <time name="total">  458.94  458.88</time>
   <energy>
    <i name="e_fr_energy">    -70.55077732 </i>
    <i name="e_wo_entrp">    -70.54624144 </i>
    <i name="e_0_energy">    -70.54850938 </i>
   </energy>
  </scstep>
  <scstep>
   <time name="total">  459.09  459.04</time>
   <energy>
    <i name="e_fr_energy">   -506.33799759 </i>
    <i name="e_wo_entrp">   -506.32057874 </i>
    <i name="e_0_energy">   -506.32928816 </i>
   </energy>
  </scstep>
  <scstep>
   <time name="total">  459.32  459.26</time>
   <energy>
    <i name="e_fr_energy">   -729.63975467 </i>
    <i name="e_wo_entrp">   -729.62520327 </i>
    <i name="e_0_energy">   -729.63247897 </i>
   </energy>
  </scstep>
  <scstep>
   <time name="total">  458.74  458.68</time>
   <energy>
    <i name="e_fr_energy">   -835.41683267 </i>
    <i name="e_wo_entrp">   -835.41330834 </i>
    <i name="e_0_energy">   -835.41507050 </i>
   </energy>
  </scstep>
  <scstep>
   <time name="total">  458.53  458.46</time>
   <energy>
    <i name="e_fr_energy">   -883.01634332 </i>
    <i name="e_wo_entrp">   -883.01601462 </i>
    <i name="e_0_energy">   -883.01617897 </i>
   </energy>
  </scstep>
  <scstep>
   <time name="total">  458.74  458.67</time>
   <energy>
    <i name="e_fr_energy">   -909.40204256 </i>
    <i name="e_wo_entrp">   -909.39496833 </i>
    <i name="e_0_energy">   -909.39850544 </i>
   </energy>
  </scstep>
  <scstep>
   <time name="total">  458.75  458.70</time>
   <energy>
    <i name="e_fr_energy">   -923.79108831 </i>
    <i name="e_wo_entrp">   -923.78567907 </i>
    <i name="e_0_energy">   -923.78838369 </i>
   </energy>
  </scstep>
  <scstep>
   <time name="total">  458.75  458.69</time>
   <energy>
    <i name="e_fr_energy">   -930.78570083 </i>
    <i name="e_wo_entrp">   -930.78089210 </i>
    <i name="e_0_energy">   -930.78329646 </i>
   </energy>
  </scstep>
  <scstep>
   <time name="total">  458.69  458.62</time>
   <energy>
    <i name="e_fr_energy">   -935.05893910 </i>
    <i name="e_wo_entrp">   -935.05475014 </i>
    <i name="e_0_energy">   -935.05684462 </i>
   </energy>
  </scstep>
  <scstep>
   <time name="total">  458.77  458.73</time>
   <energy>
    <i name="e_fr_energy">   -937.19167530 </i>
    <i name="e_wo_entrp">   -937.18763833 </i>
    <i name="e_0_energy">   -937.18965682 </i>
   </energy>
  </scstep>
  <scstep>
   <time name="total">  458.65  458.59</time>
   <energy>
    <i name="e_fr_energy">   -938.29838586 </i>
    <i name="e_wo_entrp">   -938.29400445 </i>
    <i name="e_0_energy">   -938.29619516 </i>
   </energy>
  </scstep>
  <scstep>
   <time name="total">  458.63  458.57</time>
   <energy>
    <i name="e_fr_energy">   -938.82952274 </i>
    <i name="e_wo_entrp">   -938.82478792 </i>
    <i name="e_0_energy">   -938.82715533 </i>
   </energy>
  </scstep>
  <scstep>
   <time name="total">  458.67  458.61</time>
   <energy>
    <i name="e_fr_energy">   -939.10798744 </i>
    <i name="e_wo_entrp">   -939.10314771 </i>
    <i name="e_0_energy">   -939.10556758 </i>
   </energy>
  </scstep>
  <scstep>
   <time name="total">  458.79  458.73</time>
   <energy>
    <i name="e_fr_energy">   -939.23971910 </i>
    <i name="e_wo_entrp">   -939.23494361 </i>
    <i name="e_0_energy">   -939.23733135 </i>
   </energy>
  </scstep>
  <scstep>
   <time name="total">  458.68  458.62</time>
   <energy>
    <i name="e_fr_energy">   -939.31950319 </i>
    <i name="e_wo_entrp">   -939.31481321 </i>
    <i name="e_0_energy">   -939.31715820 </i>
   </energy>
  </scstep>
  <scstep>
   <time name="total">  458.84  458.77</time>
   <energy>
    <i name="e_fr_energy">   -939.36166010 </i>
    <i name="e_wo_entrp">   -939.35701186 </i>
    <i name="e_0_energy">   -939.35933598 </i>
   </energy>
  </scstep>
  <scstep>
   <time name="total">  458.57  458.51</time>
   <energy>
    <i name="e_fr_energy">   -939.38461745 </i>
    <i name="e_wo_entrp">   -939.37998972 </i>
    <i name="e_0_energy">   -939.38230359 </i>
   </energy>
  </scstep>
  <scstep>
   <time name="total">  458.69  458.64</time>
   <energy>
    <i name="e_fr_energy">   -939.39654714 </i>
    <i name="e_wo_entrp">   -939.39195123 </i>
    <i name="e_0_energy">   -939.39424919 </i>
   </energy>
  </scstep>
  <scstep>
   <time name="total">  458.63  458.55</time>
   <energy>
    <i name="e_fr_energy">   -939.40224767 </i>
    <i name="e_wo_entrp">   -939.39769345 </i>
    <i name="e_0_energy">   -939.39997056 </i>
   </energy>
  </scstep>
  <scstep>
   <time name="total">  458.72  458.65</time>
   <energy>
    <i name="e_fr_energy">   -939.40546399 </i>
    <i name="e_wo_entrp">   -939.40093663 </i>
    <i name="e_0_energy">   -939.40320031 </i>
   </energy>
  </scstep>
  <scstep>
   <time name="total">  458.97  458.90</time>
   <energy>
    <i name="e_fr_energy">   -939.40717104 </i>
    <i name="e_wo_entrp">   -939.40265103 </i>
    <i name="e_0_energy">   -939.40491104 </i>
   </energy>
  </scstep>
  <scstep>
   <time name="total">  458.75  458.69</time>
   <energy>
    <i name="e_fr_energy">   -939.40818166 </i>
    <i name="e_wo_entrp">   -939.40365825 </i>
    <i name="e_0_energy">   -939.40591996 </i>
   </energy>
  </scstep>
  <scstep>
   <time name="total">  458.54  458.47</time>
   <energy>
    <i name="e_fr_energy">   -939.40874471 </i>
    <i name="e_wo_entrp">   -939.40421768 </i>
    <i name="e_0_energy">   -939.40648120 </i>
   </energy>
  </scstep>
  <scstep>
   <time name="total">  458.58  458.52</time>
   <energy>
    <i name="e_fr_energy">   -939.40902062 </i>
    <i name="e_wo_entrp">   -939.40449124 </i>
    <i name="e_0_energy">   -939.40675593 </i>
   </energy>
  </scstep>
  <scstep>
   <time name="total">  458.87  458.80</time>
   <energy>
    <i name="e_fr_energy">   -939.40916995 </i>
    <i name="e_wo_entrp">   -939.40463754 </i>
    <i name="e_0_energy">   -939.40690375 </i>
   </energy>
  </scstep>
  <scstep>
   <time name="total">  458.75  458.68</time>
   <energy>
    <i name="e_fr_energy">   -939.40925126 </i>
    <i name="e_wo_entrp">   -939.40471505 </i>
    <i name="e_0_energy">   -939.40698315 </i>
   </energy>
  </scstep>
  <scstep>
   <time name="total">  458.61  458.56</time>
   <energy>
    <i name="e_fr_energy">   -939.40932261 </i>
    <i name="e_wo_entrp">   -939.40478542 </i>
    <i name="e_0_energy">   -939.40705401 </i>
   </energy>
  </scstep>
  <scstep>
   <time name="total">  458.47  458.41</time>
   <energy>
    <i name="e_fr_energy">   -939.40934749 </i>
    <i name="e_wo_entrp">   -939.40481010 </i>
    <i name="e_0_energy">   -939.40707880 </i>
   </energy>
  </scstep>
  <scstep>
   <time name="total">  684.16  684.08</time>
   <energy>
    <i name="alphaZ">   5376.25786726 </i>
    <i name="ewald"> -86735.82064714 </i>
    <i name="hartreedc"> -33807.52964960 </i>
    <i name="XCdc">   2871.41991103 </i>
    <i name="pawpsdc"> 120020.92848749 </i>
    <i name="pawaedc">-135259.92569676 </i>
    <i name="eentropy">     -0.00453810 </i>
    <i name="bandstr">  -8740.81462849 </i>
    <i name="atom"> 131500.23896116 </i>
    <i name="e_fr_energy">   -939.40935561 </i>
    <i name="e_wo_entrp">   -939.40481751 </i>
    <i name="e_0_energy">   -939.40708656 </i>
   </energy>
  </scstep>
  <structure>
   <crystal>
    <varray name="basis" >
     <v>       0.00000000      12.28047342       0.00000000 </v>
     <v>       9.14270205       0.00000000       0.00000000 </v>
     <v>       0.00000000      -2.76826177     -11.30069772 </v>
    </varray>
    <i name="volume">   1268.80515525 </i>
    <varray name="rec_basis" >
     <v>       0.00000000       0.08143009      -0.01994742 </v>
     <v>       0.10937686      -0.00000000       0.00000000 </v>
     <v>       0.00000000       0.00000000      -0.08849011 </v>
    </varray>
   </crystal>
   <varray name="positions" >
    <v>       0.65691797       0.99655944       0.15562647 </v>
    <v>       0.66031440       0.00175680       0.65692451 </v>
    <v>       0.65835177       0.33027729       0.15806824 </v>
    <v>       0.65911604       0.33529225       0.65717248 </v>
    <v>       0.65885737       0.66426748       0.15784611 </v>
    <v>       0.65960073       0.66811243       0.65705625 </v>
    <v>       0.84075880       0.15115551       0.34200540 </v>
    <v>       0.84113347       0.16803279       0.84385945 </v>
    <v>       0.84710593       0.49167009       0.34261673 </v>
    <v>       0.84058317       0.50200435       0.84356889 </v>
    <v>       0.84530330       0.82582439       0.34465791 </v>
    <v>       0.84162332       0.83565387       0.84427710 </v>
    <v>       0.59104930       0.16688541       0.39771202 </v>
    <v>       0.58991563       0.16698364       0.89744631 </v>
    <v>       0.59185185       0.50235513       0.39725236 </v>
    <v>       0.58861530       0.50086471       0.89707456 </v>
    <v>       0.59265768       0.83507969       0.39742055 </v>
    <v>       0.59066273       0.83396887       0.89756012 </v>
    <v>       0.91013594       0.00179479       0.10462793 </v>
    <v>       0.90790732       0.00039228       0.60062467 </v>
    <v>       0.90913218       0.33644711       0.10272162 </v>
    <v>       0.90864851       0.33453100       0.60214047 </v>
    <v>       0.90762404       0.66688734       0.10200643 </v>
    <v>       0.90717385       0.66599866       0.60075541 </v>
    <v>       0.15820752       0.17334296       0.15908272 </v>
    <v>       0.15838806       0.17522574       0.65536147 </v>
    <v>       0.16068766       0.50285118       0.15683499 </v>
    <v>       0.15897729       0.50657907       0.65650226 </v>
    <v>       0.15475074       0.83054308       0.15678806 </v>
    <v>       0.15421116       0.83712180       0.64651409 </v>
    <v>       0.33949934       0.00448028       0.34795199 </v>
    <v>       0.33892769       0.00148004       0.83958386 </v>
    <v>       0.34322245       0.33841612       0.34276720 </v>
    <v>       0.33908794       0.33557775       0.84412358 </v>
    <v>       0.34038833       0.67044200       0.34428917 </v>
    <v>       0.33841359       0.66896496       0.84273282 </v>
    <v>       0.09309127       0.00189019       0.89765006 </v>
    <v>       0.10321481       0.31559502       0.40206617 </v>
    <v>       0.09067366       0.33578844       0.89795730 </v>
    <v>       0.08635094       0.66490523       0.39467101 </v>
    <v>       0.09101384       0.66843507       0.89635729 </v>
    <v>       0.40596522       0.16534287       0.10168157 </v>
    <v>       0.41104583       0.17051652       0.60360676 </v>
    <v>       0.41002020       0.50102197       0.10198211 </v>
    <v>       0.40792296       0.50327419       0.60333048 </v>
    <v>       0.40404795       0.83454157       0.10227306 </v>
    <v>       0.41104519       0.83623419       0.60239687 </v>
    <v>       0.99643152       0.17011668       0.13858054 </v>
    <v>       0.99581355       0.16784611       0.62226610 </v>
    <v>       0.99717438       0.50216732       0.12553166 </v>
    <v>       0.99621138       0.50080120       0.62771897 </v>
    <v>       0.99493737       0.83338542       0.12595662 </v>
    <v>       0.99452689       0.83336954       0.62716780 </v>
    <v>       0.50326701       0.00057398       0.37310558 </v>
    <v>       0.50192866       0.00013375       0.87191291 </v>
    <v>       0.50460690       0.33476247       0.37221610 </v>
    <v>       0.50134860       0.33319216       0.87203283 </v>
    <v>       0.50369328       0.66915556       0.37255373 </v>
    <v>       0.50124875       0.66880291       0.87183574 </v>
    <v>       0.67204673       0.16353494       0.28033141 </v>
    <v>       0.67256724       0.16857360       0.78102917 </v>
    <v>       0.67355690       0.49502282       0.28069508 </v>
    <v>       0.67198637       0.50162711       0.78099005 </v>
    <v>       0.67358420       0.82960593       0.28019050 </v>
    <v>       0.67304657       0.83587127       0.78108768 </v>
    <v>       0.82406449       0.99531549       0.21699965 </v>
    <v>       0.82832600       0.00251493       0.71998504 </v>
    <v>       0.82927147       0.32602730       0.22047909 </v>
    <v>       0.82759820       0.33496676       0.71955310 </v>
    <v>       0.82676559       0.65877090       0.21846939 </v>
    <v>       0.82747666       0.66854996       0.71975163 </v>
    <v>       0.82404252       0.99204875       0.44675201 </v>
    <v>       0.83403593       0.00256803       0.94744025 </v>
    <v>       0.84060483       0.32126944       0.44308880 </v>
    <v>       0.83289775       0.33461756       0.94619138 </v>
    <v>       0.83007298       0.65645495       0.44484698 </v>
    <v>       0.83118415       0.66840115       0.94540870 </v>
    <v>       0.66587291       0.16501553       0.05409990 </v>
    <v>       0.66789626       0.16908505       0.55446341 </v>
    <v>       0.66481609       0.49753549       0.05415396 </v>
    <v>       0.66868672       0.50086555       0.55417689 </v>
    <v>       0.66739649       0.83081648       0.05382262 </v>
    <v>       0.66776291       0.83434288       0.55481588 </v>
    <v>       0.49416192       0.99899959       0.12678014 </v>
    <v>       0.49782249       0.00321203       0.62805375 </v>
    <v>       0.49434644       0.33138854       0.12689760 </v>
    <v>       0.49688583       0.33756214       0.62876225 </v>
    <v>       0.49480137       0.66997528       0.12710695 </v>
    <v>       0.49701568       0.66908567       0.62824033 </v>
    <v>       0.00427017       0.16805657       0.87383199 </v>
    <v>       0.01024713       0.48540071       0.37403210 </v>
    <v>       0.00298827       0.50218062       0.87246994 </v>
    <v>       0.00101848       0.82744416       0.37270571 </v>
    <v>       0.00446979       0.83589671       0.87324387 </v>
    <v>       0.15458037       0.01681410       0.30001296 </v>
    <v>       0.16855507       0.00288102       0.77165109 </v>
    <v>       0.17843975       0.34274363       0.27715437 </v>
    <v>       0.17215702       0.33615918       0.78151413 </v>
    <v>       0.17264425       0.66936575       0.27983373 </v>
    <v>       0.17146569       0.67010761       0.77838347 </v>
    <v>       0.32503245       0.16277612       0.22080828 </v>
    <v>       0.32568260       0.16588080       0.71710877 </v>
    <v>       0.33030074       0.50572096       0.21971916 </v>
    <v>       0.32868073       0.50486304       0.72192561 </v>
    <v>       0.32108793       0.84280063       0.22095928 </v>
    <v>       0.32194915       0.84108172       0.71252517 </v>
    <v>       0.33557334       0.17241527       0.44704379 </v>
    <v>       0.32840512       0.16579207       0.94445218 </v>
    <v>       0.33415294       0.50375009       0.44622028 </v>
    <v>       0.33102430       0.50204926       0.94626539 </v>
    <v>       0.33267031       0.83722312       0.44658184 </v>
    <v>       0.32794994       0.83654552       0.94385261 </v>
    <v>       0.16226047       0.00248008       0.05964742 </v>
    <v>       0.14416355       0.01683198       0.52713760 </v>
    <v>       0.16844274       0.33511490       0.05368554 </v>
    <v>       0.17698861       0.34307735       0.56098840 </v>
    <v>       0.16889246       0.66851885       0.05311060 </v>
    <v>       0.16818137       0.66989821       0.55151723 </v>
    <v>       0.07127465       0.06283214       0.39115549 </v>
   </varray>
  </structure>
  <varray name="forces" >
   <v>      -0.01815640       0.10618953       0.01049043 </v>
   <v>      -0.00290960       0.06733593      -0.00118779 </v>
   <v>       0.00215493       0.04415521       0.01677743 </v>
   <v>       0.01106454       0.06520382       0.00351201 </v>
   <v>       0.01950777       0.08999695       0.00555273 </v>
   <v>       0.01072056       0.07571302       0.00595270 </v>
   <v>      -0.11364009      -0.48780396       0.06886974 </v>
   <v>      -0.00838887      -0.06513178      -0.01675637 </v>
   <v>       0.00089651      -0.07621049      -0.00096940 </v>
   <v>       0.01706335      -0.06393536      -0.01293739 </v>
   <v>      -0.00264037       0.10897448      -0.05443259 </v>
   <v>       0.00069486      -0.06351253      -0.01691595 </v>
   <v>       0.00149050      -0.01884608       0.01917096 </v>
   <v>       0.00053807      -0.02002537       0.00045856 </v>
   <v>      -0.02177278      -0.00825432       0.01623225 </v>
   <v>      -0.00945760      -0.01189335       0.00201953 </v>
   <v>      -0.01238483      -0.01770415       0.01986022 </v>
   <v>      -0.01028196      -0.02114740       0.00109504 </v>
   <v>      -0.04726834      -0.00285890      -0.04578757 </v>
   <v>      -0.04557575       0.02270167       0.00315524 </v>
   <v>      -0.03038762       0.02809204      -0.03710567 </v>
   <v>      -0.04148425       0.07329384      -0.01671735 </v>
   <v>       0.01725394       0.02640472      -0.01153352 </v>
   <v>       0.00197498       0.03136351      -0.02369610 </v>
   <v>       0.07282226       0.04371975       0.00869752 </v>
   <v>       0.07588012       0.03878819       0.00605561 </v>
   <v>      -0.02200517       0.05744057      -0.05474631 </v>
   <v>      -0.00379865       0.09928574       0.06542633 </v>
   <v>      -0.13800825       0.04394652       0.08536938 </v>
   <v>      -0.12876843       0.00063766      -0.02140214 </v>
   <v>       0.00579503       0.01310009      -0.06170051 </v>
   <v>       0.00413213      -0.05024195       0.00161396 </v>
   <v>       0.03951216      -0.10780925      -0.03586271 </v>
   <v>       0.03256175      -0.07800490      -0.02245551 </v>
   <v>      -0.03107624      -0.10152957      -0.03287803 </v>
   <v>      -0.06375322      -0.08232455      -0.01914983 </v>
   <v>       0.00084476      -0.12928500       0.03218855 </v>
   <v>       0.33711372       0.31022163      -0.07870083 </v>
   <v>       0.00300801      -0.01086226       0.01414751 </v>
   <v>       0.19020919      -0.01467951      -0.00641182 </v>
   <v>       0.01627305      -0.02387169       0.01688364 </v>
   <v>      -0.00376346       0.04830929      -0.01246188 </v>
   <v>       0.01042388       0.00878385       0.00360990 </v>
   <v>       0.01501299      -0.01283599      -0.02312603 </v>
   <v>       0.00244171       0.02974166      -0.00892379 </v>
   <v>       0.02394260       0.07486249      -0.00100225 </v>
   <v>       0.00679707      -0.01175366       0.00663324 </v>
   <v>       0.01465788      -0.13122570       0.21867753 </v>
   <v>       0.03698920      -0.17828539       0.06883247 </v>
   <v>      -0.01408583      -0.21011390       0.10155724 </v>
   <v>      -0.00268964      -0.18724059       0.13599891 </v>
   <v>       0.00006547      -0.12320041       0.09129106 </v>
   <v>       0.01042813      -0.12646478       0.15654891 </v>
   <v>       0.01870311       0.20277068      -0.13442439 </v>
   <v>       0.00661569       0.17356776      -0.10561441 </v>
   <v>       0.00013392       0.14072649      -0.10761326 </v>
   <v>       0.00667810       0.16060375      -0.11620819 </v>
   <v>      -0.00096831       0.18041456      -0.11601471 </v>
   <v>      -0.00267428       0.17256908      -0.11333939 </v>
   <v>       0.01145663      -0.05217524      -0.10793612 </v>
   <v>      -0.00222350      -0.03789079      -0.10324400 </v>
   <v>      -0.00366169      -0.10044850      -0.08105159 </v>
   <v>      -0.00498557      -0.03240218      -0.09521435 </v>
   <v>      -0.00514645      -0.09319025      -0.09335684 </v>
   <v>      -0.00156158      -0.04145793      -0.10582519 </v>
   <v>       0.15525560       0.02733942       0.04174077 </v>
   <v>       0.00292899       0.00752787       0.11259907 </v>
   <v>       0.03080405       0.08442596       0.07555658 </v>
   <v>      -0.00094914       0.03836644       0.13251651 </v>
   <v>      -0.00117566       0.05859018       0.12545265 </v>
   <v>      -0.01875981       0.01315803       0.12586669 </v>
   <v>       0.10790991       0.48094646      -0.04252654 </v>
   <v>       0.00748492       0.37978763      -0.05813065 </v>
   <v>      -0.02578305       0.35092561      -0.05495654 </v>
   <v>       0.00117118       0.39191634      -0.08508787 </v>
   <v>       0.00945725       0.43186302      -0.10624749 </v>
   <v>      -0.01581151       0.40017986      -0.07080929 </v>
   <v>       0.01157639      -0.38609605       0.07309858 </v>
   <v>      -0.00788003      -0.39165207       0.07073205 </v>
   <v>       0.01685776      -0.36685075       0.06789299 </v>
   <v>       0.00064247      -0.39537790       0.06881969 </v>
   <v>       0.02837516      -0.40686655       0.08103678 </v>
   <v>      -0.00211580      -0.38998893       0.06876469 </v>
   <v>       0.00070672      -0.18821565       0.11318072 </v>
   <v>      -0.00641309      -0.16559222       0.12200658 </v>
   <v>       0.01407968      -0.17594239       0.10879734 </v>
   <v>      -0.03175352      -0.16564090       0.11873060 </v>
   <v>      -0.04625284      -0.18607651       0.10845340 </v>
   <v>       0.01751148      -0.17042148       0.12015205 </v>
   <v>       0.00853902       0.18197196      -0.10439690 </v>
   <v>       0.03152190       0.06779467      -0.07927449 </v>
   <v>      -0.00483115       0.17120478      -0.11713478 </v>
   <v>      -0.69210981      -0.21719863      -0.01572575 </v>
   <v>      -0.00498293       0.17539171      -0.11060165 </v>
   <v>       0.21959360      -0.30958555      -0.24194487 </v>
   <v>       0.01571871      -0.00635398      -0.07805116 </v>
   <v>      -0.06313029       0.05866476      -0.05110279 </v>
   <v>      -0.03715378      -0.01542836      -0.11490516 </v>
   <v>      -0.00564429      -0.00060905      -0.01066153 </v>
   <v>      -0.08943574      -0.01621676      -0.12873591 </v>
   <v>      -0.00275841      -0.00550003       0.10241419 </v>
   <v>      -0.01408396       0.02902797       0.11618654 </v>
   <v>      -0.02775479       0.04576201       0.10989918 </v>
   <v>       0.01720259       0.03944120       0.10914892 </v>
   <v>      -0.01922889      -0.00399306       0.10917844 </v>
   <v>       0.03101616       0.05439490       0.11844274 </v>
   <v>      -0.04902735       0.36590157      -0.05914041 </v>
   <v>       0.00411131       0.39811890      -0.06714751 </v>
   <v>       0.00644899       0.39131955      -0.07594455 </v>
   <v>      -0.01847192       0.39856247      -0.06480820 </v>
   <v>       0.02344620       0.43064410      -0.06462483 </v>
   <v>      -0.01923679       0.39341478      -0.05776520 </v>
   <v>      -0.00664203      -0.31942593       0.03211499 </v>
   <v>       0.16327872      -0.32469258       0.25809312 </v>
   <v>      -0.00826960      -0.40257996       0.06215806 </v>
   <v>      -0.07080366      -0.43703668       0.00511115 </v>
   <v>      -0.00200590      -0.40978340       0.04962316 </v>
   <v>       0.01492950      -0.43988599      -0.02708788 </v>
   <v>       0.11955763       0.68607235      -0.21093105 </v>
  </varray>
  <varray name="stress" >
   <v>     -32.58810168      10.93709144      -2.91160250 </v>
   <v>      10.93709121     -30.37304534       0.12909990 </v>
   <v>      -2.91160231       0.12910090     -32.73146872 </v>
  </varray>
  <energy>
   <i name="e_fr_energy">   -939.40935561 </i>
   <i name="e_wo_entrp">   -939.40481751 </i>
   <i name="e_0_energy">   -939.40708656 </i>
  </energy>
  <time name="totalsc">17105.9817104.48</time>
  <eigenvalues>
   <array>
    <dimension dim="1">band</dimension>
    <dimension dim="2">kpoint</dimension>
    <dimension dim="3">spin</dimension>
    <field>eigene</field>
    <field>occ</field>
    <set>
     <set comment="spin 1">
      <set comment="kpoint 1">
       <r>  -18.7182    1.0000 </r>
       <r>  -18.4318    1.0000 </r>
       <r>  -18.3925    1.0000 </r>
       <r>  -18.2784    1.0000 </r>
       <r>  -18.2236    1.0000 </r>
       <r>  -18.1019    1.0000 </r>
       <r>  -18.0031    1.0000 </r>
       <r>  -17.9638    1.0000 </r>
       <r>  -17.9236    1.0000 </r>
       <r>  -17.8455    1.0000 </r>
       <r>  -17.8251    1.0000 </r>
       <r>  -17.8014    1.0000 </r>
       <r>  -17.7494    1.0000 </r>
       <r>  -17.7430    1.0000 </r>
       <r>  -17.7274    1.0000 </r>
       <r>  -17.6956    1.0000 </r>
       <r>  -17.6878    1.0000 </r>
       <r>  -17.6816    1.0000 </r>
       <r>  -17.6442    1.0000 </r>
       <r>  -17.5930    1.0000 </r>
       <r>  -17.5696    1.0000 </r>
       <r>  -17.5660    1.0000 </r>
       <r>  -17.5321    1.0000 </r>
       <r>  -17.5243    1.0000 </r>
       <r>  -17.5038    1.0000 </r>
       <r>  -17.4900    1.0000 </r>
       <r>  -17.4179    1.0000 </r>
       <r>  -17.4117    1.0000 </r>
       <r>  -17.4013    1.0000 </r>
       <r>  -17.3739    1.0000 </r>
       <r>  -17.3714    1.0000 </r>
       <r>  -17.3450    1.0000 </r>
       <r>  -17.3425    1.0000 </r>
       <r>  -17.3274    1.0000 </r>
       <r>  -17.3147    1.0000 </r>
       <r>  -17.3023    1.0000 </r>
       <r>  -17.2804    1.0000 </r>
       <r>  -17.2339    1.0000 </r>
       <r>  -17.2104    1.0000 </r>
       <r>  -17.1987    1.0000 </r>
       <r>  -17.1921    1.0000 </r>
       <r>  -17.1781    1.0000 </r>
       <r>  -17.1752    1.0000 </r>
       <r>  -17.1531    1.0000 </r>
       <r>  -17.1492    1.0000 </r>
       <r>  -17.1373    1.0000 </r>
       <r>  -17.1132    1.0000 </r>
       <r>  -17.0795    1.0000 </r>
       <r>  -17.0586    1.0000 </r>
       <r>  -17.0494    1.0000 </r>
       <r>  -17.0426    1.0000 </r>
       <r>  -17.0220    1.0000 </r>
       <r>  -17.0131    1.0000 </r>
       <r>  -16.9857    1.0000 </r>
       <r>  -16.9775    1.0000 </r>
       <r>  -16.9721    1.0000 </r>
       <r>  -16.9474    1.0000 </r>
       <r>  -16.9451    1.0000 </r>
       <r>  -16.9416    1.0000 </r>
       <r>  -16.9309    1.0000 </r>
       <r>  -16.9158    1.0000 </r>
       <r>  -16.9124    1.0000 </r>
       <r>  -16.9037    1.0000 </r>
       <r>  -16.8950    1.0000 </r>
       <r>  -16.8769    1.0000 </r>
       <r>  -16.8675    1.0000 </r>
       <r>  -16.8451    1.0000 </r>
       <r>  -16.8297    1.0000 </r>
       <r>  -16.7806    1.0000 </r>
       <r>  -16.7237    1.0000 </r>
       <r>  -15.9602    1.0000 </r>
       <r>  -13.1488    1.0000 </r>
       <r>  -13.1198    1.0000 </r>
       <r>  -13.1145    1.0000 </r>
       <r>  -13.1052    1.0000 </r>
       <r>  -13.0993    1.0000 </r>
       <r>  -13.0958    1.0000 </r>
       <r>  -13.0893    1.0000 </r>
       <r>  -13.0836    1.0000 </r>
       <r>  -13.0745    1.0000 </r>
       <r>  -13.0581    1.0000 </r>
       <r>  -13.0548    1.0000 </r>
       <r>  -13.0522    1.0000 </r>
       <r>  -13.0469    1.0000 </r>
       <r>  -13.0445    1.0000 </r>
       <r>  -13.0393    1.0000 </r>
       <r>  -13.0346    1.0000 </r>
       <r>  -13.0328    1.0000 </r>
       <r>  -13.0313    1.0000 </r>
       <r>  -13.0229    1.0000 </r>
       <r>  -13.0198    1.0000 </r>
       <r>  -13.0141    1.0000 </r>
       <r>  -13.0128    1.0000 </r>
       <r>  -13.0100    1.0000 </r>
       <r>  -13.0063    1.0000 </r>
       <r>  -12.9983    1.0000 </r>
       <r>  -12.9954    1.0000 </r>
       <r>  -12.9942    1.0000 </r>
       <r>  -12.9884    1.0000 </r>
       <r>  -12.9863    1.0000 </r>
       <r>  -12.9831    1.0000 </r>
       <r>  -12.9766    1.0000 </r>
       <r>  -12.9710    1.0000 </r>
       <r>  -12.9698    1.0000 </r>
       <r>  -12.9694    1.0000 </r>
       <r>  -12.9665    1.0000 </r>
       <r>  -12.9614    1.0000 </r>
       <r>  -12.9572    1.0000 </r>
       <r>  -12.9525    1.0000 </r>
       <r>  -12.9507    1.0000 </r>
       <r>  -12.9450    1.0000 </r>
       <r>  -12.9442    1.0000 </r>
       <r>  -12.9416    1.0000 </r>
       <r>  -12.9396    1.0000 </r>
       <r>  -12.9380    1.0000 </r>
       <r>  -12.9356    1.0000 </r>
       <r>  -12.9341    1.0000 </r>
       <r>  -12.9322    1.0000 </r>
       <r>  -12.9304    1.0000 </r>
       <r>  -12.9274    1.0000 </r>
       <r>  -12.9234    1.0000 </r>
       <r>  -12.9199    1.0000 </r>
       <r>  -12.9193    1.0000 </r>
       <r>  -12.9167    1.0000 </r>
       <r>  -12.9142    1.0000 </r>
       <r>  -12.9111    1.0000 </r>
       <r>  -12.9104    1.0000 </r>
       <r>  -12.9075    1.0000 </r>
       <r>  -12.9021    1.0000 </r>
       <r>  -12.8985    1.0000 </r>
       <r>  -12.8934    1.0000 </r>
       <r>  -12.8896    1.0000 </r>
       <r>  -12.8856    1.0000 </r>
       <r>  -12.8812    1.0000 </r>
       <r>  -12.8796    1.0000 </r>
       <r>  -12.8753    1.0000 </r>
       <r>  -12.8713    1.0000 </r>
       <r>  -12.8656    1.0000 </r>
       <r>  -12.8608    1.0000 </r>
       <r>  -12.8564    1.0000 </r>
       <r>  -12.8486    1.0000 </r>
       <r>  -12.8462    1.0000 </r>
       <r>  -12.8452    1.0000 </r>
       <r>  -12.8432    1.0000 </r>
       <r>  -12.8384    1.0000 </r>
       <r>  -12.8329    1.0000 </r>
       <r>  -12.8323    1.0000 </r>
       <r>  -12.8298    1.0000 </r>
       <r>  -12.8236    1.0000 </r>
       <r>  -12.8224    1.0000 </r>
       <r>  -12.8205    1.0000 </r>
       <r>  -12.8179    1.0000 </r>
       <r>  -12.8130    1.0000 </r>
       <r>  -12.8117    1.0000 </r>
       <r>  -12.8101    1.0000 </r>
       <r>  -12.8088    1.0000 </r>
       <r>  -12.8070    1.0000 </r>
       <r>  -12.8029    1.0000 </r>
       <r>  -12.8009    1.0000 </r>
       <r>  -12.8003    1.0000 </r>
       <r>  -12.7965    1.0000 </r>
       <r>  -12.7949    1.0000 </r>
       <r>  -12.7923    1.0000 </r>
       <r>  -12.7905    1.0000 </r>
       <r>  -12.7885    1.0000 </r>
       <r>  -12.7865    1.0000 </r>
       <r>  -12.7851    1.0000 </r>
       <r>  -12.7827    1.0000 </r>
       <r>  -12.7818    1.0000 </r>
       <r>  -12.7791    1.0000 </r>
       <r>  -12.7728    1.0000 </r>
       <r>  -12.7713    1.0000 </r>
       <r>  -12.7689    1.0000 </r>
       <r>  -12.7680    1.0000 </r>
       <r>  -12.7641    1.0000 </r>
       <r>  -12.7603    1.0000 </r>
       <r>  -12.7572    1.0000 </r>
       <r>  -12.7556    1.0000 </r>
       <r>  -12.7535    1.0000 </r>
       <r>  -12.7464    1.0000 </r>
       <r>  -12.7447    1.0000 </r>
       <r>  -12.7421    1.0000 </r>
       <r>  -12.7406    1.0000 </r>
       <r>  -12.7391    1.0000 </r>
       <r>  -12.7335    1.0000 </r>
       <r>  -12.7326    1.0000 </r>
       <r>  -12.7288    1.0000 </r>
       <r>  -12.7279    1.0000 </r>
       <r>  -12.7217    1.0000 </r>
       <r>  -12.7175    1.0000 </r>
       <r>  -12.7133    1.0000 </r>
       <r>  -12.7106    1.0000 </r>
       <r>  -12.7080    1.0000 </r>
       <r>  -12.7039    1.0000 </r>
       <r>  -12.7005    1.0000 </r>
       <r>  -12.6970    1.0000 </r>
       <r>  -12.6935    1.0000 </r>
       <r>  -12.6927    1.0000 </r>
       <r>  -12.6910    1.0000 </r>
       <r>  -12.6883    1.0000 </r>
       <r>  -12.6857    1.0000 </r>
       <r>  -12.6834    1.0000 </r>
       <r>  -12.6789    1.0000 </r>
       <r>  -12.6787    1.0000 </r>
       <r>  -12.6766    1.0000 </r>
       <r>  -12.6750    1.0000 </r>
       <r>  -12.6697    1.0000 </r>
       <r>  -12.6676    1.0000 </r>
       <r>  -12.6632    1.0000 </r>
       <r>  -12.6595    1.0000 </r>
       <r>  -12.6581    1.0000 </r>
       <r>  -12.6563    1.0000 </r>
       <r>  -12.6558    1.0000 </r>
       <r>  -12.6519    1.0000 </r>
       <r>  -12.6507    1.0000 </r>
       <r>  -12.6460    1.0000 </r>
       <r>  -12.6441    1.0000 </r>
       <r>  -12.6377    1.0000 </r>
       <r>  -12.6338    1.0000 </r>
       <r>  -12.6301    1.0000 </r>
       <r>  -12.6272    1.0000 </r>
       <r>  -12.6241    1.0000 </r>
       <r>  -12.6185    1.0000 </r>
       <r>  -12.6156    1.0000 </r>
       <r>  -12.6148    1.0000 </r>
       <r>  -12.6081    1.0000 </r>
       <r>  -12.6065    1.0000 </r>
       <r>  -12.6058    1.0000 </r>
       <r>  -12.6000    1.0000 </r>
       <r>  -12.5981    1.0000 </r>
       <r>  -12.5961    1.0000 </r>
       <r>  -12.5905    1.0000 </r>
       <r>  -12.5897    1.0000 </r>
       <r>  -12.5855    1.0000 </r>
       <r>  -12.5820    1.0000 </r>
       <r>  -12.5781    1.0000 </r>
       <r>  -12.5731    1.0000 </r>
       <r>  -12.5586    1.0000 </r>
       <r>  -12.5569    1.0000 </r>
       <r>  -12.5537    1.0000 </r>
       <r>  -12.5507    1.0000 </r>
       <r>  -12.5460    1.0000 </r>
       <r>  -12.5453    1.0000 </r>
       <r>  -12.5382    1.0000 </r>
       <r>  -12.5298    1.0000 </r>
       <r>  -12.5275    1.0000 </r>
       <r>  -12.5247    1.0000 </r>
       <r>  -12.5198    1.0000 </r>
       <r>  -12.5135    1.0000 </r>
       <r>  -12.5032    1.0000 </r>
       <r>  -12.4964    1.0000 </r>
       <r>  -12.4870    1.0000 </r>
       <r>  -12.4697    1.0000 </r>
       <r>  -12.4661    1.0000 </r>
       <r>  -12.4538    1.0000 </r>
       <r>  -12.4382    1.0000 </r>
       <r>  -12.4298    1.0000 </r>
       <r>  -12.4212    1.0000 </r>
       <r>  -12.4144    1.0000 </r>
       <r>  -12.4064    1.0000 </r>
       <r>  -12.3791    1.0000 </r>
       <r>  -12.3676    1.0000 </r>
       <r>  -12.3430    1.0000 </r>
       <r>  -12.3317    1.0000 </r>
       <r>  -12.3238    1.0000 </r>
       <r>  -12.3168    1.0000 </r>
       <r>  -12.3114    1.0000 </r>
[...]
       <r>   -12.4530   332.0279   507.5048 </r>
       <r>   -12.3207   169.0907   529.8718 </r>
       <r>   -12.1884   169.8653   552.3413 </r>
       <r>   -12.0561   132.8122   569.9095 </r>
       <r>   -11.9239   100.7964   583.2427 </r>
       <r>   -11.7916   113.4580   598.2507 </r>
       <r>   -11.6593    68.7632   607.3466 </r>
       <r>   -11.5270    23.1952   610.4148 </r>
       <r>   -11.3947    11.9523   611.9959 </r>
       <r>   -11.2625     0.0312   612.0000 </r>
       <r>   -11.1302     0.0000   612.0000 </r>
       <r>   -10.9979     0.0000   612.0000 </r>
       <r>   -10.8656     0.0000   612.0000 </r>
       <r>   -10.7334     0.0000   612.0000 </r>
       <r>   -10.6011     0.0000   612.0000 </r>
       <r>   -10.4688     0.0000   612.0000 </r>
       <r>   -10.3365     0.0000   612.0000 </r>
       <r>   -10.2042     0.0000   612.0000 </r>
       <r>   -10.0720     0.0000   612.0000 </r>
       <r>    -9.9397     0.0000   612.0000 </r>
       <r>    -9.8074     0.0000   612.0000 </r>
       <r>    -9.6751     0.0000   612.0000 </r>
       <r>    -9.5429     0.0000   612.0000 </r>
       <r>    -9.4106     0.0000   612.0000 </r>
       <r>    -9.2783     0.0000   612.0000 </r>
       <r>    -9.1460     0.0000   612.0000 </r>
       <r>    -9.0137     0.0000   612.0000 </r>
       <r>    -8.8815     0.0000   612.0000 </r>
       <r>    -8.7492     0.0000   612.0000 </r>
       <r>    -8.6169     0.0000   612.0000 </r>
       <r>    -8.4846     0.0000   612.0000 </r>
       <r>    -8.3523     0.0000   612.0000 </r>
       <r>    -8.2201     0.0000   612.0000 </r>
       <r>    -8.0878     0.0000   612.0000 </r>
       <r>    -7.9555     0.0000   612.0000 </r>
       <r>    -7.8232     0.0000   612.0000 </r>
       <r>    -7.6910     0.0000   612.0000 </r>
       <r>    -7.5587     0.0000   612.0000 </r>
       <r>    -7.4264     0.0000   612.0000 </r>
       <r>    -7.2941     0.0000   612.0000 </r>
       <r>    -7.1618     0.0000   612.0000 </r>
       <r>    -7.0296     0.0000   612.0000 </r>
       <r>    -6.8973     0.0000   612.0000 </r>
       <r>    -6.7650     1.8222   612.2410 </r>
       <r>    -6.6327    13.1847   613.9851 </r>
       <r>    -6.5004     0.1127   614.0000 </r>
       <r>    -6.3682     0.0000   614.0000 </r>
       <r>    -6.2359     0.0000   614.0000 </r>
       <r>    -6.1036     0.0000   614.0000 </r>
       <r>    -5.9713     0.0000   614.0000 </r>
       <r>    -5.8391     0.0000   614.0000 </r>
       <r>    -5.7068     0.0000   614.0000 </r>
       <r>    -5.5745     0.0000   614.0000 </r>
       <r>    -5.4422     0.0000   614.0000 </r>
       <r>    -5.3099     0.0014   614.0002 </r>
       <r>    -5.1777     2.4067   614.3185 </r>
       <r>    -5.0454     5.2764   615.0165 </r>
       <r>    -4.9131    17.5703   617.3407 </r>
       <r>    -4.7808    26.8744   620.8956 </r>
       <r>    -4.6486    35.6722   625.6142 </r>
       <r>    -4.5163    29.3871   629.5015 </r>
       <r>    -4.3840    46.5516   635.6593 </r>
       <r>    -4.2517    46.2909   641.7826 </r>
       <r>    -4.1194    53.8800   648.9097 </r>
       <r>    -3.9872    46.3999   655.0474 </r>
       <r>    -3.8549    42.3907   660.6548 </r>
       <r>    -3.7226    53.2092   667.6932 </r>
       <r>    -3.5903    38.2486   672.7527 </r>
       <r>    -3.4580    28.3133   676.4979 </r>
       <r>    -3.3258    34.0518   681.0022 </r>
       <r>    -3.1935    31.2500   685.1359 </r>
       <r>    -3.0612    34.4845   689.6975 </r>
       <r>    -2.9289    34.2874   694.2329 </r>
       <r>    -2.7967    39.6928   699.4835 </r>
       <r>    -2.6644    36.0927   704.2577 </r>
       <r>    -2.5321    37.0174   709.1543 </r>
       <r>    -2.3998    37.8325   714.1588 </r>
       <r>    -2.2675    41.2411   719.6141 </r>
       <r>    -2.1353    45.9995   725.6988 </r>
       <r>    -2.0030    37.7813   730.6964 </r>
       <r>    -1.8707    43.6795   736.4743 </r>
       <r>    -1.7384    74.1780   746.2864 </r>
       <r>    -1.6062    61.3813   754.4059 </r>
       <r>    -1.4739    58.8688   762.1929 </r>
       <r>    -1.3416    60.5024   770.1961 </r>
       <r>    -1.2093    62.9238   778.5195 </r>
       <r>    -1.0770    50.1905   785.1586 </r>
       <r>    -0.9448    56.2824   792.6036 </r>
       <r>    -0.8125    75.8199   802.6329 </r>
       <r>    -0.6802    65.1843   811.2554 </r>
       <r>    -0.5479    69.6694   820.4711 </r>
       <r>    -0.4156    69.7235   829.6940 </r>
       <r>    -0.2834    58.0598   837.3741 </r>
       <r>    -0.1511    71.9403   846.8902 </r>
       <r>    -0.0188    71.4532   856.3420 </r>
       <r>     0.1135    78.5613   866.7339 </r>
       <r>     0.2457    71.1635   876.1473 </r>
       <r>     0.3780    65.5426   884.8172 </r>
       <r>     0.5103    73.4530   894.5334 </r>
       <r>     0.6426    92.5783   906.7795 </r>
       <r>     0.7749    86.0716   918.1649 </r>
       <r>     0.9071    94.5961   930.6780 </r>
       <r>     1.0394    85.1586   941.9426 </r>
       <r>     1.1717   105.7733   955.9341 </r>
       <r>     1.3040   121.8458   972.0517 </r>
       <r>     1.4363   117.8273   987.6377 </r>
       <r>     1.5685   134.4265  1005.4194 </r>
       <r>     1.7008    96.5101  1018.1856 </r>
       <r>     1.8331    56.1518  1025.6133 </r>
       <r>     1.9654    49.2983  1032.1344 </r>
       <r>     2.0976    34.1139  1036.6469 </r>
       <r>     2.2299    10.2109  1037.9976 </r>
       <r>     2.3622     0.0183  1038.0000 </r>
       <r>     2.4945     0.3374  1038.0446 </r>
       <r>     2.6268    12.5547  1039.7053 </r>
       <r>     2.7590     2.2275  1040.0000 </r>
       <r>     2.8913     0.0001  1040.0000 </r>
       <r>     3.0236     0.0000  1040.0000 </r>
       <r>     3.1559     0.0000  1040.0000 </r>
       <r>     3.2881     0.0000  1040.0000 </r>
       <r>     3.4204     0.0000  1040.0000 </r>
       <r>     3.5527     0.0000  1040.0000 </r>
       <r>     3.6850     0.0000  1040.0000 </r>
       <r>     3.8173     0.0000  1040.0000 </r>
       <r>     3.9495     0.0000  1040.0000 </r>
       <r>     4.0818     0.0000  1040.0000 </r>
       <r>     4.2141     0.0000  1040.0000 </r>
       <r>     4.3464     0.0000  1040.0000 </r>
       <r>     4.4787     0.0000  1040.0000 </r>
       <r>     4.6109     0.0000  1040.0000 </r>
       <r>     4.7432     0.0000  1040.0000 </r>
       <r>     4.8755     0.0000  1040.0000 </r>
       <r>     5.0078     0.1879  1040.0249 </r>
       <r>     5.1400     7.1726  1040.9736 </r>
       <r>     5.2723     7.2546  1041.9333 </r>
       <r>     5.4046     0.5045  1042.0000 </r>
       <r>     5.5369     0.0000  1042.0000 </r>
       <r>     5.6692     0.0000  1042.0000 </r>
       <r>     5.8014     0.0000  1042.0000 </r>
       <r>     5.9337     0.0000  1042.0000 </r>
       <r>     6.0660     0.0000  1042.0000 </r>
       <r>     6.1983     0.0000  1042.0000 </r>
       <r>     6.3306     0.0000  1042.0000 </r>
       <r>     6.4628     0.0000  1042.0000 </r>
       <r>     6.5951     0.1088  1042.0144 </r>
       <r>     6.7274     1.7525  1042.2462 </r>
       <r>     6.8597     0.0286  1042.2500 </r>
       <r>     6.9919     0.0000  1042.2500 </r>
       <r>     7.1242     0.0000  1042.2500 </r>
       <r>     7.2565     0.6487  1042.3358 </r>
       <r>     7.3888     2.9402  1042.7247 </r>
       <r>     7.5211     0.7395  1042.8225 </r>
       <r>     7.6533     3.4129  1043.2740 </r>
       <r>     7.7856     3.2806  1043.7080 </r>
       <r>     7.9179     3.1980  1044.1310 </r>
       <r>     8.0502     2.8317  1044.5056 </r>
       <r>     8.1824     4.4285  1045.0913 </r>
       <r>     8.3147     3.7564  1045.5882 </r>
       <r>     8.4470     7.5359  1046.5851 </r>
       <r>     8.5793     8.3377  1047.6880 </r>
       <r>     8.7116     2.7401  1048.0504 </r>
       <r>     8.8438     6.0804  1048.8547 </r>
       <r>     8.9761    10.4498  1050.2370 </r>
       <r>     9.1084     4.4220  1050.8219 </r>
       <r>     9.2407     6.6205  1051.6977 </r>
       <r>     9.3730     7.8450  1052.7354 </r>
       <r>     9.5052     6.4243  1053.5852 </r>
       <r>     9.6375     9.7889  1054.8801 </r>
       <r>     9.7698    11.2170  1056.3638 </r>
       <r>     9.9021    10.9575  1057.8133 </r>
       <r>    10.0343    15.9463  1059.9226 </r>
       <r>    10.1666    20.5347  1062.6389 </r>
       <r>    10.2989    24.9961  1065.9454 </r>
       <r>    10.4312    20.2305  1068.6214 </r>
       <r>    10.5635    35.9342  1073.3747 </r>
       <r>    10.6957    42.2389  1078.9620 </r>
       <r>    10.8280    32.7804  1083.2982 </r>
       <r>    10.9603    26.8565  1086.8507 </r>
       <r>    11.0926    31.1862  1090.9760 </r>
       <r>    11.2248    32.2301  1095.2393 </r>
       <r>    11.3571    28.9283  1099.0659 </r>
       <r>    11.4894    35.0829  1103.7066 </r>
       <r>    11.6217    35.5222  1108.4054 </r>
       <r>    11.7540    31.7270  1112.6022 </r>
       <r>    11.8862    40.0338  1117.8978 </r>
       <r>    12.0185    26.3657  1121.3855 </r>
       <r>    12.1508    36.2501  1126.1806 </r>
       <r>    12.2831    38.7925  1131.3120 </r>
       <r>    12.4154    46.3220  1137.4394 </r>
       <r>    12.5476    33.7057  1141.8979 </r>
       <r>    12.6799    30.9748  1145.9952 </r>
       <r>    12.8122    22.1507  1148.9253 </r>
       <r>    12.9445    24.1697  1152.1224 </r>
       <r>    13.0767    31.0521  1156.2299 </r>
       <r>    13.2090    29.5361  1160.1369 </r>
       <r>    13.3413    30.4973  1164.1710 </r>
       <r>    13.4736    29.1951  1168.0329 </r>
       <r>    13.6059    30.5092  1172.0686 </r>
       <r>    13.7381    30.2708  1176.0728 </r>
       <r>    13.8704    26.5281  1179.5819 </r>
       <r>    14.0027    26.6617  1183.1086 </r>
       <r>    14.1350    26.5659  1186.6227 </r>
       <r>    14.2673    27.2973  1190.2336 </r>
       <r>    14.3995    25.0226  1193.5435 </r>
       <r>    14.5318    23.6365  1196.6701 </r>
       <r>    14.6641    21.1571  1199.4688 </r>
       <r>    14.7964    29.8820  1203.4215 </r>
       <r>    14.9286    23.6651  1206.5519 </r>
       <r>    15.0609    24.9463  1209.8517 </r>
       <r>    15.1932    24.4012  1213.0795 </r>
       <r>    15.3255    25.2520  1216.4198 </r>
       <r>    15.4578    24.3265  1219.6377 </r>
       <r>    15.5900    24.8752  1222.9281 </r>
       <r>    15.7223    22.4285  1225.8949 </r>
       <r>    15.8546    22.2350  1228.8361 </r>
       <r>    15.9869    15.5400  1230.8917 </r>
       <r>    16.1191    25.3133  1234.2401 </r>
       <r>    16.2514    20.6922  1236.9772 </r>
       <r>    16.3837    20.3429  1239.6682 </r>
       <r>    16.5160    17.9315  1242.0401 </r>
       <r>    16.6483    15.4345  1244.0818 </r>
       <r>    16.7805    10.1845  1245.4290 </r>
       <r>    16.9128    11.3061  1246.9245 </r>
       <r>    17.0451    11.5160  1248.4478 </r>
       <r>    17.1774     3.9131  1248.9654 </r>
       <r>    17.3097     5.5072  1249.6939 </r>
       <r>    17.4419     2.2976  1249.9978 </r>
       <r>    17.5742     0.0163  1250.0000 </r>
       <r>    17.7065     0.0000  1250.0000 </r>
       <r>    17.8388     0.0000  1250.0000 </r>
       <r>    17.9710     0.0000  1250.0000 </r>
       <r>    18.1033     0.0000  1250.0000 </r>
       <r>    18.2356     0.0000  1250.0000 </r>
       <r>    18.3679     0.0000  1250.0000 </r>
       <r>    18.5002     0.0000  1250.0000 </r>
       <r>    18.6324     0.0000  1250.0000 </r>
       <r>    18.7647     0.0000  1250.0000 </r>
       <r>    18.8970     0.0000  1250.0000 </r>
       <r>    19.0293     0.0000  1250.0000 </r>
       <r>    19.1616     0.0000  1250.0000 </r>
      </set>
     </set>
    </array>
   </total>
  </dos>
 </calculation>
 <structure name="finalpos" >
  <crystal>
   <varray name="basis" >
    <v>       0.00000000      12.28047342       0.00000000 </v>
    <v>       9.14270205       0.00000000       0.00000000 </v>
    <v>       0.00000000      -2.76826177     -11.30069772 </v>
   </varray>
   <i name="volume">   1268.80515525 </i>
   <varray name="rec_basis" >
    <v>       0.00000000       0.08143009      -0.01994742 </v>
    <v>       0.10937686      -0.00000000       0.00000000 </v>
    <v>       0.00000000       0.00000000      -0.08849011 </v>
   </varray>
  </crystal>
  <varray name="positions" >
   <v>       0.65691797       0.99655944       0.15562647 </v>
   <v>       0.66031440       0.00175680       0.65692451 </v>
   <v>       0.65835177       0.33027729       0.15806824 </v>
   <v>       0.65911604       0.33529225       0.65717248 </v>
   <v>       0.65885737       0.66426748       0.15784611 </v>
   <v>       0.65960073       0.66811243       0.65705625 </v>
   <v>       0.84075880       0.15115551       0.34200540 </v>
   <v>       0.84113347       0.16803279       0.84385945 </v>
   <v>       0.84710593       0.49167009       0.34261673 </v>
   <v>       0.84058317       0.50200435       0.84356889 </v>
   <v>       0.84530330       0.82582439       0.34465791 </v>
   <v>       0.84162332       0.83565387       0.84427710 </v>
   <v>       0.59104930       0.16688541       0.39771202 </v>
   <v>       0.58991563       0.16698364       0.89744631 </v>
   <v>       0.59185185       0.50235513       0.39725236 </v>
   <v>       0.58861530       0.50086471       0.89707456 </v>
   <v>       0.59265768       0.83507969       0.39742055 </v>
   <v>       0.59066273       0.83396887       0.89756012 </v>
   <v>       0.91013594       0.00179479       0.10462793 </v>
   <v>       0.90790732       0.00039228       0.60062467 </v>
   <v>       0.90913218       0.33644711       0.10272162 </v>
   <v>       0.90864851       0.33453100       0.60214047 </v>
   <v>       0.90762404       0.66688734       0.10200643 </v>
   <v>       0.90717385       0.66599866       0.60075541 </v>
   <v>       0.15820752       0.17334296       0.15908272 </v>
   <v>       0.15838806       0.17522574       0.65536147 </v>
   <v>       0.16068766       0.50285118       0.15683499 </v>
   <v>       0.15897729       0.50657907       0.65650226 </v>
   <v>       0.15475074       0.83054308       0.15678806 </v>
   <v>       0.15421116       0.83712180       0.64651409 </v>
   <v>       0.33949934       0.00448028       0.34795199 </v>
   <v>       0.33892769       0.00148004       0.83958386 </v>
   <v>       0.34322245       0.33841612       0.34276720 </v>
   <v>       0.33908794       0.33557775       0.84412358 </v>
   <v>       0.34038833       0.67044200       0.34428917 </v>
   <v>       0.33841359       0.66896496       0.84273282 </v>
   <v>       0.09309127       0.00189019       0.89765006 </v>
   <v>       0.10321481       0.31559502       0.40206617 </v>
   <v>       0.09067366       0.33578844       0.89795730 </v>
   <v>       0.08635094       0.66490523       0.39467101 </v>
   <v>       0.09101384       0.66843507       0.89635729 </v>
   <v>       0.40596522       0.16534287       0.10168157 </v>
   <v>       0.41104583       0.17051652       0.60360676 </v>
   <v>       0.41002020       0.50102197       0.10198211 </v>
   <v>       0.40792296       0.50327419       0.60333048 </v>
   <v>       0.40404795       0.83454157       0.10227306 </v>
   <v>       0.41104519       0.83623419       0.60239687 </v>
   <v>       0.99643152       0.17011668       0.13858054 </v>
   <v>       0.99581355       0.16784611       0.62226610 </v>
   <v>       0.99717438       0.50216732       0.12553166 </v>
   <v>       0.99621138       0.50080120       0.62771897 </v>
   <v>       0.99493737       0.83338542       0.12595662 </v>
   <v>       0.99452689       0.83336954       0.62716780 </v>
   <v>       0.50326701       0.00057398       0.37310558 </v>
   <v>       0.50192866       0.00013375       0.87191291 </v>
   <v>       0.50460690       0.33476247       0.37221610 </v>
   <v>       0.50134860       0.33319216       0.87203283 </v>
   <v>       0.50369328       0.66915556       0.37255373 </v>
   <v>       0.50124875       0.66880291       0.87183574 </v>
   <v>       0.67204673       0.16353494       0.28033141 </v>
   <v>       0.67256724       0.16857360       0.78102917 </v>
   <v>       0.67355690       0.49502282       0.28069508 </v>
   <v>       0.67198637       0.50162711       0.78099005 </v>
   <v>       0.67358420       0.82960593       0.28019050 </v>
   <v>       0.67304657       0.83587127       0.78108768 </v>
   <v>       0.82406449       0.99531549       0.21699965 </v>
   <v>       0.82832600       0.00251493       0.71998504 </v>
   <v>       0.82927147       0.32602730       0.22047909 </v>
   <v>       0.82759820       0.33496676       0.71955310 </v>
   <v>       0.82676559       0.65877090       0.21846939 </v>
   <v>       0.82747666       0.66854996       0.71975163 </v>
   <v>       0.82404252       0.99204875       0.44675201 </v>
   <v>       0.83403593       0.00256803       0.94744025 </v>
   <v>       0.84060483       0.32126944       0.44308880 </v>
   <v>       0.83289775       0.33461756       0.94619138 </v>
   <v>       0.83007298       0.65645495       0.44484698 </v>
   <v>       0.83118415       0.66840115       0.94540870 </v>
   <v>       0.66587291       0.16501553       0.05409990 </v>
   <v>       0.66789626       0.16908505       0.55446341 </v>
   <v>       0.66481609       0.49753549       0.05415396 </v>
   <v>       0.66868672       0.50086555       0.55417689 </v>
   <v>       0.66739649       0.83081648       0.05382262 </v>
   <v>       0.66776291       0.83434288       0.55481588 </v>
   <v>       0.49416192       0.99899959       0.12678014 </v>
   <v>       0.49782249       0.00321203       0.62805375 </v>
   <v>       0.49434644       0.33138854       0.12689760 </v>
   <v>       0.49688583       0.33756214       0.62876225 </v>
   <v>       0.49480137       0.66997528       0.12710695 </v>
   <v>       0.49701568       0.66908567       0.62824033 </v>
   <v>       0.00427017       0.16805657       0.87383199 </v>
   <v>       0.01024713       0.48540071       0.37403210 </v>
   <v>       0.00298827       0.50218062       0.87246994 </v>
   <v>       0.00101848       0.82744416       0.37270571 </v>
   <v>       0.00446979       0.83589671       0.87324387 </v>
   <v>       0.15458037       0.01681410       0.30001296 </v>
   <v>       0.16855507       0.00288102       0.77165109 </v>
   <v>       0.17843975       0.34274363       0.27715437 </v>
   <v>       0.17215702       0.33615918       0.78151413 </v>
   <v>       0.17264425       0.66936575       0.27983373 </v>
   <v>       0.17146569       0.67010761       0.77838347 </v>
   <v>       0.32503245       0.16277612       0.22080828 </v>
   <v>       0.32568260       0.16588080       0.71710877 </v>
   <v>       0.33030074       0.50572096       0.21971916 </v>
   <v>       0.32868073       0.50486304       0.72192561 </v>
   <v>       0.32108793       0.84280063       0.22095928 </v>
   <v>       0.32194915       0.84108172       0.71252517 </v>
   <v>       0.33557334       0.17241527       0.44704379 </v>
   <v>       0.32840512       0.16579207       0.94445218 </v>
   <v>       0.33415294       0.50375009       0.44622028 </v>
   <v>       0.33102430       0.50204926       0.94626539 </v>
   <v>       0.33267031       0.83722312       0.44658184 </v>
   <v>       0.32794994       0.83654552       0.94385261 </v>
   <v>       0.16226047       0.00248008       0.05964742 </v>
   <v>       0.14416355       0.01683198       0.52713760 </v>
   <v>       0.16844274       0.33511490       0.05368554 </v>
   <v>       0.17698861       0.34307735       0.56098840 </v>
   <v>       0.16889246       0.66851885       0.05311060 </v>
   <v>       0.16818137       0.66989821       0.55151723 </v>
   <v>       0.07127465       0.06283214       0.39115549 </v>
  </varray>
 </structure>
</modeling>
