 running    4 mpi-ranks, on    1 nodes
 distrk:  each k-point on    1 cores,    4 groups
 distr:  one band on    1 cores,    1 groups
 OpenACC runtime initialized ...    4 GPUs detected
 vasp.6.4.2 20Jul23 (build Nov 12 2023 22:16:35) complex                         
 POSCAR found type information on POSCAR GaO P 
 POSCAR found :  3 types and     119 ions
 scaLAPACK will be used selectively (only on CPU)
 LDA part: xc-table for Pade appr. of Perdew
 POSCAR, INCAR and KPOINTS ok, starting setup
 FFT: planning ... GRIDC
 FFT: planning ... GRID_SOFT
 FFT: planning ... GRID
 WAVECAR not read
 entering main loop
       N       E                     dE             d eps       ncg     rms          rms(c)
DAV:   1     0.223225861059E+05    0.22323E+05   -0.32000E+05 10128   0.282E+03
DAV:   2     0.500322536387E+04   -0.17319E+05   -0.16319E+05 10128   0.817E+02
DAV:   3    -0.386067252256E+02   -0.50418E+04   -0.47549E+04 13008   0.321E+02
DAV:   4    -0.673103829987E+03   -0.63450E+03   -0.61793E+03 12464   0.121E+02
DAV:   5    -0.719329736885E+03   -0.46226E+02   -0.45666E+02 14728   0.350E+01BRMIX: very serious problems
 the old and the new charge density differ
 old charge density:  1042.00000 new 1055.99974
BRMIX: very serious problems
 the old and the new charge density differ
 old charge density:  1042.00000 new 1055.99974
BRMIX: very serious problems
 the old and the new charge density differ
 old charge density:  1042.00000 new 1055.99974
BRMIX: very serious problems
 the old and the new charge density differ
 old charge density:  1042.00000 new 1055.99974
    0.646E+01
RMM:   6    -0.589933596823E+03    0.12940E+03   -0.43782E+02 13207   0.245E+01    0.163E+01
RMM:   7    -0.593871336581E+03   -0.39377E+01   -0.72587E+01 14135   0.103E+01    0.134E+01
RMM:   8    -0.593386076630E+03    0.48526E+00   -0.10499E+01 13061   0.525E+00    0.386E+00
RMM:   9    -0.593163041928E+03    0.22303E+00   -0.27278E+00 15459   0.217E+00    0.145E+00
RMM:  10    -0.593217740203E+03   -0.54698E-01   -0.11547E+00 13411   0.126E+00    0.959E-01
RMM:  11    -0.593216739330E+03    0.10009E-02   -0.24428E-01 13765   0.819E-01    0.394E-01
RMM:  12    -0.593220597344E+03   -0.38580E-02   -0.63562E-02 15602   0.280E-01    0.269E-01
RMM:  13    -0.593221485301E+03   -0.88796E-03   -0.22488E-02 15232   0.139E-01    0.684E-02
RMM:  14    -0.593222392729E+03   -0.90743E-03   -0.10487E-02 13724   0.966E-02    0.574E-02
RMM:  15    -0.593222601237E+03   -0.20851E-03   -0.31622E-03 12978   0.498E-02    0.175E-02
RMM:  16    -0.593222747038E+03   -0.14580E-03   -0.15197E-03 11228   0.263E-02    0.581E-03
RMM:  17    -0.593222807838E+03   -0.60800E-04   -0.59016E-04 10239   0.171E-02    0.261E-03
RMM:  18    -0.593222841145E+03   -0.33307E-04   -0.33743E-04  9527   0.107E-02    0.282E-03
RMM:  19    -0.593222856851E+03   -0.15706E-04   -0.15026E-04  8753   0.762E-03    0.663E-04
RMM:  20    -0.593222865978E+03   -0.91268E-05   -0.87618E-05  7340   0.499E-03
   1 F= -.59322287E+03 E0= -.59321262E+03  d E =-.593223E+03
 curvature:   0.00 expect dE= 0.000E+00 dE for cont linesearch  0.000E+00
 trial: gam= 0.00000 g(F)=  0.167E+02 g(S)=  0.000E+00 ort = 0.000E+00 (trialstep = 0.100E+01)
 search vector abs. value=  0.167E+02
 bond charge predicted
       N       E                     dE             d eps       ncg     rms          rms(c)
DAV:   1    -0.562191515236E+03    0.31031E+02   -0.39166E+03 12920   0.986E+01    0.273E+01
RMM:   2    -0.588780500466E+03   -0.26589E+02   -0.30111E+02 13713   0.269E+01    0.710E+00
RMM:   3    -0.595148905454E+03   -0.63684E+01   -0.69204E+01 15383   0.108E+01    0.117E+01
RMM:   4    -0.595462855305E+03   -0.31395E+00   -0.86773E+00 15437   0.371E+00    0.100E+01
RMM:   5    -0.595298610214E+03    0.16425E+00   -0.14263E+00 15856   0.154E+00    0.642E+00
RMM:   6    -0.595169052028E+03    0.12956E+00   -0.97144E-01 13537   0.154E+00    0.118E+00
RMM:   7    -0.595166254968E+03    0.27971E-02   -0.13683E-01 15684   0.504E-01    0.628E-01
RMM:   8    -0.595165378977E+03    0.87599E-03   -0.39598E-02 13605   0.236E-01    0.214E-01
RMM:   9    -0.595166107824E+03   -0.72885E-03   -0.97168E-03 15594   0.118E-01    0.144E-01
RMM:  10    -0.595166239909E+03   -0.13209E-03   -0.48865E-03 13527   0.101E-01    0.828E-02
RMM:  11    -0.595166266199E+03   -0.26290E-04   -0.12685E-03 14034   0.414E-02    0.151E-02
RMM:  12    -0.595166320805E+03   -0.54606E-04   -0.55137E-04 11491   0.206E-02    0.168E-02
RMM:  13    -0.595166334382E+03   -0.13577E-04   -0.18499E-04  9709   0.146E-02    0.168E-03
RMM:  14    -0.595166343107E+03   -0.87255E-05   -0.93475E-05  7983   0.769E-03
   2 F= -.59516634E+03 E0= -.59515935E+03  d E =-.194348E+01
 trial-energy change:   -1.943477  1 .order   -4.601149  -16.667945    7.465647
 step:   0.5259(harm=  0.6907)  dis= 0.13449  next Energy=  -597.219221 (dE=-0.400E+01)
 bond charge predicted
       N       E                     dE             d eps       ncg     rms          rms(c)
DAV:   1    -0.593425423836E+03    0.17409E+01   -0.53980E+02 11672   0.322E+01    0.969E+00
RMM:   2    -0.596260258294E+03   -0.28348E+01   -0.30614E+01 13647   0.109E+01    0.140E+00
RMM:   3    -0.597026343979E+03   -0.76609E+00   -0.81489E+00 15280   0.402E+00    0.218E+00
RMM:   4    -0.597058531448E+03   -0.32187E-01   -0.93514E-01 14574   0.142E+00    0.146E+00
RMM:   5    -0.597062733874E+03   -0.42024E-02   -0.22180E-01 15610   0.611E-01    0.534E-01
RMM:   6    -0.597064427699E+03   -0.16938E-02   -0.39066E-02 13907   0.283E-01    0.165E-01
RMM:   7    -0.597065155094E+03   -0.72739E-03   -0.12840E-02 15606   0.133E-01    0.626E-02
RMM:   8    -0.597065417052E+03   -0.26196E-03   -0.32091E-03 14724   0.550E-02    0.363E-02
RMM:   9    -0.597065488349E+03   -0.71297E-04   -0.10306E-03 12552   0.314E-02    0.119E-02
RMM:  10    -0.597065525493E+03   -0.37144E-04   -0.39773E-04 10605   0.162E-02    0.571E-03
RMM:  11    -0.597065539153E+03   -0.13660E-04   -0.16194E-04  9024   0.106E-02    0.288E-03
RMM:  12    -0.597065545020E+03   -0.58670E-05   -0.67047E-05  7446   0.663E-03
   3 F= -.59706555E+03 E0= -.59705774E+03  d E =-.384268E+01
 curvature:  -0.25 expect dE=-0.584E+00 dE for cont linesearch -0.219E-03
 trial: gam= 0.13426 g(F)=  0.236E+01 g(S)=  0.000E+00 ort = 0.121E+00 (trialstep = 0.905E+00)
 search vector abs. value=  0.269E+01
 bond charge predicted
       N       E                     dE             d eps       ncg     rms          rms(c)
DAV:   1    -0.595696322429E+03    0.13692E+01   -0.50889E+02 10928   0.305E+01    0.363E+00
RMM:   2    -0.597796084216E+03   -0.20998E+01   -0.22380E+01 13821   0.906E+00    0.131E+00
RMM:   3    -0.598196944868E+03   -0.40086E+00   -0.47133E+00 15437   0.337E+00    0.141E+00
RMM:   4    -0.598187579328E+03    0.93655E-02   -0.54487E-01 14696   0.117E+00    0.529E-01
RMM:   5    -0.598187551994E+03    0.27335E-04   -0.15370E-01 15462   0.549E-01    0.215E-01
RMM:   6    -0.598189003893E+03   -0.14519E-02   -0.22227E-02 15702   0.206E-01    0.122E-01
RMM:   7    -0.598189317725E+03   -0.31383E-03   -0.67260E-03 14066   0.110E-01    0.532E-02
RMM:   8    -0.598189524887E+03   -0.20716E-03   -0.23102E-03 15065   0.558E-02    0.186E-02
RMM:   9    -0.598189594181E+03   -0.69294E-04   -0.73179E-04 11532   0.233E-02    0.838E-03
RMM:  10    -0.598189617866E+03   -0.23685E-04   -0.26138E-04 10357   0.138E-02    0.388E-03
RMM:  11    -0.598189629443E+03   -0.11577E-04   -0.12583E-04  8842   0.872E-03    0.220E-03
RMM:  12    -0.598189633658E+03   -0.42157E-05   -0.48405E-05  7541   0.566E-03
   4 F= -.59818963E+03 E0= -.59818284E+03  d E =-.112409E+01
 trial-energy change:   -1.124089  1 .order   -1.117701   -2.150326   -0.085076
 step:   0.9418(harm=  0.9425)  dis= 0.08782  next Energy=  -598.191353 (dE=-0.113E+01)
 bond charge predicted
       N       E                     dE             d eps       ncg     rms          rms(c)
DAV:   1    -0.598188255175E+03    0.13743E-02   -0.83131E-01 11624   0.125E+00    0.141E-01
RMM:   2    -0.598191024028E+03   -0.27689E-02   -0.30028E-02 13626   0.338E-01    0.492E-02
RMM:   3    -0.598191477342E+03   -0.45331E-03   -0.57296E-03 15384   0.123E-01    0.519E-02
RMM:   4    -0.598191456581E+03    0.20761E-04   -0.66252E-04 13596   0.435E-02    0.157E-02
RMM:   5    -0.598191461965E+03   -0.53842E-05   -0.21661E-04 12842   0.224E-02    0.104E-02
RMM:   6    -0.598191463003E+03   -0.10377E-05   -0.38189E-05  8601   0.107E-02
   5 F= -.59819146E+03 E0= -.59818470E+03  d E =-.112592E+01
 curvature:  -0.53 expect dE=-0.537E+00 dE for cont linesearch -0.142E-06
 trial: gam= 0.37249 g(F)=  0.101E+01 g(S)=  0.000E+00 ort = 0.847E-03 (trialstep = 0.912E+00)
 search vector abs. value=  0.138E+01
 bond charge predicted
       N       E                     dE             d eps       ncg     rms          rms(c)
DAV:   1    -0.597541856568E+03    0.64961E+00   -0.27141E+02 10599   0.224E+01    0.280E+00
RMM:   2    -0.598615169849E+03   -0.10733E+01   -0.11267E+01 13777   0.632E+00    0.880E-01
RMM:   3    -0.598810250640E+03   -0.19508E+00   -0.20725E+00 15427   0.230E+00    0.921E-01
RMM:   4    -0.598816137609E+03   -0.58870E-02   -0.24177E-01 15576   0.767E-01    0.483E-01
RMM:   5    -0.598814307991E+03    0.18296E-02   -0.55113E-02 15132   0.338E-01    0.121E-01
RMM:   6    -0.598815362578E+03   -0.10546E-02   -0.12084E-02 15442   0.154E-01    0.808E-02
RMM:   7    -0.598815650407E+03   -0.28783E-03   -0.34745E-03 15314   0.685E-02    0.342E-02
RMM:   8    -0.598815749383E+03   -0.98975E-04   -0.10407E-03 13054   0.349E-02    0.153E-02
RMM:   9    -0.598815784092E+03   -0.34709E-04   -0.40248E-04 11045   0.191E-02    0.421E-03
RMM:  10    -0.598815797576E+03   -0.13484E-04   -0.14269E-04  9358   0.113E-02    0.254E-03
RMM:  11    -0.598815803547E+03   -0.59710E-05   -0.62096E-05  8160   0.721E-03
   6 F= -.59881580E+03 E0= -.59880965E+03  d E =-.624341E+00
 trial-energy change:   -0.624341  1 .order   -0.623974   -0.918089   -0.329859
 step:   1.4242(harm=  1.4242)  dis= 0.08239  next Energy=  -598.907924 (dE=-0.716E+00)
 bond charge predicted
       N       E                     dE             d eps       ncg     rms          rms(c)
DAV:   1    -0.598540609209E+03    0.27519E+00   -0.85488E+01 11096   0.125E+01    0.154E+00
RMM:   2    -0.598849680368E+03   -0.30907E+00   -0.32330E+00 13702   0.340E+00    0.469E-01
RMM:   3    -0.598908460304E+03   -0.58780E-01   -0.62317E-01 15383   0.124E+00    0.490E-01
RMM:   4    -0.598910728532E+03   -0.22682E-02   -0.69802E-02 15546   0.411E-01    0.260E-01
RMM:   5    -0.598910293666E+03    0.43487E-03   -0.16788E-02 14998   0.184E-01    0.803E-02
RMM:   6    -0.598910594779E+03   -0.30111E-03   -0.37273E-03 15725   0.834E-02    0.495E-02
RMM:   7    -0.598910674308E+03   -0.79530E-04   -0.10501E-03 14510   0.367E-02    0.183E-02
RMM:   8    -0.598910705751E+03   -0.31443E-04   -0.31889E-04 11233   0.201E-02    0.105E-02
RMM:   9    -0.598910715556E+03   -0.98049E-05   -0.12497E-04  9506   0.120E-02    0.291E-03
RMM:  10    -0.598910719720E+03   -0.41638E-05   -0.45120E-05  8125   0.743E-03
   7 F= -.59891072E+03 E0= -.59890489E+03  d E =-.719257E+00
 curvature:  -0.98 expect dE=-0.728E+00 dE for cont linesearch -0.100E-04
 trial: gam= 0.68984 g(F)=  0.746E+00 g(S)=  0.000E+00 ort = 0.376E-02 (trialstep = 0.995E+00)
 search vector abs. value=  0.141E+01
 bond charge predicted
       N       E                     dE             d eps       ncg     rms          rms(c)
DAV:   1    -0.598019575675E+03    0.89114E+00   -0.30564E+02 10249   0.227E+01    0.330E+00
RMM:   2    -0.599140539990E+03   -0.11210E+01   -0.11878E+01 13263   0.610E+00    0.103E+00
RMM:   3    -0.599341308809E+03   -0.20077E+00   -0.21938E+00 15509   0.229E+00    0.120E+00
RMM:   4    -0.599349712804E+03   -0.84040E-02   -0.23447E-01 15447   0.734E-01    0.905E-01
RMM:   5    -0.599340568143E+03    0.91447E-02   -0.83266E-02 13514   0.398E-01    0.266E-01
RMM:   6    -0.599341192712E+03   -0.62457E-03   -0.16617E-02 15467   0.185E-01    0.173E-01
RMM:   7    -0.599341141098E+03    0.51614E-04   -0.59695E-03 14133   0.824E-02    0.661E-02
RMM:   8    -0.599341317821E+03   -0.17672E-03   -0.15002E-03 13580   0.458E-02    0.633E-02
RMM:   9    -0.599341286116E+03    0.31705E-04   -0.72493E-04 12643   0.277E-02    0.191E-02
RMM:  10    -0.599341300990E+03   -0.14874E-04   -0.19808E-04  9946   0.139E-02    0.898E-03
RMM:  11    -0.599341307128E+03   -0.61376E-05   -0.75399E-05  8327   0.860E-03
   8 F= -.59934131E+03 E0= -.59933576E+03  d E =-.430587E+00
 trial-energy change:   -0.430587  1 .order   -0.431596   -0.744467   -0.118725
 step:   1.1838(harm=  1.1838)  dis= 0.05881  next Energy=  -599.353579 (dE=-0.443E+00)
 bond charge predicted
       N       E                     dE             d eps       ncg     rms          rms(c)
DAV:   1    -0.599311155918E+03    0.30145E-01   -0.11071E+01 11280   0.431E+00    0.577E-01
RMM:   2    -0.599345624549E+03   -0.34469E-01   -0.36315E-01 13116   0.110E+00    0.183E-01
RMM:   3    -0.599353064126E+03   -0.74396E-02   -0.80524E-02 15356   0.420E-01    0.179E-01
RMM:   4    -0.599353283162E+03   -0.21904E-03   -0.85509E-03 15209   0.137E-01    0.829E-02
RMM:   5    -0.599353325500E+03   -0.42338E-04   -0.19621E-03 15017   0.602E-02    0.398E-02
RMM:   6    -0.599353351546E+03   -0.26047E-04   -0.44988E-04 13351   0.262E-02    0.204E-02
RMM:   7    -0.599353363346E+03   -0.11800E-04   -0.14386E-04  9807   0.138E-02    0.952E-03
RMM:   8    -0.599353366571E+03   -0.32243E-05   -0.43189E-05  8456   0.899E-03
   9 F= -.59935337E+03 E0= -.59934779E+03  d E =-.442647E+00
 curvature:  -1.11 expect dE=-0.358E+00 dE for cont linesearch -0.220E-04
 trial: gam= 0.38018 g(F)=  0.322E+00 g(S)=  0.000E+00 ort = 0.527E-02 (trialstep = 0.103E+01)
 search vector abs. value=  0.529E+00
 bond charge predicted
       N       E                     dE             d eps       ncg     rms          rms(c)
DAV:   1    -0.598933462240E+03    0.41990E+00   -0.12784E+02 10656   0.158E+01    0.185E+00
RMM:   2    -0.599439205393E+03   -0.50574E+00   -0.52616E+00 13907   0.452E+00    0.600E-01
RMM:   3    -0.599532333753E+03   -0.93128E-01   -0.10001E+00 15449   0.164E+00    0.603E-01
RMM:   4    -0.599535276226E+03   -0.29425E-02   -0.11799E-01 15683   0.563E-01    0.302E-01
RMM:   5    -0.599534798088E+03    0.47814E-03   -0.27559E-02 15244   0.251E-01    0.969E-02
RMM:   6    -0.599535288829E+03   -0.49074E-03   -0.58909E-03 15692   0.112E-01    0.658E-02
RMM:   7    -0.599535410857E+03   -0.12203E-03   -0.17295E-03 15188   0.532E-02    0.209E-02
RMM:   8    -0.599535457979E+03   -0.47122E-04   -0.49469E-04 13053   0.268E-02    0.107E-02
RMM:   9    -0.599535473484E+03   -0.15504E-04   -0.18396E-04 10041   0.148E-02    0.333E-03
RMM:  10    -0.599535479124E+03   -0.56404E-05   -0.64037E-05  8851   0.870E-03
  10 F= -.59953548E+03 E0= -.59952875E+03  d E =-.182113E+00
 trial-energy change:   -0.182113  1 .order   -0.181262   -0.334554   -0.027970
 step:   1.1253(harm=  1.1269)  dis= 0.04296  next Energy=  -599.536733 (dE=-0.183E+00)
 bond charge predicted
       N       E                     dE             d eps       ncg     rms          rms(c)
DAV:   1    -0.599532549725E+03    0.29238E-02   -0.10310E+00 11856   0.142E+00    0.162E-01
RMM:   2    -0.599536230377E+03   -0.36807E-02   -0.38262E-02 13749   0.384E-01    0.516E-02
RMM:   3    -0.599536899477E+03   -0.66910E-03   -0.72221E-03 15353   0.138E-01    0.507E-02
RMM:   4    -0.599536930036E+03   -0.30559E-04   -0.88200E-04 15188   0.484E-02    0.263E-02
RMM:   5    -0.599536928591E+03    0.14444E-05   -0.21755E-04 12463   0.221E-02    0.102E-02
RMM:   6    -0.599536931301E+03   -0.27101E-05   -0.45033E-05  9205   0.108E-02
  11 F= -.59953693E+03 E0= -.59953004E+03  d E =-.183565E+00
 curvature:  -0.92 expect dE=-0.167E+00 dE for cont linesearch -0.361E-06
 trial: gam= 0.56944 g(F)=  0.181E+00 g(S)=  0.000E+00 ort = 0.456E-03 (trialstep = 0.105E+01)
 search vector abs. value=  0.353E+00
 bond charge predicted
       N       E                     dE             d eps       ncg     rms          rms(c)
DAV:   1    -0.599286376155E+03    0.25055E+00   -0.89730E+01 10580   0.134E+01    0.157E+00
RMM:   2    -0.599599090211E+03   -0.31271E+00   -0.32705E+00 13587   0.359E+00    0.478E-01
RMM:   3    -0.599660891223E+03   -0.61801E-01   -0.65548E-01 15389   0.134E+00    0.499E-01
RMM:   4    -0.599663604282E+03   -0.27131E-02   -0.74487E-02 15491   0.444E-01    0.277E-01
RMM:   5    -0.599663222477E+03    0.38181E-03   -0.17790E-02 15053   0.200E-01    0.884E-02
RMM:   6    -0.599663513676E+03   -0.29120E-03   -0.38221E-03 15629   0.891E-02    0.550E-02
RMM:   7    -0.599663593532E+03   -0.79856E-04   -0.11730E-03 14921   0.410E-02    0.194E-02
RMM:   8    -0.599663622201E+03   -0.28669E-04   -0.31505E-04 11748   0.210E-02    0.906E-03
RMM:   9    -0.599663632596E+03   -0.10396E-04   -0.12072E-04  9464   0.119E-02    0.314E-03
RMM:  10    -0.599663636633E+03   -0.40367E-05   -0.42540E-05  8287   0.716E-03
  12 F= -.59966364E+03 E0= -.59965618E+03  d E =-.126705E+00
 trial-energy change:   -0.126705  1 .order   -0.126284   -0.190598   -0.061969
 step:   1.5435(harm=  1.5577)  dis= 0.03952  next Energy=  -599.678189 (dE=-0.141E+00)
 bond charge predicted
       N       E                     dE             d eps       ncg     rms          rms(c)
DAV:   1    -0.599599707984E+03    0.63925E-01   -0.19696E+01 11080   0.626E+00    0.726E-01
RMM:   2    -0.599664592516E+03   -0.64885E-01   -0.67913E-01 13484   0.164E+00    0.224E-01
RMM:   3    -0.599678581882E+03   -0.13989E-01   -0.14846E-01 15372   0.620E-01    0.231E-01
RMM:   4    -0.599679219988E+03   -0.63811E-03   -0.15567E-02 15528   0.204E-01    0.130E-01
RMM:   5    -0.599679139821E+03    0.80167E-04   -0.39225E-03 15040   0.918E-02    0.519E-02
RMM:   6    -0.599679189887E+03   -0.50066E-04   -0.81727E-04 15269   0.406E-02    0.304E-02
RMM:   7    -0.599679203856E+03   -0.13969E-04   -0.27754E-04 12114   0.200E-02    0.109E-02
RMM:   8    -0.599679209617E+03   -0.57608E-05   -0.70893E-05  9122   0.118E-02
  13 F= -.59967921E+03 E0= -.59967152E+03  d E =-.142278E+00
 curvature:  -1.52 expect dE=-0.212E+00 dE for cont linesearch -0.871E-05
 trial: gam= 0.78384 g(F)=  0.140E+00 g(S)=  0.000E+00 ort = 0.142E-02 (trialstep = 0.113E+01)
 search vector abs. value=  0.359E+00
 bond charge predicted
       N       E                     dE             d eps       ncg     rms          rms(c)
DAV:   1    -0.599330433834E+03    0.34877E+00   -0.99101E+01 10655   0.143E+01    0.167E+00
RMM:   2    -0.599683242548E+03   -0.35281E+00   -0.36964E+00 13512   0.391E+00    0.512E-01
RMM:   3    -0.599760802449E+03   -0.77560E-01   -0.81209E-01 15430   0.149E+00    0.541E-01
RMM:   4    -0.599765116150E+03   -0.43137E-02   -0.88831E-02 15603   0.491E-01    0.344E-01
RMM:   5    -0.599764188467E+03    0.92768E-03   -0.20630E-02 14991   0.215E-01    0.927E-02
RMM:   6    -0.599764587595E+03   -0.39913E-03   -0.45693E-03 15125   0.100E-01    0.711E-02
RMM:   7    -0.599764672376E+03   -0.84780E-04   -0.15547E-03 14973   0.480E-02    0.281E-02
RMM:   8    -0.599764704588E+03   -0.32212E-04   -0.36798E-04 11456   0.207E-02    0.172E-02
RMM:   9    -0.599764713492E+03   -0.89042E-05   -0.14195E-04  9577   0.132E-02    0.353E-03
RMM:  10    -0.599764718480E+03   -0.49881E-05   -0.51638E-05  8529   0.746E-03
  14 F= -.59976472E+03 E0= -.59975673E+03  d E =-.855089E-01
 trial-energy change:   -0.085509  1 .order   -0.085027   -0.159311   -0.010744
 step:   1.2115(harm=  1.2132)  dis= 0.02382  next Energy=  -599.765099 (dE=-0.859E-01)
 bond charge predicted
       N       E                     dE             d eps       ncg     rms          rms(c)
DAV:   1    -0.599763158988E+03    0.15545E-02   -0.49925E-01 11608   0.101E+00    0.115E-01
RMM:   2    -0.599764797133E+03   -0.16381E-02   -0.17155E-02 13451   0.264E-01    0.362E-02
RMM:   3    -0.599765156350E+03   -0.35922E-03   -0.38007E-03 15357   0.100E-01    0.359E-02
RMM:   4    -0.599765176914E+03   -0.20564E-04   -0.41265E-04 14333   0.333E-02    0.219E-02
RMM:   5    -0.599765174711E+03    0.22038E-05   -0.11362E-04 10913   0.170E-02    0.917E-03
RMM:   6    -0.599765175754E+03   -0.10438E-05   -0.25681E-05  7835   0.832E-03
  15 F= -.59976518E+03 E0= -.59975717E+03  d E =-.859661E-01
 curvature:  -1.55 expect dE=-0.116E+00 dE for cont linesearch -0.128E-06
 trial: gam= 0.53220 g(F)=  0.747E-01 g(S)=  0.000E+00 ort = 0.173E-03 (trialstep = 0.115E+01)
 search vector abs. value=  0.177E+00
 bond charge predicted
       N       E                     dE             d eps       ncg     rms          rms(c)
DAV:   1    -0.599593089903E+03    0.17208E+00   -0.49217E+01 11096   0.105E+01    0.109E+00
RMM:   2    -0.599770400735E+03   -0.17731E+00   -0.18458E+00 13559   0.295E+00    0.351E-01
RMM:   3    -0.599814140007E+03   -0.43739E-01   -0.45336E-01 15313   0.114E+00    0.359E-01
RMM:   4    -0.599817635649E+03   -0.34956E-02   -0.52068E-02 15741   0.383E-01    0.256E-01
RMM:   5    -0.599816905867E+03    0.72978E-03   -0.10499E-02 14605   0.165E-01    0.625E-02
RMM:   6    -0.599817185383E+03   -0.27952E-03   -0.29880E-03 15111   0.826E-02    0.649E-02
RMM:   7    -0.599817195172E+03   -0.97894E-05   -0.87916E-04 14602   0.383E-02    0.178E-02
RMM:   8    -0.599817216499E+03   -0.21327E-04   -0.20964E-04 11061   0.177E-02    0.180E-02
RMM:   9    -0.599817216021E+03    0.47837E-06   -0.71609E-05  9226   0.112E-02
  16 F= -.59981722E+03 E0= -.59980885E+03  d E =-.520403E-01
 trial-energy change:   -0.052040  1 .order   -0.051317   -0.085871   -0.016763
 step:   1.4058(harm=  1.4257)  dis= 0.01840  next Energy=  -599.819112 (dE=-0.539E-01)
 bond charge predicted
       N       E                     dE             d eps       ncg     rms          rms(c)
DAV:   1    -0.599808772008E+03    0.84445E-02   -0.25031E+00 11784   0.235E+00    0.243E-01
RMM:   2    -0.599817293821E+03   -0.85218E-02   -0.88830E-02 13535   0.638E-01    0.787E-02
RMM:   3    -0.599819311497E+03   -0.20177E-02   -0.21000E-02 15286   0.244E-01    0.787E-02
RMM:   4    -0.599819477879E+03   -0.16638E-03   -0.23887E-03 15578   0.822E-02    0.581E-02
RMM:   5    -0.599819439769E+03    0.38111E-04   -0.53998E-04 13953   0.359E-02    0.171E-02
RMM:   6    -0.599819451638E+03   -0.11869E-04   -0.13508E-04 11785   0.176E-02    0.155E-02
RMM:   7    -0.599819450835E+03    0.80340E-06   -0.40232E-05  8929   0.101E-02
  17 F= -.59981945E+03 E0= -.59981101E+03  d E =-.542751E-01
 curvature:  -1.67 expect dE=-0.106E+00 dE for cont linesearch -0.474E-05
 trial: gam= 0.82703 g(F)=  0.635E-01 g(S)=  0.000E+00 ort = 0.708E-03 (trialstep = 0.114E+01)
 search vector abs. value=  0.185E+00
 bond charge predicted
       N       E                     dE             d eps       ncg     rms          rms(c)
DAV:   1    -0.599644062183E+03    0.17539E+00   -0.51610E+01 11239   0.107E+01    0.112E+00
RMM:   2    -0.599822492391E+03   -0.17843E+00   -0.18654E+00 13406   0.295E+00    0.365E-01
RMM:   3    -0.599867181168E+03   -0.44689E-01   -0.46480E-01 15358   0.115E+00    0.368E-01
RMM:   4    -0.599871184865E+03   -0.40037E-02   -0.53854E-02 15674   0.385E-01    0.303E-01
RMM:   5    -0.599869999758E+03    0.11851E-02   -0.11128E-02 13980   0.168E-01    0.754E-02
RMM:   6    -0.599870315301E+03   -0.31554E-03   -0.32938E-03 15052   0.877E-02    0.816E-02
RMM:   7    -0.599870276252E+03    0.39049E-04   -0.93645E-04 14286   0.403E-02    0.172E-02
RMM:   8    -0.599870305775E+03   -0.29523E-04   -0.27048E-04 12190   0.223E-02    0.179E-02
RMM:   9    -0.599870306050E+03   -0.27511E-06   -0.77936E-05  9468   0.125E-02
  18 F= -.59987031E+03 E0= -.59986146E+03  d E =-.508552E-01
 trial-energy change:   -0.050855  1 .order   -0.050094   -0.073179   -0.027009
 step:   1.7229(harm=  1.8096)  dis= 0.02475  next Energy=  -599.877281 (dE=-0.578E-01)
 bond charge predicted
       N       E                     dE             d eps       ncg     rms          rms(c)
DAV:   1    -0.599822128244E+03    0.48178E-01   -0.13389E+01 11552   0.545E+00    0.571E-01
RMM:   2    -0.599866539146E+03   -0.44411E-01   -0.46603E-01 13345   0.147E+00    0.188E-01
RMM:   3    -0.599877851778E+03   -0.11313E-01   -0.11816E-01 15345   0.577E-01    0.186E-01
RMM:   4    -0.599878923909E+03   -0.10721E-02   -0.13593E-02 15729   0.193E-01    0.161E-01
RMM:   5    -0.599878565293E+03    0.35862E-03   -0.28909E-03 13748   0.840E-02    0.433E-02
RMM:   6    -0.599878656648E+03   -0.91355E-04   -0.89470E-04 14830   0.448E-02    0.501E-02
RMM:   7    -0.599878631708E+03    0.24940E-04   -0.25123E-04 12713   0.213E-02    0.102E-02
RMM:   8    -0.599878640240E+03   -0.85316E-05   -0.87545E-05  9503   0.142E-02
  19 F= -.59987864E+03 E0= -.59986967E+03  d E =-.591894E-01
 curvature:  -2.57 expect dE=-0.149E+00 dE for cont linesearch -0.803E-04
 trial: gam= 0.92568 g(F)=  0.579E-01 g(S)=  0.000E+00 ort = 0.241E-02 (trialstep = 0.105E+01)
 search vector abs. value=  0.221E+00
 bond charge predicted
       N       E                     dE             d eps       ncg     rms          rms(c)
DAV:   1    -0.599701280101E+03    0.17735E+00   -0.53235E+01 11190   0.109E+01    0.118E+00
RMM:   2    -0.599881302263E+03   -0.18002E+00   -0.19140E+00 13385   0.297E+00    0.400E-01
RMM:   3    -0.599927348605E+03   -0.46046E-01   -0.48467E-01 15357   0.117E+00    0.375E-01
RMM:   4    -0.599931771515E+03   -0.44229E-02   -0.56825E-02 15711   0.393E-01    0.325E-01
RMM:   5    -0.599930232127E+03    0.15394E-02   -0.11873E-02 13933   0.171E-01    0.802E-02
RMM:   6    -0.599930556894E+03   -0.32477E-03   -0.35394E-03 14916   0.900E-02    0.854E-02
RMM:   7    -0.599930506709E+03    0.50186E-04   -0.92111E-04 14302   0.403E-02    0.235E-02
RMM:   8    -0.599930532682E+03   -0.25973E-04   -0.29205E-04 12394   0.229E-02    0.137E-02
RMM:   9    -0.599930536311E+03   -0.36296E-05   -0.82489E-05  9591   0.127E-02
  20 F= -.59993054E+03 E0= -.59992161E+03  d E =-.518961E-01
 trial-energy change:   -0.051896  1 .order   -0.050652   -0.063387   -0.037917
 step:   2.0537(harm=  2.6242)  dis= 0.03393  next Energy=  -599.949562 (dE=-0.709E-01)
 bond charge predicted
       N       E                     dE             d eps       ncg     rms          rms(c)
DAV:   1    -0.599752930985E+03    0.17760E+00   -0.47836E+01 11384   0.103E+01    0.114E+00
RMM:   2    -0.599913466990E+03   -0.16054E+00   -0.17193E+00 13392   0.281E+00    0.408E-01
RMM:   3    -0.599953837385E+03   -0.40370E-01   -0.43264E-01 15376   0.111E+00    0.365E-01
RMM:   4    -0.599957609214E+03   -0.37718E-02   -0.50828E-02 15696   0.372E-01    0.313E-01
RMM:   5    -0.599956134954E+03    0.14743E-02   -0.10873E-02 13932   0.164E-01    0.745E-02
RMM:   6    -0.599956412705E+03   -0.27775E-03   -0.32365E-03 14880   0.864E-02    0.764E-02
RMM:   7    -0.599956379863E+03    0.32842E-04   -0.81592E-04 14245   0.381E-02    0.234E-02
RMM:   8    -0.599956401786E+03   -0.21923E-04   -0.26280E-04 12164   0.222E-02    0.114E-02
RMM:   9    -0.599956405908E+03   -0.41224E-05   -0.76061E-05  9435   0.122E-02
  21 F= -.59995641E+03 E0= -.59994787E+03  d E =-.777657E-01
 curvature:  -4.19 expect dE=-0.351E+00 dE for cont linesearch -0.342E-02
 ZBRENT: increasing intervall
 opt :   4.0522  next Energy=  -599.938257 (dE=-0.596E-01)
 bond charge predicted
       N       E                     dE             d eps       ncg     rms          rms(c)
DAV:   1    -0.599075434182E+03    0.88097E+00   -0.19133E+02 11210   0.207E+01    0.232E+00
RMM:   2    -0.599760240133E+03   -0.68481E+00   -0.73909E+00 13459   0.582E+00    0.847E-01
RMM:   3    -0.599927452223E+03   -0.16721E+00   -0.18005E+00 15437   0.229E+00    0.767E-01
RMM:   4    -0.599942463014E+03   -0.15011E-01   -0.22145E-01 15629   0.780E-01    0.644E-01
RMM:   5    -0.599936422992E+03    0.60400E-02   -0.43107E-02 14957   0.332E-01    0.191E-01
RMM:   6    -0.599937090281E+03   -0.66729E-03   -0.15048E-02 13772   0.193E-01    0.140E-01
RMM:   7    -0.599937074186E+03    0.16095E-04   -0.37705E-03 15414   0.877E-02    0.440E-02
RMM:   8    -0.599937170076E+03   -0.95889E-04   -0.10138E-03 14242   0.371E-02    0.207E-02
RMM:   9    -0.599937190306E+03   -0.20231E-04   -0.27231E-04 10990   0.201E-02    0.833E-03
RMM:  10    -0.599937200241E+03   -0.99345E-05   -0.10964E-04  9076   0.109E-02    0.372E-03
RMM:  11    -0.599937203619E+03   -0.33782E-05   -0.38634E-05  8216   0.740E-03
  22 F= -.59993720E+03 E0= -.59993062E+03  d E =-.585634E-01
 curvature:  22.24 expect dE= 0.795E+01 dE for cont linesearch  0.127E+00
 ZBRENT: bracketing found
 ZBRENT: interpolating
 opt :   2.6024  next Energy=  -599.960093 (dE=-0.815E-01)
 bond charge predicted
       N       E                     dE             d eps       ncg     rms          rms(c)
DAV:   1    -0.599527484114E+03    0.40972E+00   -0.10078E+02 11099   0.149E+01    0.167E+00
RMM:   2    -0.599871099448E+03   -0.34362E+00   -0.37022E+00 13438   0.412E+00    0.619E-01
RMM:   3    -0.599955376150E+03   -0.84277E-01   -0.90861E-01 15357   0.162E+00    0.538E-01
RMM:   4    -0.599963286508E+03   -0.79104E-02   -0.11228E-01 15711   0.549E-01    0.451E-01
RMM:   5    -0.599960270140E+03    0.30164E-02   -0.22891E-02 14555   0.239E-01    0.112E-01
RMM:   6    -0.599960779071E+03   -0.50893E-03   -0.71073E-03 14305   0.129E-01    0.106E-01
RMM:   7    -0.599960730193E+03    0.48878E-04   -0.19083E-03 15076   0.604E-02    0.312E-02
RMM:   8    -0.599960781951E+03   -0.51758E-04   -0.53485E-04 13003   0.285E-02    0.161E-02
RMM:   9    -0.599960789800E+03   -0.78488E-05   -0.14368E-04 10454   0.169E-02    0.395E-03
RMM:  10    -0.599960795783E+03   -0.59828E-05   -0.57830E-05  8529   0.807E-03
  23 F= -.59996080E+03 E0= -.59995261E+03  d E =-.821555E-01
 curvature:  -0.65 expect dE=-0.874E-01 dE for cont linesearch -0.178E-04
 trial: gam= 2.44107 g(F)=  0.135E+00 g(S)=  0.000E+00 ort = 0.247E-02 (trialstep = 0.206E+00)
 search vector abs. value=  0.147E+01
 bond charge predicted
       N       E                     dE             d eps       ncg     rms          rms(c)
DAV:   1    -0.599937350672E+03    0.23439E-01   -0.13572E+01 11216   0.542E+00    0.661E-01
RMM:   2    -0.599979608653E+03   -0.42258E-01   -0.47333E-01 13359   0.143E+00    0.273E-01
RMM:   3    -0.599989059909E+03   -0.94513E-02   -0.11114E-01 15272   0.560E-01    0.194E-01
RMM:   4    -0.599989964120E+03   -0.90421E-03   -0.13585E-02 15683   0.192E-01    0.158E-01
RMM:   5    -0.599989587580E+03    0.37654E-03   -0.30111E-03 13896   0.858E-02    0.367E-02
RMM:   6    -0.599989647255E+03   -0.59675E-04   -0.85959E-04 14815   0.438E-02    0.314E-02
RMM:   7    -0.599989647491E+03   -0.23572E-06   -0.20892E-04 12098   0.192E-02    0.116E-02
RMM:   8    -0.599989652415E+03   -0.49243E-05   -0.68097E-05  9359   0.134E-02
  24 F= -.59998965E+03 E0= -.59998224E+03  d E =-.288566E-01
 ZBRENT: can't locate minimum, use default step
 trial-energy change:   -0.028857  1 .order   -0.028538   -0.029048   -0.028028
 step:   0.8237(harm=  5.8621)  dis= 0.04679  next Energy=  -600.374240 (dE=-0.413E+00)
 bond charge predicted
       N       E                     dE             d eps       ncg     rms          rms(c)
DAV:   1    -0.599563020387E+03    0.42663E+00   -0.12227E+02 11136   0.163E+01    0.190E+00
RMM:   2    -0.599972913301E+03   -0.40989E+00   -0.45787E+00 13496   0.446E+00    0.688E-01
RMM:   3    -0.600070715994E+03   -0.97803E-01   -0.10623E+00 15398   0.174E+00    0.585E-01
RMM:   4    -0.600079457091E+03   -0.87411E-02   -0.12796E-01 15682   0.590E-01    0.484E-01
RMM:   5    -0.600075950949E+03    0.35061E-02   -0.27598E-02 14535   0.262E-01    0.119E-01
RMM:   6    -0.600076487912E+03   -0.53696E-03   -0.83178E-03 14285   0.139E-01    0.101E-01
RMM:   7    -0.600076496505E+03   -0.85936E-05   -0.22030E-03 15300   0.643E-02    0.320E-02
RMM:   8    -0.600076554338E+03   -0.57833E-04   -0.60707E-04 13366   0.301E-02    0.130E-02
RMM:   9    -0.600076568239E+03   -0.13901E-04   -0.17695E-04 10374   0.169E-02    0.377E-03
RMM:  10    -0.600076575224E+03   -0.69853E-05   -0.70832E-05  8822   0.914E-03
  25 F= -.60007658E+03 E0= -.60007248E+03  d E =-.115779E+00
 curvature:  -6.29 expect dE=-0.130E+01 dE for cont linesearch -0.754E-01
 ZBRENT: increasing intervall
 opt :   2.0594  next Energy=  -600.235989 (dE=-0.275E+00)
 bond charge predicted
       N       E                     dE             d eps       ncg     rms          rms(c)
DAV:   1    -0.597841203215E+03    0.22354E+01   -0.49183E+02 11249   0.328E+01    0.375E+00
RMM:   2    -0.599667883165E+03   -0.18267E+01   -0.20208E+01 13354   0.961E+00    0.129E+00
RMM:   3    -0.600155891988E+03   -0.48801E+00   -0.51925E+00 15523   0.383E+00    0.127E+00
RMM:   4    -0.600201947766E+03   -0.46056E-01   -0.67654E-01 15699   0.134E+00    0.104E+00
RMM:   5    -0.600187612422E+03    0.14335E-01   -0.11665E-01 15271   0.531E-01    0.411E-01
RMM:   6    -0.600187111743E+03    0.50068E-03   -0.47166E-02 13440   0.349E-01    0.213E-01
RMM:   7    -0.600187236239E+03   -0.12450E-03   -0.10194E-02 15614   0.145E-01    0.746E-02
RMM:   8    -0.600187475097E+03   -0.23886E-03   -0.26878E-03 14390   0.604E-02    0.359E-02
RMM:   9    -0.600187534630E+03   -0.59533E-04   -0.76457E-04 13509   0.326E-02    0.225E-02
RMM:  10    -0.600187555277E+03   -0.20647E-04   -0.28186E-04 10346   0.168E-02    0.619E-03
RMM:  11    -0.600187563769E+03   -0.84927E-05   -0.10062E-04  9059   0.106E-02    0.421E-03
RMM:  12    -0.600187567412E+03   -0.36424E-05   -0.40466E-05  8118   0.672E-03
  26 F= -.60018757E+03 E0= -.60017862E+03  d E =-.226772E+00
 curvature: -13.30 expect dE=-0.500E+01 dE for cont linesearch -0.475E-02
 trial: gam= 1.68840 g(F)=  0.376E+00 g(S)=  0.000E+00 ort = 0.229E-01 (trialstep = 0.182E+00)
 search vector abs. value=  0.463E+01
 bond charge predicted
       N       E                     dE             d eps       ncg     rms          rms(c)
DAV:   1    -0.600125105988E+03    0.62458E-01   -0.33864E+01 11784   0.826E+00    0.952E-01
RMM:   2    -0.600230806944E+03   -0.10570E+00   -0.11891E+00 13425   0.220E+00    0.341E-01
RMM:   3    -0.600255962003E+03   -0.25155E-01   -0.27275E-01 15386   0.855E-01    0.295E-01
RMM:   4    -0.600258321121E+03   -0.23591E-02   -0.33780E-02 15694   0.293E-01    0.244E-01
RMM:   5    -0.600257379286E+03    0.94184E-03   -0.77116E-03 13834   0.131E-01    0.558E-02
RMM:   6    -0.600257545578E+03   -0.16629E-03   -0.21717E-03 15063   0.673E-02    0.516E-02
RMM:   7    -0.600257547256E+03   -0.16789E-05   -0.54773E-04 13535   0.293E-02    0.177E-02
RMM:   8    -0.600257562838E+03   -0.15581E-04   -0.18197E-04 10965   0.187E-02    0.802E-03
RMM:   9    -0.600257566180E+03   -0.33423E-05   -0.56170E-05  9067   0.978E-03
  27 F= -.60025757E+03 E0= -.60024796E+03  d E =-.699988E-01
 trial-energy change:   -0.069999  1 .order   -0.068763   -0.075726   -0.061801
 step:   0.5085(harm=  0.9922)  dis= 0.06598  next Energy=  -600.319837 (dE=-0.132E+00)
 bond charge predicted
       N       E                     dE             d eps       ncg     rms          rms(c)
DAV:   1    -0.599872874509E+03    0.38469E+00   -0.10839E+02 11320   0.148E+01    0.157E+00
RMM:   2    -0.600233097561E+03   -0.36022E+00   -0.38528E+00 13380   0.400E+00    0.534E-01
RMM:   3    -0.600326595818E+03   -0.93498E-01   -0.97506E-01 15380   0.158E+00    0.505E-01
RMM:   4    -0.600334454963E+03   -0.78591E-02   -0.11356E-01 15694   0.539E-01    0.387E-01
RMM:   5    -0.600332552169E+03    0.19028E-02   -0.24269E-02 14507   0.236E-01    0.976E-02
RMM:   6    -0.600333083461E+03   -0.53129E-03   -0.64037E-03 14818   0.116E-01    0.907E-02
RMM:   7    -0.600333108701E+03   -0.25239E-04   -0.18561E-03 14723   0.540E-02    0.234E-02
RMM:   8    -0.600333159807E+03   -0.51106E-04   -0.50923E-04 12658   0.276E-02    0.148E-02
RMM:   9    -0.600333171630E+03   -0.11823E-04   -0.16650E-04 10055   0.152E-02    0.276E-03
RMM:  10    -0.600333177453E+03   -0.58232E-05   -0.63739E-05  8827   0.910E-03
  28 F= -.60033318E+03 E0= -.60032585E+03  d E =-.145610E+00
 curvature:  -3.56 expect dE=-0.106E+01 dE for cont linesearch -0.516E-02
 ZBRENT: extrapolating
 opt :   0.6125  next Energy=  -600.337436 (dE=-0.150E+00)
 bond charge predicted
       N       E                     dE             d eps       ncg     rms          rms(c)
DAV:   1    -0.600292563518E+03    0.40608E-01   -0.11032E+01 11816   0.467E+00    0.488E-01
RMM:   2    -0.600326940950E+03   -0.34377E-01   -0.36071E-01 13344   0.122E+00    0.166E-01
RMM:   3    -0.600335332442E+03   -0.83915E-02   -0.87880E-02 15327   0.477E-01    0.159E-01
RMM:   4    -0.600336072380E+03   -0.73994E-03   -0.10593E-02 15676   0.163E-01    0.118E-01
RMM:   5    -0.600335920241E+03    0.15214E-03   -0.23790E-03 14112   0.710E-02    0.372E-02
RMM:   6    -0.600335963792E+03   -0.43551E-04   -0.59574E-04 14581   0.341E-02    0.283E-02
RMM:   7    -0.600335966869E+03   -0.30767E-05   -0.16937E-04 10669   0.157E-02    0.714E-03
RMM:   8    -0.600335971876E+03   -0.50075E-05   -0.53876E-05  8938   0.110E-02
  29 F= -.60033597E+03 E0= -.60032884E+03  d E =-.148404E+00
 curvature:  -2.94 expect dE=-0.883E+00 dE for cont linesearch -0.104E-02
 trial: gam= 0.11576 g(F)=  0.300E+00 g(S)=  0.000E+00 ort =-0.405E-01 (trialstep = 0.268E+00)
 search vector abs. value=  0.353E+00
 bond charge predicted
       N       E                     dE             d eps       ncg     rms          rms(c)
DAV:   1    -0.600384353898E+03   -0.48387E-01   -0.55834E+00 11184   0.349E+00    0.350E-01
RMM:   2    -0.600404347331E+03   -0.19993E-01   -0.20762E-01 13659   0.966E-01    0.114E-01
RMM:   3    -0.600408795010E+03   -0.44477E-02   -0.46937E-02 15490   0.363E-01    0.120E-01
RMM:   4    -0.600409084218E+03   -0.28921E-03   -0.53692E-03 15625   0.123E-01    0.756E-02
RMM:   5    -0.600409036462E+03    0.47756E-04   -0.12330E-03 14809   0.545E-02    0.235E-02
RMM:   6    -0.600409059655E+03   -0.23193E-04   -0.29054E-04 13643   0.255E-02    0.186E-02
RMM:   7    -0.600409062122E+03   -0.24668E-05   -0.85070E-05  9873   0.129E-02
  30 F= -.60040906E+03 E0= -.60040199E+03  d E =-.730902E-01
 trial-energy change:   -0.073090  1 .order   -0.072672   -0.079316   -0.066029
 step:   1.0395(harm=  1.6026)  dis= 0.02718  next Energy=  -600.513767 (dE=-0.178E+00)
 bond charge predicted
       N       E                     dE             d eps       ncg     rms          rms(c)
DAV:   1    -0.600330743262E+03    0.78316E-01   -0.45993E+01 11008   0.100E+01    0.101E+00
RMM:   2    -0.600502763882E+03   -0.17202E+00   -0.17854E+00 13694   0.285E+00    0.328E-01
RMM:   3    -0.600543714116E+03   -0.40950E-01   -0.42986E-01 15505   0.109E+00    0.351E-01
RMM:   4    -0.600546538687E+03   -0.28246E-02   -0.48603E-02 15749   0.365E-01    0.225E-01
RMM:   5    -0.600546075749E+03    0.46294E-03   -0.10524E-02 14761   0.161E-01    0.636E-02
RMM:   6    -0.600546302953E+03   -0.22720E-03   -0.25286E-03 15069   0.764E-02    0.570E-02
RMM:   7    -0.600546326575E+03   -0.23621E-04   -0.79833E-04 14538   0.364E-02    0.152E-02
RMM:   8    -0.600546347895E+03   -0.21320E-04   -0.20939E-04 10956   0.175E-02    0.154E-02
RMM:   9    -0.600546348942E+03   -0.10473E-05   -0.73071E-05  9342   0.114E-02
  31 F= -.60054635E+03 E0= -.60053928E+03  d E =-.210377E+00
 curvature:  -0.79 expect dE=-0.141E+00 dE for cont linesearch -0.255E-01
 ZBRENT: increasing intervall
 opt :   2.5815  next Energy=  -600.496731 (dE=-0.161E+00)
 bond charge predicted
       N       E                     dE             d eps       ncg     rms          rms(c)
DAV:   1    -0.599572847067E+03    0.97350E+00   -0.18390E+02 10975   0.201E+01    0.205E+00
RMM:   2    -0.600300876773E+03   -0.72803E+00   -0.75815E+00 13805   0.590E+00    0.666E-01
RMM:   3    -0.600481745077E+03   -0.18087E+00   -0.18904E+00 15543   0.227E+00    0.720E-01
RMM:   4    -0.600494758166E+03   -0.13013E-01   -0.22309E-01 15753   0.768E-01    0.457E-01
RMM:   5    -0.600493087693E+03    0.16705E-02   -0.43860E-02 15100   0.327E-01    0.111E-01
RMM:   6    -0.600494032249E+03   -0.94456E-03   -0.10459E-02 14039   0.164E-01    0.114E-01
RMM:   7    -0.600494217763E+03   -0.18551E-03   -0.41802E-03 14894   0.856E-02    0.350E-02
RMM:   8    -0.600494300028E+03   -0.82264E-04   -0.83230E-04 13158   0.332E-02    0.370E-02
RMM:   9    -0.600494295099E+03    0.49282E-05   -0.31088E-04 11518   0.211E-02    0.722E-03
RMM:  10    -0.600494304468E+03   -0.93682E-05   -0.10603E-04  9554   0.108E-02    0.394E-03
RMM:  11    -0.600494307553E+03   -0.30854E-05   -0.38909E-05  8317   0.723E-03
  32 F= -.60049431E+03 E0= -.60048748E+03  d E =-.158336E+00
 curvature:   1.53 expect dE= 0.123E+01 dE for cont linesearch  0.138E+00
 ZBRENT: bracketing found
 ZBRENT: interpolating
 opt :   1.6178  next Energy=  -600.577257 (dE=-0.241E+00)
 bond charge predicted
       N       E                     dE             d eps       ncg     rms          rms(c)
DAV:   1    -0.600237976534E+03    0.25633E+00   -0.71860E+01 10853   0.125E+01    0.127E+00
RMM:   2    -0.600509996207E+03   -0.27202E+00   -0.28233E+00 13696   0.358E+00    0.409E-01
RMM:   3    -0.600574150457E+03   -0.64154E-01   -0.67518E-01 15454   0.136E+00    0.438E-01
RMM:   4    -0.600578596116E+03   -0.44457E-02   -0.77114E-02 15743   0.461E-01    0.280E-01
RMM:   5    -0.600577913903E+03    0.68221E-03   -0.16409E-02 14886   0.202E-01    0.753E-02
RMM:   6    -0.600578263043E+03   -0.34914E-03   -0.38697E-03 15003   0.962E-02    0.693E-02
RMM:   7    -0.600578303938E+03   -0.40895E-04   -0.12281E-03 14883   0.462E-02    0.197E-02
RMM:   8    -0.600578336842E+03   -0.32904E-04   -0.31714E-04 11984   0.214E-02    0.196E-02
RMM:   9    -0.600578337794E+03   -0.95202E-06   -0.10709E-04 10064   0.137E-02    0.357E-03
RMM:  10    -0.600578341446E+03   -0.36523E-05   -0.41225E-05  8686   0.735E-03
  33 F= -.60057834E+03 E0= -.60057131E+03  d E =-.242370E+00
 curvature:  -0.34 expect dE=-0.104E+00 dE for cont linesearch -0.105E-04
 trial: gam= 0.90437 g(F)=  0.301E+00 g(S)=  0.000E+00 ort = 0.328E-02 (trialstep = 0.319E+00)
 search vector abs. value=  0.596E+00
 bond charge predicted
       N       E                     dE             d eps       ncg     rms          rms(c)
DAV:   1    -0.600606949422E+03   -0.28612E-01   -0.13419E+01 10968   0.538E+00    0.577E-01
RMM:   2    -0.600653257796E+03   -0.46308E-01   -0.48314E-01 13495   0.144E+00    0.180E-01
RMM:   3    -0.600663591000E+03   -0.10333E-01   -0.10832E-01 15435   0.547E-01    0.188E-01
RMM:   4    -0.600664324237E+03   -0.73324E-03   -0.12060E-02 15671   0.184E-01    0.134E-01
RMM:   5    -0.600664116698E+03    0.20754E-03   -0.28684E-03 14394   0.816E-02    0.387E-02
RMM:   6    -0.600664171209E+03   -0.54511E-04   -0.66171E-04 14861   0.389E-02    0.319E-02
RMM:   7    -0.600664174180E+03   -0.29708E-05   -0.19678E-04 11973   0.180E-02    0.797E-03
RMM:   8    -0.600664180077E+03   -0.58969E-05   -0.60682E-05  9267   0.120E-02
  34 F= -.60066418E+03 E0= -.60065719E+03  d E =-.858386E-01
 trial-energy change:   -0.085839  1 .order   -0.085455   -0.096966   -0.073945
 step:   1.0837(harm=  1.3432)  dis= 0.02983  next Energy=  -600.758131 (dE=-0.180E+00)
 bond charge predicted
       N       E                     dE             d eps       ncg     rms          rms(c)
DAV:   1    -0.600437307204E+03    0.22687E+00   -0.77098E+01 11021   0.129E+01    0.138E+00
RMM:   2    -0.600712609066E+03   -0.27530E+00   -0.28715E+00 13525   0.354E+00    0.433E-01
RMM:   3    -0.600776670789E+03   -0.64062E-01   -0.66920E-01 15470   0.136E+00    0.457E-01
RMM:   4    -0.600781076226E+03   -0.44054E-02   -0.74352E-02 15695   0.455E-01    0.312E-01
RMM:   5    -0.600780018360E+03    0.10579E-02   -0.16841E-02 14610   0.201E-01    0.817E-02
RMM:   6    -0.600780384719E+03   -0.36636E-03   -0.39884E-03 15108   0.963E-02    0.743E-02
RMM:   7    -0.600780417566E+03   -0.32847E-04   -0.12702E-03 14782   0.448E-02    0.184E-02
RMM:   8    -0.600780448681E+03   -0.31115E-04   -0.30806E-04 11375   0.206E-02    0.180E-02
RMM:   9    -0.600780452111E+03   -0.34300E-05   -0.11052E-04  9738   0.126E-02    0.290E-03
RMM:  10    -0.600780455923E+03   -0.38123E-05   -0.41027E-05  8473   0.733E-03
  35 F= -.60078046E+03 E0= -.60077381E+03  d E =-.202114E+00
 curvature:  -1.23 expect dE=-0.144E+00 dE for cont linesearch -0.918E-02
 ZBRENT: extrapolating
 opt :   1.3921  next Energy=  -600.790733 (dE=-0.212E+00)
 bond charge predicted
       N       E                     dE             d eps       ncg     rms          rms(c)
DAV:   1    -0.600737210965E+03    0.43241E-01   -0.12561E+01 11680   0.520E+00    0.555E-01
RMM:   2    -0.600780541756E+03   -0.43331E-01   -0.45188E-01 13492   0.139E+00    0.174E-01
RMM:   3    -0.600790036164E+03   -0.94944E-02   -0.99507E-02 15420   0.526E-01    0.180E-01
RMM:   4    -0.600790668515E+03   -0.63235E-03   -0.11327E-02 15625   0.178E-01    0.120E-01
RMM:   5    -0.600790529705E+03    0.13881E-03   -0.26242E-03 14544   0.782E-02    0.331E-02
RMM:   6    -0.600790583446E+03   -0.53741E-04   -0.61520E-04 14821   0.371E-02    0.274E-02
RMM:   7    -0.600790589786E+03   -0.63399E-05   -0.18670E-04 11749   0.176E-02    0.695E-03
RMM:   8    -0.600790595209E+03   -0.54235E-05   -0.55455E-05  9082   0.111E-02
  36 F= -.60079060E+03 E0= -.60078412E+03  d E =-.212254E+00
 curvature:  -1.38 expect dE=-0.239E+00 dE for cont linesearch -0.575E-04
 trial: gam= 0.58175 g(F)=  0.173E+00 g(S)=  0.000E+00 ort =-0.498E-02 (trialstep = 0.534E+00)
 search vector abs. value=  0.369E+00
 bond charge predicted
       N       E                     dE             d eps       ncg     rms          rms(c)
DAV:   1    -0.600761606753E+03    0.28983E-01   -0.23280E+01 11136   0.710E+00    0.750E-01
RMM:   2    -0.600841047067E+03   -0.79440E-01   -0.83064E-01 13411   0.191E+00    0.237E-01
RMM:   3    -0.600859580585E+03   -0.18534E-01   -0.19473E-01 15421   0.736E-01    0.246E-01
RMM:   4    -0.600860905834E+03   -0.13252E-02   -0.21868E-02 15649   0.246E-01    0.169E-01
RMM:   5    -0.600860603248E+03    0.30259E-03   -0.50183E-03 14404   0.109E-01    0.526E-02
RMM:   6    -0.600860696072E+03   -0.92823E-04   -0.11909E-03 15028   0.516E-02    0.413E-02
RMM:   7    -0.600860704211E+03   -0.81398E-05   -0.38677E-04 13020   0.246E-02    0.132E-02
RMM:   8    -0.600860712416E+03   -0.82047E-05   -0.97926E-05  9758   0.142E-02
  37 F= -.60086071E+03 E0= -.60085443E+03  d E =-.701172E-01
 trial-energy change:   -0.070117  1 .order   -0.069125   -0.090852   -0.047397
 step:   0.9969(harm=  1.1155)  dis= 0.02380  next Energy=  -600.881942 (dE=-0.913E-01)
 bond charge predicted
       N       E                     dE             d eps       ncg     rms          rms(c)
DAV:   1    -0.600812572468E+03    0.48132E-01   -0.17557E+01 11376   0.617E+00    0.650E-01
RMM:   2    -0.600872225824E+03   -0.59653E-01   -0.62343E-01 13398   0.165E+00    0.205E-01
RMM:   3    -0.600886108203E+03   -0.13882E-01   -0.14582E-01 15409   0.638E-01    0.213E-01
RMM:   4    -0.600887105477E+03   -0.99727E-03   -0.16483E-02 15620   0.213E-01    0.146E-01
RMM:   5    -0.600886891107E+03    0.21437E-03   -0.38201E-03 14403   0.944E-02    0.465E-02
RMM:   6    -0.600886960037E+03   -0.68930E-04   -0.90477E-04 15010   0.447E-02    0.356E-02
RMM:   7    -0.600886966937E+03   -0.69000E-05   -0.29402E-04 12588   0.213E-02    0.114E-02
RMM:   8    -0.600886973324E+03   -0.63877E-05   -0.76266E-05  9375   0.129E-02
  38 F= -.60088697E+03 E0= -.60088081E+03  d E =-.963781E-01
 curvature:  -1.16 expect dE=-0.790E-01 dE for cont linesearch -0.132E-02
 ZBRENT: extrapolating
 opt :   1.1359  next Energy=  -600.888398 (dE=-0.978E-01)
 bond charge predicted
       N       E                     dE             d eps       ncg     rms          rms(c)
DAV:   1    -0.600882188613E+03    0.47783E-02   -0.15817E+00 11776   0.185E+00    0.194E-01
RMM:   2    -0.600887497341E+03   -0.53087E-02   -0.55451E-02 13410   0.489E-01    0.611E-02
RMM:   3    -0.600888688234E+03   -0.11909E-02   -0.12552E-02 15399   0.187E-01    0.634E-02
RMM:   4    -0.600888770904E+03   -0.82670E-04   -0.14188E-03 15364   0.629E-02    0.430E-02
RMM:   5    -0.600888755019E+03    0.15885E-04   -0.36123E-04 13135   0.289E-02    0.149E-02
RMM:   6    -0.600888759280E+03   -0.42617E-05   -0.73984E-05 10139   0.136E-02
  39 F= -.60088876E+03 E0= -.60088262E+03  d E =-.981641E-01
 curvature:  -1.25 expect dE=-0.104E+00 dE for cont linesearch -0.308E-05
 trial: gam= 0.45288 g(F)=  0.832E-01 g(S)=  0.000E+00 ort = 0.953E-03 (trialstep = 0.654E+00)
 search vector abs. value=  0.160E+00
 bond charge predicted
       N       E                     dE             d eps       ncg     rms          rms(c)
DAV:   1    -0.600868465924E+03    0.20289E-01   -0.15010E+01 11055   0.577E+00    0.586E-01
RMM:   2    -0.600919321416E+03   -0.50855E-01   -0.53005E-01 13368   0.155E+00    0.190E-01
RMM:   3    -0.600930991994E+03   -0.11671E-01   -0.12302E-01 15391   0.598E-01    0.199E-01
RMM:   4    -0.600931767589E+03   -0.77560E-03   -0.13938E-02 15639   0.200E-01    0.130E-01
RMM:   5    -0.600931620928E+03    0.14666E-03   -0.32345E-03 14725   0.872E-02    0.428E-02
RMM:   6    -0.600931674737E+03   -0.53809E-04   -0.69840E-04 14968   0.404E-02    0.322E-02
RMM:   7    -0.600931680758E+03   -0.60213E-05   -0.23776E-04 12520   0.199E-02    0.104E-02
RMM:   8    -0.600931686936E+03   -0.61783E-05   -0.61186E-05  9121   0.117E-02
  40 F= -.60093169E+03 E0= -.60092543E+03  d E =-.429277E-01
 trial-energy change:   -0.042928  1 .order   -0.042169   -0.054707   -0.029631
 step:   1.2302(harm=  1.4268)  dis= 0.02343  next Energy=  -600.945257 (dE=-0.565E-01)
 bond charge predicted
       N       E                     dE             d eps       ncg     rms          rms(c)
DAV:   1    -0.600899974790E+03    0.31706E-01   -0.11642E+01 11360   0.508E+00    0.515E-01
RMM:   2    -0.600939230576E+03   -0.39256E-01   -0.40909E-01 13369   0.136E+00    0.167E-01
RMM:   3    -0.600948290580E+03   -0.90600E-02   -0.95558E-02 15406   0.526E-01    0.175E-01
RMM:   4    -0.600948891400E+03   -0.60082E-03   -0.10660E-02 15624   0.175E-01    0.116E-01
RMM:   5    -0.600948775715E+03    0.11569E-03   -0.25210E-03 14661   0.765E-02    0.391E-02
RMM:   6    -0.600948815700E+03   -0.39985E-04   -0.54446E-04 14802   0.356E-02    0.288E-02
RMM:   7    -0.600948820082E+03   -0.43822E-05   -0.18575E-04 11972   0.176E-02    0.897E-03
RMM:   8    -0.600948825082E+03   -0.49998E-05   -0.49305E-05  8915   0.109E-02
  41 F= -.60094883E+03 E0= -.60094242E+03  d E =-.600658E-01
 curvature:  -1.27 expect dE=-0.598E-01 dE for cont linesearch -0.106E-02
 ZBRENT: extrapolating
 opt :   1.4266  next Energy=  -600.949957 (dE=-0.612E-01)
 bond charge predicted
       N       E                     dE             d eps       ncg     rms          rms(c)
DAV:   1    -0.600944600877E+03    0.42192E-02   -0.13543E+00 11664   0.173E+00    0.175E-01
RMM:   2    -0.600949126108E+03   -0.45252E-02   -0.47144E-02 13354   0.458E-01    0.567E-02
RMM:   3    -0.600950142726E+03   -0.10166E-02   -0.10767E-02 15375   0.176E-01    0.595E-02
RMM:   4    -0.600950208169E+03   -0.65443E-04   -0.12109E-03 15380   0.591E-02    0.387E-02
RMM:   5    -0.600950198165E+03    0.10004E-04   -0.30967E-04 12965   0.269E-02    0.141E-02
RMM:   6    -0.600950200908E+03   -0.27436E-05   -0.57846E-05  9656   0.127E-02
  42 F= -.60095020E+03 E0= -.60094374E+03  d E =-.614416E-01
 curvature:  -1.36 expect dE=-0.842E-01 dE for cont linesearch -0.825E-09
 trial: gam= 0.76248 g(F)=  0.618E-01 g(S)=  0.000E+00 ort = 0.984E-05 (trialstep = 0.809E+00)
 search vector abs. value=  0.155E+00
 bond charge predicted
       N       E                     dE             d eps       ncg     rms          rms(c)
DAV:   1    -0.600892454240E+03    0.57744E-01   -0.22615E+01 11031   0.708E+00    0.720E-01
RMM:   2    -0.600966336222E+03   -0.73882E-01   -0.77214E-01 13302   0.188E+00    0.231E-01
RMM:   3    -0.600984119473E+03   -0.17783E-01   -0.18727E-01 15310   0.738E-01    0.242E-01
RMM:   4    -0.600985373474E+03   -0.12540E-02   -0.21175E-02 15689   0.247E-01    0.165E-01
RMM:   5    -0.600985104381E+03    0.26909E-03   -0.46640E-03 14489   0.106E-01    0.513E-02
RMM:   6    -0.600985194855E+03   -0.90473E-04   -0.10751E-03 15121   0.507E-02    0.426E-02
RMM:   7    -0.600985197432E+03   -0.25773E-05   -0.35080E-04 13287   0.245E-02    0.133E-02
RMM:   8    -0.600985206792E+03   -0.93597E-05   -0.87966E-05  9591   0.129E-02
  43 F= -.60098521E+03 E0= -.60097870E+03  d E =-.350059E-01
 trial-energy change:   -0.035006  1 .order   -0.034136   -0.050001   -0.018271
 step:   1.1837(harm=  1.2741)  dis= 0.01754  next Energy=  -600.989533 (dE=-0.393E-01)
 bond charge predicted
       N       E                     dE             d eps       ncg     rms          rms(c)
DAV:   1    -0.600971413599E+03    0.13784E-01   -0.48685E+00 11632   0.328E+00    0.332E-01
RMM:   2    -0.600987004035E+03   -0.15590E-01   -0.16286E-01 13264   0.858E-01    0.107E-01
RMM:   3    -0.600990705946E+03   -0.37019E-02   -0.39055E-02 15289   0.337E-01    0.111E-01
RMM:   4    -0.600990973246E+03   -0.26730E-03   -0.44527E-03 15663   0.113E-01    0.755E-02
RMM:   5    -0.600990921438E+03    0.51808E-04   -0.10153E-03 14431   0.486E-02    0.264E-02
RMM:   6    -0.600990937175E+03   -0.15737E-04   -0.22236E-04 13348   0.229E-02    0.194E-02
RMM:   7    -0.600990937632E+03   -0.45700E-06   -0.72701E-05  9817   0.120E-02
  44 F= -.60099094E+03 E0= -.60098440E+03  d E =-.407367E-01
 curvature:  -1.53 expect dE=-0.515E-01 dE for cont linesearch -0.253E-03
 trial: gam= 0.47027 g(F)=  0.336E-01 g(S)=  0.000E+00 ort = 0.505E-02 (trialstep = 0.884E+00)
 search vector abs. value=  0.726E-01
 bond charge predicted
       N       E                     dE             d eps       ncg     rms          rms(c)
DAV:   1    -0.600959646124E+03    0.31291E-01   -0.12209E+01 10943   0.526E+00    0.511E-01
RMM:   2    -0.601001452168E+03   -0.41806E-01   -0.43454E-01 13523   0.144E+00    0.168E-01
RMM:   3    -0.601011861888E+03   -0.10410E-01   -0.10953E-01 15407   0.559E-01    0.176E-01
RMM:   4    -0.601012644907E+03   -0.78302E-03   -0.11796E-02 15760   0.184E-01    0.124E-01
RMM:   5    -0.601012450974E+03    0.19393E-03   -0.26601E-03 14245   0.796E-02    0.417E-02
RMM:   6    -0.601012501503E+03   -0.50530E-04   -0.64613E-04 15148   0.387E-02    0.341E-02
RMM:   7    -0.601012499607E+03    0.18958E-05   -0.19419E-04 12468   0.183E-02    0.849E-03
RMM:   8    -0.601012505112E+03   -0.55042E-05   -0.53823E-05  9013   0.111E-02
  45 F= -.60101251E+03 E0= -.60100560E+03  d E =-.215675E-01
 trial-energy change:   -0.021567  1 .order   -0.020710   -0.031777   -0.009644
 step:   1.1775(harm=  1.2686)  dis= 0.01423  next Energy=  -601.014141 (dE=-0.232E-01)
 bond charge predicted
       N       E                     dE             d eps       ncg     rms          rms(c)
DAV:   1    -0.601009057419E+03    0.34422E-02   -0.13523E+00 11624   0.175E+00    0.169E-01
RMM:   2    -0.601013598651E+03   -0.45412E-02   -0.47183E-02 13501   0.471E-01    0.556E-02
RMM:   3    -0.601014704106E+03   -0.11055E-02   -0.11673E-02 15391   0.182E-01    0.577E-02
RMM:   4    -0.601014788237E+03   -0.84131E-04   -0.12660E-03 15416   0.605E-02    0.407E-02
RMM:   5    -0.601014770406E+03    0.17831E-04   -0.32092E-04 13103   0.276E-02    0.154E-02
RMM:   6    -0.601014773765E+03   -0.33587E-05   -0.63979E-05 10007   0.131E-02
  46 F= -.60101477E+03 E0= -.60100775E+03  d E =-.238361E-01
 curvature:  -1.21 expect dE=-0.236E-01 dE for cont linesearch -0.116E-03
 trial: gam= 0.61280 g(F)=  0.195E-01 g(S)=  0.000E+00 ort = 0.264E-02 (trialstep = 0.942E+00)
 search vector abs. value=  0.500E-01
 bond charge predicted
       N       E                     dE             d eps       ncg     rms          rms(c)
DAV:   1    -0.600987398637E+03    0.27372E-01   -0.96206E+00 10959   0.459E+00    0.475E-01
RMM:   2    -0.601019769877E+03   -0.32371E-01   -0.33687E-01 13427   0.122E+00    0.149E-01
RMM:   3    -0.601027373288E+03   -0.76034E-02   -0.79436E-02 15429   0.470E-01    0.158E-01
RMM:   4    -0.601027920882E+03   -0.54759E-03   -0.89093E-03 15686   0.157E-01    0.112E-01
RMM:   5    -0.601027792925E+03    0.12796E-03   -0.20981E-03 14338   0.683E-02    0.379E-02
RMM:   6    -0.601027825001E+03   -0.32076E-04   -0.46225E-04 14542   0.325E-02    0.284E-02
RMM:   7    -0.601027826125E+03   -0.11240E-05   -0.15654E-04 11665   0.160E-02    0.757E-03
RMM:   8    -0.601027830869E+03   -0.47448E-05   -0.43525E-05  8647   0.103E-02
  47 F= -.60102783E+03 E0= -.60102083E+03  d E =-.130571E-01
 trial-energy change:   -0.013057  1 .order   -0.012506   -0.019906   -0.005106
 step:   1.1957(harm=  1.2675)  dis= 0.01179  next Energy=  -601.028528 (dE=-0.138E-01)
 bond charge predicted
       N       E                     dE             d eps       ncg     rms          rms(c)
DAV:   1    -0.601025980225E+03    0.18459E-02   -0.69506E-01 11800   0.123E+00    0.126E-01
RMM:   2    -0.601028285473E+03   -0.23052E-02   -0.23975E-02 13415   0.323E-01    0.398E-02
RMM:   3    -0.601028817561E+03   -0.53209E-03   -0.55629E-03 15373   0.124E-01    0.420E-02
RMM:   4    -0.601028856084E+03   -0.38523E-04   -0.63470E-04 15049   0.419E-02    0.299E-02
RMM:   5    -0.601028849023E+03    0.70615E-05   -0.16908E-04 12071   0.201E-02    0.108E-02
RMM:   6    -0.601028850598E+03   -0.15755E-05   -0.33755E-05  8618   0.962E-03
  48 F= -.60102885E+03 E0= -.60102185E+03  d E =-.140768E-01
 curvature:  -1.43 expect dE=-0.148E-01 dE for cont linesearch -0.552E-04
 trial: gam= 0.55138 g(F)=  0.103E-01 g(S)=  0.000E+00 ort = 0.139E-02 (trialstep = 0.993E+00)
 search vector abs. value=  0.271E-01
 bond charge predicted
       N       E                     dE             d eps       ncg     rms          rms(c)
DAV:   1    -0.601013173091E+03    0.15676E-01   -0.58019E+00 11077   0.356E+00    0.369E-01
RMM:   2    -0.601031995679E+03   -0.18823E-01   -0.19584E-01 13264   0.925E-01    0.116E-01
RMM:   3    -0.601036389599E+03   -0.43939E-02   -0.45795E-02 15343   0.361E-01    0.120E-01
RMM:   4    -0.601036710461E+03   -0.32086E-03   -0.52830E-03 15604   0.120E-01    0.806E-02
RMM:   5    -0.601036663709E+03    0.46752E-04   -0.12133E-03 14308   0.517E-02    0.311E-02
RMM:   6    -0.601036676946E+03   -0.13237E-04   -0.25769E-04 13521   0.237E-02    0.188E-02
RMM:   7    -0.601036679717E+03   -0.27714E-05   -0.86318E-05  9602   0.121E-02
  49 F= -.60103668E+03 E0= -.60102966E+03  d E =-.782912E-02
 trial-energy change:   -0.007829  1 .order   -0.007408   -0.011033   -0.003783
 step:   1.3450(harm=  1.5112)  dis= 0.00957  next Energy=  -601.037369 (dE=-0.852E-02)
 bond charge predicted
       N       E                     dE             d eps       ncg     rms          rms(c)
DAV:   1    -0.601034832651E+03    0.18443E-02   -0.73033E-01 11680   0.126E+00    0.128E-01
RMM:   2    -0.601037201988E+03   -0.23693E-02   -0.24642E-02 13261   0.327E-01    0.412E-02
RMM:   3    -0.601037751056E+03   -0.54907E-03   -0.57695E-03 15335   0.127E-01    0.437E-02
RMM:   4    -0.601037790619E+03   -0.39563E-04   -0.66395E-04 14947   0.426E-02    0.296E-02
RMM:   5    -0.601037785848E+03    0.47707E-05   -0.17611E-04 12149   0.204E-02    0.121E-02
RMM:   6    -0.601037786632E+03   -0.78335E-06   -0.34385E-05  8713   0.958E-03
  50 F= -.60103779E+03 E0= -.60103076E+03  d E =-.893603E-02
 curvature:  -1.65 expect dE=-0.901E-02 dE for cont linesearch -0.135E-03
 ZBRENT: increasing intervall
 opt :   2.0491  next Energy=  -601.037198 (dE=-0.835E-02)
 bond charge predicted
       N       E                     dE             d eps       ncg     rms          rms(c)
DAV:   1    -0.601025486417E+03    0.12299E-01   -0.29184E+00 11071   0.252E+00    0.261E-01
RMM:   2    -0.601034961523E+03   -0.94751E-02   -0.98567E-02 13281   0.655E-01    0.826E-02
RMM:   3    -0.601037169987E+03   -0.22085E-02   -0.23046E-02 15359   0.255E-01    0.859E-02
RMM:   4    -0.601037330290E+03   -0.16030E-03   -0.26364E-03 15526   0.851E-02    0.579E-02
RMM:   5    -0.601037307152E+03    0.23138E-04   -0.62907E-04 13864   0.372E-02    0.230E-02
RMM:   6    -0.601037312571E+03   -0.54190E-05   -0.12758E-04 11540   0.172E-02    0.136E-02
RMM:   7    -0.601037313963E+03   -0.13924E-05   -0.45203E-05  8787   0.984E-03
  51 F= -.60103731E+03 E0= -.60103027E+03  d E =-.846336E-02
 curvature:   7.20 expect dE= 0.995E-01 dE for cont linesearch  0.345E-02
 ZBRENT: bracketing found
 ZBRENT: interpolating
 opt :   1.5509  next Energy=  -601.037940 (dE=-0.909E-02)
 bond charge predicted
       N       E                     dE             d eps       ncg     rms          rms(c)
DAV:   1    -0.601032133070E+03    0.51795E-02   -0.14566E+00 10960   0.178E+00    0.189E-01
RMM:   2    -0.601036845246E+03   -0.47122E-02   -0.49055E-02 13281   0.464E-01    0.586E-02
RMM:   3    -0.601037940881E+03   -0.10956E-02   -0.11416E-02 15374   0.180E-01    0.599E-02
RMM:   4    -0.601038017999E+03   -0.77118E-04   -0.12741E-03 15402   0.599E-02    0.401E-02
RMM:   5    -0.601038005597E+03    0.12402E-04   -0.30364E-04 12972   0.268E-02    0.154E-02
RMM:   6    -0.601038007883E+03   -0.22868E-05   -0.57241E-05  9625   0.125E-02
  52 F= -.60103801E+03 E0= -.60103098E+03  d E =-.915729E-02
 curvature:  -0.32 expect dE=-0.231E-02 dE for cont linesearch -0.826E-05
 trial: gam= 0.70275 g(F)=  0.721E-02 g(S)=  0.000E+00 ort = 0.836E-03 (trialstep = 0.110E+01)
 search vector abs. value=  0.218E-01
 bond charge predicted
       N       E                     dE             d eps       ncg     rms          rms(c)
DAV:   1    -0.601019423074E+03    0.18583E-01   -0.57596E+00 11175   0.362E+00    0.355E-01
RMM:   2    -0.601038206041E+03   -0.18783E-01   -0.19485E-01 13396   0.954E-01    0.116E-01
RMM:   3    -0.601042702866E+03   -0.44968E-02   -0.46421E-02 15307   0.371E-01    0.113E-01
RMM:   4    -0.601043071174E+03   -0.36831E-03   -0.54456E-03 15680   0.125E-01    0.807E-02
RMM:   5    -0.601043006789E+03    0.64385E-04   -0.11380E-03 14310   0.519E-02    0.264E-02
RMM:   6    -0.601043026707E+03   -0.19919E-04   -0.25886E-04 13746   0.248E-02    0.200E-02
RMM:   7    -0.601043027231E+03   -0.52379E-06   -0.78930E-05  9958   0.126E-02
  53 F= -.60104303E+03 E0= -.60103604E+03  d E =-.501935E-02
 trial-energy change:   -0.005019  1 .order   -0.004926   -0.008610   -0.001243
 step:   1.2759(harm=  1.2909)  dis= 0.00621  next Energy=  -601.043124 (dE=-0.512E-02)
 bond charge predicted
       N       E                     dE             d eps       ncg     rms          rms(c)
DAV:   1    -0.601042669122E+03    0.35759E-03   -0.13985E-01 12056   0.563E-01    0.504E-02
RMM:   2    -0.601043130144E+03   -0.46102E-03   -0.47893E-03 13386   0.149E-01    0.181E-02
RMM:   3    -0.601043238673E+03   -0.10853E-03   -0.11408E-03 15075   0.579E-02    0.193E-02
RMM:   4    -0.601043246760E+03   -0.80873E-05   -0.14086E-04 12765   0.209E-02    0.138E-02
RMM:   5    -0.601043245681E+03    0.10791E-05   -0.44382E-05  9299   0.126E-02
  54 F= -.60104325E+03 E0= -.60103626E+03  d E =-.523780E-02
 curvature:  -1.79 expect dE=-0.736E-02 dE for cont linesearch -0.319E-04
 trial: gam= 0.47664 g(F)=  0.411E-02 g(S)=  0.000E+00 ort = 0.623E-03 (trialstep = 0.114E+01)
 search vector abs. value=  0.965E-02
 bond charge predicted
       N       E                     dE             d eps       ncg     rms          rms(c)
DAV:   1    -0.601035420491E+03    0.78263E-02   -0.27526E+00 11215   0.251E+00    0.242E-01
RMM:   2    -0.601044521512E+03   -0.91010E-02   -0.94541E-02 13413   0.665E-01    0.781E-02
RMM:   3    -0.601046597094E+03   -0.20756E-02   -0.21566E-02 15263   0.255E-01    0.794E-02
RMM:   4    -0.601046763940E+03   -0.16685E-03   -0.25846E-03 15590   0.868E-02    0.555E-02
RMM:   5    -0.601046733184E+03    0.30756E-04   -0.56976E-04 14282   0.368E-02    0.181E-02
RMM:   6    -0.601046741519E+03   -0.83352E-05   -0.12010E-04 11921   0.175E-02    0.137E-02
RMM:   7    -0.601046741666E+03   -0.14755E-06   -0.38024E-05  8996   0.984E-03
  55 F= -.60104674E+03 E0= -.60103968E+03  d E =-.349599E-02
 trial-energy change:   -0.003496  1 .order   -0.003259   -0.005019   -0.001499
 step:   1.4586(harm=  1.6238)  dis= 0.00551  next Energy=  -601.046957 (dE=-0.371E-02)
 bond charge predicted
       N       E                     dE             d eps       ncg     rms          rms(c)
DAV:   1    -0.601046256240E+03    0.48528E-03   -0.21820E-01 11880   0.707E-01    0.645E-02
RMM:   2    -0.601046977718E+03   -0.72148E-03   -0.74977E-03 13435   0.185E-01    0.221E-02
RMM:   3    -0.601047135756E+03   -0.15804E-03   -0.16655E-03 15126   0.704E-02    0.234E-02
RMM:   4    -0.601047147004E+03   -0.11248E-04   -0.19955E-04 13120   0.246E-02    0.163E-02
RMM:   5    -0.601047145139E+03    0.18652E-05   -0.62370E-05 10388   0.145E-02
  56 F= -.60104715E+03 E0= -.60104006E+03  d E =-.389946E-02
 curvature:  -1.57 expect dE=-0.412E-02 dE for cont linesearch -0.799E-04
 ZBRENT: increasing intervall
 opt :   2.0981  next Energy=  -601.047199 (dE=-0.395E-02)
 bond charge predicted
       N       E                     dE             d eps       ncg     rms          rms(c)
DAV:   1    -0.601043592296E+03    0.35547E-02   -0.86887E-01 11352   0.141E+00    0.137E-01
RMM:   2    -0.601046466874E+03   -0.28746E-02   -0.29861E-02 13403   0.373E-01    0.439E-02
RMM:   3    -0.601047128943E+03   -0.66207E-03   -0.68572E-03 15234   0.144E-01    0.441E-02
RMM:   4    -0.601047183557E+03   -0.54615E-04   -0.83089E-04 15355   0.495E-02    0.311E-02
RMM:   5    -0.601047175011E+03    0.85457E-05   -0.19380E-04 12631   0.221E-02    0.102E-02
RMM:   6    -0.601047177173E+03   -0.21616E-05   -0.37557E-05  9061   0.106E-02
  57 F= -.60104718E+03 E0= -.60104004E+03  d E =-.393149E-02
 curvature:  -1.06 expect dE=-0.616E-02 dE for cont linesearch -0.113E-03
 ZBRENT: bracketing found
 ZBRENT: interpolating
 opt :   1.7200  next Energy=  -601.047237 (dE=-0.399E-02)
 bond charge predicted
       N       E                     dE             d eps       ncg     rms          rms(c)
DAV:   1    -0.601046071833E+03    0.11032E-02   -0.30180E-01 11208   0.832E-01    0.798E-02
RMM:   2    -0.601047047637E+03   -0.97580E-03   -0.10137E-02 13408   0.216E-01    0.260E-02
RMM:   3    -0.601047265514E+03   -0.21788E-03   -0.22660E-03 15175   0.827E-02    0.259E-02
RMM:   4    -0.601047281156E+03   -0.15642E-04   -0.25991E-04 13574   0.284E-02    0.178E-02
RMM:   5    -0.601047278910E+03    0.22461E-05   -0.73063E-05 10789   0.159E-02
  58 F= -.60104728E+03 E0= -.60104017E+03  d E =-.403323E-02
 curvature:  -0.86 expect dE=-0.316E-02 dE for cont linesearch -0.142E-04
 trial: gam= 0.95504 g(F)=  0.367E-02 g(S)=  0.000E+00 ort = 0.399E-03 (trialstep = 0.915E+00)
 search vector abs. value=  0.132E-01
 bond charge predicted
       N       E                     dE             d eps       ncg     rms          rms(c)
DAV:   1    -0.601040100803E+03    0.71804E-02   -0.23868E+00 11272   0.236E+00    0.211E-01
RMM:   2    -0.601047654575E+03   -0.75538E-02   -0.78113E-02 13307   0.624E-01    0.722E-02
RMM:   3    -0.601049581045E+03   -0.19265E-02   -0.19816E-02 15163   0.246E-01    0.715E-02
RMM:   4    -0.601049754072E+03   -0.17303E-03   -0.23104E-03 15647   0.825E-02    0.535E-02
RMM:   5    -0.601049726042E+03    0.28030E-04   -0.49748E-04 13937   0.349E-02    0.210E-02
RMM:   6    -0.601049732428E+03   -0.63861E-05   -0.10370E-04 11649   0.165E-02    0.155E-02
RMM:   7    -0.601049731234E+03    0.11936E-05   -0.33779E-05  8760   0.970E-03
  59 F= -.60104973E+03 E0= -.60104268E+03  d E =-.245232E-02
 trial-energy change:   -0.002452  1 .order   -0.002367   -0.003708   -0.001026
 step:   1.1949(harm=  1.2648)  dis= 0.00472  next Energy=  -601.049891 (dE=-0.261E-02)
 bond charge predicted
       N       E                     dE             d eps       ncg     rms          rms(c)
DAV:   1    -0.601049160738E+03    0.57169E-03   -0.22504E-01 11840   0.724E-01    0.625E-02
RMM:   2    -0.601049876906E+03   -0.71617E-03   -0.74055E-03 13292   0.190E-01    0.220E-02
RMM:   3    -0.601050055956E+03   -0.17905E-03   -0.18642E-03 15117   0.748E-02    0.227E-02
RMM:   4    -0.601050071186E+03   -0.15229E-04   -0.21266E-04 13506   0.253E-02    0.173E-02
RMM:   5    -0.601050069453E+03    0.17330E-05   -0.66240E-05 10442   0.148E-02
  60 F= -.60105007E+03 E0= -.60104304E+03  d E =-.279054E-02
 curvature:  -1.98 expect dE=-0.465E-02 dE for cont linesearch -0.620E-04
 ZBRENT: increasing intervall
 opt :   1.7549  next Energy=  -601.050162 (dE=-0.288E-02)
 bond charge predicted
       N       E                     dE             d eps       ncg     rms          rms(c)
DAV:   1    -0.601046478686E+03    0.35925E-02   -0.89618E-01 11407   0.145E+00    0.134E-01
RMM:   2    -0.601049340385E+03   -0.28617E-02   -0.29588E-02 13299   0.384E-01    0.445E-02
RMM:   3    -0.601050083286E+03   -0.74290E-03   -0.76112E-03 15157   0.152E-01    0.427E-02
RMM:   4    -0.601050151765E+03   -0.68479E-04   -0.89080E-04 15410   0.513E-02    0.320E-02
RMM:   5    -0.601050143680E+03    0.80845E-05   -0.19944E-04 12673   0.228E-02    0.120E-02
RMM:   6    -0.601050146110E+03   -0.24301E-05   -0.39722E-05  8996   0.109E-02
  61 F= -.60105015E+03 E0= -.60104315E+03  d E =-.286720E-02
 curvature:  -2.97 expect dE=-0.140E-01 dE for cont linesearch -0.181E-03
 ZBRENT: bracketing found
 ZBRENT: interpolating
 opt :   1.4287  next Energy=  -601.050145 (dE=-0.287E-02)
 bond charge predicted
       N       E                     dE             d eps       ncg     rms          rms(c)
DAV:   1    -0.601048992978E+03    0.11507E-02   -0.30171E-01 11351   0.839E-01    0.761E-02
RMM:   2    -0.601049937986E+03   -0.94501E-03   -0.97758E-03 13285   0.220E-01    0.259E-02
RMM:   3    -0.601050176316E+03   -0.23833E-03   -0.24632E-03 15094   0.866E-02    0.247E-02
RMM:   4    -0.601050196286E+03   -0.19969E-04   -0.27428E-04 13983   0.292E-02    0.183E-02
RMM:   5    -0.601050194196E+03    0.20901E-05   -0.75390E-05 10808   0.160E-02
  62 F= -.60105019E+03 E0= -.60104318E+03  d E =-.291529E-02
 curvature:  -1.24 expect dE=-0.379E-02 dE for cont linesearch -0.214E-04
 trial: gam= 0.72388 g(F)=  0.306E-02 g(S)=  0.000E+00 ort = 0.479E-03 (trialstep = 0.102E+01)
 search vector abs. value=  0.107E-01
 bond charge predicted
       N       E                     dE             d eps       ncg     rms          rms(c)
DAV:   1    -0.601042896705E+03    0.72996E-02   -0.23908E+00 11247   0.236E+00    0.211E-01
RMM:   2    -0.601050438614E+03   -0.75419E-02   -0.78068E-02 13332   0.623E-01    0.729E-02
RMM:   3    -0.601052349627E+03   -0.19110E-02   -0.19856E-02 15282   0.246E-01    0.731E-02
RMM:   4    -0.601052515080E+03   -0.16545E-03   -0.22672E-03 15650   0.818E-02    0.541E-02
RMM:   5    -0.601052484238E+03    0.30842E-04   -0.49806E-04 13837   0.355E-02    0.214E-02
RMM:   6    -0.601052490560E+03   -0.63214E-05   -0.10644E-04 11891   0.170E-02    0.158E-02
RMM:   7    -0.601052489206E+03    0.13538E-05   -0.33329E-05  8821   0.973E-03
  63 F= -.60105249E+03 E0= -.60104549E+03  d E =-.229501E-02
 trial-energy change:   -0.002295  1 .order   -0.002202   -0.003471   -0.000934
 step:   1.3099(harm=  1.3924)  dis= 0.00518  next Energy=  -601.052625 (dE=-0.243E-02)
 bond charge predicted
       N       E                     dE             d eps       ncg     rms          rms(c)
DAV:   1    -0.601051989449E+03    0.50111E-03   -0.19849E-01 11904   0.680E-01    0.587E-02
RMM:   2    -0.601052620480E+03   -0.63103E-03   -0.65314E-03 13330   0.179E-01    0.209E-02
RMM:   3    -0.601052777953E+03   -0.15747E-03   -0.16498E-03 15184   0.704E-02    0.217E-02
RMM:   4    -0.601052791000E+03   -0.13047E-04   -0.18701E-04 13273   0.238E-02    0.165E-02
RMM:   5    -0.601052789247E+03    0.17529E-05   -0.60683E-05 10330   0.145E-02
  64 F= -.60105279E+03 E0= -.60104579E+03  d E =-.259505E-02
 curvature:  -2.08 expect dE=-0.480E-02 dE for cont linesearch -0.644E-04
 ZBRENT: increasing intervall
 opt :   1.8943  next Energy=  -601.052926 (dE=-0.273E-02)
 bond charge predicted
       N       E                     dE             d eps       ncg     rms          rms(c)
DAV:   1    -0.601049616805E+03    0.31742E-02   -0.79026E-01 11391   0.136E+00    0.126E-01
RMM:   2    -0.601052136557E+03   -0.25198E-02   -0.26070E-02 13319   0.361E-01    0.422E-02
RMM:   3    -0.601052795246E+03   -0.65869E-03   -0.67998E-03 15251   0.143E-01    0.409E-02
RMM:   4    -0.601052854495E+03   -0.59248E-04   -0.77984E-04 15361   0.483E-02    0.308E-02
RMM:   5    -0.601052846206E+03    0.82892E-05   -0.18140E-04 12613   0.224E-02    0.117E-02
RMM:   6    -0.601052848416E+03   -0.22100E-05   -0.37435E-05  8943   0.108E-02
  65 F= -.60105285E+03 E0= -.60104586E+03  d E =-.265422E-02
 curvature:  -4.41 expect dE=-0.206E-01 dE for cont linesearch -0.267E-03
 ZBRENT: bracketing found
 ZBRENT: interpolating
 opt :   1.5537  next Energy=  -601.052859 (dE=-0.267E-02)
 bond charge predicted
       N       E                     dE             d eps       ncg     rms          rms(c)
DAV:   1    -0.601051835701E+03    0.10105E-02   -0.26636E-01 11352   0.788E-01    0.713E-02
RMM:   2    -0.601052667282E+03   -0.83158E-03   -0.86124E-03 13310   0.208E-01    0.246E-02
RMM:   3    -0.601052881097E+03   -0.21381E-03   -0.22202E-03 15197   0.821E-02    0.237E-02
RMM:   4    -0.601052898683E+03   -0.17586E-04   -0.24382E-04 13797   0.275E-02    0.174E-02
RMM:   5    -0.601052896741E+03    0.19419E-05   -0.68671E-05 10698   0.157E-02
  66 F= -.60105290E+03 E0= -.60104590E+03  d E =-.270255E-02
 curvature:  -1.16 expect dE=-0.355E-02 dE for cont linesearch -0.189E-04
 trial: gam= 0.96000 g(F)=  0.306E-02 g(S)=  0.000E+00 ort = 0.418E-03 (trialstep = 0.877E+00)
 search vector abs. value=  0.137E-01
 bond charge predicted
       N       E                     dE             d eps       ncg     rms          rms(c)
DAV:   1    -0.601045789809E+03    0.71089E-02   -0.22828E+00 11309   0.230E+00    0.205E-01
RMM:   2    -0.601052896970E+03   -0.71072E-02   -0.73524E-02 13268   0.600E-01    0.707E-02
RMM:   3    -0.601054681122E+03   -0.17842E-02   -0.18534E-02 15270   0.238E-01    0.706E-02
RMM:   4    -0.601054834684E+03   -0.15356E-03   -0.21529E-03 15585   0.791E-02    0.515E-02
RMM:   5    -0.601054811892E+03    0.22792E-04   -0.48641E-04 13818   0.343E-02    0.224E-02
RMM:   6    -0.601054814639E+03   -0.27474E-05   -0.92404E-05 11148   0.157E-02
  67 F= -.60105481E+03 E0= -.60104790E+03  d E =-.191790E-02
 trial-energy change:   -0.001918  1 .order   -0.001832   -0.003035   -0.000630
 step:   1.0593(harm=  1.1063)  dis= 0.00469  next Energy=  -601.054881 (dE=-0.198E-02)
 bond charge predicted
       N       E                     dE             d eps       ncg     rms          rms(c)
DAV:   1    -0.601054570944E+03    0.24095E-03   -0.10037E-01 12048   0.484E-01    0.438E-02
RMM:   2    -0.601054899916E+03   -0.32897E-03   -0.33982E-03 13291   0.129E-01    0.149E-02
RMM:   3    -0.601054982093E+03   -0.82177E-04   -0.85985E-04 15066   0.511E-02    0.153E-02
RMM:   4    -0.601054989589E+03   -0.74955E-05   -0.10852E-04 12404   0.184E-02    0.110E-02
RMM:   5    -0.601054989139E+03    0.44960E-06   -0.32064E-05  8447   0.111E-02
  68 F= -.60105499E+03 E0= -.60104809E+03  d E =-.209240E-02
 curvature:  -2.10 expect dE=-0.332E-02 dE for cont linesearch -0.522E-04
 ZBRENT: increasing intervall
 opt :   1.4243  next Energy=  -601.055153 (dE=-0.226E-02)
 bond charge predicted
       N       E                     dE             d eps       ncg     rms          rms(c)
DAV:   1    -0.601053493835E+03    0.14958E-02   -0.39658E-01 11447   0.960E-01    0.884E-02
RMM:   2    -0.601054740112E+03   -0.12463E-02   -0.12886E-02 13257   0.252E-01    0.295E-02
RMM:   3    -0.601055059570E+03   -0.31946E-03   -0.33043E-03 15200   0.100E-01    0.286E-02
RMM:   4    -0.601055088247E+03   -0.28678E-04   -0.39066E-04 14733   0.341E-02    0.212E-02
RMM:   5    -0.601055085636E+03    0.26116E-05   -0.98452E-05 11150   0.171E-02
  69 F= -.60105509E+03 E0= -.60104822E+03  d E =-.218889E-02
 curvature:  -6.61 expect dE=-0.178E-01 dE for cont linesearch -0.968E-04
 trial: gam= 0.98342 g(F)=  0.269E-02 g(S)=  0.000E+00 ort =-0.448E-03 (trialstep = 0.898E+00)
 search vector abs. value=  0.151E-01
 bond charge predicted
       N       E                     dE             d eps       ncg     rms          rms(c)
DAV:   1    -0.601046065932E+03    0.90223E-02   -0.26464E+00 11283   0.248E+00    0.233E-01
RMM:   2    -0.601054242370E+03   -0.81764E-02   -0.84707E-02 13181   0.642E-01    0.764E-02
RMM:   3    -0.601056367876E+03   -0.21255E-02   -0.21939E-02 15325   0.258E-01    0.746E-02
RMM:   4    -0.601056564658E+03   -0.19678E-03   -0.26131E-03 15684   0.865E-02    0.559E-02
RMM:   5    -0.601056536590E+03    0.28068E-04   -0.55631E-04 13859   0.368E-02    0.227E-02
RMM:   6    -0.601056543767E+03   -0.71768E-05   -0.12335E-04 12071   0.176E-02    0.158E-02
RMM:   7    -0.601056542945E+03    0.82202E-06   -0.37710E-05  8901   0.998E-03
  70 F= -.60105654E+03 E0= -.60104966E+03  d E =-.145731E-02
 trial-energy change:   -0.001457  1 .order   -0.001141   -0.002018   -0.000264
 step:   0.9603(harm=  1.0329)  dis= 0.00476  next Energy=  -601.056552 (dE=-0.147E-02)
 bond charge predicted
       N       E                     dE             d eps       ncg     rms          rms(c)
DAV:   1    -0.601056533274E+03    0.10493E-04   -0.13222E-02 12102   0.175E-01    0.137E-02
RMM:   2    -0.601056576487E+03   -0.43213E-04   -0.44981E-04 13122   0.468E-02    0.563E-03
RMM:   3    -0.601056587063E+03   -0.10576E-04   -0.12002E-04 12535   0.192E-02    0.643E-03
RMM:   4    -0.601056588208E+03   -0.11457E-05   -0.20513E-05  6218   0.103E-02
  71 F= -.60105659E+03 E0= -.60104971E+03  d E =-.150257E-02
 curvature:  -2.47 expect dE=-0.305E-02 dE for cont linesearch -0.222E-04
 ZBRENT: increasing intervall
 opt :   1.0858  next Energy=  -601.056644 (dE=-0.156E-02)
 bond charge predicted
       N       E                     dE             d eps       ncg     rms          rms(c)
DAV:   1    -0.601056451548E+03    0.13551E-03   -0.51550E-02 11656   0.345E-01    0.332E-02
RMM:   2    -0.601056608320E+03   -0.15677E-03   -0.16228E-03 13190   0.886E-02    0.107E-02
RMM:   3    -0.601056648600E+03   -0.40279E-04   -0.41951E-04 14856   0.355E-02    0.971E-03
RMM:   4    -0.601056651847E+03   -0.32472E-05   -0.48857E-05  9569   0.132E-02
  72 F= -.60105665E+03 E0= -.60104977E+03  d E =-.156621E-02
 curvature:  -6.16 expect dE=-0.820E-02 dE for cont linesearch -0.357E-06
 trial: gam= 0.22297 g(F)=  0.133E-02 g(S)=  0.000E+00 ort = 0.295E-04 (trialstep = 0.935E+00)
 search vector abs. value=  0.209E-02
 bond charge predicted
       N       E                     dE             d eps       ncg     rms          rms(c)
DAV:   1    -0.601055819148E+03    0.82945E-03   -0.40509E-01 11005   0.964E-01    0.939E-02
RMM:   2    -0.601057254207E+03   -0.14351E-02   -0.14901E-02 13586   0.264E-01    0.304E-02
RMM:   3    -0.601057574135E+03   -0.31993E-03   -0.33905E-03 15409   0.997E-02    0.320E-02
RMM:   4    -0.601057595942E+03   -0.21808E-04   -0.38556E-04 14880   0.342E-02    0.214E-02
RMM:   5    -0.601057591384E+03    0.45586E-05   -0.10151E-04 11444   0.170E-02    0.649E-03
RMM:   6    -0.601057592932E+03   -0.15487E-05   -0.23357E-05  7550   0.860E-03
  73 F= -.60105759E+03 E0= -.60105066E+03  d E =-.941085E-03
 trial-energy change:   -0.000941  1 .order   -0.000856   -0.001250   -0.000463
 step:   1.2320(harm=  1.4843)  dis= 0.00241  next Energy=  -601.057669 (dE=-0.102E-02)
 bond charge predicted
[...]
RMM:   2    -0.601059866116E+03   -0.28408E-05   -0.29625E-05  7335   0.105E-02
  95 F= -.60105987E+03 E0= -.60105297E+03  d E =-.881442E-04
 curvature:  -0.62 expect dE=-0.815E-04 dE for cont linesearch -0.157E-04
 ZBRENT: interpolating
 opt :   1.2215  next Energy=  -601.059868 (dE=-0.905E-04)
 bond charge predicted
       N       E                     dE             d eps       ncg     rms          rms(c)
DAV:   1    -0.601059866750E+03   -0.34750E-05   -0.28835E-04 10590   0.249E-02    0.303E-03
RMM:   2    -0.601059867868E+03   -0.11177E-05   -0.12148E-05  5774   0.699E-03
  96 F= -.60105987E+03 E0= -.60105297E+03  d E =-.898961E-04
 curvature:  -0.03 expect dE=-0.350E-05 dE for cont linesearch -0.510E-07
 trial: gam= 1.39605 g(F)=  0.125E-03 g(S)=  0.000E+00 ort =-0.169E-04 (trialstep = 0.227E+00)
 search vector abs. value=  0.383E-03
 bond charge predicted
       N       E                     dE             d eps       ncg     rms          rms(c)
DAV:   1    -0.601059876403E+03   -0.96524E-05   -0.45257E-03 11400   0.101E-01    0.102E-02
RMM:   2    -0.601059892784E+03   -0.16381E-04   -0.17054E-04 12432   0.276E-02    0.345E-03
RMM:   3    -0.601059895452E+03   -0.26682E-05   -0.38446E-05  7372   0.113E-02
  97 F= -.60105990E+03 E0= -.60105300E+03  d E =-.275843E-04
 trial-energy change:   -0.000028  1 .order   -0.000019   -0.000023   -0.000015
 step:   0.6285(harm=  0.6285)  dis= 0.00059  next Energy=  -601.059900 (dE=-0.320E-04)
 bond charge predicted
       N       E                     dE             d eps       ncg     rms          rms(c)
DAV:   1    -0.601059883952E+03    0.88323E-05   -0.13993E-02 11335   0.177E-01    0.173E-02
RMM:   2    -0.601059931838E+03   -0.47886E-04   -0.50086E-04 13202   0.484E-02    0.635E-03
RMM:   3    -0.601059943288E+03   -0.11450E-04   -0.12822E-04 12096   0.195E-02    0.622E-03
RMM:   4    -0.601059944231E+03   -0.94326E-06   -0.21761E-05  6320   0.108E-02
  98 F= -.60105994E+03 E0= -.60105304E+03  d E =-.763632E-04
 curvature:  -1.18 expect dE=-0.998E-04 dE for cont linesearch -0.865E-05
 ZBRENT: increasing intervall
 opt :   1.4307  next Energy=  -601.059977 (dE=-0.109E-03)
 bond charge predicted
       N       E                     dE             d eps       ncg     rms          rms(c)
DAV:   1    -0.601059777503E+03    0.16578E-03   -0.55563E-02 11150   0.351E-01    0.365E-02
RMM:   2    -0.601059954624E+03   -0.17712E-03   -0.18415E-03 13194   0.917E-02    0.113E-02
RMM:   3    -0.601059997992E+03   -0.43369E-04   -0.45482E-04 14591   0.364E-02    0.108E-02
RMM:   4    -0.601060001508E+03   -0.35160E-05   -0.55447E-05 10038   0.141E-02
  99 F= -.60106000E+03 E0= -.60105310E+03  d E =-.133640E-03
 curvature:  -4.48 expect dE=-0.667E-03 dE for cont linesearch -0.371E-05
 trial: gam= 0.74411 g(F)=  0.149E-03 g(S)=  0.000E+00 ort =-0.178E-04 (trialstep = 0.468E+00)
 search vector abs. value=  0.334E-03
 bond charge predicted
       N       E                     dE             d eps       ncg     rms          rms(c)
DAV:   1    -0.601060000570E+03   -0.25776E-05   -0.15722E-02 11488   0.187E-01    0.204E-02
RMM:   2    -0.601060057740E+03   -0.57170E-04   -0.59771E-04 13423   0.540E-02    0.659E-03
RMM:   3    -0.601060072386E+03   -0.14646E-04   -0.15815E-04 12926   0.215E-02    0.578E-03
RMM:   4    -0.601060073791E+03   -0.14049E-05   -0.24647E-05  6549   0.110E-02
 100 F= -.60106007E+03 E0= -.60105316E+03  d E =-.722828E-04
 trial-energy change:   -0.000072  1 .order   -0.000049   -0.000063   -0.000035
 step:   1.0537(harm=  1.0537)  dis= 0.00071  next Energy=  -601.060073 (dE=-0.714E-04)
 bond charge predicted
       N       E                     dE             d eps       ncg     rms          rms(c)
DAV:   1    -0.601060017386E+03    0.55000E-04   -0.24804E-02 11208   0.235E-01    0.242E-02
RMM:   2    -0.601060101966E+03   -0.84580E-04   -0.87778E-04 13404   0.642E-02    0.771E-03
RMM:   3    -0.601060122966E+03   -0.21001E-04   -0.21843E-04 13331   0.250E-02    0.734E-03
RMM:   4    -0.601060124786E+03   -0.18193E-05   -0.30620E-05  7166   0.118E-02
 101 F= -.60106012E+03 E0= -.60105321E+03  d E =-.123278E-03
 curvature:  -1.30 expect dE=-0.958E-04 dE for cont linesearch -0.336E-06
 trial: gam= 0.51236 g(F)=  0.737E-04 g(S)=  0.000E+00 ort = 0.930E-05 (trialstep = 0.585E+00)
 search vector abs. value=  0.171E-03
 bond charge predicted
       N       E                     dE             d eps       ncg     rms          rms(c)
DAV:   1    -0.601060127508E+03   -0.45421E-05   -0.12042E-02 11416   0.162E-01    0.178E-02
RMM:   2    -0.601060167919E+03   -0.40410E-04   -0.42286E-04 13158   0.442E-02    0.572E-03
RMM:   3    -0.601060178060E+03   -0.10141E-04   -0.11206E-04 12205   0.178E-02    0.526E-03
RMM:   4    -0.601060178909E+03   -0.84908E-06   -0.17875E-05  6297   0.953E-03
 102 F= -.60106018E+03 E0= -.60105327E+03  d E =-.541235E-04
 trial-energy change:   -0.000054  1 .order   -0.000037   -0.000046   -0.000028
 step:   1.4686(harm=  1.4686)  dis= 0.00056  next Energy=  -601.060182 (dE=-0.576E-04)
 bond charge predicted
       N       E                     dE             d eps       ncg     rms          rms(c)
DAV:   1    -0.601060111636E+03    0.66424E-04   -0.27494E-02 11199   0.245E-01    0.262E-02
RMM:   2    -0.601060202504E+03   -0.90868E-04   -0.94869E-04 13294   0.660E-02    0.837E-03
RMM:   3    -0.601060225362E+03   -0.22858E-04   -0.24260E-04 13421   0.261E-02    0.815E-03
RMM:   4    -0.601060227273E+03   -0.19118E-05   -0.32473E-05  7388   0.120E-02
 103 F= -.60106023E+03 E0= -.60105332E+03  d E =-.102488E-03
 curvature:  -1.60 expect dE=-0.934E-04 dE for cont linesearch -0.456E-07
 trial: gam= 1.04576 g(F)=  0.584E-04 g(S)=  0.000E+00 ort =-0.221E-05 (trialstep = 0.541E+00)
 search vector abs. value=  0.241E-03
 bond charge predicted
       N       E                     dE             d eps       ncg     rms          rms(c)
DAV:   1    -0.601060210648E+03    0.14714E-04   -0.14637E-02 11752   0.177E-01    0.200E-02
RMM:   2    -0.601060257175E+03   -0.46527E-04   -0.48746E-04 12861   0.469E-02    0.638E-03
RMM:   3    -0.601060268698E+03   -0.11524E-04   -0.12794E-04 12181   0.192E-02    0.530E-03
RMM:   4    -0.601060269754E+03   -0.10557E-05   -0.21144E-05  6593   0.103E-02
 104 F= -.60106027E+03 E0= -.60105336E+03  d E =-.424808E-04
 trial-energy change:   -0.000042  1 .order   -0.000025   -0.000030   -0.000021
 step:   1.6935(harm=  1.6935)  dis= 0.00104  next Energy=  -601.060275 (dE=-0.475E-04)
 bond charge predicted
       N       E                     dE             d eps       ncg     rms          rms(c)
DAV:   1    -0.601060064549E+03    0.20415E-03   -0.66700E-02 11270   0.378E-01    0.407E-02
RMM:   2    -0.601060273968E+03   -0.20942E-03   -0.21844E-03 13084   0.976E-02    0.129E-02
RMM:   3    -0.601060326125E+03   -0.52157E-04   -0.54506E-04 14685   0.389E-02    0.123E-02
RMM:   4    -0.601060330065E+03   -0.39401E-05   -0.65621E-05 10405   0.148E-02
 105 F= -.60106033E+03 E0= -.60105343E+03  d E =-.102792E-03
 curvature:  -3.64 expect dE=-0.255E-03 dE for cont linesearch -0.218E-05
 ZBRENT: interpolating
 opt :   1.4173  next Energy=  -601.060332 (dE=-0.104E-03)
 bond charge predicted
       N       E                     dE             d eps       ncg     rms          rms(c)
DAV:   1    -0.601060302187E+03    0.23938E-04   -0.38937E-03 11384   0.929E-02    0.848E-03
RMM:   2    -0.601060317680E+03   -0.15493E-04   -0.16282E-04 12020   0.266E-02    0.362E-03
RMM:   3    -0.601060319620E+03   -0.19394E-05   -0.32280E-05  6979   0.113E-02
 106 F= -.60106032E+03 E0= -.60105342E+03  d E =-.923463E-04
 curvature:  -2.76 expect dE=-0.272E-03 dE for cont linesearch -0.102E-03
 ZBRENT: interpolating
 opt :   1.6623  next Energy=  -601.060330 (dE=-0.103E-03)
 bond charge predicted
       N       E                     dE             d eps       ncg     rms          rms(c)
DAV:   1    -0.601060317039E+03    0.64148E-06   -0.29309E-03 11376   0.795E-02    0.103E-02
RMM:   2    -0.601060328097E+03   -0.11058E-04   -0.11643E-04 11619   0.217E-02    0.278E-03
RMM:   3    -0.601060329654E+03   -0.15573E-05   -0.24325E-05  6580   0.946E-03
 107 F= -.60106033E+03 E0= -.60105343E+03  d E =-.102380E-03
 curvature:  -0.01 expect dE=-0.358E-06 dE for cont linesearch -0.213E-08
 trial: gam= 1.27302 g(F)=  0.707E-04 g(S)=  0.000E+00 ort =-0.101E-04 (trialstep = 0.423E+00)
 search vector abs. value=  0.435E-03
 bond charge predicted
       N       E                     dE             d eps       ncg     rms          rms(c)
DAV:   1    -0.601060308097E+03    0.19999E-04   -0.15799E-02 11358   0.183E-01    0.190E-02
RMM:   2    -0.601060358576E+03   -0.50478E-04   -0.52790E-04 12866   0.488E-02    0.671E-03
RMM:   3    -0.601060371924E+03   -0.13349E-04   -0.14722E-04 12326   0.205E-02    0.653E-03
RMM:   4    -0.601060373017E+03   -0.10934E-05   -0.23102E-05  6518   0.109E-02
 108 F= -.60106037E+03 E0= -.60105347E+03  d E =-.433636E-04
 ZBRENT: can't locate minimum, use default step
 trial-energy change:   -0.000043  1 .order   -0.000022   -0.000024   -0.000020
 step:   1.6935(harm=  2.2919)  dis= 0.00110  next Energy=  -601.060396 (dE=-0.663E-04)
 bond charge predicted
       N       E                     dE             d eps       ncg     rms          rms(c)
DAV:   1    -0.601059920642E+03    0.45128E-03   -0.14068E-01 11284   0.546E-01    0.592E-02
RMM:   2    -0.601060346153E+03   -0.42551E-03   -0.44347E-03 13027   0.139E-01    0.190E-02
RMM:   3    -0.601060458509E+03   -0.11236E-03   -0.11551E-03 15039   0.561E-02    0.172E-02
RMM:   4    -0.601060467977E+03   -0.94684E-05   -0.13996E-04 12578   0.198E-02    0.119E-02
RMM:   5    -0.601060468062E+03   -0.85187E-07   -0.41047E-05  8859   0.121E-02
 109 F= -.60106047E+03 E0= -.60105358E+03  d E =-.138409E-03
 curvature:  -7.73 expect dE=-0.771E-03 dE for cont linesearch -0.388E-05
 trial: gam= 1.32925 g(F)=  0.996E-04 g(S)=  0.000E+00 ort = 0.148E-04 (trialstep = 0.325E+00)
 search vector abs. value=  0.908E-03
 bond charge predicted
       N       E                     dE             d eps       ncg     rms          rms(c)
DAV:   1    -0.601060428622E+03    0.39355E-04   -0.20039E-02 11824   0.206E-01    0.242E-02
RMM:   2    -0.601060491972E+03   -0.63349E-04   -0.66087E-04 12759   0.531E-02    0.744E-03
RMM:   3    -0.601060508768E+03   -0.16796E-04   -0.18127E-04 12593   0.221E-02    0.672E-03
RMM:   4    -0.601060510181E+03   -0.14132E-05   -0.26151E-05  6892   0.110E-02
 110 F= -.60106051E+03 E0= -.60105362E+03  d E =-.421184E-04
 trial-energy change:   -0.000042  1 .order   -0.000026   -0.000039   -0.000014
 step:   0.5060(harm=  0.5060)  dis= 0.00047  next Energy=  -601.060498 (dE=-0.302E-04)
 bond charge predicted
       N       E                     dE             d eps       ncg     rms          rms(c)
DAV:   1    -0.601060508251E+03    0.51710E-06   -0.61742E-03 12168   0.114E-01    0.131E-02
RMM:   2    -0.601060527143E+03   -0.18892E-04   -0.19773E-04 12087   0.299E-02    0.433E-03
RMM:   3    -0.601060532010E+03   -0.48667E-05   -0.57947E-05  8768   0.130E-02
 111 F= -.60106053E+03 E0= -.60105364E+03  d E =-.639470E-04
 curvature:  -1.93 expect dE=-0.905E-04 dE for cont linesearch -0.132E-07
 trial: gam=-0.06293 g(F)=  0.470E-04 g(S)=  0.000E+00 ort = 0.250E-05 (trialstep = 0.361E+00)
 search vector abs. value=  0.503E-04
 bond charge predicted
       N       E                     dE             d eps       ncg     rms          rms(c)
DAV:   1    -0.601060537939E+03   -0.10797E-04   -0.13376E-03 11184   0.560E-02    0.650E-03
RMM:   2    -0.601060544927E+03   -0.69873E-05   -0.73383E-05 11426   0.174E-02
 112 F= -.60106054E+03 E0= -.60105366E+03  d E =-.129173E-04
 trial-energy change:   -0.000013  1 .order   -0.000008   -0.000017    0.000002
 step:   0.3291(harm=  0.3291)  dis= 0.00015  next Energy=  -601.060540 (dE=-0.771E-05)
 bond charge predicted
       N       E                     dE             d eps       ncg     rms          rms(c)
DAV:   1    -0.601060544140E+03   -0.62009E-05   -0.12848E-05  7174   0.120E-02    0.203E-03
RMM:   2    -0.601060544732E+03   -0.59145E-06   -0.72452E-06  5270   0.616E-03
 113 F= -.60106054E+03 E0= -.60105366E+03  d E =-.127223E-04
 curvature:  -0.18 expect dE=-0.851E-05 dE for cont linesearch -0.458E-05
 ZBRENT: interpolating
 opt :   0.3574  next Energy=  -601.060545 (dE=-0.129E-04)
 bond charge predicted
       N       E                     dE             d eps       ncg     rms          rms(c)
DAV:   1    -0.601060545146E+03   -0.10058E-05   -0.43554E-06  5784   0.968E-03    0.115E-03
RMM:   2    -0.601060545504E+03   -0.35779E-06   -0.38791E-06  5166   0.423E-03
 114 F= -.60106055E+03 E0= -.60105366E+03  d E =-.134945E-04
 curvature:  -0.00 expect dE=-0.830E-08 dE for cont linesearch -0.291E-09
 ZBRENT: interpolating
 opt :   0.3596  next Energy=  -601.060545 (dE=-0.129E-04)
 bond charge predicted
       N       E                     dE             d eps       ncg     rms          rms(c)
DAV:   1    -0.601060545626E+03   -0.47981E-06   -0.14217E-06  5494   0.561E-03    0.495E-04
RMM:   2    -0.601060545715E+03   -0.88949E-07   -0.94501E-07  5042   0.199E-03
 115 F= -.60106055E+03 E0= -.60105366E+03  d E =-.137055E-04
 curvature:  -0.00 expect dE=-0.108E-06 dE for cont linesearch -0.225E-07
 ZBRENT: interpolating
 opt :   0.3607  next Energy=  -601.060545 (dE=-0.129E-04)
 bond charge predicted
       N       E                     dE             d eps       ncg     rms          rms(c)
DAV:   1    -0.601060545765E+03   -0.13903E-06   -0.37754E-07  5432   0.220E-03    0.384E-04
RMM:   2    -0.601060545773E+03   -0.80763E-08   -0.11234E-07  1951   0.878E-04
 116 F= -.60106055E+03 E0= -.60105366E+03  d E =-.137636E-04
 curvature:  -0.00 expect dE=-0.321E-08 dE for cont linesearch -0.879E-09
 ZBRENT: interpolating
 opt :   0.3609  next Energy=  -601.060545 (dE=-0.129E-04)
 bond charge predicted
       N       E                     dE             d eps       ncg     rms          rms(c)
DAV:   1    -0.601060545790E+03   -0.24549E-07   -0.11360E-07  5390   0.851E-04    0.852E-05
RMM:   2    -0.601060545789E+03    0.53842E-09   -0.37557E-09   751   0.615E-04
 117 F= -.60106055E+03 E0= -.60105366E+03  d E =-.137796E-04
 curvature:  -0.00 expect dE=-0.444E-09 dE for cont linesearch -0.144E-09
 ZBRENT: interpolating
 opt :   0.3610  next Energy=  -601.060545 (dE=-0.129E-04)
 bond charge predicted
       N       E                     dE             d eps       ncg     rms          rms(c)
DAV:   1    -0.601060545796E+03   -0.67012E-08   -0.68551E-08  5326   0.106E-03    0.117E-04
RMM:   2    -0.601060545796E+03   -0.16735E-09   -0.57948E-10   692   0.433E-04
 118 F= -.60106055E+03 E0= -.60105366E+03  d E =-.137870E-04
 curvature:  -0.00 expect dE=-0.573E-10 dE for cont linesearch -0.199E-10
 ZBRENT: interpolating
 opt :   0.3610  next Energy=  -601.060545 (dE=-0.129E-04)
 bond charge predicted
       N       E                     dE             d eps       ncg     rms          rms(c)
DAV:   1    -0.601060545803E+03   -0.62137E-08   -0.37928E-08  5288   0.135E-03    0.981E-05
RMM:   2    -0.601060545801E+03    0.11423E-08   -0.31928E-10   619   0.332E-04
 119 F= -.60106055E+03 E0= -.60105366E+03  d E =-.137919E-04
 curvature:  -0.00 expect dE=-0.807E-11 dE for cont linesearch -0.288E-11
 ZBRENT: interpolating
 opt :   0.3610  next Energy=  -601.060545 (dE=-0.129E-04)
 bond charge predicted
       N       E                     dE             d eps       ncg     rms          rms(c)
DAV:   1    -0.601060545799E+03    0.37471E-08   -0.24362E-08  5270   0.119E-03    0.859E-05
RMM:   2    -0.601060545798E+03    0.32742E-09    0.00000E+00   528   0.282E-04
 120 F= -.60106055E+03 E0= -.60105366E+03  d E =-.137889E-04
 curvature:  -0.00 expect dE=-0.118E-11 dE for cont linesearch -0.433E-12
 ZBRENT: interpolating
 opt :   0.3610  next Energy=  -601.060545 (dE=-0.129E-04)
 bond charge predicted
       N       E                     dE             d eps       ncg     rms          rms(c)
DAV:   1    -0.601060545800E+03   -0.12587E-08   -0.17934E-08  5278   0.104E-03    0.751E-05
RMM:   2    -0.601060545799E+03    0.56025E-09    0.00000E+00   487   0.232E-04
 121 F= -.60106055E+03 E0= -.60105366E+03  d E =-.137900E-04
 curvature:  -0.00 expect dE=-0.170E-12 dE for cont linesearch -0.632E-13
 ZBRENT: interpolating
 opt :   0.3610  next Energy=  -601.060545 (dE=-0.129E-04)
 bond charge predicted
       N       E                     dE             d eps       ncg     rms          rms(c)
DAV:   1    -0.601060545801E+03   -0.64028E-09   -0.12522E-08  5260   0.902E-04    0.652E-05
RMM:   2    -0.601060545800E+03    0.56752E-09    0.00000E+00   422   0.198E-04
 122 F= -.60106055E+03 E0= -.60105366E+03  d E =-.137906E-04
 curvature:  -0.00 expect dE=-0.245E-13 dE for cont linesearch -0.924E-14
 ZBRENT:  accuracy reached
 opt :   0.0000  next Energy=     0.000000 (dE= 0.601E+03)
 bond charge predicted
       N       E                     dE             d eps       ncg     rms          rms(c)
DAV:   1    -0.601060526582E+03    0.19219E-04   -0.13362E-03 10896   0.552E-02    0.566E-03
RMM:   2    -0.601060532573E+03   -0.59910E-05   -0.62392E-05 10295   0.156E-02
 123 F= -.60106053E+03 E0= -.60105365E+03  d E =-.563334E-06
 curvature:   0.00 expect dE= 0.000E+00 dE for cont linesearch  0.000E+00
 -----------------------------------------------------------------------------
|                                                                             |
|     EEEEEEE  RRRRRR   RRRRRR   OOOOOOO  RRRRRR      ###     ###     ###     |
|     E        R     R  R     R  O     O  R     R     ###     ###     ###     |
|     E        R     R  R     R  O     O  R     R     ###     ###     ###     |
|     EEEEE    RRRRRR   RRRRRR   O     O  RRRRRR       #       #       #      |
|     E        R   R    R   R    O     O  R   R                               |
|     E        R    R   R    R   O     O  R    R      ###     ###     ###     |
|     EEEEEEE  R     R  R     R  OOOOOOO  R     R     ###     ###     ###     |
|                                                                             |
|     ZBRENT: fatal error in bracketing                                       |
|      please rerun with smaller EDIFF, or copy CONTCAR                       |
|      to POSCAR and continue                                                 |
|                                                                             |
|       ---->  I REFUSE TO CONTINUE WITH THIS SICK JOB ... BYE!!! <----       |
|                                                                             |
 -----------------------------------------------------------------------------

Warning: ieee_invalid is signaling
Warning: ieee_divide_by_zero is signaling
Warning: ieee_underflow is signaling
Warning: ieee_inexact is signaling
    1
Warning: ieee_invalid is signaling
Warning: ieee_divide_by_zero is signaling
Warning: ieee_underflow is signaling
Warning: ieee_inexact is signaling
    1
Warning: ieee_invalid is signaling
Warning: ieee_divide_by_zero is signaling
Warning: ieee_underflow is signaling
Warning: ieee_inexact is signaling
    1
Warning: ieee_invalid is signaling
Warning: ieee_divide_by_zero is signaling
Warning: ieee_underflow is signaling
Warning: ieee_inexact is signaling
    1
--------------------------------------------------------------------------
Primary job  terminated normally, but 1 process returned
a non-zero exit code. Per user-direction, the job has been aborted.
--------------------------------------------------------------------------
--------------------------------------------------------------------------
mpirun detected that one or more processes exited with non-zero status, thus causing
the job to be terminated. The first process to do so was:

  Process name: [[51326,1],2]
  Exit code:    1
--------------------------------------------------------------------------
