       N       E                     dE             d eps       ncg     rms          rms(c)
DAV:   1     0.217397632168E+05    0.21740E+05   -0.31779E+05 10000   0.280E+03
DAV:   2     0.482717838657E+04   -0.16913E+05   -0.15942E+05 10000   0.814E+02
DAV:   3    -0.136017560947E+03   -0.49632E+04   -0.46760E+04 12800   0.320E+02
DAV:   4    -0.758743496217E+03   -0.62273E+03   -0.60986E+03 12352   0.121E+02
DAV:   5    -0.801538614413E+03   -0.42795E+02   -0.42449E+02 14328   0.344E+01    0.611E+01
RMM:   6    -0.689943483568E+03    0.11160E+03   -0.38705E+02 13165   0.238E+01    0.191E+01
RMM:   7    -0.694264679083E+03   -0.43212E+01   -0.62499E+01 13858   0.977E+00    0.153E+01
RMM:   8    -0.692010865757E+03    0.22538E+01   -0.10893E+01 15379   0.437E+00    0.106E+01
RMM:   9    -0.693884077521E+03   -0.18732E+01   -0.68828E+00 12637   0.378E+00    0.148E+01
RMM:  10    -0.692272794028E+03    0.16113E+01   -0.18041E+00 14750   0.182E+00    0.101E+01
RMM:  11    -0.691743212679E+03    0.52958E+00   -0.12116E+00 13105   0.108E+00    0.363E+00
RMM:  12    -0.691546186800E+03    0.19703E+00   -0.67883E-01 12786   0.934E-01    0.240E+00
RMM:  13    -0.691437133781E+03    0.10905E+00   -0.11132E-01 15284   0.430E-01    0.151E+00
RMM:  14    -0.691420447631E+03    0.16686E-01   -0.27580E-02 14685   0.168E-01    0.134E+00
RMM:  15    -0.691381576617E+03    0.38871E-01   -0.28142E-02 13129   0.170E-01    0.792E-01
RMM:  16    -0.691369238170E+03    0.12338E-01   -0.18431E-02 13398   0.118E-01    0.333E-01
RMM:  17    -0.691368041609E+03    0.11966E-02   -0.82612E-03 14102   0.882E-02    0.159E-01
RMM:  18    -0.691368019659E+03    0.21950E-04   -0.15055E-03 13013   0.448E-02    0.118E-01
RMM:  19    -0.691367847474E+03    0.17218E-03   -0.10521E-03 12834   0.341E-02    0.205E-02
RMM:  20    -0.691367888257E+03   -0.40783E-04   -0.33238E-04 11058   0.192E-02    0.264E-02
RMM:  21    -0.691367884458E+03    0.37989E-05   -0.10581E-04  9955   0.127E-02    0.171E-02
RMM:  22    -0.691367885412E+03   -0.95408E-06   -0.38762E-05  8262   0.675E-03
   1 F= -.69136789E+03 E0= -.69135837E+03  d E =-.691368E+03
       N       E                     dE             d eps       ncg     rms          rms(c)
DAV:   1    -0.642229021534E+03    0.49139E+02   -0.81511E+03 11304   0.121E+02    0.161E+01
RMM:   2    -0.680372503283E+03   -0.38143E+02   -0.45717E+02 13855   0.338E+01    0.545E+00
RMM:   3    -0.693016754730E+03   -0.12644E+02   -0.10756E+02 14994   0.146E+01    0.818E+00
RMM:   4    -0.693672217406E+03   -0.65546E+00   -0.14855E+01 15485   0.556E+00    0.701E+00
RMM:   5    -0.693444835214E+03    0.22738E+00   -0.33694E+00 14961   0.253E+00    0.368E+00
RMM:   6    -0.693472481823E+03   -0.27647E-01   -0.24837E+00 13384   0.183E+00    0.976E-01
RMM:   7    -0.693659096780E+03   -0.18661E+00   -0.13830E+00 15796   0.796E-01    0.152E+00
RMM:   8    -0.693800180252E+03   -0.14108E+00   -0.10204E+00 14817   0.362E-01    0.193E+00
RMM:   9    -0.693944224980E+03   -0.14404E+00   -0.84481E-01 14286   0.241E-01    0.256E+00
RMM:  10    -0.694069568345E+03   -0.12534E+00   -0.58080E-01 14793   0.159E-01    0.312E+00
RMM:  11    -0.694108797071E+03   -0.39229E-01   -0.45685E-01 14622   0.917E-02    0.335E+00
RMM:  12    -0.694469407853E+03   -0.36061E+00   -0.97113E-01 14290   0.266E-01    0.499E+00
RMM:  13    -0.693960151012E+03    0.50926E+00   -0.51872E-01 15781   0.438E-01    0.244E+00
RMM:  14    -0.693959784459E+03    0.36655E-03   -0.15939E-01 13907   0.187E-01    0.218E+00
RMM:  15    -0.693950899478E+03    0.88850E-02   -0.60171E-02 13661   0.153E-01    0.206E+00
RMM:  16    -0.693898822607E+03    0.52077E-01   -0.52409E-02 13608   0.117E-01    0.122E+00
RMM:  17    -0.693887584132E+03    0.11238E-01   -0.22438E-02 14379   0.772E-02    0.652E-01
RMM:  18    -0.693890970119E+03   -0.33860E-02   -0.91940E-03 12396   0.361E-02    0.801E-01
RMM:  19    -0.693887255240E+03    0.37149E-02   -0.54272E-03 13143   0.376E-02    0.600E-01
RMM:  20    -0.693907607079E+03   -0.20352E-01   -0.35905E-02 15300   0.111E-01    0.150E+00
RMM:  21    -0.693898553511E+03    0.90536E-02   -0.39630E-03 12489   0.450E-02    0.122E+00
RMM:  22    -0.693883835984E+03    0.14718E-01   -0.59407E-03 13805   0.477E-02    0.256E-01
RMM:  23    -0.693883891901E+03   -0.55917E-04   -0.28328E-03 12689   0.304E-02    0.176E-01
RMM:  24    -0.693884084803E+03   -0.19290E-03   -0.37075E-04 10089   0.152E-02    0.213E-01
RMM:  25    -0.693885559708E+03   -0.14749E-02   -0.64681E-04 11641   0.177E-02    0.450E-01
RMM:  26    -0.693884069408E+03    0.14903E-02   -0.27187E-04 10372   0.139E-02    0.248E-01
RMM:  27    -0.693883957365E+03    0.11204E-03   -0.91628E-05  8023   0.703E-03    0.224E-01
RMM:  28    -0.693883474241E+03    0.48312E-03   -0.33755E-04 10311   0.123E-02    0.325E-02
RMM:  29    -0.693883547486E+03   -0.73245E-04   -0.43638E-05  7307   0.722E-03    0.895E-02
RMM:  30    -0.693883492657E+03    0.54830E-04   -0.34374E-05  6212   0.431E-03    0.442E-02
RMM:  31    -0.693883483484E+03    0.91730E-05   -0.12414E-05  5708   0.358E-03
   2 F= -.69388348E+03 E0= -.69386948E+03  d E =-.251560E+01
       N       E                     dE             d eps       ncg     rms          rms(c)
DAV:   1    -0.686963371937E+03    0.69201E+01   -0.12733E+03 13104   0.494E+01    0.116E+01
RMM:   2    -0.693800275265E+03   -0.68369E+01   -0.74360E+01 13349   0.144E+01    0.223E+00
RMM:   3    -0.695891975829E+03   -0.20917E+01   -0.18470E+01 15151   0.653E+00    0.392E+00
RMM:   4    -0.696130596762E+03   -0.23862E+00   -0.23524E+00 15591   0.212E+00    0.316E+00
RMM:   5    -0.696103832409E+03    0.26764E-01   -0.29572E-01 14535   0.826E-01    0.840E-01
RMM:   6    -0.696102369088E+03    0.14633E-02   -0.13396E-01 13240   0.600E-01    0.149E+00
RMM:   7    -0.696100388527E+03    0.19806E-02   -0.34616E-02 15573   0.255E-01    0.789E-01
RMM:   8    -0.696098038270E+03    0.23503E-02   -0.14514E-02 13098   0.185E-01    0.966E-02
RMM:   9    -0.696098122235E+03   -0.83965E-04   -0.20845E-03 15146   0.637E-02    0.998E-02
RMM:  10    -0.696098148017E+03   -0.25782E-04   -0.62662E-04 13558   0.320E-02    0.141E-02
RMM:  11    -0.696098170621E+03   -0.22604E-04   -0.20570E-04 11030   0.174E-02    0.405E-02
RMM:  12    -0.696098167184E+03    0.34371E-05   -0.60666E-05  9320   0.130E-02
   3 F= -.69609817E+03 E0= -.69608941E+03  d E =-.473028E+01
       N       E                     dE             d eps       ncg     rms          rms(c)
DAV:   1    -0.695491977366E+03    0.60619E+00   -0.23579E+02 11008   0.221E+01    0.279E+00
RMM:   2    -0.696568265847E+03   -0.10763E+01   -0.11639E+01 13621   0.692E+00    0.103E+00
RMM:   3    -0.696784709664E+03   -0.21644E+00   -0.25422E+00 15245   0.257E+00    0.111E+00
RMM:   4    -0.696794789752E+03   -0.10080E-01   -0.29515E-01 15486   0.870E-01    0.724E-01
RMM:   5    -0.696782533575E+03    0.12256E-01   -0.86829E-02 14690   0.416E-01    0.330E-01
RMM:   6    -0.696783282562E+03   -0.74899E-03   -0.18927E-02 14673   0.190E-01    0.265E-01
RMM:   7    -0.696782840609E+03    0.44195E-03   -0.74643E-03 14371   0.103E-01    0.726E-02
RMM:   8    -0.696782879955E+03   -0.39346E-04   -0.13565E-03 14306   0.465E-02    0.427E-02
RMM:   9    -0.696782890007E+03   -0.10052E-04   -0.42349E-04 11838   0.250E-02    0.984E-03
RMM:  10    -0.696782902507E+03   -0.12500E-04   -0.13212E-04 10001   0.136E-02    0.926E-03
RMM:  11    -0.696782905568E+03   -0.30615E-05   -0.46095E-05  8989   0.903E-03
   4 F= -.69678291E+03 E0= -.69677492E+03  d E =-.684738E+00
       N       E                     dE             d eps       ncg     rms          rms(c)
DAV:   1    -0.696782786052E+03    0.11645E-03   -0.69888E-02 11280   0.375E-01    0.364E-02
RMM:   2    -0.696783028787E+03   -0.24274E-03   -0.26725E-03 13414   0.105E-01    0.164E-02
RMM:   3    -0.696783076851E+03   -0.48064E-04   -0.60472E-04 14364   0.395E-02    0.167E-02
RMM:   4    -0.696783075587E+03    0.12638E-05   -0.72236E-05 10052   0.156E-02
   5 F= -.69678308E+03 E0= -.69677508E+03  d E =-.684908E+00
       N       E                     dE             d eps       ncg     rms          rms(c)
DAV:   1    -0.696502460376E+03    0.28062E+00   -0.14413E+02 10864   0.174E+01    0.231E+00
RMM:   2    -0.697105542314E+03   -0.60308E+00   -0.64992E+00 13919   0.529E+00    0.833E-01
RMM:   3    -0.697238546384E+03   -0.13300E+00   -0.14294E+00 15015   0.192E+00    0.808E-01
RMM:   4    -0.697251433168E+03   -0.12887E-01   -0.17770E-01 15506   0.659E-01    0.652E-01
RMM:   5    -0.697245934828E+03    0.54983E-02   -0.36314E-02 14346   0.293E-01    0.167E-01
RMM:   6    -0.697246825881E+03   -0.89105E-03   -0.11829E-02 14679   0.150E-01    0.235E-01
RMM:   7    -0.697246284492E+03    0.54139E-03   -0.42564E-03 13836   0.774E-02    0.452E-02
RMM:   8    -0.697246343528E+03   -0.59036E-04   -0.89452E-04 14292   0.382E-02    0.270E-02
RMM:   9    -0.697246348159E+03   -0.46307E-05   -0.20976E-04 11057   0.195E-02    0.723E-03
RMM:  10    -0.697246355146E+03   -0.69874E-05   -0.75941E-05  9159   0.109E-02
   6 F= -.69724636E+03 E0= -.69723909E+03  d E =-.463280E+00
       N       E                     dE             d eps       ncg     rms          rms(c)
DAV:   1    -0.697113976259E+03    0.13237E+00   -0.42134E+01 11248   0.944E+00    0.108E+00
RMM:   2    -0.697277241891E+03   -0.16327E+00   -0.17666E+00 13849   0.274E+00    0.427E-01
RMM:   3    -0.697312898825E+03   -0.35657E-01   -0.38522E-01 15044   0.100E+00    0.358E-01
RMM:   4    -0.697315618312E+03   -0.27195E-02   -0.46797E-02 15543   0.344E-01    0.273E-01
RMM:   5    -0.697314395980E+03    0.12223E-02   -0.99681E-03 14557   0.153E-01    0.713E-02
RMM:   6    -0.697314557838E+03   -0.16186E-03   -0.30037E-03 14114   0.790E-02    0.696E-02
RMM:   7    -0.697314543387E+03    0.14451E-04   -0.87346E-04 14199   0.385E-02    0.208E-02
RMM:   8    -0.697314559447E+03   -0.16061E-04   -0.21014E-04 10863   0.177E-02    0.104E-02
RMM:   9    -0.697314562195E+03   -0.27475E-05   -0.56681E-05  9360   0.108E-02
   7 F= -.69731456E+03 E0= -.69730693E+03  d E =-.531487E+00
       N       E                     dE             d eps       ncg     rms          rms(c)
DAV:   1    -0.696961721858E+03    0.35284E+00   -0.13996E+02 10728   0.174E+01    0.236E+00
RMM:   2    -0.697503794923E+03   -0.54207E+00   -0.58130E+00 13874   0.494E+00    0.861E-01
RMM:   3    -0.697607327772E+03   -0.10353E+00   -0.11820E+00 15171   0.180E+00    0.802E-01
RMM:   4    -0.697613073921E+03   -0.57461E-02   -0.14053E-01 15510   0.606E-01    0.615E-01
RMM:   5    -0.697608020981E+03    0.50529E-02   -0.26159E-02 15054   0.240E-01    0.326E-01
RMM:   6    -0.697605960057E+03    0.20609E-02   -0.15745E-02 12775   0.164E-01    0.121E-01
RMM:   7    -0.697605925525E+03    0.34532E-04   -0.26458E-03 15493   0.754E-02    0.668E-02
RMM:   8    -0.697605909845E+03    0.15680E-04   -0.83433E-04 12757   0.314E-02    0.244E-02
RMM:   9    -0.697605914923E+03   -0.50780E-05   -0.18021E-04 10554   0.176E-02    0.818E-03
RMM:  10    -0.697605920722E+03   -0.57985E-05   -0.67420E-05  9220   0.101E-02
   8 F= -.69760592E+03 E0= -.69759419E+03  d E =-.291359E+00
       N       E                     dE             d eps       ncg     rms          rms(c)
DAV:   1    -0.697574590919E+03    0.31324E-01   -0.11684E+01 11488   0.500E+00    0.717E-01
RMM:   2    -0.697614559920E+03   -0.39969E-01   -0.42598E-01 13413   0.136E+00    0.395E-01
RMM:   3    -0.697622232226E+03   -0.76723E-02   -0.10122E-01 15095   0.519E-01    0.292E-01
RMM:   4    -0.697622421046E+03   -0.18882E-03   -0.11816E-02 15430   0.176E-01    0.174E-01
RMM:   5    -0.697621857370E+03    0.56368E-03   -0.24320E-03 14827   0.730E-02    0.766E-02
RMM:   6    -0.697621783834E+03    0.73537E-04   -0.10988E-03 13123   0.446E-02    0.277E-02
RMM:   7    -0.697621785102E+03   -0.12687E-05   -0.19089E-04 12444   0.214E-02    0.155E-02
RMM:   8    -0.697621787147E+03   -0.20446E-05   -0.75455E-05  9417   0.118E-02
   9 F= -.69762179E+03 E0= -.69760904E+03  d E =-.307225E+00
       N       E                     dE             d eps       ncg     rms          rms(c)
DAV:   1    -0.697374344088E+03    0.24744E+00   -0.11133E+02 10720   0.157E+01    0.315E+00
RMM:   2    -0.697759454469E+03   -0.38511E+00   -0.46351E+00 13729   0.447E+00    0.125E+00
RMM:   3    -0.697850479184E+03   -0.91025E-01   -0.10614E+00 15221   0.169E+00    0.742E-01
RMM:   4    -0.697854778878E+03   -0.42997E-02   -0.12337E-01 15494   0.574E-01    0.545E-01
RMM:   5    -0.697854555933E+03    0.22294E-03   -0.24748E-02 15359   0.227E-01    0.403E-01
RMM:   6    -0.697852127091E+03    0.24288E-02   -0.89268E-03 13363   0.135E-01    0.105E-01
RMM:   7    -0.697852237185E+03   -0.11009E-03   -0.22467E-03 15361   0.663E-02    0.598E-02
RMM:   8    -0.697852221060E+03    0.16125E-04   -0.55254E-04 12857   0.286E-02    0.225E-02
RMM:   9    -0.697852226931E+03   -0.58715E-05   -0.16007E-04 10500   0.162E-02    0.769E-03
RMM:  10    -0.697852230868E+03   -0.39369E-05   -0.52278E-05  9348   0.964E-03
  10 F= -.69785223E+03 E0= -.69784050E+03  d E =-.230444E+00
       N       E                     dE             d eps       ncg     rms          rms(c)
DAV:   1    -0.696777313944E+03    0.10749E+01   -0.22817E+02 10872   0.225E+01    0.386E+00
RMM:   2    -0.697673356758E+03   -0.89604E+00   -0.97570E+00 13569   0.660E+00    0.147E+00
RMM:   3    -0.697888130432E+03   -0.21477E+00   -0.23404E+00 15360   0.254E+00    0.994E-01
RMM:   4    -0.697907907872E+03   -0.19777E-01   -0.29027E-01 15539   0.871E-01    0.745E-01
RMM:   5    -0.697901570922E+03    0.63370E-02   -0.58038E-02 14884   0.374E-01    0.180E-01
RMM:   6    -0.697902539156E+03   -0.96823E-03   -0.15228E-02 14008   0.185E-01    0.192E-01
RMM:   7    -0.697902475343E+03    0.63812E-04   -0.51887E-03 14745   0.943E-02    0.463E-02
RMM:   8    -0.697902538759E+03   -0.63416E-04   -0.10018E-03 13581   0.409E-02    0.227E-02
RMM:   9    -0.697902560702E+03   -0.21943E-04   -0.32154E-04 11867   0.224E-02    0.864E-03
RMM:  10    -0.697902571085E+03   -0.10383E-04   -0.10726E-04  9594   0.126E-02    0.822E-03
RMM:  11    -0.697902572529E+03   -0.14434E-05   -0.35322E-05  8492   0.846E-03
  11 F= -.69790257E+03 E0= -.69790257E+03  d E =-.280785E+00
       N       E                     dE             d eps       ncg     rms          rms(c)
DAV:   1    -0.697718662147E+03    0.18391E+00   -0.48567E+01 11024   0.103E+01    0.112E+00
RMM:   2    -0.697889826499E+03   -0.17116E+00   -0.18921E+00 13667   0.285E+00    0.500E-01
RMM:   3    -0.697930276281E+03   -0.40450E-01   -0.43696E-01 15245   0.108E+00    0.413E-01
RMM:   4    -0.697933075473E+03   -0.27992E-02   -0.50222E-02 15335   0.366E-01    0.304E-01
RMM:   5    -0.697932118344E+03    0.95713E-03   -0.13489E-02 14523   0.172E-01    0.103E-01
RMM:   6    -0.697932212703E+03   -0.94360E-04   -0.28597E-03 15498   0.773E-02    0.727E-02
RMM:   7    -0.697932184487E+03    0.28216E-04   -0.93863E-04 13947   0.359E-02    0.230E-02
RMM:   8    -0.697932196442E+03   -0.11955E-04   -0.21962E-04 11291   0.207E-02    0.764E-03
RMM:   9    -0.697932203249E+03   -0.68066E-05   -0.81264E-05  9799   0.119E-02
  12 F= -.69793220E+03 E0= -.69793143E+03  d E =-.310416E+00
       N       E                     dE             d eps       ncg     rms          rms(c)
DAV:   1    -0.697984631417E+03   -0.52435E-01   -0.15093E+01 10848   0.560E+00    0.812E-01
RMM:   2    -0.698036168608E+03   -0.51537E-01   -0.61126E-01 13273   0.154E+00    0.414E-01
RMM:   3    -0.698051411437E+03   -0.15243E-01   -0.16405E-01 15222   0.616E-01    0.238E-01
RMM:   4    -0.698052896594E+03   -0.14852E-02   -0.19993E-02 15411   0.217E-01    0.178E-01
RMM:   5    -0.698052734471E+03    0.16212E-03   -0.44064E-03 14388   0.979E-02    0.514E-02
RMM:   6    -0.698052797883E+03   -0.63412E-04   -0.12143E-03 14451   0.484E-02    0.364E-02
RMM:   7    -0.698052810485E+03   -0.12602E-04   -0.41642E-04 12637   0.235E-02    0.149E-02
RMM:   8    -0.698052817412E+03   -0.69273E-05   -0.97867E-05  9927   0.141E-02
  13 F= -.69805282E+03 E0= -.69805280E+03  d E =-.120614E+00
       N       E                     dE             d eps       ncg     rms          rms(c)
DAV:   1    -0.697916225816E+03    0.13658E+00   -0.60721E+01 10911   0.112E+01    0.193E+00
RMM:   2    -0.698133075511E+03   -0.21685E+00   -0.25702E+00 13539   0.316E+00    0.750E-01
RMM:   3    -0.698191547000E+03   -0.58471E-01   -0.64414E-01 15323   0.123E+00    0.493E-01
RMM:   4    -0.698197208476E+03   -0.56615E-02   -0.78680E-02 15453   0.430E-01    0.387E-01
RMM:   5    -0.698196458660E+03    0.74982E-03   -0.17192E-02 14857   0.187E-01    0.894E-02
RMM:   6    -0.698196766020E+03   -0.30736E-03   -0.47685E-03 14871   0.920E-02    0.591E-02
RMM:   7    -0.698196846291E+03   -0.80271E-04   -0.13898E-03 14669   0.439E-02    0.278E-02
RMM:   8    -0.698196877758E+03   -0.31467E-04   -0.37431E-04 11666   0.239E-02    0.115E-02
RMM:   9    -0.698196887369E+03   -0.96105E-05   -0.12261E-04 10066   0.131E-02    0.373E-03
RMM:  10    -0.698196890604E+03   -0.32355E-05   -0.40987E-05  8612   0.815E-03
  14 F= -.69819689E+03 E0= -.69819355E+03  d E =-.264687E+00
       N       E                     dE             d eps       ncg     rms          rms(c)
DAV:   1    -0.697043935765E+03    0.11530E+01   -0.24417E+02 10904   0.228E+01    0.628E+00
RMM:   2    -0.697968717108E+03   -0.92478E+00   -0.11049E+01 13373   0.668E+00    0.141E+00
RMM:   3    -0.698227857542E+03   -0.25914E+00   -0.28422E+00 15471   0.267E+00    0.141E+00
RMM:   4    -0.698251833279E+03   -0.23976E-01   -0.36955E-01 15448   0.948E-01    0.103E+00
RMM:   5    -0.698251105426E+03    0.72785E-03   -0.78226E-02 15141   0.417E-01    0.204E-01
RMM:   6    -0.698252494351E+03   -0.13889E-02   -0.20418E-02 14267   0.206E-01    0.144E-01
RMM:   7    -0.698252955344E+03   -0.46099E-03   -0.71949E-03 15248   0.105E-01    0.573E-02
RMM:   8    -0.698253080982E+03   -0.12564E-03   -0.15583E-03 13452   0.476E-02    0.232E-02
RMM:   9    -0.698253124161E+03   -0.43179E-04   -0.50762E-04 11507   0.251E-02    0.906E-03
RMM:  10    -0.698253138199E+03   -0.14038E-04   -0.16020E-04 10236   0.146E-02    0.690E-03
RMM:  11    -0.698253142240E+03   -0.40412E-05   -0.56291E-05  9131   0.879E-03
  15 F= -.69825314E+03 E0= -.69824884E+03  d E =-.320939E+00
       N       E                     dE             d eps       ncg     rms          rms(c)
DAV:   1    -0.698002409432E+03    0.25073E+00   -0.62112E+01 10672   0.114E+01    0.165E+00
RMM:   2    -0.698221620628E+03   -0.21921E+00   -0.25734E+00 13581   0.320E+00    0.643E-01
RMM:   3    -0.698276976639E+03   -0.55356E-01   -0.60502E-01 15337   0.124E+00    0.701E-01
RMM:   4    -0.698281964198E+03   -0.49876E-02   -0.72687E-02 15457   0.427E-01    0.550E-01
RMM:   5    -0.698281809970E+03    0.15423E-03   -0.20485E-02 14339   0.206E-01    0.217E-01
RMM:   6    -0.698281556559E+03    0.25341E-03   -0.50873E-03 15121   0.981E-02    0.110E-01
RMM:   7    -0.698281538746E+03    0.17814E-04   -0.18100E-03 14523   0.480E-02    0.345E-02
RMM:   8    -0.698281557519E+03   -0.18773E-04   -0.33255E-04 12022   0.258E-02    0.170E-02
RMM:   9    -0.698281568829E+03   -0.11311E-04   -0.14861E-04 10260   0.146E-02    0.922E-03
RMM:  10    -0.698281570285E+03   -0.14555E-05   -0.35240E-05  8789   0.894E-03
  16 F= -.69828157E+03 E0= -.69827681E+03  d E =-.349367E+00
       N       E                     dE             d eps       ncg     rms          rms(c)
DAV:   1    -0.698428003902E+03   -0.14644E+00   -0.23275E+01 10560   0.702E+00    0.127E+00
RMM:   2    -0.698525903842E+03   -0.97900E-01   -0.11569E+00 13705   0.204E+00    0.540E-01
RMM:   3    -0.698546746396E+03   -0.20843E-01   -0.24614E-01 15553   0.765E-01    0.314E-01
RMM:   4    -0.698547735040E+03   -0.98864E-03   -0.32061E-02 15680   0.285E-01    0.150E-01
RMM:   5    -0.698547805948E+03   -0.70907E-04   -0.80086E-03 15405   0.130E-01    0.476E-02
RMM:   6    -0.698547945191E+03   -0.13924E-03   -0.19800E-03 15146   0.638E-02    0.276E-02
RMM:   7    -0.698547988333E+03   -0.43142E-04   -0.57999E-04 13280   0.311E-02    0.118E-02
RMM:   8    -0.698548001407E+03   -0.13074E-04   -0.16486E-04 10642   0.168E-02    0.335E-03
RMM:   9    -0.698548005735E+03   -0.43284E-05   -0.56875E-05  9646   0.103E-02
  17 F= -.69854801E+03 E0= -.69854355E+03  d E =-.266435E+00
       N       E                     dE             d eps       ncg     rms          rms(c)
DAV:   1    -0.697792377583E+03    0.75562E+00   -0.20895E+02 10704   0.211E+01    0.747E+00
RMM:   2    -0.698760178486E+03   -0.96780E+00   -0.11369E+01 13958   0.642E+00    0.167E+00
RMM:   3    -0.698937570761E+03   -0.17739E+00   -0.22860E+00 15642   0.237E+00    0.118E+00
RMM:   4    -0.698945139380E+03   -0.75686E-02   -0.30987E-01 15640   0.885E-01    0.785E-01
RMM:   5    -0.698946155467E+03   -0.10161E-02   -0.73938E-02 15696   0.394E-01    0.332E-01
RMM:   6    -0.698947440370E+03   -0.12849E-02   -0.17922E-02 14477   0.198E-01    0.125E-01
RMM:   7    -0.698947960081E+03   -0.51971E-03   -0.60481E-03 15299   0.103E-01    0.447E-02
RMM:   8    -0.698948098047E+03   -0.13797E-03   -0.15512E-03 14084   0.464E-02    0.146E-02
RMM:   9    -0.698948136451E+03   -0.38404E-04   -0.47726E-04 11653   0.260E-02    0.952E-03
RMM:  10    -0.698948149458E+03   -0.13007E-04   -0.15736E-04 10393   0.145E-02    0.357E-03
RMM:  11    -0.698948154143E+03   -0.46850E-05   -0.58923E-05  9449   0.938E-03
  18 F= -.69894815E+03 E0= -.69894584E+03  d E =-.666584E+00
       N       E                     dE             d eps       ncg     rms          rms(c)
DAV:   1    -0.698983537634E+03   -0.35388E-01   -0.49224E+01 10800   0.101E+01    0.302E+00
RMM:   2    -0.699194970720E+03   -0.21143E+00   -0.24611E+00 13635   0.290E+00    0.102E+00
RMM:   3    -0.699231699211E+03   -0.36728E-01   -0.48361E-01 15526   0.108E+00    0.464E-01
RMM:   4    -0.699234122696E+03   -0.24235E-02   -0.62539E-02 15667   0.394E-01    0.260E-01
RMM:   5    -0.699234316388E+03   -0.19369E-03   -0.13905E-02 15390   0.173E-01    0.794E-02
RMM:   6    -0.699234615639E+03   -0.29925E-03   -0.35694E-03 15144   0.848E-02    0.410E-02
RMM:   7    -0.699234705102E+03   -0.89463E-04   -0.10246E-03 14191   0.415E-02    0.149E-02
RMM:   8    -0.699234731278E+03   -0.26176E-04   -0.29288E-04 11162   0.213E-02    0.441E-03
RMM:   9    -0.699234739575E+03   -0.82972E-05   -0.99236E-05 10176   0.127E-02
  19 F= -.69923474E+03 E0= -.69923070E+03  d E =-.286585E+00
       N       E                     dE             d eps       ncg     rms          rms(c)
DAV:   1    -0.699208885969E+03    0.25845E-01   -0.16042E+01 10832   0.571E+00    0.168E+00
RMM:   2    -0.699273874224E+03   -0.64988E-01   -0.77629E-01 13559   0.162E+00    0.618E-01
RMM:   3    -0.699284741045E+03   -0.10867E-01   -0.15030E-01 15490   0.603E-01    0.296E-01
RMM:   4    -0.699285410585E+03   -0.66954E-03   -0.19165E-02 15600   0.219E-01    0.152E-01
RMM:   5    -0.699285481918E+03   -0.71334E-04   -0.44104E-03 15420   0.965E-02    0.397E-02
RMM:   6    -0.699285577245E+03   -0.95327E-04   -0.10920E-03 14754   0.463E-02    0.224E-02
RMM:   7    -0.699285604252E+03   -0.27007E-04   -0.31369E-04 11908   0.231E-02    0.723E-03
RMM:   8    -0.699285612199E+03   -0.79468E-05   -0.94807E-05 10152   0.132E-02
  20 F= -.69928561E+03 E0= -.69928203E+03  d E =-.337458E+00
       N       E                     dE             d eps       ncg     rms          rms(c)
DAV:   1    -0.699360468807E+03   -0.74865E-01   -0.24644E+01 10912   0.741E+00    0.911E-01
RMM:   2    -0.699451158313E+03   -0.90690E-01   -0.98653E-01 13562   0.208E+00    0.308E-01
RMM:   3    -0.699470881379E+03   -0.19723E-01   -0.22313E-01 15264   0.788E-01    0.278E-01
RMM:   4    -0.699471910103E+03   -0.10287E-02   -0.25491E-02 15561   0.268E-01    0.180E-01
RMM:   5    -0.699471370110E+03    0.53999E-03   -0.62920E-03 14205   0.124E-01    0.483E-02
RMM:   6    -0.699471460445E+03   -0.90335E-04   -0.14148E-03 15173   0.594E-02    0.324E-02
RMM:   7    -0.699471478425E+03   -0.17980E-04   -0.39612E-04 13204   0.259E-02    0.126E-02
RMM:   8    -0.699471485367E+03   -0.69421E-05   -0.95027E-05  9999   0.140E-02
  21 F= -.69947149E+03 E0= -.69946820E+03  d E =-.185873E+00
       N       E                     dE             d eps       ncg     rms          rms(c)
DAV:   1    -0.699362822616E+03    0.10866E+00   -0.49060E+01 10768   0.105E+01    0.129E+00
RMM:   2    -0.699548183935E+03   -0.18536E+00   -0.20196E+00 13674   0.296E+00    0.440E-01
RMM:   3    -0.699587432734E+03   -0.39249E-01   -0.44591E-01 15253   0.112E+00    0.398E-01
RMM:   4    -0.699589419697E+03   -0.19870E-02   -0.51222E-02 15539   0.378E-01    0.262E-01
RMM:   5    -0.699588204607E+03    0.12151E-02   -0.13146E-02 14372   0.176E-01    0.740E-02
RMM:   6    -0.699588360896E+03   -0.15629E-03   -0.27908E-03 15192   0.831E-02    0.473E-02
RMM:   7    -0.699588396460E+03   -0.35564E-04   -0.82919E-04 14359   0.369E-02    0.182E-02
RMM:   8    -0.699588409961E+03   -0.13502E-04   -0.18451E-04 10645   0.183E-02    0.707E-03
RMM:   9    -0.699588415004E+03   -0.50424E-05   -0.66575E-05  9667   0.107E-02
  22 F= -.69958842E+03 E0= -.69958489E+03  d E =-.302803E+00
       N       E                     dE             d eps       ncg     rms          rms(c)
DAV:   1    -0.699587275110E+03    0.11349E-02   -0.42245E+01 10552   0.938E+00    0.113E+00
RMM:   2    -0.699729079375E+03   -0.14180E+00   -0.15209E+00 13185   0.248E+00    0.354E-01
RMM:   3    -0.699759967970E+03   -0.30889E-01   -0.34014E-01 15137   0.970E-01    0.342E-01
RMM:   4    -0.699761623038E+03   -0.16551E-02   -0.36200E-02 15369   0.317E-01    0.234E-01
RMM:   5    -0.699760754197E+03    0.86884E-03   -0.90838E-03 14389   0.143E-01    0.737E-02
RMM:   6    -0.699760853726E+03   -0.99528E-04   -0.19129E-03 15181   0.657E-02    0.443E-02
RMM:   7    -0.699760876779E+03   -0.23053E-04   -0.57320E-04 13482   0.299E-02    0.191E-02
RMM:   8    -0.699760885761E+03   -0.89820E-05   -0.13985E-04 10261   0.165E-02    0.815E-03
RMM:   9    -0.699760889059E+03   -0.32980E-05   -0.48876E-05  9248   0.951E-03
  23 F= -.69976089E+03 E0= -.69975761E+03  d E =-.172474E+00
       N       E                     dE             d eps       ncg     rms          rms(c)
DAV:   1    -0.699332582758E+03    0.42830E+00   -0.13062E+02 10421   0.165E+01    0.206E+00
RMM:   2    -0.699801337961E+03   -0.46876E+00   -0.50105E+00 13346   0.450E+00    0.651E-01
RMM:   3    -0.699902130939E+03   -0.10079E+00   -0.11116E+00 15141   0.175E+00    0.621E-01
RMM:   4    -0.699907091630E+03   -0.49607E-02   -0.11878E-01 15433   0.574E-01    0.400E-01
RMM:   5    -0.699904609679E+03    0.24820E-02   -0.28219E-02 14629   0.253E-01    0.117E-01
RMM:   6    -0.699904958175E+03   -0.34850E-03   -0.59500E-03 15184   0.115E-01    0.714E-02
RMM:   7    -0.699905045330E+03   -0.87154E-04   -0.17488E-03 14863   0.530E-02    0.303E-02
RMM:   8    -0.699905076103E+03   -0.30773E-04   -0.42351E-04 11970   0.258E-02    0.128E-02
RMM:   9    -0.699905088163E+03   -0.12061E-04   -0.14818E-04 10167   0.150E-02    0.659E-03
RMM:  10    -0.699905092026E+03   -0.38624E-05   -0.49007E-05  9012   0.890E-03
  24 F= -.69990509E+03 E0= -.69990169E+03  d E =-.316677E+00
       N       E                     dE             d eps       ncg     rms          rms(c)
DAV:   1    -0.699898982646E+03    0.61055E-02   -0.36653E+01 10456   0.829E+00    0.121E+00
RMM:   2    -0.700010245906E+03   -0.11126E+00   -0.11980E+00 12540   0.206E+00    0.372E-01
RMM:   3    -0.700035515527E+03   -0.25270E-01   -0.28369E-01 15123   0.846E-01    0.322E-01
RMM:   4    -0.700036514375E+03   -0.99885E-03   -0.27797E-02 15125   0.265E-01    0.180E-01
RMM:   5    -0.700036336295E+03    0.17808E-03   -0.66117E-03 14897   0.116E-01    0.568E-02
RMM:   6    -0.700036435650E+03   -0.99355E-04   -0.14592E-03 14950   0.518E-02    0.283E-02
RMM:   7    -0.700036470801E+03   -0.35151E-04   -0.42459E-04 12390   0.248E-02    0.154E-02
RMM:   8    -0.700036479527E+03   -0.87266E-05   -0.12257E-04  9933   0.150E-02    0.536E-03
RMM:   9    -0.700036482903E+03   -0.33758E-05   -0.42844E-05  8898   0.852E-03
  25 F= -.70003648E+03 E0= -.70003267E+03  d E =-.131391E+00
       N       E                     dE             d eps       ncg     rms          rms(c)
DAV:   1    -0.699511107860E+03    0.52537E+00   -0.16707E+02 10337   0.177E+01    0.304E+00
RMM:   2    -0.700063290894E+03   -0.55218E+00   -0.58929E+00 12700   0.449E+00    0.852E-01
RMM:   3    -0.700183513173E+03   -0.12022E+00   -0.13588E+00 15103   0.183E+00    0.744E-01
RMM:   4    -0.700186283033E+03   -0.27699E-02   -0.13170E-01 15093   0.576E-01    0.309E-01
RMM:   5    -0.700186715538E+03   -0.43251E-03   -0.27487E-02 15385   0.238E-01    0.917E-02
RMM:   6    -0.700187268874E+03   -0.55334E-03   -0.63231E-03 15257   0.107E-01    0.617E-02
RMM:   7    -0.700187410758E+03   -0.14188E-03   -0.18425E-03 15031   0.526E-02    0.265E-02
RMM:   8    -0.700187454516E+03   -0.43759E-04   -0.54478E-04 12390   0.272E-02    0.822E-03
RMM:   9    -0.700187470159E+03   -0.15643E-04   -0.17849E-04 10102   0.152E-02    0.342E-03
RMM:  10    -0.700187475706E+03   -0.55464E-05   -0.60229E-05  9081   0.934E-03
  26 F= -.70018748E+03 E0= -.70018314E+03  d E =-.282384E+00
       N       E                     dE             d eps       ncg     rms          rms(c)
DAV:   1    -0.700154282176E+03    0.33188E-01   -0.10224E+01 11024   0.436E+00    0.750E-01
RMM:   2    -0.700185625902E+03   -0.31344E-01   -0.33493E-01 12475   0.107E+00    0.224E-01
RMM:   3    -0.700192210275E+03   -0.65844E-02   -0.76636E-02 15052   0.437E-01    0.165E-01
RMM:   4    -0.700192369527E+03   -0.15925E-03   -0.75409E-03 14943   0.139E-01    0.456E-02
RMM:   5    -0.700192474580E+03   -0.10505E-03   -0.15324E-03 15315   0.570E-02    0.229E-02
RMM:   6    -0.700192503674E+03   -0.29094E-04   -0.34611E-04 12869   0.253E-02    0.141E-02
RMM:   7    -0.700192511711E+03   -0.80373E-05   -0.10194E-04  9967   0.136E-02    0.335E-03
RMM:   8    -0.700192514185E+03   -0.24740E-05   -0.32990E-05  8531   0.803E-03
  27 F= -.70019251E+03 E0= -.70018813E+03  d E =-.287422E+00
       N       E                     dE             d eps       ncg     rms          rms(c)
DAV:   1    -0.700091182572E+03    0.10133E+00   -0.43578E+01 10106   0.899E+00    0.178E+00
RMM:   2    -0.700237836070E+03   -0.14665E+00   -0.15726E+00 12604   0.226E+00    0.520E-01
RMM:   3    -0.700265882156E+03   -0.28046E-01   -0.33750E-01 15198   0.900E-01    0.374E-01
RMM:   4    -0.700266884514E+03   -0.10024E-02   -0.34877E-02 15074   0.286E-01    0.215E-01
RMM:   5    -0.700266654191E+03    0.23032E-03   -0.80971E-03 14968   0.126E-01    0.468E-02
RMM:   6    -0.700266817051E+03   -0.16286E-03   -0.18788E-03 14815   0.575E-02    0.341E-02
RMM:   7    -0.700266864459E+03   -0.47408E-04   -0.53389E-04 12839   0.281E-02    0.168E-02
RMM:   8    -0.700266876539E+03   -0.12081E-04   -0.16610E-04 10144   0.157E-02    0.295E-03
RMM:   9    -0.700266880943E+03   -0.44040E-05   -0.53703E-05  9168   0.949E-03
  28 F= -.70026688E+03 E0= -.70026242E+03  d E =-.743668E-01
       N       E                     dE             d eps       ncg     rms          rms(c)
DAV:   1    -0.700257124257E+03    0.97523E-02   -0.36449E+00 10870   0.260E+00    0.528E-01
RMM:   2    -0.700269469973E+03   -0.12346E-01   -0.13241E-01 12596   0.647E-01    0.158E-01
RMM:   3    -0.700271687205E+03   -0.22172E-02   -0.27236E-02 15166   0.256E-01    0.116E-01
RMM:   4    -0.700271780496E+03   -0.93290E-04   -0.28778E-03 14975   0.817E-02    0.779E-02
RMM:   5    -0.700271744064E+03    0.36432E-04   -0.68665E-04 13381   0.371E-02    0.136E-02
RMM:   6    -0.700271757395E+03   -0.13331E-04   -0.15926E-04 10748   0.175E-02    0.948E-03
RMM:   7    -0.700271761064E+03   -0.36694E-05   -0.49369E-05  9294   0.103E-02
  29 F= -.70027176E+03 E0= -.70026728E+03  d E =-.792469E-01
       N       E                     dE             d eps       ncg     rms          rms(c)
DAV:   1    -0.700284358030E+03   -0.12601E-01   -0.78995E+00 10440   0.414E+00    0.853E-01
RMM:   2    -0.700312935871E+03   -0.28578E-01   -0.31054E-01 13457   0.110E+00    0.221E-01
RMM:   3    -0.700317666749E+03   -0.47309E-02   -0.57908E-02 15332   0.402E-01    0.173E-01
RMM:   4    -0.700317775151E+03   -0.10840E-03   -0.63361E-03 15375   0.134E-01    0.939E-02
RMM:   5    -0.700317727564E+03    0.47587E-04   -0.14387E-03 14605   0.585E-02    0.240E-02
RMM:   6    -0.700317754902E+03   -0.27338E-04   -0.33188E-04 13600   0.271E-02    0.186E-02
RMM:   7    -0.700317762611E+03   -0.77097E-05   -0.92070E-05  9995   0.133E-02
  30 F= -.70031776E+03 E0= -.70031334E+03  d E =-.460015E-01
       N       E                     dE             d eps       ncg     rms          rms(c)
DAV:   1    -0.700301171882E+03    0.16583E-01   -0.88427E+00 10744   0.438E+00    0.889E-01
RMM:   2    -0.700333178765E+03   -0.32007E-01   -0.34738E-01 13454   0.117E+00    0.233E-01
RMM:   3    -0.700338593917E+03   -0.54152E-02   -0.65857E-02 15344   0.428E-01    0.182E-01
RMM:   4    -0.700338735373E+03   -0.14146E-03   -0.72061E-03 15383   0.142E-01    0.100E-01
RMM:   5    -0.700338680319E+03    0.55054E-04   -0.16390E-03 14587   0.625E-02    0.249E-02
RMM:   6    -0.700338712186E+03   -0.31867E-04   -0.38459E-04 14030   0.290E-02    0.193E-02
RMM:   7    -0.700338721138E+03   -0.89519E-05   -0.10548E-04 10138   0.139E-02    0.678E-03
RMM:   8    -0.700338722998E+03   -0.18598E-05   -0.35501E-05  8604   0.900E-03
  31 F= -.70033872E+03 E0= -.70033438E+03  d E =-.669619E-01
       N       E                     dE             d eps       ncg     rms          rms(c)
DAV:   1    -0.700337547730E+03    0.11734E-02   -0.47899E-01 11168   0.102E+00    0.205E-01
RMM:   2    -0.700339268865E+03   -0.17211E-02   -0.18625E-02 13437   0.268E-01    0.531E-02
RMM:   3    -0.700339546014E+03   -0.27715E-03   -0.33888E-03 15224   0.976E-02    0.421E-02
RMM:   4    -0.700339553589E+03   -0.75751E-05   -0.38157E-04 14159   0.335E-02    0.236E-02
RMM:   5    -0.700339551174E+03    0.24155E-05   -0.94669E-05 10899   0.164E-02
  32 F= -.70033955E+03 E0= -.70033522E+03  d E =-.677901E-01
       N       E                     dE             d eps       ncg     rms          rms(c)
DAV:   1    -0.700319759538E+03    0.19794E-01   -0.12399E+01 10728   0.521E+00    0.666E-01
RMM:   2    -0.700361846378E+03   -0.42087E-01   -0.45313E-01 13237   0.137E+00    0.204E-01
RMM:   3    -0.700370130847E+03   -0.82845E-02   -0.94505E-02 15295   0.518E-01    0.212E-01
RMM:   4    -0.700370414369E+03   -0.28352E-03   -0.10257E-02 15332   0.170E-01    0.137E-01
RMM:   5    -0.700370182612E+03    0.23176E-03   -0.26369E-03 14245   0.793E-02    0.347E-02
RMM:   6    -0.700370221447E+03   -0.38834E-04   -0.61103E-04 14793   0.373E-02    0.243E-02
RMM:   7    -0.700370230768E+03   -0.93218E-05   -0.19235E-04 11880   0.185E-02    0.194E-02
RMM:   8    -0.700370229733E+03    0.10356E-05   -0.54006E-05  9059   0.109E-02
  33 F= -.70037023E+03 E0= -.70036599E+03  d E =-.306786E-01
       N       E                     dE             d eps       ncg     rms          rms(c)
DAV:   1    -0.700366126881E+03    0.41039E-02   -0.18061E+00 11456   0.199E+00    0.255E-01
RMM:   2    -0.700372232319E+03   -0.61054E-02   -0.65664E-02 13241   0.519E-01    0.774E-02
RMM:   3    -0.700373406269E+03   -0.11739E-02   -0.13408E-02 15264   0.195E-01    0.804E-02
RMM:   4    -0.700373447641E+03   -0.41372E-04   -0.14908E-03 15018   0.648E-02    0.525E-02
RMM:   5    -0.700373415538E+03    0.32103E-04   -0.39235E-04 13207   0.309E-02    0.128E-02
RMM:   6    -0.700373420903E+03   -0.53647E-05   -0.86498E-05 10363   0.145E-02
  34 F= -.70037342E+03 E0= -.70036922E+03  d E =-.338697E-01
       N       E                     dE             d eps       ncg     rms          rms(c)
DAV:   1    -0.700361940276E+03    0.11475E-01   -0.67542E+00 10672   0.379E+00    0.490E-01
RMM:   2    -0.700384864323E+03   -0.22924E-01   -0.24360E-01 13156   0.997E-01    0.177E-01
RMM:   3    -0.700389577344E+03   -0.47130E-02   -0.52526E-02 15265   0.383E-01    0.142E-01
RMM:   4    -0.700389750377E+03   -0.17303E-03   -0.57433E-03 15234   0.127E-01    0.626E-02
RMM:   5    -0.700389784435E+03   -0.34058E-04   -0.12984E-03 15090   0.560E-02    0.234E-02
RMM:   6    -0.700389805301E+03   -0.20866E-04   -0.29051E-04 13231   0.252E-02    0.137E-02
RMM:   7    -0.700389811203E+03   -0.59016E-05   -0.85497E-05  9964   0.134E-02
  35 F= -.70038981E+03 E0= -.70038571E+03  d E =-.163903E-01
       N       E                     dE             d eps       ncg     rms          rms(c)
DAV:   1    -0.700388309497E+03    0.14958E-02   -0.83777E-01 11304   0.133E+00    0.172E-01
RMM:   2    -0.700391138511E+03   -0.28290E-02   -0.30056E-02 13144   0.350E-01    0.614E-02
RMM:   3    -0.700391718161E+03   -0.57965E-03   -0.64664E-03 15248   0.135E-01    0.507E-02
RMM:   4    -0.700391743322E+03   -0.25161E-04   -0.71844E-04 14920   0.449E-02    0.244E-02
RMM:   5    -0.700391746151E+03   -0.28289E-05   -0.17296E-04 12278   0.210E-02    0.784E-03
RMM:   6    -0.700391748374E+03   -0.22232E-05   -0.36606E-05  8984   0.101E-02
  36 F= -.70039175E+03 E0= -.70038769E+03  d E =-.183275E-01
       N       E                     dE             d eps       ncg     rms          rms(c)
DAV:   1    -0.700384472308E+03    0.72738E-02   -0.44284E+00 10552   0.300E+00    0.365E-01
RMM:   2    -0.700398308242E+03   -0.13836E-01   -0.14543E-01 12831   0.752E-01    0.116E-01
RMM:   3    -0.700401311475E+03   -0.30032E-02   -0.32525E-02 15105   0.296E-01    0.106E-01
RMM:   4    -0.700401417354E+03   -0.10588E-03   -0.32386E-03 15107   0.954E-02    0.475E-02
RMM:   5    -0.700401422350E+03   -0.49965E-05   -0.74564E-04 14421   0.416E-02    0.223E-02
RMM:   6    -0.700401430018E+03   -0.76679E-05   -0.15348E-04 11856   0.184E-02    0.104E-02
RMM:   7    -0.700401433375E+03   -0.33569E-05   -0.49233E-05  9101   0.104E-02
  37 F= -.70040143E+03 E0= -.70039738E+03  d E =-.968500E-02
       N       E                     dE             d eps       ncg     rms          rms(c)
DAV:   1    -0.700398071014E+03    0.33590E-02   -0.15812E+00 11000   0.179E+00    0.217E-01
RMM:   2    -0.700402989402E+03   -0.49184E-02   -0.51685E-02 12834   0.447E-01    0.692E-02
RMM:   3    -0.700404050583E+03   -0.10612E-02   -0.11494E-02 15098   0.175E-01    0.631E-02
RMM:   4    -0.700404087923E+03   -0.37340E-04   -0.11462E-03 14934   0.565E-02    0.286E-02
RMM:   5    -0.700404090361E+03   -0.24379E-05   -0.27437E-04 12481   0.252E-02    0.135E-02
RMM:   6    -0.700404092429E+03   -0.20680E-05   -0.53434E-05  9430   0.118E-02
  38 F= -.70040409E+03 E0= -.70040005E+03  d E =-.123441E-01
       N       E                     dE             d eps       ncg     rms          rms(c)
DAV:   1    -0.700378131902E+03    0.25958E-01   -0.63240E+00 10592   0.358E+00    0.436E-01
RMM:   2    -0.700397987486E+03   -0.19856E-01   -0.20870E-01 12865   0.902E-01    0.139E-01
RMM:   3    -0.700402289386E+03   -0.43019E-02   -0.46616E-02 15120   0.353E-01    0.127E-01
RMM:   4    -0.700402436541E+03   -0.14716E-03   -0.46157E-03 15136   0.114E-01    0.573E-02
RMM:   5    -0.700402442907E+03   -0.63658E-05   -0.10654E-03 14599   0.494E-02    0.266E-02
RMM:   6    -0.700402454491E+03   -0.11584E-04   -0.22171E-04 12730   0.218E-02    0.125E-02
RMM:   7    -0.700402459294E+03   -0.48029E-05   -0.68769E-05  9510   0.116E-02
  39 F= -.70040246E+03 E0= -.70039845E+03  d E =-.107109E-01
       N       E                     dE             d eps       ncg     rms          rms(c)
DAV:   1    -0.700391730502E+03    0.10724E-01   -0.33793E+00 10528   0.262E+00    0.323E-01
RMM:   2    -0.700402243847E+03   -0.10513E-01   -0.11044E-01 12849   0.654E-01    0.102E-01
RMM:   3    -0.700404480459E+03   -0.22366E-02   -0.24200E-02 15107   0.256E-01    0.909E-02
RMM:   4    -0.700404556077E+03   -0.75618E-04   -0.23882E-03 15058   0.823E-02    0.411E-02
RMM:   5    -0.700404557549E+03   -0.14724E-05   -0.54270E-04 13989   0.359E-02    0.188E-02
RMM:   6    -0.700404562684E+03   -0.51341E-05   -0.10725E-04 10848   0.160E-02    0.880E-03
RMM:   7    -0.700404565408E+03   -0.27242E-05   -0.37045E-05  8754   0.982E-03
  40 F= -.70040457E+03 E0= -.70040053E+03  d E =-.128170E-01
       N       E                     dE             d eps       ncg     rms          rms(c)
DAV:   1    -0.700393380147E+03    0.11183E-01   -0.45351E+00 10504   0.305E+00    0.358E-01
RMM:   2    -0.700407066851E+03   -0.13687E-01   -0.14477E-01 12717   0.773E-01    0.116E-01
RMM:   3    -0.700410519799E+03   -0.34529E-02   -0.36589E-02 15091   0.314E-01    0.111E-01
RMM:   4    -0.700410747059E+03   -0.22726E-03   -0.37427E-03 15203   0.100E-01    0.796E-02
RMM:   5    -0.700410684051E+03    0.63008E-04   -0.94745E-04 13561   0.466E-02    0.321E-02
RMM:   6    -0.700410693229E+03   -0.91788E-05   -0.20315E-04 12788   0.219E-02    0.198E-02
RMM:   7    -0.700410693577E+03   -0.34718E-06   -0.73779E-05  9594   0.124E-02
  41 F= -.70041069E+03 E0= -.70040674E+03  d E =-.612817E-02
       N       E                     dE             d eps       ncg     rms          rms(c)
DAV:   1    -0.700409075566E+03    0.16177E-02   -0.65290E-01 11216   0.116E+00    0.134E-01
RMM:   2    -0.700411034084E+03   -0.19585E-02   -0.20683E-02 12704   0.288E-01    0.430E-02
RMM:   3    -0.700411513881E+03   -0.47980E-03   -0.50856E-03 15022   0.116E-01    0.420E-02
RMM:   4    -0.700411546984E+03   -0.33104E-04   -0.53738E-04 13894   0.376E-02    0.309E-02
RMM:   5    -0.700411539529E+03    0.74549E-05   -0.15590E-04 11313   0.197E-02    0.139E-02
RMM:   6    -0.700411540045E+03   -0.51586E-06   -0.30287E-05  8353   0.884E-03
  42 F= -.70041154E+03 E0= -.70040763E+03  d E =-.697464E-02
       N       E                     dE             d eps       ncg     rms          rms(c)
DAV:   1    -0.700411101101E+03    0.43843E-03   -0.14554E-01 11366   0.548E-01    0.618E-02
RMM:   2    -0.700411547503E+03   -0.44640E-03   -0.47066E-03 12741   0.136E-01    0.204E-02
RMM:   3    -0.700411651428E+03   -0.10392E-03   -0.11192E-03 14787   0.546E-02    0.209E-02
RMM:   4    -0.700411658166E+03   -0.67382E-05   -0.12191E-04 11825   0.187E-02    0.151E-02
RMM:   5    -0.700411656524E+03    0.16417E-05   -0.39910E-05  9198   0.112E-02
  43 F= -.70041166E+03 E0= -.70040776E+03  d E =-.709112E-02
       N       E                     dE             d eps       ncg     rms          rms(c)
DAV:   1    -0.700403890601E+03    0.77676E-02   -0.29949E+00 10536   0.252E+00    0.336E-01
RMM:   2    -0.700413271596E+03   -0.93810E-02   -0.99755E-02 12851   0.640E-01    0.998E-02
RMM:   3    -0.700415605604E+03   -0.23340E-02   -0.24833E-02 15176   0.258E-01    0.943E-02
RMM:   4    -0.700415758166E+03   -0.15256E-03   -0.25924E-03 15192   0.839E-02    0.720E-02
RMM:   5    -0.700415738631E+03    0.19535E-04   -0.50714E-04 14254   0.346E-02    0.267E-02
RMM:   6    -0.700415747168E+03   -0.85375E-05   -0.14926E-04 11165   0.184E-02    0.140E-02
RMM:   7    -0.700415747374E+03   -0.20520E-06   -0.41346E-05  9161   0.109E-02
  44 F= -.70041575E+03 E0= -.70041184E+03  d E =-.409085E-02
       N       E                     dE             d eps       ncg     rms          rms(c)
DAV:   1    -0.700415091613E+03    0.65556E-03   -0.28371E-01 11192   0.775E-01    0.968E-02
RMM:   2    -0.700415985609E+03   -0.89400E-03   -0.94583E-03 12855   0.193E-01    0.296E-02
RMM:   3    -0.700416192308E+03   -0.20670E-03   -0.22235E-03 15018   0.769E-02    0.310E-02
RMM:   4    -0.700416204556E+03   -0.12248E-04   -0.23942E-04 12878   0.257E-02    0.233E-02
RMM:   5    -0.700416202480E+03    0.20758E-05   -0.58135E-05  9903   0.137E-02
  45 F= -.70041620E+03 E0= -.70041229E+03  d E =-.454596E-02
       N       E                     dE             d eps       ncg     rms          rms(c)
DAV:   1    -0.700411579854E+03    0.46247E-02   -0.11274E+00 10672   0.154E+00    0.206E-01
RMM:   2    -0.700415090676E+03   -0.35108E-02   -0.37348E-02 12824   0.392E-01    0.612E-02
RMM:   3    -0.700415966911E+03   -0.87624E-03   -0.93126E-03 15139   0.158E-01    0.570E-02
RMM:   4    -0.700416026711E+03   -0.59800E-04   -0.98473E-04 14953   0.518E-02    0.443E-02
RMM:   5    -0.700416020776E+03    0.59353E-05   -0.20136E-04 12379   0.223E-02    0.168E-02
RMM:   6    -0.700416024140E+03   -0.33646E-05   -0.58514E-05  9326   0.118E-02
  46 F= -.70041602E+03 E0= -.70041211E+03  d E =-.436762E-02
       N       E                     dE             d eps       ncg     rms          rms(c)
DAV:   1    -0.700414180571E+03    0.18402E-02   -0.55433E-01 10600   0.108E+00    0.149E-01
RMM:   2    -0.700415899398E+03   -0.17188E-02   -0.18292E-02 12864   0.271E-01    0.441E-02
RMM:   3    -0.700416292228E+03   -0.39283E-03   -0.42140E-03 15109   0.108E-01    0.418E-02
RMM:   4    -0.700416318770E+03   -0.26542E-04   -0.44110E-04 14138   0.354E-02    0.316E-02
RMM:   5    -0.700416312041E+03    0.67284E-05   -0.10583E-04 10895   0.177E-02    0.762E-03
RMM:   6    -0.700416314004E+03   -0.19629E-05   -0.26250E-05  7566   0.882E-03
  47 F= -.70041631E+03 E0= -.70041240E+03  d E =-.465748E-02
       N       E                     dE             d eps       ncg     rms          rms(c)
DAV:   1    -0.700412161642E+03    0.41504E-02   -0.15278E+00 10360   0.183E+00    0.292E-01
RMM:   2    -0.700417260119E+03   -0.50985E-02   -0.54025E-02 13080   0.475E-01    0.808E-02
RMM:   3    -0.700418392549E+03   -0.11324E-02   -0.12361E-02 15216   0.187E-01    0.700E-02
RMM:   4    -0.700418472350E+03   -0.79802E-04   -0.12965E-03 15094   0.611E-02    0.500E-02
RMM:   5    -0.700418459167E+03    0.13183E-04   -0.29296E-04 12896   0.277E-02    0.114E-02
RMM:   6    -0.700418464485E+03   -0.53185E-05   -0.64289E-05  9826   0.133E-02
  48 F= -.70041846E+03 E0= -.70041459E+03  d E =-.215048E-02
       N       E                     dE             d eps       ncg     rms          rms(c)
DAV:   1    -0.700418328737E+03    0.13043E-03   -0.57883E-02 11288   0.357E-01    0.508E-02
RMM:   2    -0.700418536174E+03   -0.20744E-03   -0.21892E-03 13093   0.977E-02    0.146E-02
RMM:   3    -0.700418582694E+03   -0.46521E-04   -0.51780E-04 14503   0.387E-02    0.167E-02
RMM:   4    -0.700418586213E+03   -0.35192E-05   -0.62436E-05 10439   0.149E-02
  49 F= -.70041859E+03 E0= -.70041472E+03  d E =-.227221E-02
       N       E                     dE             d eps       ncg     rms          rms(c)
DAV:   1    -0.700417257245E+03    0.13254E-02   -0.65800E-01 10416   0.117E+00    0.168E-01
RMM:   2    -0.700419323638E+03   -0.20664E-02   -0.21935E-02 12756   0.297E-01    0.480E-02
RMM:   3    -0.700419784823E+03   -0.46119E-03   -0.50441E-03 15203   0.118E-01    0.455E-02
RMM:   4    -0.700419811510E+03   -0.26687E-04   -0.53366E-04 14541   0.381E-02    0.287E-02
RMM:   5    -0.700419807941E+03    0.35688E-05   -0.13076E-04 11089   0.186E-02    0.827E-03
RMM:   6    -0.700419810012E+03   -0.20710E-05   -0.30659E-05  8319   0.935E-03
  50 F= -.70041981E+03 E0= -.70041593E+03  d E =-.122380E-02
       N       E                     dE             d eps       ncg     rms          rms(c)
DAV:   1    -0.700419712690E+03    0.95251E-04   -0.73924E-02 11128   0.394E-01    0.531E-02
RMM:   2    -0.700419950638E+03   -0.23795E-03   -0.25169E-03 12796   0.986E-02    0.155E-02
RMM:   3    -0.700420000549E+03   -0.49911E-04   -0.56201E-04 14646   0.391E-02    0.165E-02
RMM:   4    -0.700420003155E+03   -0.26062E-05   -0.61942E-05  9940   0.137E-02
  51 F= -.70042000E+03 E0= -.70041611E+03  d E =-.141694E-02
       N       E                     dE             d eps       ncg     rms          rms(c)
DAV:   1    -0.700418912382E+03    0.10882E-02   -0.29238E-01 10392   0.783E-01    0.113E-01
RMM:   2    -0.700419831617E+03   -0.91924E-03   -0.97574E-03 12839   0.197E-01    0.320E-02
RMM:   3    -0.700420029710E+03   -0.19809E-03   -0.21640E-03 15133   0.773E-02    0.296E-02
RMM:   4    -0.700420040468E+03   -0.10758E-04   -0.23353E-04 12636   0.250E-02    0.177E-02
RMM:   5    -0.700420040094E+03    0.37407E-06   -0.64826E-05 10132   0.147E-02
  52 F= -.70042004E+03 E0= -.70041614E+03  d E =-.145388E-02
       N       E                     dE             d eps       ncg     rms          rms(c)
DAV:   1    -0.700419714660E+03    0.32581E-03   -0.95292E-02 10384   0.447E-01    0.636E-02
RMM:   2    -0.700420012994E+03   -0.29833E-03   -0.31594E-03 12794   0.112E-01    0.183E-02
RMM:   3    -0.700420073804E+03   -0.60809E-04   -0.68293E-04 14855   0.438E-02    0.171E-02
RMM:   4    -0.700420076014E+03   -0.22106E-05   -0.70709E-05 10736   0.148E-02
  53 F= -.70042008E+03 E0= -.70041618E+03  d E =-.148980E-02
       N       E                     dE             d eps       ncg     rms          rms(c)
DAV:   1    -0.700418868153E+03    0.12057E-02   -0.52820E-01 10406   0.106E+00    0.132E-01
RMM:   2    -0.700420463882E+03   -0.15957E-02   -0.16776E-02 12596   0.267E-01    0.389E-02
RMM:   3    -0.700420874032E+03   -0.41015E-03   -0.43108E-03 15110   0.110E-01    0.378E-02
RMM:   4    -0.700420898804E+03   -0.24771E-04   -0.43219E-04 14030   0.352E-02    0.243E-02
RMM:   5    -0.700420895510E+03    0.32937E-05   -0.10926E-04 10912   0.178E-02    0.919E-03
RMM:   6    -0.700420896724E+03   -0.12137E-05   -0.23865E-05  7694   0.842E-03
  54 F= -.70042090E+03 E0= -.70041700E+03  d E =-.820710E-03
       N       E                     dE             d eps       ncg     rms          rms(c)
DAV:   1    -0.700420351200E+03    0.54431E-03   -0.20726E-01 10728   0.666E-01    0.803E-02
RMM:   2    -0.700420981611E+03   -0.63041E-03   -0.66232E-03 12677   0.164E-01    0.241E-02
RMM:   3    -0.700421130182E+03   -0.14857E-03   -0.15773E-03 14980   0.664E-02    0.239E-02
RMM:   4    -0.700421138577E+03   -0.83950E-05   -0.16784E-04 12331   0.218E-02    0.145E-02
RMM:   5    -0.700421138212E+03    0.36521E-06   -0.47178E-05  9363   0.125E-02
  55 F= -.70042114E+03 E0= -.70041725E+03  d E =-.106220E-02
       N       E                     dE             d eps       ncg     rms          rms(c)
DAV:   1    -0.700417848005E+03    0.32906E-02   -0.82522E-01 10463   0.133E+00    0.167E-01
RMM:   2    -0.700420312523E+03   -0.24645E-02   -0.25952E-02 12571   0.334E-01    0.495E-02
RMM:   3    -0.700420970267E+03   -0.65774E-03   -0.68625E-03 15131   0.139E-01    0.464E-02
RMM:   4    -0.700421013788E+03   -0.43522E-04   -0.70304E-04 14744   0.443E-02    0.303E-02
RMM:   5    -0.700421010013E+03    0.37759E-05   -0.16980E-04 11857   0.207E-02    0.111E-02
RMM:   6    -0.700421012078E+03   -0.20651E-05   -0.35817E-05  8593   0.989E-03
  56 F= -.70042101E+03 E0= -.70041713E+03  d E =-.936063E-03
       N       E                     dE             d eps       ncg     rms          rms(c)
DAV:   1    -0.700419371094E+03    0.16389E-02   -0.48069E-01 10399   0.101E+00    0.130E-01
RMM:   2    -0.700420785699E+03   -0.14146E-02   -0.14900E-02 12573   0.252E-01    0.384E-02
RMM:   3    -0.700421157713E+03   -0.37201E-03   -0.38808E-03 15111   0.105E-01    0.345E-02
RMM:   4    -0.700421180007E+03   -0.22295E-04   -0.38157E-04 13702   0.333E-02    0.220E-02
RMM:   5    -0.700421177779E+03    0.22283E-05   -0.98001E-05 10957   0.176E-02
  57 F= -.70042118E+03 E0= -.70041729E+03  d E =-.110176E-02
       N       E                     dE             d eps       ncg     rms          rms(c)
DAV:   1    -0.700420711443E+03    0.46856E-03   -0.12009E-01 10416   0.507E-01    0.612E-02
RMM:   2    -0.700421068122E+03   -0.35668E-03   -0.37446E-03 12654   0.124E-01    0.186E-02
RMM:   3    -0.700421149245E+03   -0.81123E-04   -0.87537E-04 14747   0.500E-02    0.176E-02
RMM:   4    -0.700421152945E+03   -0.37002E-05   -0.90590E-05 11342   0.167E-02
  58 F= -.70042115E+03 E0= -.70041726E+03  d E =-.107693E-02
       N       E                     dE             d eps       ncg     rms          rms(c)
DAV:   1    -0.700420980575E+03    0.16867E-03   -0.51644E-02 10614   0.333E-01    0.402E-02
RMM:   2    -0.700421146035E+03   -0.16546E-03   -0.17311E-03 12680   0.853E-02    0.117E-02
RMM:   3    -0.700421183954E+03   -0.37920E-04   -0.40890E-04 13875   0.347E-02    0.121E-02
RMM:   4    -0.700421185674E+03   -0.17198E-05   -0.47540E-05  8729   0.137E-02
  59 F= -.70042119E+03 E0= -.70041730E+03  d E =-.110966E-02
       N       E                     dE             d eps       ncg     rms          rms(c)
DAV:   1    -0.700419893855E+03    0.12901E-02   -0.45817E-01 10512   0.100E+00    0.111E-01
RMM:   2    -0.700421340614E+03   -0.14468E-02   -0.15151E-02 12902   0.255E-01    0.344E-02
RMM:   3    -0.700421683618E+03   -0.34300E-03   -0.36105E-03 15086   0.102E-01    0.344E-02
RMM:   4    -0.700421704753E+03   -0.21136E-04   -0.38240E-04 13948   0.335E-02    0.221E-02
RMM:   5    -0.700421701508E+03    0.32452E-05   -0.10194E-04 10875   0.175E-02    0.862E-03
RMM:   6    -0.700421702559E+03   -0.10509E-05   -0.22577E-05  7587   0.827E-03
  60 F= -.70042170E+03 E0= -.70041780E+03  d E =-.516885E-03
       N       E                     dE             d eps       ncg     rms          rms(c)
DAV:   1    -0.700421647243E+03    0.54265E-04   -0.25053E-02 11342   0.234E-01    0.239E-02
RMM:   2    -0.700421729886E+03   -0.82643E-04   -0.86377E-04 12855   0.591E-02    0.818E-03
RMM:   3    -0.700421746010E+03   -0.16124E-04   -0.18755E-04 12699   0.235E-02    0.896E-03
RMM:   4    -0.700421746905E+03   -0.89514E-06   -0.25454E-05  7069   0.108E-02
  61 F= -.70042175E+03 E0= -.70041784E+03  d E =-.561231E-03
       N       E                     dE             d eps       ncg     rms          rms(c)
DAV:   1    -0.700421459735E+03    0.28627E-03   -0.14756E-01 10544   0.568E-01    0.648E-02
RMM:   2    -0.700421941378E+03   -0.48164E-03   -0.50624E-03 12950   0.148E-01    0.201E-02
RMM:   3    -0.700422052573E+03   -0.11120E-03   -0.11990E-03 15088   0.584E-02    0.196E-02
RMM:   4    -0.700422060790E+03   -0.82165E-05   -0.13427E-04 12313   0.197E-02    0.140E-02
RMM:   5    -0.700422059191E+03    0.15984E-05   -0.43655E-05  9363   0.127E-02
  62 F= -.70042206E+03 E0= -.70041815E+03  d E =-.312286E-03
       N       E                     dE             d eps       ncg     rms          rms(c)
DAV:   1    -0.700421823172E+03    0.23762E-03   -0.69131E-02 10864   0.389E-01    0.459E-02
RMM:   2    -0.700422054596E+03   -0.23142E-03   -0.24319E-03 12970   0.102E-01    0.138E-02
RMM:   3    -0.700422107895E+03   -0.53299E-04   -0.57440E-04 14681   0.404E-02    0.135E-02
RMM:   4    -0.700422112192E+03   -0.42969E-05   -0.69050E-05 10704   0.148E-02
  63 F= -.70042211E+03 E0= -.70041821E+03  d E =-.365287E-03
       N       E                     dE             d eps       ncg     rms          rms(c)
DAV:   1    -0.700422072620E+03    0.35275E-04   -0.68946E-03 10872   0.126E-01    0.121E-02
RMM:   2    -0.700422101099E+03   -0.28479E-04   -0.30518E-04 12639   0.384E-02    0.482E-03
RMM:   3    -0.700422105837E+03   -0.47380E-05   -0.61597E-05  8945   0.150E-02
  64 F= -.70042211E+03 E0= -.70041820E+03  d E =-.358932E-03
       N       E                     dE             d eps       ncg     rms          rms(c)
DAV:   1    -0.700422097981E+03    0.31187E-05   -0.28504E-03 11632   0.796E-02    0.117E-02
RMM:   2    -0.700422109030E+03   -0.11049E-04   -0.11759E-04 11585   0.226E-02    0.335E-03
RMM:   3    -0.700422110482E+03   -0.14529E-05   -0.25414E-05  6485   0.984E-03
  65 F= -.70042211E+03 E0= -.70041821E+03  d E =-.363577E-03
       N       E                     dE             d eps       ncg     rms          rms(c)
DAV:   1    -0.700421801479E+03    0.30755E-03   -0.13538E-01 10579   0.539E-01    0.600E-02
RMM:   2    -0.700422207407E+03   -0.40593E-03   -0.42793E-03 12541   0.136E-01    0.191E-02
RMM:   3    -0.700422313060E+03   -0.10565E-03   -0.11152E-03 14932   0.562E-02    0.190E-02
RMM:   4    -0.700422320856E+03   -0.77955E-05   -0.12475E-04 12058   0.192E-02    0.137E-02
RMM:   5    -0.700422319776E+03    0.10804E-05   -0.40750E-05  9125   0.122E-02
  66 F= -.70042232E+03 E0= -.70041842E+03  d E =-.209293E-03
       N       E                     dE             d eps       ncg     rms          rms(c)
DAV:   1    -0.700421456631E+03    0.86422E-03   -0.23623E-01 10744   0.712E-01    0.822E-02
RMM:   2    -0.700422161698E+03   -0.70507E-03   -0.74364E-03 12533   0.178E-01    0.253E-02
RMM:   3    -0.700422347953E+03   -0.18625E-03   -0.19459E-03 15078   0.739E-02    0.244E-02
RMM:   4    -0.700422362422E+03   -0.14469E-04   -0.21035E-04 12735   0.244E-02    0.185E-02
RMM:   5    -0.700422360597E+03    0.18254E-05   -0.68761E-05 10279   0.151E-02
  67 F= -.70042236E+03 E0= -.70041846E+03  d E =-.250115E-03
       N       E                     dE             d eps       ncg     rms          rms(c)
DAV:   1    -0.700422241083E+03    0.12134E-03   -0.38000E-02 10656   0.285E-01    0.288E-02
RMM:   2    -0.700422350342E+03   -0.10926E-03   -0.11523E-03 12483   0.689E-02    0.996E-03
RMM:   3    -0.700422374202E+03   -0.23860E-04   -0.26921E-04 13085   0.281E-02    0.104E-02
RMM:   4    -0.700422375326E+03   -0.11239E-05   -0.31780E-05  7400   0.117E-02
  68 F= -.70042238E+03 E0= -.70041847E+03  d E =-.264844E-03
       N       E                     dE             d eps       ncg     rms          rms(c)
DAV:   1    -0.700422344207E+03    0.29995E-04   -0.75965E-03 10732   0.128E-01    0.128E-02
RMM:   2    -0.700422369056E+03   -0.24849E-04   -0.26163E-04 12314   0.327E-02    0.457E-03
RMM:   3    -0.700422373469E+03   -0.44128E-05   -0.56637E-05  8560   0.135E-02
  69 F= -.70042237E+03 E0= -.70041847E+03  d E =-.262987E-03
       N       E                     dE             d eps       ncg     rms          rms(c)
DAV:   1    -0.700422364485E+03    0.45710E-05   -0.27006E-03 11014   0.763E-02    0.110E-02
RMM:   2    -0.700422373955E+03   -0.94693E-05   -0.10045E-04 10155   0.197E-02    0.315E-03
RMM:   3    -0.700422375155E+03   -0.12004E-05   -0.21624E-05  6539   0.944E-03
  70 F= -.70042238E+03 E0= -.70041847E+03  d E =-.264673E-03
       N       E                     dE             d eps       ncg     rms          rms(c)
DAV:   1    -0.700422372011E+03    0.19433E-05   -0.65198E-04 10519   0.375E-02    0.531E-03
RMM:   2    -0.700422374350E+03   -0.23385E-05   -0.24765E-05  6900   0.986E-03
  71 F= -.70042237E+03 E0= -.70041847E+03  d E =-.263867E-03
       N       E                     dE             d eps       ncg     rms          rms(c)
DAV:   1    -0.700422374724E+03   -0.27125E-05   -0.22049E-04 10138   0.215E-02    0.276E-03
RMM:   2    -0.700422375424E+03   -0.69993E-06   -0.75059E-06  5465   0.533E-03
  72 F= -.70042238E+03 E0= -.70041847E+03  d E =-.264941E-03
       N       E                     dE             d eps       ncg     rms          rms(c)
DAV:   1    -0.700422374751E+03   -0.27256E-07   -0.53618E-05  9142   0.120E-02    0.148E-03
RMM:   2    -0.700422375174E+03   -0.42245E-06   -0.48394E-06  5164   0.507E-03
  73 F= -.70042238E+03 E0= -.70041847E+03  d E =-.264691E-03
       N       E                     dE             d eps       ncg     rms          rms(c)
DAV:   1    -0.700422375116E+03   -0.36518E-06   -0.18637E-05  6924   0.816E-03    0.949E-04
RMM:   2    -0.700422375394E+03   -0.27806E-06   -0.29160E-06  5091   0.380E-03
  74 F= -.70042238E+03 E0= -.70041847E+03  d E =-.264912E-03
       N       E                     dE             d eps       ncg     rms          rms(c)
DAV:   1    -0.700422375169E+03   -0.53173E-07   -0.29878E-06  5352   0.540E-03    0.890E-04
RMM:   2    -0.700422375274E+03   -0.10498E-06   -0.12233E-06  4585   0.236E-03
  75 F= -.70042238E+03 E0= -.70041847E+03  d E =-.264792E-03
       N       E                     dE             d eps       ncg     rms          rms(c)
DAV:   1    -0.700422375376E+03   -0.20632E-06   -0.60327E-07  5253   0.285E-03    0.733E-04
RMM:   2    -0.700422375399E+03   -0.22825E-07   -0.37785E-07  4275   0.141E-03
  76 F= -.70042238E+03 E0= -.70041847E+03  d E =-.264916E-03
       N       E                     dE             d eps       ncg     rms          rms(c)
DAV:   1    -0.700422206652E+03    0.16872E-03   -0.69373E-02 10539   0.394E-01    0.446E-02
RMM:   2    -0.700422433741E+03   -0.22709E-03   -0.23716E-03 13013   0.103E-01    0.138E-02
RMM:   3    -0.700422486569E+03   -0.52828E-04   -0.55740E-04 14837   0.405E-02    0.128E-02
RMM:   4    -0.700422490169E+03   -0.35992E-05   -0.63050E-05 10443   0.142E-02
  77 F= -.70042249E+03 E0= -.70041859E+03  d E =-.114770E-03
       N       E                     dE             d eps       ncg     rms          rms(c)
DAV:   1    -0.700422490035E+03   -0.34651E-05   -0.79251E-05 10279   0.222E-02    0.424E-03
RMM:   2    -0.700422491659E+03   -0.16244E-05   -0.19832E-05  6093   0.101E-02
  78 F= -.70042249E+03 E0= -.70041859E+03  d E =-.116260E-03
       N       E                     dE             d eps       ncg     rms          rms(c)
DAV:   1    -0.700422447207E+03    0.42828E-04   -0.22819E-02 10415   0.223E-01    0.270E-02
RMM:   2    -0.700422530670E+03   -0.83463E-04   -0.87637E-04 13153   0.604E-02    0.802E-03
RMM:   3    -0.700422545935E+03   -0.15266E-04   -0.17986E-04 13052   0.231E-02    0.781E-03
RMM:   4    -0.700422546557E+03   -0.62154E-06   -0.24527E-05  6771   0.109E-02
  79 F= -.70042255E+03 E0= -.70041864E+03  d E =-.548980E-04
       N       E                     dE             d eps       ncg     rms          rms(c)
DAV:   1    -0.700422548531E+03   -0.25956E-05   -0.56703E-04 11590   0.371E-02    0.527E-03
RMM:   2    -0.700422551153E+03   -0.26219E-05   -0.29027E-05  6730   0.133E-02
  80 F= -.70042255E+03 E0= -.70041865E+03  d E =-.594939E-04
       N       E                     dE             d eps       ncg     rms          rms(c)
DAV:   1    -0.700422527188E+03    0.21343E-04   -0.19333E-02 10862   0.211E-01    0.224E-02
RMM:   2    -0.700422592398E+03   -0.65211E-04   -0.68314E-04 13040   0.561E-02    0.708E-03
RMM:   3    -0.700422606002E+03   -0.13604E-04   -0.15419E-04 12677   0.222E-02    0.697E-03
RMM:   4    -0.700422607146E+03   -0.11440E-05   -0.23534E-05  6293   0.110E-02
  81 F= -.70042261E+03 E0= -.70041871E+03  d E =-.559930E-04
