<?xml version="1.0" encoding="ISO-8859-1"?>
<modeling>
 <generator>
  <i name="program" type="string">vasp </i>
  <i name="version" type="string">6.4.2  </i>
  <i name="subversion" type="string">20Jul23 (build Nov 12 2023 22:16:35) complex                          parallel </i>
  <i name="platform" type="string">LinuxNV </i>
  <i name="date" type="string">2025 03 28 </i>
  <i name="time" type="string">18:58:41 </i>
 </generator>
 <incar>
  <i type="int" name="ISTART">     0</i>
  <i type="string" name="PREC">Normal</i>
  <i type="string" name="ALGO">Fast</i>
  <i type="int" name="ISPIN">     1</i>
  <i type="int" name="ICHARG">     2</i>
  <i type="int" name="IBRION">     2</i>
  <i name="EDIFF">      0.00001000</i>
  <i name="EDIFFG">     -0.00500000</i>
  <i type="int" name="NSW">   300</i>
  <i type="int" name="ISIF">     2</i>
  <i name="ENCUT">    450.00000000</i>
  <i name="NELECT">   1043.00000000</i>
  <i type="string" name="LREAL">Auto</i>
  <i type="logical" name="LPLANE"> T  </i>
  <i type="int" name="ISMEAR">     0</i>
  <i name="SIGMA">      0.05000000</i>
  <i type="logical" name="LWAVE"> F  </i>
  <i type="logical" name="LCHARG"> F  </i>
 </incar>
 <primitive_cell>
  <structure name="primitive_cell" >
   <crystal>
    <varray name="basis" >
     <v>       0.00000000      12.28047342       0.00000000 </v>
     <v>       9.14270205       0.00000000       0.00000000 </v>
     <v>       0.00000000      -2.76826177     -11.30069772 </v>
    </varray>
    <i name="volume">   1268.80515525 </i>
    <varray name="rec_basis" >
     <v>       0.00000000       0.08143009      -0.01994742 </v>
     <v>       0.10937686      -0.00000000       0.00000000 </v>
     <v>       0.00000000       0.00000000      -0.08849011 </v>
    </varray>
   </crystal>
   <varray name="positions" >
    <v>       0.65883830       0.00000000       0.15736517 </v>
    <v>       0.65883830       0.00000000       0.65736517 </v>
    <v>       0.65883830       0.33333333       0.15736517 </v>
    <v>       0.65883830       0.33333333       0.65736517 </v>
    <v>       0.65883830       0.66666667       0.15736517 </v>
    <v>       0.65883830       0.66666667       0.65736517 </v>
    <v>       0.84116170       0.16666667       0.84263483 </v>
    <v>       0.84116170       0.50000000       0.34263483 </v>
    <v>       0.84116170       0.50000000       0.84263483 </v>
    <v>       0.84116170       0.83333333       0.34263483 </v>
    <v>       0.84116170       0.83333333       0.84263483 </v>
    <v>       0.59047440       0.16666667       0.39739300 </v>
    <v>       0.59047440       0.16666667       0.89739300 </v>
    <v>       0.59047440       0.50000000       0.39739300 </v>
    <v>       0.59047440       0.50000000       0.89739300 </v>
    <v>       0.59047440       0.83333333       0.39739300 </v>
    <v>       0.59047440       0.83333333       0.89739300 </v>
    <v>       0.90952560       0.00000000       0.10260700 </v>
    <v>       0.90952560       0.00000000       0.60260700 </v>
    <v>       0.90952560       0.33333333       0.10260700 </v>
    <v>       0.90952560       0.33333333       0.60260700 </v>
    <v>       0.90952560       0.66666667       0.10260700 </v>
    <v>       0.90952560       0.66666667       0.60260700 </v>
    <v>       0.15883830       0.16666667       0.15736517 </v>
    <v>       0.15883830       0.16666667       0.65736517 </v>
    <v>       0.15883830       0.50000000       0.15736517 </v>
    <v>       0.15883830       0.50000000       0.65736517 </v>
    <v>       0.15883830       0.83333333       0.15736517 </v>
    <v>       0.15883830       0.83333333       0.65736517 </v>
    <v>       0.34116170       0.00000000       0.34263483 </v>
    <v>       0.34116170       0.00000000       0.84263483 </v>
    <v>       0.34116170       0.33333333       0.34263483 </v>
    <v>       0.34116170       0.33333333       0.84263483 </v>
    <v>       0.34116170       0.66666667       0.34263483 </v>
    <v>       0.34116170       0.66666667       0.84263483 </v>
    <v>       0.09047440       0.00000000       0.39739300 </v>
    <v>       0.09047440       0.00000000       0.89739300 </v>
    <v>       0.09047440       0.33333333       0.39739300 </v>
    <v>       0.09047440       0.33333333       0.89739300 </v>
    <v>       0.09047440       0.66666667       0.39739300 </v>
    <v>       0.09047440       0.66666667       0.89739300 </v>
    <v>       0.40952560       0.16666667       0.10260700 </v>
    <v>       0.40952560       0.16666667       0.60260700 </v>
    <v>       0.40952560       0.50000000       0.10260700 </v>
    <v>       0.40952560       0.50000000       0.60260700 </v>
    <v>       0.40952560       0.83333333       0.10260700 </v>
    <v>       0.40952560       0.83333333       0.60260700 </v>
    <v>       0.99646913       0.16666667       0.12833205 </v>
    <v>       0.99646913       0.16666667       0.62833205 </v>
    <v>       0.99646913       0.50000000       0.12833205 </v>
    <v>       0.99646913       0.50000000       0.62833205 </v>
    <v>       0.99646913       0.83333333       0.12833205 </v>
    <v>       0.99646913       0.83333333       0.62833205 </v>
    <v>       0.50353087       0.00000000       0.37166795 </v>
    <v>       0.50353087       0.00000000       0.87166795 </v>
    <v>       0.50353087       0.33333333       0.37166795 </v>
    <v>       0.50353087       0.33333333       0.87166795 </v>
    <v>       0.50353087       0.66666667       0.37166795 </v>
    <v>       0.50353087       0.66666667       0.87166795 </v>
    <v>       0.67337106       0.16666667       0.28161508 </v>
    <v>       0.67337106       0.16666667       0.78161508 </v>
    <v>       0.67337106       0.50000000       0.28161508 </v>
    <v>       0.67337106       0.50000000       0.78161508 </v>
    <v>       0.67337106       0.83333333       0.28161508 </v>
    <v>       0.67337106       0.83333333       0.78161508 </v>
    <v>       0.82662894       0.00000000       0.21838492 </v>
    <v>       0.82662894       0.00000000       0.71838492 </v>
    <v>       0.82662894       0.33333333       0.21838492 </v>
    <v>       0.82662894       0.33333333       0.71838492 </v>
    <v>       0.82662894       0.66666667       0.21838492 </v>
    <v>       0.82662894       0.66666667       0.71838492 </v>
    <v>       0.83549502       0.00000000       0.44542296 </v>
    <v>       0.83549502       0.00000000       0.94542296 </v>
    <v>       0.83549502       0.33333333       0.44542296 </v>
    <v>       0.83549502       0.33333333       0.94542296 </v>
    <v>       0.83549502       0.66666667       0.44542296 </v>
    <v>       0.83549502       0.66666667       0.94542296 </v>
    <v>       0.66450498       0.16666667       0.05457704 </v>
    <v>       0.66450498       0.16666667       0.55457704 </v>
    <v>       0.66450498       0.50000000       0.05457704 </v>
    <v>       0.66450498       0.50000000       0.55457704 </v>
    <v>       0.66450498       0.83333333       0.05457704 </v>
    <v>       0.66450498       0.83333333       0.55457704 </v>
    <v>       0.49646913       0.00000000       0.12833205 </v>
    <v>       0.49646913       0.00000000       0.62833205 </v>
    <v>       0.49646913       0.33333333       0.12833205 </v>
    <v>       0.49646913       0.33333333       0.62833205 </v>
    <v>       0.49646913       0.66666667       0.12833205 </v>
    <v>       0.49646913       0.66666667       0.62833205 </v>
    <v>       0.00353087       0.16666667       0.87166795 </v>
    <v>       0.00353087       0.50000000       0.37166795 </v>
    <v>       0.00353087       0.50000000       0.87166795 </v>
    <v>       0.00353087       0.83333333       0.37166795 </v>
    <v>       0.00353087       0.83333333       0.87166795 </v>
    <v>       0.17337106       0.00000000       0.28161508 </v>
    <v>       0.17337106       0.00000000       0.78161508 </v>
    <v>       0.17337106       0.33333333       0.28161508 </v>
    <v>       0.17337106       0.33333333       0.78161508 </v>
    <v>       0.17337106       0.66666667       0.28161508 </v>
    <v>       0.17337106       0.66666667       0.78161508 </v>
    <v>       0.32662894       0.16666667       0.21838492 </v>
    <v>       0.32662894       0.16666667       0.71838492 </v>
    <v>       0.32662894       0.50000000       0.21838492 </v>
    <v>       0.32662894       0.50000000       0.71838492 </v>
    <v>       0.32662894       0.83333333       0.21838492 </v>
    <v>       0.32662894       0.83333333       0.71838492 </v>
    <v>       0.33549502       0.16666667       0.44542296 </v>
    <v>       0.33549502       0.16666667       0.94542296 </v>
    <v>       0.33549502       0.50000000       0.44542296 </v>
    <v>       0.33549502       0.50000000       0.94542296 </v>
    <v>       0.33549502       0.83333333       0.44542296 </v>
    <v>       0.33549502       0.83333333       0.94542296 </v>
    <v>       0.16450498       0.00000000       0.05457704 </v>
    <v>       0.16450498       0.00000000       0.55457704 </v>
    <v>       0.16450498       0.33333333       0.05457704 </v>
    <v>       0.16450498       0.33333333       0.55457704 </v>
    <v>       0.16450498       0.66666667       0.05457704 </v>
    <v>       0.16450498       0.66666667       0.55457704 </v>
    <v>       0.00353087       0.16666667       0.37166795 </v>
   </varray>
  </structure>
  <varray name="primitive_index" >
   <v type="int" >        1 </v>
   <v type="int" >        2 </v>
   <v type="int" >        3 </v>
   <v type="int" >        4 </v>
   <v type="int" >        5 </v>
   <v type="int" >        6 </v>
   <v type="int" >        7 </v>
   <v type="int" >        8 </v>
   <v type="int" >        9 </v>
   <v type="int" >       10 </v>
   <v type="int" >       11 </v>
   <v type="int" >       12 </v>
   <v type="int" >       13 </v>
   <v type="int" >       14 </v>
   <v type="int" >       15 </v>
   <v type="int" >       16 </v>
   <v type="int" >       17 </v>
   <v type="int" >       18 </v>
   <v type="int" >       19 </v>
   <v type="int" >       20 </v>
   <v type="int" >       21 </v>
   <v type="int" >       22 </v>
   <v type="int" >       23 </v>
   <v type="int" >       24 </v>
   <v type="int" >       25 </v>
   <v type="int" >       26 </v>
   <v type="int" >       27 </v>
   <v type="int" >       28 </v>
   <v type="int" >       29 </v>
   <v type="int" >       30 </v>
   <v type="int" >       31 </v>
   <v type="int" >       32 </v>
   <v type="int" >       33 </v>
   <v type="int" >       34 </v>
   <v type="int" >       35 </v>
   <v type="int" >       36 </v>
   <v type="int" >       37 </v>
   <v type="int" >       38 </v>
   <v type="int" >       39 </v>
   <v type="int" >       40 </v>
   <v type="int" >       41 </v>
   <v type="int" >       42 </v>
   <v type="int" >       43 </v>
   <v type="int" >       44 </v>
   <v type="int" >       45 </v>
   <v type="int" >       46 </v>
   <v type="int" >       47 </v>
   <v type="int" >       48 </v>
   <v type="int" >       49 </v>
   <v type="int" >       50 </v>
   <v type="int" >       51 </v>
   <v type="int" >       52 </v>
   <v type="int" >       53 </v>
   <v type="int" >       54 </v>
   <v type="int" >       55 </v>
   <v type="int" >       56 </v>
   <v type="int" >       57 </v>
   <v type="int" >       58 </v>
   <v type="int" >       59 </v>
   <v type="int" >       60 </v>
   <v type="int" >       61 </v>
   <v type="int" >       62 </v>
   <v type="int" >       63 </v>
   <v type="int" >       64 </v>
   <v type="int" >       65 </v>
   <v type="int" >       66 </v>
   <v type="int" >       67 </v>
   <v type="int" >       68 </v>
   <v type="int" >       69 </v>
   <v type="int" >       70 </v>
   <v type="int" >       71 </v>
   <v type="int" >       72 </v>
   <v type="int" >       73 </v>
   <v type="int" >       74 </v>
   <v type="int" >       75 </v>
   <v type="int" >       76 </v>
   <v type="int" >       77 </v>
   <v type="int" >       78 </v>
   <v type="int" >       79 </v>
   <v type="int" >       80 </v>
   <v type="int" >       81 </v>
   <v type="int" >       82 </v>
   <v type="int" >       83 </v>
   <v type="int" >       84 </v>
   <v type="int" >       85 </v>
   <v type="int" >       86 </v>
   <v type="int" >       87 </v>
   <v type="int" >       88 </v>
   <v type="int" >       89 </v>
   <v type="int" >       90 </v>
   <v type="int" >       91 </v>
   <v type="int" >       92 </v>
   <v type="int" >       93 </v>
   <v type="int" >       94 </v>
   <v type="int" >       95 </v>
   <v type="int" >       96 </v>
   <v type="int" >       97 </v>
   <v type="int" >       98 </v>
   <v type="int" >       99 </v>
   <v type="int" >      100 </v>
   <v type="int" >      101 </v>
   <v type="int" >      102 </v>
   <v type="int" >      103 </v>
   <v type="int" >      104 </v>
   <v type="int" >      105 </v>
   <v type="int" >      106 </v>
   <v type="int" >      107 </v>
   <v type="int" >      108 </v>
   <v type="int" >      109 </v>
   <v type="int" >      110 </v>
   <v type="int" >      111 </v>
   <v type="int" >      112 </v>
   <v type="int" >      113 </v>
   <v type="int" >      114 </v>
   <v type="int" >      115 </v>
   <v type="int" >      116 </v>
   <v type="int" >      117 </v>
   <v type="int" >      118 </v>
   <v type="int" >      119 </v>
  </varray>
 </primitive_cell>
 <kpoints>
  <generation param="Gamma">
   <v type="int" name="divisions">       2        2        2 </v>
   <v name="usershift">      0.00000000       0.00000000       0.00000000 </v>
   <v name="genvec1">      0.50000000       0.00000000       0.00000000 </v>
   <v name="genvec2">      0.00000000       0.50000000       0.00000000 </v>
   <v name="genvec3">      0.00000000       0.00000000       0.50000000 </v>
   <v name="shift">      0.00000000       0.00000000       0.00000000 </v>
  </generation>
  <varray name="kpointlist" >
   <v>       0.00000000       0.00000000       0.00000000 </v>
   <v>       0.50000000       0.00000000       0.00000000 </v>
   <v>       0.00000000       0.50000000       0.00000000 </v>
   <v>       0.50000000       0.50000000       0.00000000 </v>
   <v>       0.00000000       0.00000000       0.50000000 </v>
   <v>       0.50000000       0.00000000       0.50000000 </v>
   <v>       0.00000000       0.50000000       0.50000000 </v>
   <v>       0.50000000       0.50000000       0.50000000 </v>
  </varray>
  <varray name="weights" >
   <v>       0.12500000 </v>
   <v>       0.12500000 </v>
   <v>       0.12500000 </v>
   <v>       0.12500000 </v>
   <v>       0.12500000 </v>
   <v>       0.12500000 </v>
   <v>       0.12500000 </v>
   <v>       0.12500000 </v>
  </varray>
 </kpoints>
 <parameters>
  <separator name="general" >
   <i type="string" name="SYSTEM">unknown system</i>
   <i type="logical" name="LCOMPAT"> F  </i>
  </separator>
  <separator name="electronic" >
   <i type="string" name="PREC">normal</i>
   <i name="ENMAX">    450.00000000</i>
   <i name="ENAUG">    605.39200000</i>
   <i name="EDIFF">      0.00001000</i>
   <i type="int" name="IALGO">    68</i>
   <i type="int" name="IWAVPR">    11</i>
   <i type="int" name="NBANDS">   625</i>
   <i type="int" name="NBANDSLOW">    -1</i>
   <i type="int" name="NBANDSHIGH">    -1</i>
   <i name="NELECT">   1043.00000000</i>
   <i type="int" name="TURBO">     0</i>
   <i type="int" name="IRESTART">     0</i>
   <i type="int" name="NREBOOT">     0</i>
   <i type="int" name="NMIN">     0</i>
   <i name="EREF">      0.00000000</i>
   <separator name="electronic smearing" >
    <i type="int" name="ISMEAR">     0</i>
    <i name="SIGMA">      0.05000000</i>
    <i name="KSPACING">      0.50000000</i>
    <i type="logical" name="KGAMMA"> T  </i>
    <i type="logical" name="KBLOWUP"> T  </i>
   </separator>
   <separator name="electronic projectors" >
    <i type="logical" name="LREAL"> T  </i>
    <v name="ROPT">     -0.00050000     -0.00050000     -0.00050000</v>
    <i type="int" name="LMAXPAW">  -100</i>
    <i type="int" name="LMAXMIX">     2</i>
    <i type="logical" name="NLSPLINE"> F  </i>
   </separator>
   <separator name="electronic startup" >
    <i type="int" name="ISTART">     0</i>
    <i type="int" name="ICHARG">     2</i>
    <i type="int" name="INIWAV">     1</i>
   </separator>
   <separator name="electronic spin" >
    <i type="int" name="ISPIN">     1</i>
    <i type="logical" name="LNONCOLLINEAR"> F  </i>
    <v name="MAGMOM">      1.00000000      1.00000000      1.00000000      1.00000000      1.00000000      1.00000000      1.00000000      1.00000000      1.00000000      1.00000000      1.00000000      1.00000000      1.00000000      1.00000000      1.00000000      1.00000000      1.00000000      1.00000000      1.00000000      1.00000000
      1.00000000      1.00000000      1.00000000      1.00000000      1.00000000      1.00000000      1.00000000      1.00000000      1.00000000      1.00000000      1.00000000      1.00000000      1.00000000      1.00000000      1.00000000      1.00000000      1.00000000      1.00000000      1.00000000      1.00000000
      1.00000000      1.00000000      1.00000000      1.00000000      1.00000000      1.00000000      1.00000000      1.00000000      1.00000000      1.00000000      1.00000000      1.00000000      1.00000000      1.00000000      1.00000000      1.00000000      1.00000000      1.00000000      1.00000000      1.00000000
      1.00000000      1.00000000      1.00000000      1.00000000      1.00000000      1.00000000      1.00000000      1.00000000      1.00000000      1.00000000      1.00000000      1.00000000      1.00000000      1.00000000      1.00000000      1.00000000      1.00000000      1.00000000      1.00000000      1.00000000
      1.00000000      1.00000000      1.00000000      1.00000000      1.00000000      1.00000000      1.00000000      1.00000000      1.00000000      1.00000000      1.00000000      1.00000000      1.00000000      1.00000000      1.00000000      1.00000000      1.00000000      1.00000000      1.00000000      1.00000000
      1.00000000      1.00000000      1.00000000      1.00000000      1.00000000      1.00000000      1.00000000      1.00000000      1.00000000      1.00000000      1.00000000      1.00000000      1.00000000      1.00000000      1.00000000      1.00000000      1.00000000      1.00000000      1.00000000</v>
    <i name="NUPDOWN">     -1.00000000</i>
    <i type="logical" name="LSORBIT"> F  </i>
    <v name="SAXIS">      0.00000000      0.00000000      1.00000000</v>
    <i type="logical" name="LSPIRAL"> F  </i>
    <v name="QSPIRAL">      0.00000000      0.00000000      0.00000000</v>
    <i type="logical" name="LZEROZ"> F  </i>
   </separator>
   <separator name="electronic exchange-correlation" >
    <i type="logical" name="LASPH"> F  </i>
    <i type="logical" name="LMETAGGA"> F  </i>
   </separator>
   <separator name="electronic convergence" >
    <i type="int" name="NELM">    60</i>
    <i type="int" name="NELMDL">    -5</i>
    <i type="int" name="NELMIN">     2</i>
    <i name="ENINI">    450.00000000</i>
    <separator name="electronic convergence detail" >
     <i type="logical" name="LDIAG"> T  </i>
     <i type="logical" name="LSUBROT"> F  </i>
     <i name="WEIMIN">      0.00100000</i>
     <i name="EBREAK">      0.00000000</i>
     <i name="DEPER">      0.30000000</i>
     <i type="int" name="NRMM">     4</i>
     <i name="TIME">      0.40000000</i>
    </separator>
   </separator>
   <separator name="electronic mixer" >
    <i name="AMIX">      0.40000000</i>
    <i name="BMIX">      1.00000000</i>
    <i name="AMIN">      0.10000000</i>
    <i name="AMIX_MAG">      1.60000000</i>
    <i name="BMIX_MAG">      1.00000000</i>
    <separator name="electronic mixer details" >
     <i type="int" name="IMIX">     4</i>
     <i type="logical" name="MIXFIRST"> F  </i>
     <i type="int" name="MAXMIX">   -45</i>
     <i name="WC">    100.00000000</i>
     <i type="int" name="INIMIX">     1</i>
     <i type="int" name="MIXPRE">     1</i>
     <i type="int" name="MREMOVE">     5</i>
    </separator>
   </separator>
   <separator name="electronic dipolcorrection" >
    <i type="logical" name="LDIPOL"> F  </i>
    <i type="logical" name="LMONO"> F  </i>
    <i type="int" name="IDIPOL">     0</i>
    <i name="EPSILON">      1.00000000</i>
    <v name="DIPOL">   -100.00000000   -100.00000000   -100.00000000</v>
    <i name="EFIELD">      0.00000000</i>
   </separator>
  </separator>
  <separator name="grids" >
   <i type="int" name="NGX">    64</i>
   <i type="int" name="NGY">    48</i>
   <i type="int" name="NGZ">    60</i>
   <i type="int" name="NGXF">   128</i>
   <i type="int" name="NGYF">    96</i>
   <i type="int" name="NGZF">   120</i>
   <i type="logical" name="ADDGRID"> F  </i>
  </separator>
  <separator name="ionic" >
   <i type="int" name="NSW">   300</i>
   <i type="int" name="IBRION">     2</i>
   <i type="int" name="MDALGO">     0</i>
   <i type="int" name="ISIF">     2</i>
   <i name="PSTRESS">      0.00000000</i>
   <i name="EDIFFG">     -0.00500000</i>
   <i type="int" name="NFREE">     1</i>
   <i name="POTIM">      0.50000000</i>
   <i name="SMASS">     -3.00000000</i>
   <i name="SCALEE">      1.00000000</i>
  </separator>
  <separator name="ionic md" >
   <i name="TEBEG">      0.00010000</i>
   <i name="TEEND">      0.00010000</i>
   <i type="int" name="NBLOCK">     1</i>
   <i type="int" name="KBLOCK">   300</i>
   <i type="int" name="NPACO">   256</i>
   <i name="APACO">     10.00000000</i>
  </separator>
  <separator name="symmetry" >
   <i type="int" name="ISYM">     2</i>
   <i name="SYMPREC">      0.00001000</i>
  </separator>
  <separator name="dos" >
   <i type="int" name="LORBIT">     0</i>
   <v name="RWIGS">     -1.00000000     -1.00000000     -1.00000000</v>
   <i type="int" name="NEDOS">   301</i>
   <i name="EMIN">     10.00000000</i>
   <i name="EMAX">    -10.00000000</i>
   <i name="EFERMI">      0.00000000</i>
  </separator>
  <separator name="writing" >
   <i type="int" name="NWRITE">     2</i>
   <i type="logical" name="LWAVE"> F  </i>
   <i type="logical" name="LDOWNSAMPLE"> F  </i>
   <i type="logical" name="LCHARG"> F  </i>
   <i type="logical" name="LPARD"> F  </i>
   <i type="logical" name="LVTOT"> F  </i>
   <i type="logical" name="LVHAR"> F  </i>
   <i type="logical" name="LELF"> F  </i>
   <i type="logical" name="LOPTICS"> F  </i>
   <v name="STM">      0.00000000      0.00000000      0.00000000      0.00000000      0.00000000      0.00000000      0.00000000</v>
  </separator>
  <separator name="performance" >
   <i type="int" name="NPAR">     1</i>
   <i type="int" name="NSIM">     4</i>
   <i type="int" name="NBLK">    -1</i>
   <i type="logical" name="LPLANE"> T  </i>
   <i type="logical" name="LSCALAPACK"> T  </i>
   <i type="logical" name="LSCAAWARE"> F  </i>
   <i type="logical" name="LSCALU"> F  </i>
   <i type="logical" name="LASYNC"> F  </i>
   <i type="logical" name="LORBITALREAL"> F  </i>
  </separator>
  <separator name="miscellaneous" >
   <i type="int" name="IDIOT">     3</i>
   <i type="int" name="PHON_NSTRUCT">    -1</i>
   <i type="logical" name="LMUSIC"> F  </i>
   <v name="POMASS">     69.72300000     16.00000000     30.97400000</v>
   <v name="DARWINR">      0.00000000      0.00000000      0.00000000</v>
   <v name="DARWINV">      1.00000000      1.00000000      1.00000000</v>
   <i type="logical" name="LCORR"> T  </i>
  </separator>
  <i type="logical" name="GGA_COMPAT"> T  </i>
  <i type="logical" name="LBERRY"> F  </i>
  <i type="int" name="ICORELEVEL">     0</i>
  <i type="logical" name="LDAU"> F  </i>
  <i type="int" name="I_CONSTRAINED_M">     0</i>
  <separator name="electronic exchange-correlation" >
   <i type="string" name="GGA">--</i>
   <i type="int" name="VOSKOWN">     0</i>
   <i type="logical" name="LHFCALC"> F  </i>
   <i type="string" name="PRECFOCK"></i>
   <i type="logical" name="LSYMGRAD"> F  </i>
   <i type="logical" name="LHFONE"> F  </i>
   <i type="logical" name="LRHFCALC"> F  </i>
   <i type="logical" name="LTHOMAS"> F  </i>
   <i type="logical" name="LMODELHF"> F  </i>
   <i type="logical" name="LFOCKACE"> F  </i>
   <i name="ENCUT4O">     -1.00000000</i>
   <i type="int" name="EXXOEP">     0</i>
   <i type="int" name="FOURORBIT">     0</i>
   <i name="AEXX">      0.00000000</i>
   <i name="HFALPHA">      0.00000000</i>
   <i name="MCALPHA">      0.00000000</i>
   <i name="ALDAX">      1.00000000</i>
   <i name="AGGAX">      1.00000000</i>
   <i name="ALDAC">      1.00000000</i>
   <i name="AGGAC">      1.00000000</i>
   <i type="int" name="NKREDX">     1</i>
   <i type="int" name="NKREDY">     1</i>
   <i type="int" name="NKREDZ">     1</i>
   <i type="logical" name="SHIFTRED"> F  </i>
   <i type="logical" name="ODDONLY"> F  </i>
   <i type="logical" name="EVENONLY"> F  </i>
   <i type="int" name="LMAXFOCK">     0</i>
   <i type="int" name="NMAXFOCKAE">     0</i>
   <i type="logical" name="LFOCKAEDFT"> F  </i>
   <i name="HFSCREEN">      0.00000000</i>
   <i name="HFSCREENC">      0.00000000</i>
   <i type="int" name="NBANDSGWLOW">     0</i>
  </separator>
  <separator name="vdW DFT" >
   <i type="logical" name="LUSE_VDW"> F  </i>
   <i type="int" name="IVDW_NL">     1</i>
   <i type="logical" name="LSPIN_VDW"> F  </i>
   <i name="Zab_VDW">     -0.84910000</i>
   <i name="PARAM1">      0.12340000</i>
   <i name="PARAM2">      1.00000000</i>
   <i name="PARAM3">      0.00000000</i>
  </separator>
  <separator name="model GW" >
   <i type="int" name="MODEL_GW">     0</i>
   <i name="MODEL_EPS0">      6.39733692</i>
   <i name="MODEL_ALPHA">      1.00000000</i>
  </separator>
  <separator name="linear response parameters" >
   <i type="logical" name="LEPSILON"> F  </i>
   <i type="logical" name="LRPA"> F  </i>
   <i type="logical" name="LNABLA"> F  </i>
   <i type="logical" name="LVEL"> F  </i>
   <i name="CSHIFT">      0.10000000</i>
   <i name="OMEGAMAX">     -1.00000000</i>
   <i name="DEG_THRESHOLD">      0.00200000</i>
   <i name="RTIME">     -0.10000000</i>
   <i name="WPLASMAI">      0.00000000</i>
   <v name="DFIELD">      0.00000000      0.00000000      0.00000000</v>
   <v name="WPLASMA">      0.00000000      0.00000000      0.00000000      0.00000000      0.00000000      0.00000000      0.00000000      0.00000000      0.00000000</v>
  </separator>
  <separator name="orbital magnetization" >
   <i type="logical" name="NUCIND"> F  </i>
   <v name="MAGPOS">      0.00000000      0.00000000      0.00000000</v>
   <i type="logical" name="LNICSALL"> T  </i>
   <i type="logical" name="ORBITALMAG"> F  </i>
   <i type="logical" name="LMAGBLOCH"> F  </i>
   <i type="logical" name="LCHIMAG"> F  </i>
   <i type="logical" name="LGAUGE"> T  </i>
   <i type="int" name="MAGATOM">     0</i>
   <v name="MAGDIPOL">      0.00000000      0.00000000      0.00000000</v>
   <v name="AVECCONST">      0.00000000      0.00000000      0.00000000</v>
  </separator>
  <separator name="response functions" >
   <i type="logical" name="LALL_IN_ONE"> F  </i>
   <i type="int" name="IALL_IN_ONE">    -1</i>
   <i type="int" name="NBANDS_WAVE">    -1</i>
   <i type="logical" name="LFINITE_TEMPERATURE"> F  </i>
   <i type="logical" name="LADDER"> F  </i>
   <i type="logical" name="LRPAFORCE"> F  </i>
   <i type="logical" name="LFXC"> F  </i>
   <i type="logical" name="LHARTREE"> T  </i>
   <i type="int" name="IBSE">     0</i>
   <v type="int" name="KPOINT">    -1     0     0     0</v>
   <i type="logical" name="LTCTC"> F  </i>
   <i type="logical" name="LTCTE"> F  </i>
   <i type="logical" name="LTETE"> F  </i>
   <i type="logical" name="LTRIPLET"> F  </i>
   <i type="logical" name="LFXCEPS"> F  </i>
   <i type="logical" name="LFXHEG"> F  </i>
   <i type="int" name="NATURALO">     2</i>
   <i type="logical" name="LHOLEGF"> F  </i>
   <i type="logical" name="L2ORDER"> F  </i>
   <i type="logical" name="LDMP1"> F  </i>
   <i type="logical" name="LMP2LT"> F  </i>
   <i type="logical" name="LSMP2LT"> F  </i>
   <i type="logical" name="LGWLF"> F  </i>
   <i name="ENCUTGW">     -1.60000002</i>
   <i name="ENCUTGWSOFT">     -1.60000002</i>
   <i name="ENCUTLF">     -1.00000000</i>
   <i type="logical" name="LESF_SPLINES"> F  </i>
   <i type="int" name="LMAXMP2">    -1</i>
   <i name="SCISSOR">      0.00000000</i>
   <i type="int" name="NOMEGA">     0</i>
   <i type="int" name="NOMEGAR">     0</i>
   <i type="int" name="NBANDSGW">    -1</i>
   <i type="int" name="NBANDSO">    -1</i>
   <i type="int" name="NBANDSV">    -1</i>
   <i type="int" name="NELMGW">     1</i>
   <i type="int" name="NELMHF">     1</i>
   <i type="int" name="DIM">     3</i>
   <i type="int" name="IESPILON">     4</i>
   <i type="int" name="ANTIRES">     0</i>
   <i name="OMEGAMAX">    -30.00000000</i>
   <i name="OMEGAMIN">    -30.00000000</i>
   <i name="OMEGATL">   -200.00000000</i>
   <i type="int" name="OMEGAGRID">     0</i>
   <i name="CSHIFT">     -0.10000000</i>
   <i type="logical" name="LSELFENERGY"> F  </i>
   <i type="logical" name="LSPECTRAL"> F  </i>
   <i type="logical" name="LSPECTRALGW"> F  </i>
   <i type="logical" name="LSINGLES"> F  </i>
   <i type="logical" name="LFERMIGW"> F  </i>
   <i type="logical" name="ODDONLYGW"> F  </i>
   <i type="logical" name="EVENONLYGW"> F  </i>
   <i type="int" name="NKREDLFX">     1</i>
   <i type="int" name="NKREDLFY">     1</i>
   <i type="int" name="NKREDLFZ">     1</i>
   <i type="int" name="MAXMEM">  2800</i>
   <i type="int" name="TELESCOPE">     0</i>
   <i type="int" name="NTAUPAR">    -1</i>
   <i type="int" name="NOMEGAPAR">    -1</i>
   <i name="DAMP_NEWTON">      0.80000001</i>
   <i name="LAMBDA">      1.00000000</i>
  </separator>
  <separator name="External order field" >
   <i name="OFIELD_KAPPA">      0.00000000</i>
   <v name="OFIELD_K">      0.00000000      0.00000000      0.00000000</v>
   <i name="OFIELD_Q6_NEAR">      0.00000000</i>
   <i name="OFIELD_Q6_FAR">      0.00000000</i>
   <i name="OFIELD_A">      0.00000000</i>
  </separator>
  <separator name="optional k-points parameters" >
   <i type="int" name="KPOINTS_OPT_MODE">     1</i>
   <i type="logical" name="LKPOINTS_OPT"> F  </i>
  </separator>
 </parameters>
 <atominfo>
  <atoms>     119 </atoms>
  <types>       3 </types>
  <array name="atoms" >
   <dimension dim="1">ion</dimension>
   <field type="string">element</field>
   <field type="int">atomtype</field>
   <set>
    <rc><c>Ga</c><c>   1</c></rc>
    <rc><c>Ga</c><c>   1</c></rc>
    <rc><c>Ga</c><c>   1</c></rc>
    <rc><c>Ga</c><c>   1</c></rc>
    <rc><c>Ga</c><c>   1</c></rc>
    <rc><c>Ga</c><c>   1</c></rc>
    <rc><c>Ga</c><c>   1</c></rc>
    <rc><c>Ga</c><c>   1</c></rc>
    <rc><c>Ga</c><c>   1</c></rc>
    <rc><c>Ga</c><c>   1</c></rc>
    <rc><c>Ga</c><c>   1</c></rc>
    <rc><c>Ga</c><c>   1</c></rc>
    <rc><c>Ga</c><c>   1</c></rc>
    <rc><c>Ga</c><c>   1</c></rc>
    <rc><c>Ga</c><c>   1</c></rc>
    <rc><c>Ga</c><c>   1</c></rc>
    <rc><c>Ga</c><c>   1</c></rc>
    <rc><c>Ga</c><c>   1</c></rc>
    <rc><c>Ga</c><c>   1</c></rc>
    <rc><c>Ga</c><c>   1</c></rc>
    <rc><c>Ga</c><c>   1</c></rc>
    <rc><c>Ga</c><c>   1</c></rc>
    <rc><c>Ga</c><c>   1</c></rc>
    <rc><c>Ga</c><c>   1</c></rc>
    <rc><c>Ga</c><c>   1</c></rc>
    <rc><c>Ga</c><c>   1</c></rc>
    <rc><c>Ga</c><c>   1</c></rc>
    <rc><c>Ga</c><c>   1</c></rc>
    <rc><c>Ga</c><c>   1</c></rc>
    <rc><c>Ga</c><c>   1</c></rc>
    <rc><c>Ga</c><c>   1</c></rc>
    <rc><c>Ga</c><c>   1</c></rc>
    <rc><c>Ga</c><c>   1</c></rc>
    <rc><c>Ga</c><c>   1</c></rc>
    <rc><c>Ga</c><c>   1</c></rc>
    <rc><c>Ga</c><c>   1</c></rc>
    <rc><c>Ga</c><c>   1</c></rc>
    <rc><c>Ga</c><c>   1</c></rc>
    <rc><c>Ga</c><c>   1</c></rc>
    <rc><c>Ga</c><c>   1</c></rc>
    <rc><c>Ga</c><c>   1</c></rc>
    <rc><c>Ga</c><c>   1</c></rc>
    <rc><c>Ga</c><c>   1</c></rc>
    <rc><c>Ga</c><c>   1</c></rc>
    <rc><c>Ga</c><c>   1</c></rc>
    <rc><c>Ga</c><c>   1</c></rc>
    <rc><c>Ga</c><c>   1</c></rc>
    <rc><c>O </c><c>   2</c></rc>
    <rc><c>O </c><c>   2</c></rc>
    <rc><c>O </c><c>   2</c></rc>
    <rc><c>O </c><c>   2</c></rc>
    <rc><c>O </c><c>   2</c></rc>
    <rc><c>O </c><c>   2</c></rc>
    <rc><c>O </c><c>   2</c></rc>
    <rc><c>O </c><c>   2</c></rc>
    <rc><c>O </c><c>   2</c></rc>
    <rc><c>O </c><c>   2</c></rc>
    <rc><c>O </c><c>   2</c></rc>
    <rc><c>O </c><c>   2</c></rc>
    <rc><c>O </c><c>   2</c></rc>
    <rc><c>O </c><c>   2</c></rc>
    <rc><c>O </c><c>   2</c></rc>
    <rc><c>O </c><c>   2</c></rc>
    <rc><c>O </c><c>   2</c></rc>
    <rc><c>O </c><c>   2</c></rc>
    <rc><c>O </c><c>   2</c></rc>
    <rc><c>O </c><c>   2</c></rc>
    <rc><c>O </c><c>   2</c></rc>
    <rc><c>O </c><c>   2</c></rc>
    <rc><c>O </c><c>   2</c></rc>
    <rc><c>O </c><c>   2</c></rc>
    <rc><c>O </c><c>   2</c></rc>
    <rc><c>O </c><c>   2</c></rc>
    <rc><c>O </c><c>   2</c></rc>
    <rc><c>O </c><c>   2</c></rc>
    <rc><c>O </c><c>   2</c></rc>
    <rc><c>O </c><c>   2</c></rc>
    <rc><c>O </c><c>   2</c></rc>
    <rc><c>O </c><c>   2</c></rc>
    <rc><c>O </c><c>   2</c></rc>
    <rc><c>O </c><c>   2</c></rc>
    <rc><c>O </c><c>   2</c></rc>
    <rc><c>O </c><c>   2</c></rc>
    <rc><c>O </c><c>   2</c></rc>
    <rc><c>O </c><c>   2</c></rc>
    <rc><c>O </c><c>   2</c></rc>
    <rc><c>O </c><c>   2</c></rc>
    <rc><c>O </c><c>   2</c></rc>
    <rc><c>O </c><c>   2</c></rc>
    <rc><c>O </c><c>   2</c></rc>
    <rc><c>O </c><c>   2</c></rc>
    <rc><c>O </c><c>   2</c></rc>
    <rc><c>O </c><c>   2</c></rc>
    <rc><c>O </c><c>   2</c></rc>
    <rc><c>O </c><c>   2</c></rc>
    <rc><c>O </c><c>   2</c></rc>
    <rc><c>O </c><c>   2</c></rc>
    <rc><c>O </c><c>   2</c></rc>
    <rc><c>O </c><c>   2</c></rc>
    <rc><c>O </c><c>   2</c></rc>
    <rc><c>O </c><c>   2</c></rc>
    <rc><c>O </c><c>   2</c></rc>
    <rc><c>O </c><c>   2</c></rc>
    <rc><c>O </c><c>   2</c></rc>
    <rc><c>O </c><c>   2</c></rc>
    <rc><c>O </c><c>   2</c></rc>
    <rc><c>O </c><c>   2</c></rc>
    <rc><c>O </c><c>   2</c></rc>
    <rc><c>O </c><c>   2</c></rc>
    <rc><c>O </c><c>   2</c></rc>
    <rc><c>O </c><c>   2</c></rc>
    <rc><c>O </c><c>   2</c></rc>
    <rc><c>O </c><c>   2</c></rc>
    <rc><c>O </c><c>   2</c></rc>
    <rc><c>O </c><c>   2</c></rc>
    <rc><c>O </c><c>   2</c></rc>
    <rc><c>O </c><c>   2</c></rc>
    <rc><c>O </c><c>   2</c></rc>
    <rc><c>P </c><c>   3</c></rc>
   </set>
  </array>
  <array name="atomtypes" >
   <dimension dim="1">type</dimension>
   <field type="int">atomspertype</field>
   <field type="string">element</field>
   <field>mass</field>
   <field>valence</field>
   <field type="string">pseudopotential</field>
   <set>
    <rc><c>  47</c><c>Ga</c><c>     69.72300000</c><c>     13.00000000</c><c>  PAW_PBE Ga_d 06Jul2010                </c></rc>
    <rc><c>  71</c><c>O </c><c>     16.00000000</c><c>      6.00000000</c><c>   PAW_PBE O 08Apr2002                  </c></rc>
    <rc><c>   1</c><c>P </c><c>     30.97400000</c><c>      5.00000000</c><c>  PAW_PBE P 06Sep2000                   </c></rc>
   </set>
  </array>
 </atominfo>
 <structure name="initialpos" >
  <crystal>
   <varray name="basis" >
    <v>       0.00000000      12.28047342       0.00000000 </v>
    <v>       9.14270205       0.00000000       0.00000000 </v>
    <v>       0.00000000      -2.76826177     -11.30069772 </v>
   </varray>
   <i name="volume">   1268.80515525 </i>
   <varray name="rec_basis" >
    <v>       0.00000000       0.08143009      -0.01994742 </v>
    <v>       0.10937686      -0.00000000       0.00000000 </v>
    <v>       0.00000000       0.00000000      -0.08849011 </v>
   </varray>
  </crystal>
  <varray name="positions" >
   <v>       0.65883830       0.00000000       0.15736517 </v>
   <v>       0.65883830       0.00000000       0.65736517 </v>
   <v>       0.65883830       0.33333333       0.15736517 </v>
   <v>       0.65883830       0.33333333       0.65736517 </v>
   <v>       0.65883830       0.66666667       0.15736517 </v>
   <v>       0.65883830       0.66666667       0.65736517 </v>
   <v>       0.84116170       0.16666667       0.84263483 </v>
   <v>       0.84116170       0.50000000       0.34263483 </v>
   <v>       0.84116170       0.50000000       0.84263483 </v>
   <v>       0.84116170       0.83333333       0.34263483 </v>
   <v>       0.84116170       0.83333333       0.84263483 </v>
   <v>       0.59047440       0.16666667       0.39739300 </v>
   <v>       0.59047440       0.16666667       0.89739300 </v>
   <v>       0.59047440       0.50000000       0.39739300 </v>
   <v>       0.59047440       0.50000000       0.89739300 </v>
   <v>       0.59047440       0.83333333       0.39739300 </v>
   <v>       0.59047440       0.83333333       0.89739300 </v>
   <v>       0.90952560       0.00000000       0.10260700 </v>
   <v>       0.90952560       0.00000000       0.60260700 </v>
   <v>       0.90952560       0.33333333       0.10260700 </v>
   <v>       0.90952560       0.33333333       0.60260700 </v>
   <v>       0.90952560       0.66666667       0.10260700 </v>
   <v>       0.90952560       0.66666667       0.60260700 </v>
   <v>       0.15883830       0.16666667       0.15736517 </v>
   <v>       0.15883830       0.16666667       0.65736517 </v>
   <v>       0.15883830       0.50000000       0.15736517 </v>
   <v>       0.15883830       0.50000000       0.65736517 </v>
   <v>       0.15883830       0.83333333       0.15736517 </v>
   <v>       0.15883830       0.83333333       0.65736517 </v>
   <v>       0.34116170       0.00000000       0.34263483 </v>
   <v>       0.34116170       0.00000000       0.84263483 </v>
   <v>       0.34116170       0.33333333       0.34263483 </v>
   <v>       0.34116170       0.33333333       0.84263483 </v>
   <v>       0.34116170       0.66666667       0.34263483 </v>
   <v>       0.34116170       0.66666667       0.84263483 </v>
   <v>       0.09047440       0.00000000       0.39739300 </v>
   <v>       0.09047440       0.00000000       0.89739300 </v>
   <v>       0.09047440       0.33333333       0.39739300 </v>
   <v>       0.09047440       0.33333333       0.89739300 </v>
   <v>       0.09047440       0.66666667       0.39739300 </v>
   <v>       0.09047440       0.66666667       0.89739300 </v>
   <v>       0.40952560       0.16666667       0.10260700 </v>
   <v>       0.40952560       0.16666667       0.60260700 </v>
   <v>       0.40952560       0.50000000       0.10260700 </v>
   <v>       0.40952560       0.50000000       0.60260700 </v>
   <v>       0.40952560       0.83333333       0.10260700 </v>
   <v>       0.40952560       0.83333333       0.60260700 </v>
   <v>       0.99646913       0.16666667       0.12833205 </v>
   <v>       0.99646913       0.16666667       0.62833205 </v>
   <v>       0.99646913       0.50000000       0.12833205 </v>
   <v>       0.99646913       0.50000000       0.62833205 </v>
   <v>       0.99646913       0.83333333       0.12833205 </v>
   <v>       0.99646913       0.83333333       0.62833205 </v>
   <v>       0.50353087       0.00000000       0.37166795 </v>
   <v>       0.50353087       0.00000000       0.87166795 </v>
   <v>       0.50353087       0.33333333       0.37166795 </v>
   <v>       0.50353087       0.33333333       0.87166795 </v>
   <v>       0.50353087       0.66666667       0.37166795 </v>
   <v>       0.50353087       0.66666667       0.87166795 </v>
   <v>       0.67337106       0.16666667       0.28161508 </v>
   <v>       0.67337106       0.16666667       0.78161508 </v>
   <v>       0.67337106       0.50000000       0.28161508 </v>
   <v>       0.67337106       0.50000000       0.78161508 </v>
   <v>       0.67337106       0.83333333       0.28161508 </v>
   <v>       0.67337106       0.83333333       0.78161508 </v>
   <v>       0.82662894       0.00000000       0.21838492 </v>
   <v>       0.82662894       0.00000000       0.71838492 </v>
   <v>       0.82662894       0.33333333       0.21838492 </v>
   <v>       0.82662894       0.33333333       0.71838492 </v>
   <v>       0.82662894       0.66666667       0.21838492 </v>
   <v>       0.82662894       0.66666667       0.71838492 </v>
   <v>       0.83549502       0.00000000       0.44542296 </v>
   <v>       0.83549502       0.00000000       0.94542296 </v>
   <v>       0.83549502       0.33333333       0.44542296 </v>
   <v>       0.83549502       0.33333333       0.94542296 </v>
   <v>       0.83549502       0.66666667       0.44542296 </v>
   <v>       0.83549502       0.66666667       0.94542296 </v>
   <v>       0.66450498       0.16666667       0.05457704 </v>
   <v>       0.66450498       0.16666667       0.55457704 </v>
   <v>       0.66450498       0.50000000       0.05457704 </v>
   <v>       0.66450498       0.50000000       0.55457704 </v>
   <v>       0.66450498       0.83333333       0.05457704 </v>
   <v>       0.66450498       0.83333333       0.55457704 </v>
   <v>       0.49646913       0.00000000       0.12833205 </v>
   <v>       0.49646913       0.00000000       0.62833205 </v>
   <v>       0.49646913       0.33333333       0.12833205 </v>
   <v>       0.49646913       0.33333333       0.62833205 </v>
   <v>       0.49646913       0.66666667       0.12833205 </v>
   <v>       0.49646913       0.66666667       0.62833205 </v>
   <v>       0.00353087       0.16666667       0.87166795 </v>
   <v>       0.00353087       0.50000000       0.37166795 </v>
   <v>       0.00353087       0.50000000       0.87166795 </v>
   <v>       0.00353087       0.83333333       0.37166795 </v>
   <v>       0.00353087       0.83333333       0.87166795 </v>
   <v>       0.17337106       0.00000000       0.28161508 </v>
   <v>       0.17337106       0.00000000       0.78161508 </v>
   <v>       0.17337106       0.33333333       0.28161508 </v>
   <v>       0.17337106       0.33333333       0.78161508 </v>
   <v>       0.17337106       0.66666667       0.28161508 </v>
   <v>       0.17337106       0.66666667       0.78161508 </v>
   <v>       0.32662894       0.16666667       0.21838492 </v>
   <v>       0.32662894       0.16666667       0.71838492 </v>
   <v>       0.32662894       0.50000000       0.21838492 </v>
   <v>       0.32662894       0.50000000       0.71838492 </v>
   <v>       0.32662894       0.83333333       0.21838492 </v>
   <v>       0.32662894       0.83333333       0.71838492 </v>
   <v>       0.33549502       0.16666667       0.44542296 </v>
   <v>       0.33549502       0.16666667       0.94542296 </v>
   <v>       0.33549502       0.50000000       0.44542296 </v>
   <v>       0.33549502       0.50000000       0.94542296 </v>
   <v>       0.33549502       0.83333333       0.44542296 </v>
   <v>       0.33549502       0.83333333       0.94542296 </v>
   <v>       0.16450498       0.00000000       0.05457704 </v>
   <v>       0.16450498       0.00000000       0.55457704 </v>
   <v>       0.16450498       0.33333333       0.05457704 </v>
   <v>       0.16450498       0.33333333       0.55457704 </v>
   <v>       0.16450498       0.66666667       0.05457704 </v>
   <v>       0.16450498       0.66666667       0.55457704 </v>
   <v>       0.00353087       0.16666667       0.37166795 </v>
  </varray>
 </structure>
 <calculation>
  <scstep>
   <time name="dav">    1.76    1.76</time>
   <time name="total">    1.89    1.89</time>
   <energy>
    <i name="alphaZ">   5376.25786726 </i>
    <i name="ewald"> -86362.76776985 </i>
    <i name="hartreedc"> -33533.57331741 </i>
    <i name="XCdc">   4078.31799697 </i>
    <i name="pawpsdc"> 100093.09196360 </i>
    <i name="pawaedc">-115889.62880893 </i>
    <i name="eentropy">     -0.00740373 </i>
    <i name="bandstr">  16111.07991107 </i>
    <i name="atom"> 131866.99277783 </i>
    <i name="e_fr_energy">  21739.76321680 </i>
    <i name="e_wo_entrp">  21739.77062053 </i>
    <i name="e_0_energy">  21739.76691866 </i>
   </energy>
  </scstep>
  <scstep>
   <time name="dav">    1.68    1.68</time>
   <time name="total">    1.68    1.68</time>
   <energy>
    <i name="e_fr_energy">   4827.17838657 </i>
    <i name="e_wo_entrp">   4827.19343919 </i>
    <i name="e_0_energy">   4827.18591288 </i>
   </energy>
  </scstep>
  <scstep>
   <time name="dav">    2.06    2.06</time>
   <time name="total">    2.06    2.06</time>
   <energy>
    <i name="e_fr_energy">   -136.01756095 </i>
    <i name="e_wo_entrp">   -136.01044353 </i>
    <i name="e_0_energy">   -136.01400224 </i>
   </energy>
  </scstep>
  <scstep>
   <time name="dav">    2.01    2.01</time>
   <time name="total">    2.01    2.01</time>
   <energy>
    <i name="e_fr_energy">   -758.74349622 </i>
    <i name="e_wo_entrp">   -758.72282742 </i>
    <i name="e_0_energy">   -758.73316182 </i>
   </energy>
  </scstep>
  <scstep>
   <time name="dav">    2.29    2.29</time>
   <time name="total">    2.56    2.56</time>
   <energy>
    <i name="e_fr_energy">   -801.53861441 </i>
    <i name="e_wo_entrp">   -801.51243369 </i>
    <i name="e_0_energy">   -801.52552405 </i>
   </energy>
  </scstep>
  <scstep>
   <time name="diag">    0.24    0.24</time>
   <time name="diis">    2.47    2.47</time>
   <time name="orth">    0.03    0.03</time>
   <time name="total">    3.12    3.13</time>
   <energy>
    <i name="e_fr_energy">   -689.94348357 </i>
    <i name="e_wo_entrp">   -689.92214710 </i>
    <i name="e_0_energy">   -689.93281533 </i>
   </energy>
  </scstep>
  <scstep>
   <time name="diag">    0.24    0.24</time>
   <time name="diis">    2.59    2.66</time>
   <time name="orth">    0.03    0.03</time>
   <time name="total">    3.24    3.31</time>
   <energy>
    <i name="e_fr_energy">   -694.26467908 </i>
    <i name="e_wo_entrp">   -694.24444675 </i>
    <i name="e_0_energy">   -694.25456291 </i>
   </energy>
  </scstep>
  <scstep>
   <time name="diag">    0.24    0.24</time>
   <time name="diis">    2.93    2.93</time>
   <time name="orth">    0.03    0.03</time>
   <time name="total">    3.58    3.58</time>
   <energy>
    <i name="e_fr_energy">   -692.01086576 </i>
    <i name="e_wo_entrp">   -691.99316651 </i>
    <i name="e_0_energy">   -692.00201613 </i>
   </energy>
  </scstep>
  <scstep>
   <time name="diag">    0.24    0.24</time>
   <time name="diis">    2.43    2.43</time>
   <time name="orth">    0.03    0.03</time>
   <time name="total">    3.09    3.09</time>
   <energy>
    <i name="e_fr_energy">   -693.88407752 </i>
    <i name="e_wo_entrp">   -693.86408324 </i>
    <i name="e_0_energy">   -693.87408038 </i>
   </energy>
  </scstep>
  <scstep>
   <time name="diag">    0.24    0.24</time>
   <time name="diis">    2.79    2.79</time>
   <time name="orth">    0.03    0.03</time>
   <time name="total">    3.45    3.45</time>
   <energy>
    <i name="e_fr_energy">   -692.27279403 </i>
    <i name="e_wo_entrp">   -692.26207081 </i>
    <i name="e_0_energy">   -692.26743242 </i>
   </energy>
  </scstep>
  <scstep>
   <time name="diag">    0.24    0.24</time>
   <time name="diis">    2.46    2.46</time>
   <time name="orth">    0.03    0.03</time>
   <time name="total">    3.12    3.12</time>
   <energy>
    <i name="e_fr_energy">   -691.74321268 </i>
    <i name="e_wo_entrp">   -691.72436585 </i>
    <i name="e_0_energy">   -691.73378927 </i>
   </energy>
  </scstep>
  <scstep>
   <time name="diag">    0.24    0.24</time>
   <time name="diis">    2.39    2.39</time>
   <time name="orth">    0.03    0.03</time>
   <time name="total">    3.05    3.05</time>
   <energy>
    <i name="e_fr_energy">   -691.54618680 </i>
    <i name="e_wo_entrp">   -691.52793533 </i>
    <i name="e_0_energy">   -691.53706107 </i>
   </energy>
  </scstep>
  <scstep>
   <time name="diag">    0.24    0.24</time>
   <time name="diis">    2.92    2.92</time>
   <time name="orth">    0.03    0.03</time>
   <time name="total">    3.58    3.58</time>
   <energy>
    <i name="e_fr_energy">   -691.43713378 </i>
    <i name="e_wo_entrp">   -691.41908836 </i>
    <i name="e_0_energy">   -691.42811107 </i>
   </energy>
  </scstep>
  <scstep>
   <time name="diag">    0.24    0.24</time>
   <time name="diis">    2.82    2.82</time>
   <time name="orth">    0.03    0.03</time>
   <time name="total">    3.48    3.48</time>
   <energy>
    <i name="e_fr_energy">   -691.42044763 </i>
    <i name="e_wo_entrp">   -691.40241797 </i>
    <i name="e_0_energy">   -691.41143280 </i>
   </energy>
  </scstep>
  <scstep>
   <time name="diag">    0.24    0.24</time>
   <time name="diis">    2.47    2.47</time>
   <time name="orth">    0.03    0.03</time>
   <time name="total">    3.14    3.14</time>
   <energy>
    <i name="e_fr_energy">   -691.38157662 </i>
    <i name="e_wo_entrp">   -691.36326690 </i>
    <i name="e_0_energy">   -691.37242176 </i>
   </energy>
  </scstep>
  <scstep>
   <time name="diag">    0.24    0.24</time>
   <time name="diis">    2.52    2.52</time>
   <time name="orth">    0.03    0.03</time>
   <time name="total">    3.19    3.19</time>
   <energy>
    <i name="e_fr_energy">   -691.36923817 </i>
    <i name="e_wo_entrp">   -691.35071084 </i>
    <i name="e_0_energy">   -691.35997450 </i>
   </energy>
  </scstep>
  <scstep>
   <time name="diag">    0.24    0.24</time>
   <time name="diis">    2.66    2.66</time>
   <time name="orth">    0.03    0.03</time>
   <time name="total">    3.33    3.34</time>
   <energy>
    <i name="e_fr_energy">   -691.36804161 </i>
    <i name="e_wo_entrp">   -691.34922517 </i>
    <i name="e_0_energy">   -691.35863339 </i>
   </energy>
  </scstep>
  <scstep>
   <time name="diag">    0.24    0.24</time>
   <time name="diis">    2.46    2.46</time>
   <time name="orth">    0.03    0.03</time>
   <time name="total">    3.13    3.13</time>
   <energy>
    <i name="e_fr_energy">   -691.36801966 </i>
    <i name="e_wo_entrp">   -691.34916680 </i>
    <i name="e_0_energy">   -691.35859323 </i>
   </energy>
  </scstep>
  <scstep>
   <time name="diag">    0.24    0.24</time>
   <time name="diis">    2.42    2.42</time>
   <time name="orth">    0.03    0.03</time>
   <time name="total">    3.10    3.10</time>
   <energy>
    <i name="e_fr_energy">   -691.36784747 </i>
    <i name="e_wo_entrp">   -691.34881910 </i>
    <i name="e_0_energy">   -691.35833329 </i>
   </energy>
  </scstep>
  <scstep>
   <time name="diag">    0.24    0.24</time>
   <time name="diis">    2.11    2.11</time>
   <time name="orth">    0.03    0.03</time>
   <time name="total">    2.79    2.79</time>
   <energy>
    <i name="e_fr_energy">   -691.36788826 </i>
    <i name="e_wo_entrp">   -691.34884420 </i>
    <i name="e_0_energy">   -691.35836623 </i>
   </energy>
  </scstep>
  <scstep>
   <time name="diag">    0.24    0.24</time>
   <time name="diis">    1.91    1.91</time>
   <time name="orth">    0.03    0.03</time>
   <time name="total">    2.58    2.59</time>
   <energy>
    <i name="e_fr_energy">   -691.36788446 </i>
    <i name="e_wo_entrp">   -691.34886587 </i>
    <i name="e_0_energy">   -691.35837516 </i>
   </energy>
  </scstep>
  <scstep>
   <time name="diag">    0.24    0.24</time>
   <time name="diis">    1.56    1.56</time>
   <time name="orth">    0.03    0.03</time>
   <time name="total">    1.95    1.95</time>
   <energy>
    <i name="alphaZ">   5376.25786726 </i>
    <i name="ewald"> -86362.76776985 </i>
    <i name="hartreedc"> -33988.04413121 </i>
    <i name="XCdc">   4141.41216356 </i>
    <i name="pawpsdc"> 118643.96691162 </i>
    <i name="pawaedc">-134696.02722629 </i>
    <i name="eentropy">     -0.01902700 </i>
    <i name="bandstr">  -5673.13945133 </i>
    <i name="atom"> 131866.99277783 </i>
    <i name="e_fr_energy">   -691.36788541 </i>
    <i name="e_wo_entrp">   -691.34885841 </i>
    <i name="e_0_energy">   -691.35837191 </i>
   </energy>
  </scstep>
  <structure>
   <crystal>
    <varray name="basis" >
     <v>       0.00000000      12.28047342       0.00000000 </v>
     <v>       9.14270205       0.00000000       0.00000000 </v>
     <v>       0.00000000      -2.76826177     -11.30069772 </v>
    </varray>
    <i name="volume">   1268.80515525 </i>
    <varray name="rec_basis" >
     <v>       0.00000000       0.08143009      -0.01994742 </v>
     <v>       0.10937686      -0.00000000       0.00000000 </v>
     <v>       0.00000000       0.00000000      -0.08849011 </v>
    </varray>
   </crystal>
   <varray name="positions" >
    <v>       0.65883830       0.00000000       0.15736517 </v>
    <v>       0.65883830       0.00000000       0.65736517 </v>
    <v>       0.65883830       0.33333333       0.15736517 </v>
    <v>       0.65883830       0.33333333       0.65736517 </v>
    <v>       0.65883830       0.66666667       0.15736517 </v>
    <v>       0.65883830       0.66666667       0.65736517 </v>
    <v>       0.84116170       0.16666667       0.84263483 </v>
    <v>       0.84116170       0.50000000       0.34263483 </v>
    <v>       0.84116170       0.50000000       0.84263483 </v>
    <v>       0.84116170       0.83333333       0.34263483 </v>
    <v>       0.84116170       0.83333333       0.84263483 </v>
    <v>       0.59047440       0.16666667       0.39739300 </v>
    <v>       0.59047440       0.16666667       0.89739300 </v>
    <v>       0.59047440       0.50000000       0.39739300 </v>
    <v>       0.59047440       0.50000000       0.89739300 </v>
    <v>       0.59047440       0.83333333       0.39739300 </v>
    <v>       0.59047440       0.83333333       0.89739300 </v>
    <v>       0.90952560       0.00000000       0.10260700 </v>
    <v>       0.90952560       0.00000000       0.60260700 </v>
    <v>       0.90952560       0.33333333       0.10260700 </v>
    <v>       0.90952560       0.33333333       0.60260700 </v>
    <v>       0.90952560       0.66666667       0.10260700 </v>
    <v>       0.90952560       0.66666667       0.60260700 </v>
    <v>       0.15883830       0.16666667       0.15736517 </v>
    <v>       0.15883830       0.16666667       0.65736517 </v>
    <v>       0.15883830       0.50000000       0.15736517 </v>
    <v>       0.15883830       0.50000000       0.65736517 </v>
    <v>       0.15883830       0.83333333       0.15736517 </v>
    <v>       0.15883830       0.83333333       0.65736517 </v>
    <v>       0.34116170       0.00000000       0.34263483 </v>
    <v>       0.34116170       0.00000000       0.84263483 </v>
    <v>       0.34116170       0.33333333       0.34263483 </v>
    <v>       0.34116170       0.33333333       0.84263483 </v>
    <v>       0.34116170       0.66666667       0.34263483 </v>
    <v>       0.34116170       0.66666667       0.84263483 </v>
    <v>       0.09047440       0.00000000       0.39739300 </v>
    <v>       0.09047440       0.00000000       0.89739300 </v>
    <v>       0.09047440       0.33333333       0.39739300 </v>
    <v>       0.09047440       0.33333333       0.89739300 </v>
    <v>       0.09047440       0.66666667       0.39739300 </v>
    <v>       0.09047440       0.66666667       0.89739300 </v>
    <v>       0.40952560       0.16666667       0.10260700 </v>
    <v>       0.40952560       0.16666667       0.60260700 </v>
    <v>       0.40952560       0.50000000       0.10260700 </v>
    <v>       0.40952560       0.50000000       0.60260700 </v>
    <v>       0.40952560       0.83333333       0.10260700 </v>
    <v>       0.40952560       0.83333333       0.60260700 </v>
    <v>       0.99646913       0.16666667       0.12833205 </v>
    <v>       0.99646913       0.16666667       0.62833205 </v>
    <v>       0.99646913       0.50000000       0.12833205 </v>
    <v>       0.99646913       0.50000000       0.62833205 </v>
    <v>       0.99646913       0.83333333       0.12833205 </v>
    <v>       0.99646913       0.83333333       0.62833205 </v>
    <v>       0.50353087       0.00000000       0.37166795 </v>
    <v>       0.50353087       0.00000000       0.87166795 </v>
    <v>       0.50353087       0.33333333       0.37166795 </v>
    <v>       0.50353087       0.33333333       0.87166795 </v>
    <v>       0.50353087       0.66666667       0.37166795 </v>
    <v>       0.50353087       0.66666667       0.87166795 </v>
    <v>       0.67337106       0.16666667       0.28161508 </v>
    <v>       0.67337106       0.16666667       0.78161508 </v>
    <v>       0.67337106       0.50000000       0.28161508 </v>
    <v>       0.67337106       0.50000000       0.78161508 </v>
    <v>       0.67337106       0.83333333       0.28161508 </v>
    <v>       0.67337106       0.83333333       0.78161508 </v>
    <v>       0.82662894       0.00000000       0.21838492 </v>
    <v>       0.82662894       0.00000000       0.71838492 </v>
    <v>       0.82662894       0.33333333       0.21838492 </v>
    <v>       0.82662894       0.33333333       0.71838492 </v>
    <v>       0.82662894       0.66666667       0.21838492 </v>
    <v>       0.82662894       0.66666667       0.71838492 </v>
    <v>       0.83549502       0.00000000       0.44542296 </v>
    <v>       0.83549502       0.00000000       0.94542296 </v>
    <v>       0.83549502       0.33333333       0.44542296 </v>
    <v>       0.83549502       0.33333333       0.94542296 </v>
    <v>       0.83549502       0.66666667       0.44542296 </v>
    <v>       0.83549502       0.66666667       0.94542296 </v>
    <v>       0.66450498       0.16666667       0.05457704 </v>
    <v>       0.66450498       0.16666667       0.55457704 </v>
    <v>       0.66450498       0.50000000       0.05457704 </v>
    <v>       0.66450498       0.50000000       0.55457704 </v>
    <v>       0.66450498       0.83333333       0.05457704 </v>
    <v>       0.66450498       0.83333333       0.55457704 </v>
    <v>       0.49646913       0.00000000       0.12833205 </v>
    <v>       0.49646913       0.00000000       0.62833205 </v>
    <v>       0.49646913       0.33333333       0.12833205 </v>
    <v>       0.49646913       0.33333333       0.62833205 </v>
    <v>       0.49646913       0.66666667       0.12833205 </v>
    <v>       0.49646913       0.66666667       0.62833205 </v>
    <v>       0.00353087       0.16666667       0.87166795 </v>
    <v>       0.00353087       0.50000000       0.37166795 </v>
    <v>       0.00353087       0.50000000       0.87166795 </v>
    <v>       0.00353087       0.83333333       0.37166795 </v>
    <v>       0.00353087       0.83333333       0.87166795 </v>
    <v>       0.17337106       0.00000000       0.28161508 </v>
    <v>       0.17337106       0.00000000       0.78161508 </v>
    <v>       0.17337106       0.33333333       0.28161508 </v>
    <v>       0.17337106       0.33333333       0.78161508 </v>
    <v>       0.17337106       0.66666667       0.28161508 </v>
    <v>       0.17337106       0.66666667       0.78161508 </v>
    <v>       0.32662894       0.16666667       0.21838492 </v>
    <v>       0.32662894       0.16666667       0.71838492 </v>
    <v>       0.32662894       0.50000000       0.21838492 </v>
    <v>       0.32662894       0.50000000       0.71838492 </v>
    <v>       0.32662894       0.83333333       0.21838492 </v>
    <v>       0.32662894       0.83333333       0.71838492 </v>
    <v>       0.33549502       0.16666667       0.44542296 </v>
    <v>       0.33549502       0.16666667       0.94542296 </v>
    <v>       0.33549502       0.50000000       0.44542296 </v>
    <v>       0.33549502       0.50000000       0.94542296 </v>
    <v>       0.33549502       0.83333333       0.44542296 </v>
    <v>       0.33549502       0.83333333       0.94542296 </v>
    <v>       0.16450498       0.00000000       0.05457704 </v>
    <v>       0.16450498       0.00000000       0.55457704 </v>
    <v>       0.16450498       0.33333333       0.05457704 </v>
    <v>       0.16450498       0.33333333       0.55457704 </v>
    <v>       0.16450498       0.66666667       0.05457704 </v>
    <v>       0.16450498       0.66666667       0.55457704 </v>
    <v>       0.00353087       0.16666667       0.37166795 </v>
   </varray>
  </structure>
  <varray name="forces" >
   <v>       1.22924964       0.90430201      -1.47834383 </v>
   <v>       0.18780310       0.15135739       0.26464783 </v>
   <v>      -1.22924964       0.90430201      -1.47834383 </v>
   <v>      -0.18780310       0.15135739       0.26464783 </v>
   <v>       0.00000000       0.18739784      -0.31832205 </v>
   <v>       0.00000000       0.09262673       0.15525915 </v>
   <v>       0.00000000      -0.18744045       0.02552457 </v>
   <v>      -1.51392376      -0.05081419       0.09389154 </v>
   <v>      -0.06721015      -0.01454145      -0.03128645 </v>
   <v>       1.51392376      -0.05081419       0.09389154 </v>
   <v>       0.06721015      -0.01454145      -0.03128645 </v>
   <v>       0.00000000       1.68775128       1.02727934 </v>
   <v>       0.00000000       0.18437067      -0.46908791 </v>
   <v>      -0.24663305       0.31906479       0.24806805 </v>
   <v>      -0.05156824       0.06557926      -0.25531493 </v>
   <v>       0.24663305       0.31906479       0.24806805 </v>
   <v>       0.05156824       0.06557926      -0.25531493 </v>
   <v>      -0.41935472      -1.36804207      -0.75804236 </v>
   <v>      -0.22170375      -0.55392899       1.15459170 </v>
   <v>       0.41935472      -1.36804207      -0.75804236 </v>
   <v>       0.22170375      -0.55392899       1.15459170 </v>
   <v>       0.00000000      -0.24087262      -0.31159373 </v>
   <v>       0.00000000       0.01034722       0.43780435 </v>
   <v>       0.00000000       0.35437683       0.08172117 </v>
   <v>       0.00000000       0.04609809      -0.06762853 </v>
   <v>       0.13611108      -0.22223911       0.01804977 </v>
   <v>       0.12318396      -0.27259873       0.15239624 </v>
   <v>      -0.13611108      -0.22223911       0.01804977 </v>
   <v>      -0.12318396      -0.27259873       0.15239624 </v>
   <v>       0.02922717       0.40549447      -0.10341208 </v>
   <v>      -0.00049104       0.15263659      -0.13148320 </v>
   <v>      -0.02922717       0.40549447      -0.10341208 </v>
   <v>       0.00049104       0.15263659      -0.13148320 </v>
   <v>       0.00000000       0.12630341      -0.04225394 </v>
   <v>       0.00000000       0.06882148      -0.10103708 </v>
   <v>      -8.94575276       5.08999013      -1.61681096 </v>
   <v>      -0.08762834      -0.03865965       0.00649564 </v>
   <v>       8.94575276       5.08999013      -1.61681096 </v>
   <v>       0.08762834      -0.03865965       0.00649564 </v>
   <v>       0.00000000      -0.49664157       0.09851934 </v>
   <v>       0.00000000      -0.04542433      -0.01464840 </v>
   <v>       0.00000000       0.46061244      -0.22144321 </v>
   <v>       0.00000000       0.13977828       0.10497903 </v>
   <v>      -0.12928031       0.27022629      -0.07963449 </v>
   <v>      -0.02958461       0.08250529       0.07452164 </v>
   <v>       0.12928031       0.27022629      -0.07963449 </v>
   <v>       0.02958461       0.08250529       0.07452164 </v>
   <v>       0.00000000       0.58485961      -0.66878463 </v>
   <v>       0.00000000       0.63300297       0.00512993 </v>
   <v>       0.08697212       0.45985884       0.05871425 </v>
   <v>       0.14490486       0.39136020      -0.35987221 </v>
   <v>      -0.08697212       0.45985884       0.05871425 </v>
   <v>      -0.14490486       0.39136020      -0.35987221 </v>
   <v>      -0.29869195      -0.52652981      -0.06075442 </v>
   <v>      -0.05993379      -0.15320553       0.16204407 </v>
   <v>       0.29869195      -0.52652981      -0.06075442 </v>
   <v>       0.05993379      -0.15320553       0.16204407 </v>
   <v>       0.00000000      -0.23110592       0.01029203 </v>
   <v>       0.00000000      -0.11073645       0.12262274 </v>
   <v>       0.00000000      -1.34681780       0.63187480 </v>
   <v>       0.00000000      -0.07600765       0.01575098 </v>
   <v>       0.37337788      -0.35675032       0.01219346 </v>
   <v>       0.02123832      -0.06763028       0.02313388 </v>
   <v>      -0.37337788      -0.35675032       0.01219346 </v>
   <v>      -0.02123832      -0.06763028       0.02313388 </v>
   <v>      -1.00310344       0.64809878       0.88814012 </v>
   <v>       0.01563722       0.02132390      -0.29134157 </v>
   <v>       1.00310344       0.64809878       0.88814012 </v>
   <v>      -0.01563722       0.02132390      -0.29134157 </v>
   <v>       0.00000000       0.11197977       0.15113256 </v>
   <v>       0.00000000      -0.01187145      -0.13198913 </v>
   <v>      -0.32208371       0.46229584      -0.72139233 </v>
   <v>       0.05911340       0.00839968       0.19311605 </v>
   <v>       0.32208371       0.46229584      -0.72139233 </v>
   <v>      -0.05911340       0.00839968       0.19311605 </v>
   <v>       0.00000000      -0.16639161      -0.19910551 </v>
   <v>       0.00000000      -0.12345834       0.08827209 </v>
   <v>       0.00000000       0.03996752       0.84697657 </v>
   <v>       0.00000000      -0.10875330      -0.44716250 </v>
   <v>       0.17218829       0.04023448       0.35023241 </v>
   <v>       0.06735981       0.05616781      -0.13398198 </v>
   <v>      -0.17218829       0.04023448       0.35023241 </v>
   <v>      -0.06735981       0.05616781      -0.13398198 </v>
   <v>      -0.19884006      -0.48309564       0.22672659 </v>
   <v>      -0.03586765      -0.15058042      -0.05428513 </v>
   <v>       0.19884006      -0.48309564       0.22672659 </v>
   <v>       0.03586765      -0.15058042      -0.05428513 </v>
   <v>       0.00000000      -0.24258095       0.06538109 </v>
   <v>       0.00000000      -0.09852552      -0.04105069 </v>
   <v>       0.00000000       0.12138645      -0.01196879 </v>
   <v>       0.70923490       0.69847694      -0.14005757 </v>
   <v>      -0.01630819       0.10657520      -0.00188032 </v>
   <v>      -0.70923490       0.69847694      -0.14005757 </v>
   <v>       0.01630819       0.10657520      -0.00188032 </v>
   <v>      -0.20016400       0.42867225       0.33038964 </v>
   <v>       0.04316247      -0.01012697      -0.03254753 </v>
   <v>       0.20016400       0.42867225       0.33038964 </v>
   <v>      -0.04316247      -0.01012697      -0.03254753 </v>
   <v>       0.00000000       0.18175188       0.07767826 </v>
   <v>       0.00000000       0.04212265      -0.06293665 </v>
   <v>       0.00000000      -0.16612796       0.01556619 </v>
   <v>       0.00000000      -0.02694686      -0.00432400 </v>
   <v>       0.00836873      -0.10778530       0.00136435 </v>
   <v>      -0.00919987       0.01216470      -0.02291617 </v>
   <v>      -0.00836873      -0.10778530       0.00136435 </v>
   <v>       0.00919987       0.01216470      -0.02291617 </v>
   <v>       0.00000000      -0.22053075      -0.07875489 </v>
   <v>       0.00000000      -0.25224664       0.09625663 </v>
   <v>       0.01508964      -0.25147637      -0.07328693 </v>
   <v>       0.02392066      -0.23788578       0.07715427 </v>
   <v>      -0.01508964      -0.25147637      -0.07328693 </v>
   <v>      -0.02392066      -0.23788578       0.07715427 </v>
   <v>       0.07054974       0.16526860       0.06118590 </v>
   <v>      -0.31103210       0.50909557      -0.58880026 </v>
   <v>      -0.07054974       0.16526860       0.06118590 </v>
   <v>       0.31103210       0.50909557      -0.58880026 </v>
   <v>       0.00000000       0.24195335       0.09709376 </v>
   <v>       0.00000000       0.30895661      -0.14036282 </v>
   <v>       0.00000000     -14.63850170       4.25411449 </v>
  </varray>
  <varray name="stress" >
   <v>     119.03642683       0.00000000       0.00000000 </v>
   <v>       0.00000000      85.56086998      -8.17602370 </v>
   <v>       0.00000000      -8.17602548      71.02682002 </v>
  </varray>
  <energy>
   <i name="e_fr_energy">   -691.36788541 </i>
   <i name="e_wo_entrp">   -691.34885841 </i>
   <i name="e_0_energy">   -691.35837191 </i>
  </energy>
  <time name="totalsc">   72.41   72.50</time>
 </calculation>
 <calculation>
  <scstep>
   <time name="dav">    1.86    1.86</time>
   <time name="total">    2.24    2.24</time>
   <energy>
    <i name="alphaZ">   5376.25786726 </i>
    <i name="ewald"> -86139.95051110 </i>
    <i name="hartreedc"> -34209.83296083 </i>
    <i name="XCdc">   4141.08187961 </i>
    <i name="pawpsdc"> 118643.64541378 </i>
    <i name="pawaedc">-134695.70150148 </i>
    <i name="eentropy">     -0.00004301 </i>
    <i name="bandstr">  -5624.72194358 </i>
    <i name="atom"> 131866.99277783 </i>
    <i name="e_fr_energy">   -642.22902153 </i>
    <i name="e_wo_entrp">   -642.22897852 </i>
    <i name="e_0_energy">   -642.22900003 </i>
   </energy>
  </scstep>
  <scstep>
   <time name="diag">    0.24    0.24</time>
   <time name="diis">    2.62    2.62</time>
   <time name="orth">    0.03    0.03</time>
   <time name="total">    3.27    3.27</time>
   <energy>
    <i name="e_fr_energy">   -680.37250328 </i>
    <i name="e_wo_entrp">   -680.36165690 </i>
    <i name="e_0_energy">   -680.36708009 </i>
   </energy>
  </scstep>
  <scstep>
   <time name="diag">    0.24    0.24</time>
   <time name="diis">    2.87    2.86</time>
   <time name="orth">    0.03    0.03</time>
   <time name="total">    3.52    3.52</time>
   <energy>
    <i name="e_fr_energy">   -693.01675473 </i>
    <i name="e_wo_entrp">   -693.00923037 </i>
    <i name="e_0_energy">   -693.01299255 </i>
   </energy>
  </scstep>
  <scstep>
   <time name="diag">    0.24    0.24</time>
   <time name="diis">    2.95    2.95</time>
   <time name="orth">    0.03    0.03</time>
   <time name="total">    3.60    3.60</time>
   <energy>
    <i name="e_fr_energy">   -693.67221741 </i>
    <i name="e_wo_entrp">   -693.65898536 </i>
    <i name="e_0_energy">   -693.66560138 </i>
   </energy>
  </scstep>
  <scstep>
   <time name="diag">    0.24    0.24</time>
   <time name="diis">    2.85    2.85</time>
   <time name="orth">    0.03    0.03</time>
   <time name="total">    3.50    3.50</time>
   <energy>
    <i name="e_fr_energy">   -693.44483521 </i>
    <i name="e_wo_entrp">   -693.43547137 </i>
    <i name="e_0_energy">   -693.44015329 </i>
   </energy>
  </scstep>
  <scstep>
   <time name="diag">    0.24    0.24</time>
   <time name="diis">    2.53    2.53</time>
   <time name="orth">    0.03    0.03</time>
   <time name="total">    3.18    3.18</time>
   <energy>
    <i name="e_fr_energy">   -693.47248182 </i>
    <i name="e_wo_entrp">   -693.46728382 </i>
    <i name="e_0_energy">   -693.46988282 </i>
   </energy>
  </scstep>
  <scstep>
   <time name="diag">    0.24    0.24</time>
   <time name="diis">    3.03    3.03</time>
   <time name="orth">    0.03    0.03</time>
   <time name="total">    3.69    3.69</time>
   <energy>
    <i name="e_fr_energy">   -693.65909678 </i>
    <i name="e_wo_entrp">   -693.63685714 </i>
    <i name="e_0_energy">   -693.64797696 </i>
   </energy>
  </scstep>
  <scstep>
   <time name="diag">    0.24    0.24</time>
   <time name="diis">    2.83    2.83</time>
   <time name="orth">    0.03    0.03</time>
   <time name="total">    3.49    3.49</time>
   <energy>
    <i name="e_fr_energy">   -693.80018025 </i>
    <i name="e_wo_entrp">   -693.78678180 </i>
    <i name="e_0_energy">   -693.79348103 </i>
   </energy>
  </scstep>
  <scstep>
   <time name="diag">    0.24    0.24</time>
   <time name="diis">    2.73    2.73</time>
   <time name="orth">    0.03    0.03</time>
   <time name="total">    3.39    3.39</time>
   <energy>
    <i name="e_fr_energy">   -693.94422498 </i>
    <i name="e_wo_entrp">   -693.93332227 </i>
    <i name="e_0_energy">   -693.93877362 </i>
   </energy>
  </scstep>
  <scstep>
   <time name="diag">    0.24    0.24</time>
   <time name="diis">    2.83    2.83</time>
   <time name="orth">    0.03    0.03</time>
   <time name="total">    3.49    3.49</time>
   <energy>
    <i name="e_fr_energy">   -694.06956835 </i>
    <i name="e_wo_entrp">   -694.06319484 </i>
    <i name="e_0_energy">   -694.06638159 </i>
   </energy>
  </scstep>
  <scstep>
   <time name="diag">    0.24    0.24</time>
   <time name="diis">    2.81    2.81</time>
   <time name="orth">    0.03    0.03</time>
   <time name="total">    3.47    3.47</time>
   <energy>
    <i name="e_fr_energy">   -694.10879707 </i>
    <i name="e_wo_entrp">   -694.10341360 </i>
    <i name="e_0_energy">   -694.10610534 </i>
   </energy>
  </scstep>
  <scstep>
   <time name="diag">    0.24    0.24</time>
   <time name="diis">    2.73    2.73</time>
   <time name="orth">    0.03    0.03</time>
   <time name="total">    3.40    3.40</time>
   <energy>
    <i name="e_fr_energy">   -694.46940785 </i>
    <i name="e_wo_entrp">   -694.46129599 </i>
    <i name="e_0_energy">   -694.46535192 </i>
   </energy>
  </scstep>
  <scstep>
   <time name="diag">    0.24    0.24</time>
   <time name="diis">    3.06    3.06</time>
   <time name="orth">    0.03    0.03</time>
   <time name="total">    3.73    3.73</time>
   <energy>
    <i name="e_fr_energy">   -693.96015101 </i>
    <i name="e_wo_entrp">   -693.94956093 </i>
    <i name="e_0_energy">   -693.95485597 </i>
   </energy>
  </scstep>
  <scstep>
   <time name="diag">    0.24    0.24</time>
   <time name="diis">    2.65    2.65</time>
   <time name="orth">    0.03    0.03</time>
   <time name="total">    3.32    3.32</time>
   <energy>
    <i name="e_fr_energy">   -693.95978446 </i>
    <i name="e_wo_entrp">   -693.94748591 </i>
    <i name="e_0_energy">   -693.95363518 </i>
   </energy>
  </scstep>
  <scstep>
   <time name="diag">    0.24    0.24</time>
   <time name="diis">    2.59    2.59</time>
   <time name="orth">    0.03    0.03</time>
   <time name="total">    3.26    3.27</time>
   <energy>
    <i name="e_fr_energy">   -693.95089948 </i>
    <i name="e_wo_entrp">   -693.93865011 </i>
    <i name="e_0_energy">   -693.94477480 </i>
   </energy>
  </scstep>
  <scstep>
   <time name="diag">    0.24    0.24</time>
   <time name="diis">    2.59    2.59</time>
   <time name="orth">    0.03    0.03</time>
   <time name="total">    3.26    3.26</time>
   <energy>
    <i name="e_fr_energy">   -693.89882261 </i>
    <i name="e_wo_entrp">   -693.87811510 </i>
    <i name="e_0_energy">   -693.88846885 </i>
   </energy>
  </scstep>
  <scstep>
   <time name="diag">    0.24    0.24</time>
   <time name="diis">    2.73    2.73</time>
   <time name="orth">    0.03    0.03</time>
   <time name="total">    3.42    3.42</time>
   <energy>
    <i name="e_fr_energy">   -693.88758413 </i>
    <i name="e_wo_entrp">   -693.86085040 </i>
    <i name="e_0_energy">   -693.87421727 </i>
   </energy>
  </scstep>
  <scstep>
   <time name="diag">    0.24    0.24</time>
   <time name="diis">    2.36    2.36</time>
   <time name="orth">    0.03    0.03</time>
   <time name="total">    3.04    3.04</time>
   <energy>
    <i name="e_fr_energy">   -693.89097012 </i>
    <i name="e_wo_entrp">   -693.86523557 </i>
    <i name="e_0_energy">   -693.87810285 </i>
   </energy>
  </scstep>
  <scstep>
   <time name="diag">    0.24    0.24</time>
   <time name="diis">    2.48    2.47</time>
   <time name="orth">    0.03    0.03</time>
   <time name="total">    3.16    3.16</time>
   <energy>
    <i name="e_fr_energy">   -693.88725524 </i>
    <i name="e_wo_entrp">   -693.86053869 </i>
    <i name="e_0_energy">   -693.87389696 </i>
   </energy>
  </scstep>
  <scstep>
   <time name="diag">    0.24    0.24</time>
   <time name="diis">    2.95    2.95</time>
   <time name="orth">    0.03    0.03</time>
   <time name="total">    3.64    3.64</time>
   <energy>
    <i name="e_fr_energy">   -693.90760708 </i>
    <i name="e_wo_entrp">   -693.88694218 </i>
    <i name="e_0_energy">   -693.89727463 </i>
   </energy>
  </scstep>
  <scstep>
   <time name="diag">    0.24    0.24</time>
   <time name="diis">    2.38    2.38</time>
   <time name="orth">    0.03    0.03</time>
   <time name="total">    3.07    3.07</time>
   <energy>
    <i name="e_fr_energy">   -693.89855351 </i>
    <i name="e_wo_entrp">   -693.87552632 </i>
    <i name="e_0_energy">   -693.88703992 </i>
   </energy>
  </scstep>
  <scstep>
   <time name="diag">    0.24    0.24</time>
   <time name="diis">    2.62    2.62</time>
   <time name="orth">    0.03    0.03</time>
   <time name="total">    3.32    3.32</time>
   <energy>
    <i name="e_fr_energy">   -693.88383598 </i>
    <i name="e_wo_entrp">   -693.85579840 </i>
    <i name="e_0_energy">   -693.86981719 </i>
   </energy>
  </scstep>
  <scstep>
   <time name="diag">    0.24    0.24</time>
   <time name="diis">    2.61    2.61</time>
   <time name="orth">    0.03    0.03</time>
   <time name="total">    3.31    3.31</time>
   <energy>
    <i name="e_fr_energy">   -693.88389190 </i>
    <i name="e_wo_entrp">   -693.85602374 </i>
    <i name="e_0_energy">   -693.86995782 </i>
   </energy>
  </scstep>
  <scstep>
   <time name="diag">    0.24    0.24</time>
   <time name="diis">    1.92    1.92</time>
   <time name="orth">    0.03    0.03</time>
   <time name="total">    2.62    2.62</time>
   <energy>
    <i name="e_fr_energy">   -693.88408480 </i>
    <i name="e_wo_entrp">   -693.85630062 </i>
    <i name="e_0_energy">   -693.87019271 </i>
   </energy>
  </scstep>
  <scstep>
   <time name="diag">    0.24    0.24</time>
   <time name="diis">    2.23    2.23</time>
   <time name="orth">    0.03    0.03</time>
   <time name="total">    2.94    2.94</time>
   <energy>
    <i name="e_fr_energy">   -693.88555971 </i>
    <i name="e_wo_entrp">   -693.85897058 </i>
    <i name="e_0_energy">   -693.87226514 </i>
   </energy>
  </scstep>
  <scstep>
   <time name="diag">    0.24    0.24</time>
   <time name="diis">    1.97    1.97</time>
   <time name="orth">    0.03    0.03</time>
   <time name="total">    2.68    2.68</time>
   <energy>
    <i name="e_fr_energy">   -693.88406941 </i>
    <i name="e_wo_entrp">   -693.85654553 </i>
    <i name="e_0_energy">   -693.87030747 </i>
   </energy>
  </scstep>
  <scstep>
   <time name="diag">    0.24    0.24</time>
   <time name="diis">    1.78    1.78</time>
   <time name="orth">    0.03    0.03</time>
   <time name="total">    2.49    2.49</time>
   <energy>
    <i name="e_fr_energy">   -693.88395736 </i>
    <i name="e_wo_entrp">   -693.85636275 </i>
    <i name="e_0_energy">   -693.87016006 </i>
   </energy>
  </scstep>
  <scstep>
   <time name="diag">    0.24    0.24</time>
   <time name="diis">    1.96    1.96</time>
   <time name="orth">    0.03    0.03</time>
   <time name="total">    2.68    2.68</time>
   <energy>
    <i name="e_fr_energy">   -693.88347424 </i>
    <i name="e_wo_entrp">   -693.85544688 </i>
    <i name="e_0_energy">   -693.86946056 </i>
   </energy>
  </scstep>
  <scstep>
   <time name="diag">    0.24    0.24</time>
   <time name="diis">    1.37    1.37</time>
   <time name="orth">    0.03    0.03</time>
   <time name="total">    2.09    2.09</time>
   <energy>
    <i name="e_fr_energy">   -693.88354749 </i>
    <i name="e_wo_entrp">   -693.85562485 </i>
    <i name="e_0_energy">   -693.86958617 </i>
   </energy>
  </scstep>
  <scstep>
   <time name="diag">    0.24    0.24</time>
   <time name="diis">    1.17    1.17</time>
   <time name="orth">    0.03    0.03</time>
   <time name="total">    1.90    1.90</time>
   <energy>
    <i name="e_fr_energy">   -693.88349266 </i>
    <i name="e_wo_entrp">   -693.85550358 </i>
    <i name="e_0_energy">   -693.86949812 </i>
   </energy>
  </scstep>
  <scstep>
   <time name="diag">    0.24    0.24</time>
   <time name="diis">    1.07    1.07</time>
   <time name="orth">    0.03    0.03</time>
   <time name="total">    1.45    1.45</time>
   <energy>
    <i name="alphaZ">   5376.25786726 </i>
    <i name="ewald"> -86139.95051110 </i>
    <i name="hartreedc"> -34233.57334276 </i>
    <i name="XCdc">   4141.78338948 </i>
    <i name="pawpsdc"> 118125.02278087 </i>
    <i name="pawaedc">-134178.54227927 </i>
[...]
       <r>   -10.6014     0.0000   142.0000 </r>
       <r>   -10.4894     0.0000   142.0000 </r>
       <r>   -10.3774     0.0000   142.0000 </r>
       <r>   -10.2655     0.0000   142.0000 </r>
       <r>   -10.1535     0.0000   142.0000 </r>
       <r>   -10.0415     0.0000   142.0000 </r>
       <r>    -9.9295     0.0000   142.0000 </r>
       <r>    -9.8176     0.0000   142.0000 </r>
       <r>    -9.7056     0.0000   142.0000 </r>
       <r>    -9.5936     0.0000   142.0000 </r>
       <r>    -9.4816     0.0063   142.0007 </r>
       <r>    -9.3697     8.6602   142.9704 </r>
       <r>    -9.2577    41.2030   147.5842 </r>
       <r>    -9.1457   131.3127   162.2880 </r>
       <r>    -9.0337   271.4322   192.6818 </r>
       <r>    -8.9218   556.7184   255.0207 </r>
       <r>    -8.8098   700.4650   333.4558 </r>
       <r>    -8.6978   636.2205   404.6970 </r>
       <r>    -8.5858   595.9065   471.4241 </r>
       <r>    -8.4739   440.2456   520.7209 </r>
       <r>    -8.3619   221.3725   545.5092 </r>
       <r>    -8.2499   152.6344   562.6005 </r>
       <r>    -8.1379    99.2010   573.7086 </r>
       <r>    -8.0260   103.9489   585.3484 </r>
       <r>    -7.9140   109.3973   597.5982 </r>
       <r>    -7.8020    93.7533   608.0963 </r>
       <r>    -7.6900    32.4372   611.7285 </r>
       <r>    -7.5781     2.4232   611.9998 </r>
       <r>    -7.4661     0.0014   612.0000 </r>
       <r>    -7.3541     0.0000   612.0000 </r>
       <r>    -7.2421     0.0000   612.0000 </r>
       <r>    -7.1302     0.0000   612.0000 </r>
       <r>    -7.0182     0.0000   612.0000 </r>
       <r>    -6.9062     0.0000   612.0000 </r>
       <r>    -6.7942     0.0000   612.0000 </r>
       <r>    -6.6822     0.0000   612.0000 </r>
       <r>    -6.5703     0.0000   612.0000 </r>
       <r>    -6.4583     0.0000   612.0000 </r>
       <r>    -6.3463     0.0000   612.0000 </r>
       <r>    -6.2343     0.0000   612.0000 </r>
       <r>    -6.1224     0.0000   612.0000 </r>
       <r>    -6.0104     0.0000   612.0000 </r>
       <r>    -5.8984     0.0000   612.0000 </r>
       <r>    -5.7864     0.0000   612.0000 </r>
       <r>    -5.6745     0.0000   612.0000 </r>
       <r>    -5.5625     0.0000   612.0000 </r>
       <r>    -5.4505     0.0000   612.0000 </r>
       <r>    -5.3385     0.0000   612.0000 </r>
       <r>    -5.2266     0.0000   612.0000 </r>
       <r>    -5.1146     0.0000   612.0000 </r>
       <r>    -5.0026     0.0064   612.0007 </r>
       <r>    -4.8906     7.2021   612.8072 </r>
       <r>    -4.7787    10.6184   613.9962 </r>
       <r>    -4.6667     0.0341   614.0000 </r>
       <r>    -4.5547     0.0000   614.0000 </r>
       <r>    -4.4427     0.0000   614.0000 </r>
       <r>    -4.3308     0.0000   614.0000 </r>
       <r>    -4.2188     0.0000   614.0000 </r>
       <r>    -4.1068     0.0000   614.0000 </r>
       <r>    -3.9948     0.0000   614.0000 </r>
       <r>    -3.8829     0.0000   614.0000 </r>
       <r>    -3.7709     0.0000   614.0000 </r>
       <r>    -3.6589     0.0000   614.0000 </r>
       <r>    -3.5469     0.0000   614.0000 </r>
       <r>    -3.4350     0.0000   614.0000 </r>
       <r>    -3.3230     0.0413   614.0046 </r>
       <r>    -3.2110     4.3117   614.4874 </r>
       <r>    -3.0990    12.3399   615.8692 </r>
       <r>    -2.9871    24.8255   618.6490 </r>
       <r>    -2.8751    25.2233   621.4734 </r>
       <r>    -2.7631    35.8693   625.4899 </r>
       <r>    -2.6511    29.9082   628.8389 </r>
       <r>    -2.5391    48.0531   634.2197 </r>
       <r>    -2.4272    41.9346   638.9154 </r>
       <r>    -2.3152    51.4438   644.6758 </r>
       <r>    -2.2032    61.4722   651.5592 </r>
       <r>    -2.0912    48.1566   656.9516 </r>
       <r>    -1.9793    40.1819   661.4510 </r>
       <r>    -1.8673    53.0156   667.3874 </r>
       <r>    -1.7553    46.7331   672.6204 </r>
       <r>    -1.6433    30.4435   676.0293 </r>
       <r>    -1.5314    31.6030   679.5681 </r>
       <r>    -1.4194    29.4745   682.8685 </r>
       <r>    -1.3074    38.5341   687.1834 </r>
       <r>    -1.1954    41.0875   691.7842 </r>
       <r>    -1.0835    40.5478   696.3246 </r>
       <r>    -0.9715    40.9415   700.9090 </r>
       <r>    -0.8595    34.0103   704.7173 </r>
       <r>    -0.7475    37.3152   708.8957 </r>
       <r>    -0.6356    42.3044   713.6328 </r>
       <r>    -0.5236    32.6037   717.2836 </r>
       <r>    -0.4116    40.4481   721.8128 </r>
       <r>    -0.2996    46.4277   727.0116 </r>
       <r>    -0.1877    45.2220   732.0754 </r>
       <r>    -0.0757    47.1062   737.3501 </r>
       <r>     0.0363    56.4683   743.6732 </r>
       <r>     0.1483    74.8410   752.0536 </r>
       <r>     0.2602    66.4189   759.4909 </r>
       <r>     0.3722    67.2979   767.0266 </r>
       <r>     0.4842    70.4961   774.9204 </r>
       <r>     0.5962    58.7519   781.4992 </r>
       <r>     0.7081    59.8725   788.2035 </r>
       <r>     0.8201    65.1596   795.4998 </r>
       <r>     0.9321    73.6637   803.7483 </r>
       <r>     1.0441    78.6035   812.5500 </r>
       <r>     1.1560    81.7428   821.7032 </r>
       <r>     1.2680    69.2159   829.4537 </r>
       <r>     1.3800    72.0338   837.5198 </r>
       <r>     1.4920    65.5601   844.8609 </r>
       <r>     1.6040    70.6500   852.7720 </r>
       <r>     1.7159    72.3760   860.8763 </r>
       <r>     1.8279    93.3028   871.3240 </r>
       <r>     1.9399    78.1545   880.0754 </r>
       <r>     2.0519    60.0639   886.8011 </r>
       <r>     2.1638    59.4652   893.4597 </r>
       <r>     2.2758    77.7265   902.1632 </r>
       <r>     2.3878    93.3684   912.6182 </r>
       <r>     2.4998    87.2128   922.3839 </r>
       <r>     2.6117   102.1020   933.8168 </r>
       <r>     2.7237    95.6477   944.5271 </r>
       <r>     2.8357   104.0199   956.1748 </r>
       <r>     2.9477   114.5836   969.0053 </r>
       <r>     3.0596   111.6966   981.5126 </r>
       <r>     3.1716   122.3490   995.2127 </r>
       <r>     3.2836   108.3594  1007.3464 </r>
       <r>     3.3956    85.1930  1016.8859 </r>
       <r>     3.5075    64.1797  1024.0725 </r>
       <r>     3.6195    39.6846  1028.5162 </r>
       <r>     3.7315    58.6182  1035.0800 </r>
       <r>     3.8435    25.5936  1037.9458 </r>
       <r>     3.9554     0.6091  1038.0140 </r>
       <r>     4.0674     2.0084  1038.2389 </r>
       <r>     4.1794     6.1145  1038.9236 </r>
       <r>     4.2914     9.1713  1039.9506 </r>
       <r>     4.4033     0.4413  1040.0000 </r>
       <r>     4.5153     0.0000  1040.0000 </r>
       <r>     4.6273     0.0000  1040.0000 </r>
       <r>     4.7393     0.0000  1040.0000 </r>
       <r>     4.8512     0.0000  1040.0000 </r>
       <r>     4.9632     0.0000  1040.0000 </r>
       <r>     5.0752     0.0000  1040.0000 </r>
       <r>     5.1872     0.1159  1040.0130 </r>
       <r>     5.2991     3.5741  1040.4132 </r>
       <r>     5.4111    11.0628  1041.6519 </r>
       <r>     5.5231     3.1055  1041.9997 </r>
       <r>     5.6351     0.0028  1042.0000 </r>
       <r>     5.7471     0.0000  1042.0000 </r>
       <r>     5.8590     0.0000  1042.0000 </r>
       <r>     5.9710     0.0000  1042.0000 </r>
       <r>     6.0830     0.0000  1042.0000 </r>
       <r>     6.1950     0.1396  1042.0156 </r>
       <r>     6.3069     1.9787  1042.2372 </r>
       <r>     6.4189     0.1143  1042.2500 </r>
       <r>     6.5309     0.0000  1042.2500 </r>
       <r>     6.6429     0.0000  1042.2500 </r>
       <r>     6.7548     0.0000  1042.2500 </r>
       <r>     6.8668     0.2377  1042.2766 </r>
       <r>     6.9788     2.8634  1042.5972 </r>
       <r>     7.0908     2.1038  1042.8328 </r>
       <r>     7.2027     5.6518  1043.4657 </r>
       <r>     7.3147     2.6253  1043.7597 </r>
       <r>     7.4267     3.5784  1044.1603 </r>
       <r>     7.5387     4.2977  1044.6416 </r>
       <r>     7.6506     2.4684  1044.9180 </r>
       <r>     7.7626     3.7319  1045.3359 </r>
       <r>     7.8746     5.7470  1045.9794 </r>
       <r>     7.9866     4.8935  1046.5273 </r>
       <r>     8.0985     5.9999  1047.1992 </r>
       <r>     8.2105     6.7214  1047.9518 </r>
       <r>     8.3225     6.6575  1048.6973 </r>
       <r>     8.4345     7.8595  1049.5774 </r>
       <r>     8.5464    14.2920  1051.1777 </r>
       <r>     8.6584    13.0115  1052.6347 </r>
       <r>     8.7704     7.2419  1053.4456 </r>
       <r>     8.8824    15.5351  1055.1852 </r>
       <r>     8.9943    11.4297  1056.4650 </r>
       <r>     9.1063    15.2803  1058.1761 </r>
       <r>     9.2183    17.5360  1060.1397 </r>
       <r>     9.3303    18.9030  1062.2563 </r>
       <r>     9.4422    28.3724  1065.4333 </r>
       <r>     9.5542    22.6941  1067.9745 </r>
       <r>     9.6662    33.5358  1071.7297 </r>
       <r>     9.7782    46.7414  1076.9636 </r>
       <r>     9.8902    36.8776  1081.0930 </r>
       <r>    10.0021    33.2346  1084.8145 </r>
       <r>    10.1141    41.0773  1089.4142 </r>
       <r>    10.2261    32.6191  1093.0667 </r>
       <r>    10.3381    36.6385  1097.1693 </r>
       <r>    10.4500    33.7318  1100.9465 </r>
       <r>    10.5620    39.2530  1105.3419 </r>
       <r>    10.6740    36.7908  1109.4615 </r>
       <r>    10.7860    36.4733  1113.5457 </r>
       <r>    10.8979    32.7413  1117.2119 </r>
       <r>    11.0099    26.0414  1120.1279 </r>
       <r>    11.1219    36.3696  1124.2004 </r>
       <r>    11.2339    46.5757  1129.4157 </r>
       <r>    11.3458    33.0746  1133.1193 </r>
       <r>    11.4578    37.6339  1137.3334 </r>
       <r>    11.5698    40.7260  1141.8937 </r>
       <r>    11.6818    36.9370  1146.0297 </r>
       <r>    11.7937    17.8319  1148.0265 </r>
       <r>    11.9057    17.8164  1150.0215 </r>
       <r>    12.0177    33.3658  1153.7576 </r>
       <r>    12.1297    24.6596  1156.5189 </r>
       <r>    12.2416    32.7018  1160.1807 </r>
       <r>    12.3536    45.9189  1165.3225 </r>
       <r>    12.4656    38.0942  1169.5881 </r>
       <r>    12.5776    39.4869  1174.0097 </r>
       <r>    12.6895    45.8032  1179.1386 </r>
       <r>    12.8015    35.5405  1183.1182 </r>
       <r>    12.9135    37.0246  1187.2641 </r>
       <r>    13.0255    31.6520  1190.8083 </r>
       <r>    13.1374    39.1116  1195.1879 </r>
       <r>    13.2494    36.8838  1199.3180 </r>
       <r>    13.3614    44.2513  1204.2730 </r>
       <r>    13.4734    50.1992  1209.8941 </r>
       <r>    13.5854    40.7397  1214.4560 </r>
       <r>    13.6973    40.8899  1219.0347 </r>
       <r>    13.8093    37.4221  1223.2250 </r>
       <r>    13.9213    33.8927  1227.0202 </r>
       <r>    14.0333    29.1812  1230.2878 </r>
       <r>    14.1452    30.7192  1233.7276 </r>
       <r>    14.2572    32.9227  1237.4141 </r>
       <r>    14.3692    32.6920  1241.0748 </r>
       <r>    14.4812    37.3751  1245.2600 </r>
       <r>    14.5931    34.4006  1249.1120 </r>
       <r>    14.7051     7.8769  1249.9940 </r>
       <r>    14.8171     0.0535  1250.0000 </r>
       <r>    14.9291     0.0000  1250.0000 </r>
       <r>    15.0410     0.0000  1250.0000 </r>
       <r>    15.1530     0.0000  1250.0000 </r>
       <r>    15.2650     0.0000  1250.0000 </r>
       <r>    15.3770     0.0000  1250.0000 </r>
       <r>    15.4889     0.0000  1250.0000 </r>
       <r>    15.6009     0.0000  1250.0000 </r>
       <r>    15.7129     0.0000  1250.0000 </r>
       <r>    15.8249     0.0000  1250.0000 </r>
       <r>    15.9368     0.0000  1250.0000 </r>
       <r>    16.0488     0.0000  1250.0000 </r>
       <r>    16.1608     0.0000  1250.0000 </r>
      </set>
     </set>
    </array>
   </total>
  </dos>
 </calculation>
 <structure name="finalpos" >
  <crystal>
   <varray name="basis" >
    <v>       0.00000000      12.28047342       0.00000000 </v>
    <v>       9.14270205       0.00000000       0.00000000 </v>
    <v>       0.00000000      -2.76826177     -11.30069772 </v>
   </varray>
   <i name="volume">   1268.80515525 </i>
   <varray name="rec_basis" >
    <v>       0.00000000       0.08143009      -0.01994742 </v>
    <v>       0.10937686      -0.00000000       0.00000000 </v>
    <v>       0.00000000       0.00000000      -0.08849011 </v>
   </varray>
  </crystal>
  <varray name="positions" >
   <v>       0.66327175      -0.00645863       0.15244452 </v>
   <v>       0.65981166      -0.00077651       0.65859168 </v>
   <v>       0.66327175       0.33979197       0.15244452 </v>
   <v>       0.65981166       0.33410985       0.65859168 </v>
   <v>       0.65991778       0.66666667       0.15576562 </v>
   <v>       0.66131995       0.66666667       0.65526429 </v>
   <v>       0.84189272       0.16666667       0.84597865 </v>
   <v>       0.84537944       0.50091275       0.33549493 </v>
   <v>       0.84263560       0.49988660       0.84393964 </v>
   <v>       0.84537944       0.83242058       0.33549493 </v>
   <v>       0.84263560       0.83344673       0.84393964 </v>
   <v>       0.59032898       0.16666667       0.40250508 </v>
   <v>       0.59223790       0.16666667       0.89992305 </v>
   <v>       0.59272010       0.50039306       0.39745982 </v>
   <v>       0.58934753       0.50128823       0.89399229 </v>
   <v>       0.59272010       0.83294028       0.39745982 </v>
   <v>       0.58934753       0.83204510       0.89399229 </v>
   <v>       0.91213154      -0.00121370       0.10355155 </v>
   <v>       0.91141765       0.00096170       0.60729908 </v>
   <v>       0.91213154       0.33454703       0.10355155 </v>
   <v>       0.91141765       0.33237163       0.60729908 </v>
   <v>       0.91213944       0.66666667       0.09971954 </v>
   <v>       0.90845173       0.66666667       0.60017579 </v>
   <v>       0.16228802       0.16666667       0.15872324 </v>
   <v>       0.16325093       0.16666667       0.65590939 </v>
   <v>       0.16170342       0.49951203       0.15845975 </v>
   <v>       0.15954795       0.49893658       0.65327783 </v>
   <v>       0.16170342       0.83382130       0.15845975 </v>
   <v>       0.15954795       0.83439675       0.65327783 </v>
   <v>       0.34092554      -0.00050757       0.34408027 </v>
   <v>       0.34134846      -0.00005324       0.84399519 </v>
   <v>       0.34092554       0.33384090       0.34408027 </v>
   <v>       0.34134846       0.33338657       0.84399519 </v>
   <v>       0.34190594       0.66666667       0.34435587 </v>
   <v>       0.33934196       0.66666667       0.84313689 </v>
   <v>       0.08663554       0.03143089       0.39569813 </v>
   <v>       0.09283518       0.00001002       0.89829295 </v>
   <v>       0.08663554       0.30190244       0.39569813 </v>
   <v>       0.09283518       0.33332331       0.89829295 </v>
   <v>       0.08719389       0.66666667       0.39550059 </v>
   <v>       0.09301860       0.66666667       0.89840783 </v>
   <v>       0.41260343       0.16666667       0.10393210 </v>
   <v>       0.41071370       0.16666667       0.60360392 </v>
   <v>       0.41154246       0.49909553       0.10350686 </v>
   <v>       0.41003434       0.50064460       0.60314135 </v>
   <v>       0.41154246       0.83423781       0.10350686 </v>
   <v>       0.41003434       0.83268874       0.60314135 </v>
   <v>       0.99788968       0.16666667       0.13760848 </v>
   <v>      -0.00150447       0.16666667       0.62233299 </v>
   <v>      -0.00026205       0.50098595       0.12532508 </v>
   <v>       0.99533131       0.49928300       0.62441423 </v>
   <v>      -0.00026205       0.83234738       0.12532508 </v>
   <v>       0.99533131       0.83405034       0.62441423 </v>
   <v>       0.50543742       0.00000323       0.37210146 </v>
   <v>       0.50436178       0.00052675       0.87374162 </v>
   <v>       0.50543742       0.33333010       0.37210146 </v>
   <v>       0.50436178       0.33280658       0.87374162 </v>
   <v>       0.50532380       0.66666667       0.37339839 </v>
   <v>       0.50129403       0.66666667       0.86858413 </v>
   <v>       0.69153467       0.16666667       0.29818059 </v>
   <v>       0.67397351       0.16666667       0.78317966 </v>
   <v>       0.67543178       0.50085744       0.28158910 </v>
   <v>       0.67395028       0.50009440       0.77970426 </v>
   <v>       0.67543178       0.83247589       0.28158910 </v>
   <v>       0.67395028       0.83323893       0.77970426 </v>
   <v>       0.82422328      -0.01936387       0.21094589 </v>
   <v>       0.82840705       0.00104004       0.72102541 </v>
   <v>       0.82422328       0.35269721       0.21094589 </v>
   <v>       0.82840705       0.33229329       0.72102541 </v>
   <v>       0.83022137       0.66666667       0.21626072 </v>
   <v>       0.82889876       0.66666667       0.71876753 </v>
   <v>       0.82632819       0.01720471       0.44878601 </v>
   <v>       0.83426427      -0.00000473       0.94698767 </v>
   <v>       0.82632819       0.31612863       0.44878601 </v>
   <v>       0.83426427       0.33333806       0.94698767 </v>
   <v>       0.83734967       0.66666667       0.44148904 </v>
   <v>       0.83276445       0.66666667       0.94452366 </v>
   <v>       0.66880957       0.16666667       0.05826486 </v>
   <v>       0.66766560       0.16666667       0.55792131 </v>
   <v>       0.66515244       0.50444097       0.05004264 </v>
   <v>       0.67180357       0.49894739       0.55371513 </v>
   <v>       0.66515244       0.82889236       0.05004264 </v>
   <v>       0.67180357       0.83438595       0.55371513 </v>
   <v>       0.50187630       0.00061529       0.13118927 </v>
   <v>       0.49783799      -0.00064307       0.62833955 </v>
   <v>       0.50187630       0.33271805       0.13118927 </v>
   <v>       0.49783799       0.33397641       0.62833955 </v>
   <v>       0.49801439       0.66666667       0.12836270 </v>
   <v>       0.49902806       0.66666667       0.62692454 </v>
   <v>       0.00433502       0.16666667       0.87258955 </v>
   <v>       0.00628050       0.48732254       0.37468172 </v>
   <v>       0.00477017       0.49997428       0.87143675 </v>
   <v>       0.00628050       0.84601079       0.37468172 </v>
   <v>       0.00477017       0.83335906       0.87143675 </v>
   <v>       0.17483705      -0.00112092       0.27977575 </v>
   <v>       0.17341767       0.00050453       0.78054643 </v>
   <v>       0.17483705       0.33445426       0.27977575 </v>
   <v>       0.17341767       0.33282880       0.78054643 </v>
   <v>       0.17286768       0.66666667       0.28137957 </v>
   <v>       0.17224300       0.66666667       0.77893711 </v>
   <v>       0.33105840       0.16666667       0.22048978 </v>
   <v>       0.33025244       0.16666667       0.72129505 </v>
   <v>       0.33016339       0.50042955       0.22052142 </v>
   <v>       0.32796350       0.50012470       0.71956444 </v>
   <v>       0.33016339       0.83290379       0.22052142 </v>
   <v>       0.32796350       0.83320863       0.71956444 </v>
   <v>       0.33591758       0.16666667       0.44668662 </v>
   <v>       0.33489859       0.16666667       0.94761359 </v>
   <v>       0.33536392       0.50039253       0.44649616 </v>
   <v>       0.33384024       0.49942642       0.94697948 </v>
   <v>       0.33536392       0.83294080       0.44649616 </v>
   <v>       0.33384024       0.83390691       0.94697948 </v>
   <v>       0.16896852       0.00096124       0.05447796 </v>
   <v>       0.16906920      -0.00002183       0.55416515 </v>
   <v>       0.16896852       0.33237209       0.05447796 </v>
   <v>       0.16906920       0.33335516       0.55416515 </v>
   <v>       0.17057294       0.66666667       0.05485663 </v>
   <v>       0.16530070       0.66666667       0.55218842 </v>
   <v>      -0.16668794       0.16666667       0.36307153 </v>
  </varray>
 </structure>
</modeling>
