 running    4 mpi-ranks, on    1 nodes
 distrk:  each k-point on    1 cores,    4 groups
 distr:  one band on    1 cores,    1 groups
 OpenACC runtime initialized ...    4 GPUs detected
 vasp.6.4.2 20Jul23 (build Nov 12 2023 22:16:35) complex                         
 POSCAR found type information on POSCAR GaO 
 POSCAR found :  2 types and     119 ions
 scaLAPACK will be used selectively (only on CPU)
 LDA part: xc-table for Pade appr. of Perdew
 POSCAR, INCAR and KPOINTS ok, starting setup
 FFT: planning ... GRIDC
 FFT: planning ... GRID_SOFT
 FFT: planning ... GRID
 WAVECAR not read
 initial charge from wavefunction
 entering main loop
       N       E                     dE             d eps       ncg     rms          ort
DAV:   1    -0.210813663502E+05   -0.21081E+05   -0.54831E+05  5008   0.752E+03
DAV:   2    -0.655459986086E+05   -0.44465E+05   -0.42930E+05  5008   0.124E+03
DAV:   3    -0.706571537354E+05   -0.51112E+04   -0.46400E+04  5008   0.380E+02
DAV:   4    -0.714608342411E+05   -0.80368E+03   -0.70001E+03  5008   0.122E+02
DAV:   5    -0.391616476989E+05    0.32299E+05   -0.76125E+02  5008   0.595E+01
 gam= 0.000 g(H,U,f)=  0.803E+05 0.260E+05 0.173E+01 ort(H,U,f) = 0.000E+00 0.000E+00 0.000E+00
SDA:   6     0.308046174203E+05    0.69966E+05   -0.76125E+02  5008   0.106E+06 0.000E+00
 gam= 0.000 trial= 0.400  step= 0.464 mean= 0.400
 gam= 0.568 g(H,U,f)=  0.272E+05 0.251E+05 0.812E+04 ort(H,U,f) =-0.106E+05-0.222E+05-0.834E+04
CGA:   7     0.778920005434E+04   -0.23015E+05   -0.24684E+05  5008   0.604E+05-0.411E+05
 gam= 0.568 trial= 0.403  step= 0.241 mean= 0.403
 gam= 0.341 g(H,U,f)=  0.135E+05 0.683E+04 0.261E+03 ort(H,U,f) = 0.363E+04 0.405E+04-0.323E+01
CGA:   8     0.489113280820E+04   -0.28981E+04   -0.44732E+04  5008   0.206E+05 0.768E+04
 gam= 0.341 trial= 0.395  step= 0.235 mean= 0.395
 gam= 0.676 g(H,U,f)=  0.939E+04 0.442E+04 0.106E+03 ort(H,U,f) = 0.187E+04-0.127E+04-0.207E+02
CGA:   9     0.281644117583E+04   -0.20747E+04   -0.27301E+04  5008   0.139E+05 0.576E+03
 gam= 0.676 trial= 0.387  step= 0.262 mean= 0.387
 gam= 0.364 g(H,U,f)=  0.442E+04 0.620E+03 0.167E+02 ort(H,U,f) = 0.959E+03 0.332E+03 0.850E+01
CGA:  10     0.130007523563E+04   -0.15164E+04   -0.18743E+04  5008   0.506E+04 0.130E+04
 gam= 0.364 trial= 0.381  step= 0.378 mean= 0.381
 gam= 0.540 g(H,U,f)=  0.191E+04 0.629E+03 0.199E+03 ort(H,U,f) = 0.616E+03 0.464E+02-0.334E+02
CGA:  11     0.254877628592E+03   -0.10452E+04   -0.10468E+04  5008   0.274E+04 0.629E+03
 gam= 0.540 trial= 0.381  step= 0.360 mean= 0.381
 gam= 0.396 g(H,U,f)=  0.918E+03 0.161E+03 0.321E+01 ort(H,U,f) = 0.275E+03 0.187E+03 0.646E+01
CGA:  12    -0.286913773523E+03   -0.54179E+03   -0.55315E+03  5008   0.108E+04 0.468E+03
 gam= 0.396 trial= 0.380  step= 0.520 mean= 0.380
 gam= 0.481 g(H,U,f)=  0.433E+03 0.858E+02 0.158E+01 ort(H,U,f) =-0.499E+02 0.119E+03-0.146E+01
CGA:  13    -0.625807122459E+03   -0.33889E+03   -0.32934E+03  5008   0.521E+03 0.674E+02
 gam= 0.481 trial= 0.387  step= 0.660 mean= 0.387
 gam= 0.676 g(H,U,f)=  0.314E+03 0.381E+02 0.268E+00 ort(H,U,f) =-0.138E+03 0.730E+02 0.319E+00
CGA:  14    -0.799882327763E+03   -0.17408E+03   -0.18251E+03  5008   0.352E+03-0.644E+02
 gam= 0.676 trial= 0.400  step= 0.475 mean= 0.400
 gam= 0.538 g(H,U,f)=  0.166E+03 0.219E+02 0.185E+01 ort(H,U,f) =-0.164E+02 0.189E+01 0.171E+01
CGA:  15    -0.872588578651E+03   -0.72706E+02   -0.73232E+02  5008   0.189E+03-0.128E+02
 gam= 0.538 trial= 0.404  step= 0.419 mean= 0.404
 gam= 0.527 g(H,U,f)=  0.819E+02 0.180E+02 0.843E-01 ort(H,U,f) = 0.831E+01-0.129E+02 0.131E+00
CGA:  16    -0.910823160440E+03   -0.38235E+02   -0.38289E+02  5008   0.999E+02-0.442E+01
 gam= 0.527 trial= 0.405  step= 0.458 mean= 0.405
 gam= 0.580 g(H,U,f)=  0.441E+02 0.139E+02 0.254E-02 ort(H,U,f) =-0.439E+00-0.253E+01-0.192E-01
CGA:  17    -0.933006456366E+03   -0.22183E+02   -0.22339E+02  5008   0.580E+02-0.299E+01
 gam= 0.580 trial= 0.407  step= 0.455 mean= 0.407
 gam= 0.622 g(H,U,f)=  0.262E+02 0.985E+01 0.939E-02 ort(H,U,f) =-0.489E+01 0.556E+01-0.657E-01
CGA:  18    -0.945814195753E+03   -0.12808E+02   -0.12791E+02  5008   0.361E+02 0.600E+00
 gam= 0.622 trial= 0.410  step= 0.454 mean= 0.410
 gam= 0.790 g(H,U,f)=  0.180E+02 0.105E+02 0.137E-01 ort(H,U,f) =-0.515E+01 0.380E+01 0.251E-01
CGA:  19    -0.954046979153E+03   -0.82328E+01   -0.82842E+01  5008   0.285E+02-0.132E+01
 gam= 0.790 trial= 0.412  step= 0.276 mean= 0.412
 gam= 0.961 g(H,U,f)=  0.141E+02 0.122E+02 0.103E+01 ort(H,U,f) =-0.724E+00-0.152E+01-0.286E+00
CGA:  20    -0.957524642455E+03   -0.34777E+01   -0.37830E+01  5008   0.274E+02-0.253E+01
 gam= 0.961 trial= 0.405  step= 0.190 mean= 0.405
 gam= 0.890 g(H,U,f)=  0.112E+02 0.121E+02 0.110E+01 ort(H,U,f) = 0.566E+00-0.266E+01-0.785E+00
CGA:  21    -0.959654998904E+03   -0.21304E+01   -0.23736E+01  5008   0.244E+02-0.288E+01
 gam= 0.890 trial= 0.395  step= 0.211 mean= 0.395
 gam= 0.527 g(H,U,f)=  0.799E+01 0.474E+01 0.109E+00 ort(H,U,f) =-0.266E+01 0.263E+01-0.935E-02
CGA:  22    -0.961986680196E+03   -0.23317E+01   -0.22999E+01  5008   0.128E+02-0.371E-01
 gam= 0.527 trial= 0.385  step= 0.193 mean= 0.385
 gam= 0.791 g(H,U,f)=  0.615E+01 0.384E+01 0.168E+00 ort(H,U,f) = 0.607E+00-0.112E+01-0.138E+00
CGA:  23    -0.963203025244E+03   -0.12163E+01   -0.12348E+01  5008   0.102E+02-0.648E+00
 gam= 0.791 trial= 0.376  step= 0.254 mean= 0.376
 gam= 1.058 g(H,U,f)=  0.465E+01 0.582E+01 0.287E+00 ort(H,U,f) = 0.553E+00-0.244E+00-0.222E+00
CGA:  24    -0.964371731048E+03   -0.11687E+01   -0.12265E+01  5008   0.108E+02 0.868E-01
 gam= 1.058 trial= 0.370  step= 0.156 mean= 0.370
 gam= 0.503 g(H,U,f)=  0.360E+01 0.171E+01 0.965E-01 ort(H,U,f) = 0.146E+00 0.911E-01-0.105E+00
CGA:  25    -0.965248341690E+03   -0.87661E+00   -0.84760E+00  5008   0.541E+01 0.132E+00
 gam= 0.503 trial= 0.359  step= 0.235 mean= 0.359
 gam= 1.097 g(H,U,f)=  0.283E+01 0.290E+01 0.202E+00 ort(H,U,f) = 0.747E+00-0.520E+00-0.120E+00
CGA:  26    -0.965872496579E+03   -0.62415E+00   -0.64461E+00  5008   0.594E+01 0.106E+00
 gam= 1.097 trial= 0.353  step= 0.201 mean= 0.353
 gam= 0.704 g(H,U,f)=  0.229E+01 0.178E+01 0.116E+00 ort(H,U,f) =-0.120E+00 0.167E+00-0.195E-01
CGA:  27    -0.966494990323E+03   -0.62249E+00   -0.60916E+00  5008   0.418E+01 0.271E-01
 gam= 0.704 trial= 0.345  step= 0.219 mean= 0.345
 gam= 0.773 g(H,U,f)=  0.187E+01 0.124E+01 0.118E+00 ort(H,U,f) =-0.359E+00 0.493E+00-0.747E-01
CGA:  28    -0.966939537159E+03   -0.44455E+00   -0.46075E+00  5008   0.323E+01 0.591E-01
 gam= 0.773 trial= 0.339  step= 0.140 mean= 0.339
 gam= 0.836 g(H,U,f)=  0.144E+01 0.118E+01 0.763E-01 ort(H,U,f) = 0.254E+00 0.380E+00-0.570E-01
CGA:  29    -0.967226768625E+03   -0.28723E+00   -0.23005E+00  5008   0.270E+01 0.577E+00
 gam= 0.836 trial= 0.329  step= 0.196 mean= 0.329
 gam= 1.135 g(H,U,f)=  0.108E+01 0.172E+01 0.266E+00 ort(H,U,f) =-0.211E+00 0.287E+00-0.578E-01
CGA:  30    -0.967558401850E+03   -0.33163E+00   -0.31161E+00  5008   0.306E+01 0.183E-01
 gam= 1.135 trial= 0.322  step= 0.098 mean= 0.322
 gam= 0.722 g(H,U,f)=  0.977E+00 0.120E+01 0.362E-01 ort(H,U,f) =-0.437E+00 0.221E+00 0.482E-01
CGA:  31    -0.967703197075E+03   -0.14480E+00   -0.15127E+00  5008   0.221E+01-0.168E+00
 gam= 0.722 trial= 0.311  step= 0.128 mean= 0.311
 gam= 0.937 g(H,U,f)=  0.832E+00 0.121E+01 0.355E-01 ort(H,U,f) =-0.173E+00 0.941E-01-0.695E-02
CGA:  32    -0.967826878703E+03   -0.12368E+00   -0.13351E+00  5008   0.207E+01-0.861E-01
 gam= 0.937 trial= 0.302  step= 0.143 mean= 0.302
 gam= 0.867 g(H,U,f)=  0.634E+00 0.113E+01 0.347E-01 ort(H,U,f) =-0.184E+00 0.114E+00 0.897E-04
CGA:  33    -0.967957122338E+03   -0.13024E+00   -0.14264E+00  5008   0.180E+01-0.699E-01
 gam= 0.867 trial= 0.294  step= 0.121 mean= 0.294
 gam= 0.424 g(H,U,f)=  0.467E+00 0.292E+00 0.461E-02 ort(H,U,f) =-0.130E+00 0.257E+00-0.179E-01
CGA:  34    -0.968070466157E+03   -0.11334E+00   -0.10523E+00  5008   0.763E+00 0.109E+00
 gam= 0.424 trial= 0.285  step= 0.150 mean= 0.285
 gam= 1.085 g(H,U,f)=  0.365E+00 0.431E+00 0.317E-01 ort(H,U,f) = 0.211E+00-0.200E+00-0.158E-01
CGA:  35    -0.968130608386E+03   -0.60142E-01   -0.60886E-01  5008   0.828E+00-0.473E-02
 gam= 1.085 trial= 0.279  step= 0.243 mean= 0.279
 gam= 1.166 g(H,U,f)=  0.261E+00 0.695E+00 0.993E-02 ort(H,U,f) = 0.911E-01-0.817E-01 0.216E-02
CGA:  36    -0.968229880231E+03   -0.99272E-01   -0.99796E-01  5008   0.965E+00 0.116E-01
 gam= 1.166 trial= 0.277  step= 0.139 mean= 0.277
 gam= 0.000 g(H,U,f)=  0.238E+00 0.168E+00 0.606E-02 ort(H,U,f) =-0.739E-01 0.471E-01 0.102E-01
SDA:  37    -0.968295040879E+03   -0.65161E-01   -0.68245E-01  5008   0.412E+00-0.166E-01
 gam= 0.000 trial= 0.270  step= 0.451 mean= 0.270
 gam= 1.386 g(H,U,f)=  0.130E+00 0.430E+00 0.115E-01 ort(H,U,f) = 0.102E+00-0.135E+00-0.786E-02
CGA:  38    -0.968383954867E+03   -0.88914E-01   -0.92907E-01  5008   0.572E+00-0.412E-01
 gam= 1.386 trial= 0.279  step= 0.328 mean= 0.279
 gam= 0.425 g(H,U,f)=  0.875E-01 0.151E+00 0.443E-02 ort(H,U,f) =-0.373E-02 0.203E-02-0.268E-02
CGA:  39    -0.968468160852E+03   -0.84206E-01   -0.84363E-01  5008   0.243E+00-0.438E-02
 gam= 0.425 trial= 0.281  step= 0.307 mean= 0.281
 gam= 0.517 g(H,U,f)=  0.536E-01 0.679E-01 0.420E-02 ort(H,U,f) = 0.224E-01-0.179E-01-0.256E-02
CGA:  40    -0.968505284765E+03   -0.37124E-01   -0.37078E-01  5008   0.126E+00 0.186E-02
 gam= 0.517 trial= 0.283  step= 0.505 mean= 0.283
 gam= 0.360 g(H,U,f)=  0.183E-01 0.265E-01 0.392E-03 ort(H,U,f) =-0.134E-02-0.870E-02 0.472E-03
CGA:  41    -0.968536201753E+03   -0.30917E-01   -0.32003E-01  5008   0.452E-01-0.956E-02
 gam= 0.360 trial= 0.294  step= 0.448 mean= 0.294
 gam= 0.908 g(H,U,f)=  0.947E-02 0.316E-01 0.110E-04 ort(H,U,f) = 0.354E-02-0.320E-02 0.100E-03
CGA:  42    -0.968545597175E+03   -0.93954E-02   -0.93553E-02  5008   0.410E-01 0.441E-03
 gam= 0.908 trial= 0.302  step= 0.258 mean= 0.302
 gam= 0.510 g(H,U,f)=  0.563E-02 0.148E-01 0.541E-03 ort(H,U,f) = 0.197E-02-0.273E-02 0.879E-03
CGA:  43    -0.968550931588E+03   -0.53344E-02   -0.53383E-02  5008   0.210E-01 0.124E-03
 gam= 0.510 trial= 0.299  step= 0.566 mean= 0.299
 gam= 1.070 g(H,U,f)=  0.567E-02 0.162E-01 0.511E-03 ort(H,U,f) =-0.116E-02 0.261E-03 0.971E-03
CGA:  44    -0.968556884080E+03   -0.59525E-02   -0.59454E-02  5008   0.224E-01 0.743E-04
 gam= 1.070 trial= 0.313  step= 0.786 mean= 0.313
 gam= 2.386 g(H,U,f)=  0.109E-01 0.423E-01 0.335E-03 ort(H,U,f) =-0.775E-02 0.543E-02 0.102E-02
CGA:  45    -0.968565463835E+03   -0.85798E-02   -0.88431E-02  5008   0.535E-01-0.130E-02
 gam= 2.386 trial= 0.336  step= 0.327 mean= 0.336
 gam= 0.668 g(H,U,f)=  0.184E-01 0.172E-01 0.164E-03 ort(H,U,f) =-0.262E-01 0.246E-01 0.133E-02
CGA:  46    -0.968573697697E+03   -0.82339E-02   -0.82310E-02  5008   0.358E-01-0.250E-03
 gam= 0.668 trial= 0.336  step= 0.428 mean= 0.336
 gam= 1.143 g(H,U,f)=  0.186E-01 0.222E-01 0.282E-04 ort(H,U,f) =-0.726E-02 0.102E-01 0.214E-03
CGA:  47    -0.968581507279E+03   -0.78096E-02   -0.76104E-02  5008   0.409E-01 0.313E-02
 gam= 1.143 trial= 0.340  step= 0.518 mean= 0.340
 gam= 0.896 g(H,U,f)=  0.173E-01 0.194E-01 0.469E-07 ort(H,U,f) =-0.102E-01 0.856E-02 0.148E-05
CGA:  48    -0.968592826457E+03   -0.11319E-01   -0.11506E-01  5008   0.366E-01-0.160E-02
 gam= 0.896 trial= 0.349  step= 0.359 mean= 0.349
 gam= 0.812 g(H,U,f)=  0.153E-01 0.144E-01 0.167E-07 ort(H,U,f) =-0.288E-02 0.448E-02-0.204E-06
CGA:  49    -0.968599153718E+03   -0.63273E-02   -0.63130E-02  5008   0.297E-01 0.160E-02
 gam= 0.812 trial= 0.350  step= 0.487 mean= 0.350
 gam= 0.565 g(H,U,f)=  0.955E-02 0.727E-02 0.146E-08 ort(H,U,f) =-0.979E-03 0.315E-02-0.694E-08
CGA:  50    -0.968606901216E+03   -0.77475E-02   -0.75526E-02  5008   0.168E-01 0.217E-02
 gam= 0.565 trial= 0.357  step= 0.599 mean= 0.357
 gam= 0.650 g(H,U,f)=  0.639E-02 0.454E-02 0.423E-09 ort(H,U,f) =-0.221E-03 0.473E-03-0.528E-09
CGA:  51    -0.968612340607E+03   -0.54394E-02   -0.54043E-02  5008   0.109E-01 0.252E-03
 gam= 0.650 trial= 0.369  step= 0.508 mean= 0.369
 gam= 1.132 g(H,U,f)=  0.474E-02 0.763E-02 0.508E-09 ort(H,U,f) = 0.165E-02-0.168E-02 0.939E-10
CGA:  52    -0.968615154395E+03   -0.28138E-02   -0.28156E-02  5008   0.124E-01-0.315E-04
 gam= 1.132 trial= 0.376  step= 0.446 mean= 0.376
 gam= 0.407 g(H,U,f)=  0.336E-02 0.167E-02 0.822E-09 ort(H,U,f) = 0.847E-04-0.367E-03 0.156E-08
CGA:  53    -0.968617890699E+03   -0.27363E-02   -0.27503E-02  5008   0.504E-02-0.282E-03
 gam= 0.407 trial= 0.379  step= 0.823 mean= 0.379
 gam= 0.711 g(H,U,f)=  0.192E-02 0.167E-02 0.107E-08 ort(H,U,f) =-0.346E-03 0.268E-03 0.532E-08
CGA:  54    -0.968619900206E+03   -0.20095E-02   -0.20267E-02  5008   0.358E-02-0.784E-04
 gam= 0.711 trial= 0.401  step= 0.471 mean= 0.401
 gam= 1.204 g(H,U,f)=  0.149E-02 0.282E-02 0.331E-09 ort(H,U,f) = 0.208E-03-0.264E-03 0.458E-08
CGA:  55    -0.968620726907E+03   -0.82670E-03   -0.82962E-03  5008   0.431E-02-0.567E-04
 gam= 1.204 trial= 0.405  step= 0.428 mean= 0.405
 gam= 0.467 g(H,U,f)=  0.117E-02 0.847E-03 0.567E-08 ort(H,U,f) =-0.662E-03 0.606E-03-0.467E-07
CGA:  56    -0.968621634307E+03   -0.90740E-03   -0.90856E-03  5008   0.201E-02-0.568E-04
 gam= 0.467 trial= 0.406  step= 0.696 mean= 0.406
 gam= 0.722 g(H,U,f)=  0.817E-03 0.637E-03 0.373E-07 ort(H,U,f) =-0.328E-03 0.293E-03-0.585E-07
CGA:  57    -0.968622320815E+03   -0.68651E-03   -0.69188E-03  5008   0.145E-02-0.345E-04
 gam= 0.722 trial= 0.421  step= 0.752 mean= 0.421
 gam= 1.250 g(H,U,f)=  0.684E-03 0.114E-02 0.390E-07 ort(H,U,f) =-0.174E-03 0.184E-03-0.431E-08
CGA:  58    -0.968622860131E+03   -0.53932E-03   -0.53758E-03  5008   0.182E-02 0.992E-05
 gam= 1.250 trial= 0.437  step= 0.321 mean= 0.437
 gam= 0.682 g(H,U,f)=  0.602E-03 0.637E-03 0.295E-07 ort(H,U,f) =-0.121E-03 0.126E-03 0.273E-07
CGA:  59    -0.968623153444E+03   -0.29331E-03   -0.29408E-03  5008   0.124E-02 0.541E-05
 gam= 0.682 trial= 0.431  step= 0.844 mean= 0.431
 gam= 0.837 g(H,U,f)=  0.604E-03 0.434E-03 0.132E-08 ort(H,U,f) =-0.367E-03 0.398E-03 0.681E-08
CGA:  60    -0.968623684609E+03   -0.53116E-03   -0.52468E-03  5008   0.104E-02 0.307E-04
 gam= 0.837 trial= 0.452  step= 0.916 mean= 0.452
 gam= 1.424 g(H,U,f)=  0.677E-03 0.801E-03 0.262E-09 ort(H,U,f) =-0.294E-03 0.277E-03-0.135E-08
CGA:  61    -0.968624167795E+03   -0.48319E-03   -0.48706E-03  5008   0.148E-02-0.172E-04
 gam= 1.424 trial= 0.475  step= 0.652 mean= 0.475
 gam= 1.266 g(H,U,f)=  0.850E-03 0.102E-02 0.727E-09 ort(H,U,f) =-0.573E-03 0.581E-03-0.280E-08
CGA:  62    -0.968624642660E+03   -0.47487E-03   -0.47410E-03  5008   0.187E-02 0.872E-05
 gam= 1.266 trial= 0.484  step= 0.608 mean= 0.484
 gam= 1.091 g(H,U,f)=  0.104E-02 0.101E-02 0.123E-08 ort(H,U,f) =-0.809E-03 0.959E-03-0.232E-08
CGA:  63    -0.968625227578E+03   -0.58492E-03   -0.57174E-03  5008   0.204E-02 0.151E-03
 gam= 1.091 trial= 0.490  step= 0.695 mean= 0.490
 gam= 2.023 g(H,U,f)=  0.129E-02 0.284E-02 0.563E-09 ort(H,U,f) =-0.972E-03 0.629E-03-0.733E-09
CGA:  64    -0.968625950805E+03   -0.72323E-03   -0.76696E-03  5008   0.413E-02-0.343E-03
 gam= 2.023 trial= 0.500  step= 0.388 mean= 0.500
 gam= 1.336 g(H,U,f)=  0.199E-02 0.353E-02 0.472E-09 ort(H,U,f) =-0.236E-02 0.233E-02-0.814E-09
CGA:  65    -0.968626635194E+03   -0.68439E-03   -0.66611E-03  5008   0.552E-02-0.288E-04
 gam= 1.336 trial= 0.495  step= 0.337 mean= 0.495
 gam= 1.014 g(H,U,f)=  0.263E-02 0.297E-02 0.547E-09 ort(H,U,f) =-0.306E-02 0.318E-02-0.802E-09
CGA:  66    -0.968627528856E+03   -0.89366E-03   -0.92340E-03  5008   0.560E-02 0.125E-03
 gam= 1.014 trial= 0.487  step= 0.460 mean= 0.487
 gam= 1.242 g(H,U,f)=  0.313E-02 0.383E-02 0.418E-09 ort(H,U,f) =-0.246E-02 0.200E-02-0.468E-09
CGA:  67    -0.968628860317E+03   -0.13315E-02   -0.13159E-02  5008   0.695E-02-0.457E-03
 gam= 1.242 trial= 0.486  step= 0.222 mean= 0.486
 gam= 0.000 g(H,U,f)=  0.336E-02 0.544E-02 0.323E-09 ort(H,U,f) =-0.123E-02 0.189E-02-0.291E-09
SDA:  68    -0.968629674316E+03   -0.81400E-03   -0.70921E-03  5008   0.880E-02 0.653E-03
 gam= 0.000 trial= 0.472  step= 0.514 mean= 0.472
 gam= 1.131 g(H,U,f)=  0.211E-02 0.785E-02 0.573E-09 ort(H,U,f) = 0.144E-02-0.145E-02 0.579E-09
CGA:  69    -0.968631934043E+03   -0.22597E-02   -0.22599E-02  5008   0.996E-02-0.615E-05
 gam= 1.131 trial= 0.474  step= 0.493 mean= 0.474
 gam= 0.601 g(H,U,f)=  0.208E-02 0.390E-02 0.612E-09 ort(H,U,f) = 0.250E-03-0.413E-03 0.240E-08
CGA:  70    -0.968634385286E+03   -0.24512E-02   -0.24540E-02  5008   0.599E-02-0.163E-03
 gam= 0.601 trial= 0.475  step= 0.938 mean= 0.475
 gam= 1.270 g(H,U,f)=  0.172E-02 0.588E-02 0.230E-08 ort(H,U,f) =-0.612E-03 0.337E-03-0.119E-07
CGA:  71    -0.968637084864E+03   -0.26996E-02   -0.27619E-02  5008   0.760E-02-0.275E-03
 gam= 1.270 trial= 0.499  step= 0.380 mean= 0.499
 gam= 0.299 g(H,U,f)=  0.140E-02 0.872E-03 0.780E-08 ort(H,U,f) =-0.852E-03 0.838E-03-0.385E-07
CGA:  72    -0.968638466559E+03   -0.13817E-02   -0.13786E-02  5008   0.227E-02-0.141E-04
 gam= 0.299 trial= 0.493  step= 1.456 mean= 0.493
 gam= 1.227 g(H,U,f)=  0.164E-02 0.115E-02 0.102E-07 ort(H,U,f) =-0.590E-03 0.624E-03-0.315E-08
CGA:  73    -0.968640130847E+03   -0.16643E-02   -0.16497E-02  5008   0.278E-02 0.344E-04
 gam= 1.227 trial= 0.541  step= 0.518 mean= 0.541
 gam= 1.100 g(H,U,f)=  0.936E-03 0.213E-02 0.153E-07 ort(H,U,f) =-0.940E-04 0.542E-04 0.889E-08
CGA:  74    -0.968640864434E+03   -0.73359E-03   -0.73268E-03  5008   0.306E-02-0.398E-04
 gam= 1.100 trial= 0.540  step= 0.514 mean= 0.540
 gam= 0.713 g(H,U,f)=  0.157E-02 0.613E-03 0.201E-08 ort(H,U,f) =-0.908E-03 0.955E-03 0.711E-08
CGA:  75    -0.968641639465E+03   -0.77503E-03   -0.77640E-03  5008   0.218E-02 0.469E-04
 gam= 0.713 trial= 0.538  step= 0.587 mean= 0.538
 gam= 0.940 g(H,U,f)=  0.845E-03 0.121E-02 0.778E-11 ort(H,U,f) =-0.244E-03 0.241E-03-0.184E-09
CGA:  76    -0.968642290212E+03   -0.65075E-03   -0.65083E-03  5008   0.205E-02-0.250E-05
 gam= 0.940 trial= 0.541  step= 0.452 mean= 0.541
 gam= 0.534 g(H,U,f)=  0.755E-03 0.341E-03 0.335E-10 ort(H,U,f) =-0.293E-03 0.295E-03-0.496E-09
CGA:  77    -0.968642753194E+03   -0.46298E-03   -0.46312E-03  5008   0.110E-02 0.116E-05
 gam= 0.534 trial= 0.536  step= 0.722 mean= 0.536
 gam= 0.860 g(H,U,f)=  0.546E-03 0.396E-03 0.236E-09 ort(H,U,f) =-0.193E-03 0.205E-03-0.517E-09
CGA:  78    -0.968643150644E+03   -0.39745E-03   -0.39602E-03  5008   0.942E-03 0.119E-04
 gam= 0.860 trial= 0.546  step= 0.436 mean= 0.546
 gam= 0.811 g(H,U,f)=  0.315E-03 0.449E-03 0.370E-09 ort(H,U,f) = 0.197E-04-0.190E-04-0.261E-09
CGA:  79    -0.968643358352E+03   -0.20771E-03   -0.20767E-03  5008   0.764E-03 0.722E-06
 gam= 0.811 trial= 0.540  step= 0.515 mean= 0.540
 gam= 0.588 g(H,U,f)=  0.367E-03 0.825E-04 0.253E-09 ort(H,U,f) =-0.136E-03 0.140E-03 0.122E-09
CGA:  80    -0.968643555076E+03   -0.19672E-03   -0.19679E-03  5008   0.449E-03 0.330E-05
 gam= 0.588 trial= 0.539  step= 0.714 mean= 0.539
 gam= 0.749 g(H,U,f)=  0.210E-03 0.127E-03 0.929E-10 ort(H,U,f) =-0.646E-04 0.659E-04 0.216E-09
CGA:  81    -0.968643716206E+03   -0.16113E-03   -0.16105E-03  5008   0.337E-03 0.134E-05
 gam= 0.749 trial= 0.548  step= 0.509 mean= 0.548
 gam= 0.921 g(H,U,f)=  0.134E-03 0.176E-03 0.538E-10 ort(H,U,f) = 0.237E-04-0.224E-04 0.211E-09
CGA:  82    -0.968643802085E+03   -0.85879E-04   -0.85892E-04  5008   0.310E-03 0.124E-05
 gam= 0.921 trial= 0.546  step= 0.419 mean= 0.546
 gam= 0.492 g(H,U,f)=  0.107E-03 0.453E-04 0.171E-11 ort(H,U,f) =-0.330E-04 0.342E-04 0.482E-10
CGA:  83    -0.968643867217E+03   -0.65132E-04   -0.65204E-04  5008   0.152E-03 0.125E-05
 gam= 0.492 trial= 0.539  step= 0.561 mean= 0.539
 gam= 0.857 g(H,U,f)=  0.467E-04 0.840E-04 0.270E-10 ort(H,U,f) = 0.108E-04-0.102E-04-0.107E-09
CGA:  84    -0.968643910129E+03   -0.42912E-04   -0.42907E-04  5008   0.131E-03 0.602E-06
 gam= 0.857 trial= 0.540  step= 0.429 mean= 0.540
 gam= 0.493 g(H,U,f)=  0.441E-04 0.204E-04 0.226E-10 ort(H,U,f) =-0.567E-05 0.619E-05-0.605E-10
CGA:  85    -0.968643938201E+03   -0.28072E-04   -0.28103E-04  5008   0.644E-04 0.525E-06
 gam= 0.493 trial= 0.535  step= 0.636 mean= 0.535
 gam= 1.057 g(H,U,f)=  0.244E-04 0.437E-04 0.229E-10 ort(H,U,f) =-0.515E-06 0.735E-06-0.702E-11
CGA:  86    -0.968643958771E+03   -0.20570E-04   -0.20560E-04  5008   0.681E-04 0.220E-06
 gam= 1.057 trial= 0.540  step= 0.379 mean= 0.540
 gam= 0.539 g(H,U,f)=  0.232E-04 0.135E-04 0.326E-10 ort(H,U,f) =-0.204E-05 0.213E-05 0.188E-10
CGA:  87    -0.968643971707E+03   -0.12936E-04   -0.12948E-04  5008   0.367E-04 0.855E-07
 gam= 0.539 trial= 0.532  step= 0.738 mean= 0.532
 gam= 0.652 g(H,U,f)=  0.191E-04 0.481E-05 0.939E-11 ort(H,U,f) =-0.669E-05 0.661E-05 0.223E-10
CGA:  88    -0.968643985263E+03   -0.13556E-04   -0.13565E-04  5008   0.239E-04-0.780E-07
 gam= 0.652 trial= 0.542  step= 0.717 mean= 0.542
 gam= 0.977 g(H,U,f)=  0.986E-05 0.135E-04 0.129E-12 ort(H,U,f) =-0.100E-05 0.827E-06 0.240E-11
CGA:  89    -0.968643993808E+03   -0.85443E-05   -0.85601E-05  5008   0.234E-04-0.177E-06
 gam= 0.977 trial= 0.551  step= 0.363 mean= 0.551
 final diagonalization
   1 F= -.96864399E+03 E0= -.96864399E+03  d E =-.775123E-07
 writing wavefunctions
Warning: ieee_invalid is signaling
Warning: ieee_divide_by_zero is signaling
Warning: ieee_underflow is signaling
Warning: ieee_inexact is signaling
FORTRAN STOP
Warning: ieee_invalid is signaling
Warning: ieee_divide_by_zero is signaling
Warning: ieee_underflow is signaling
Warning: ieee_inexact is signaling
FORTRAN STOP
Warning: ieee_invalid is signaling
Warning: ieee_divide_by_zero is signaling
Warning: ieee_underflow is signaling
Warning: ieee_inexact is signaling
FORTRAN STOP
Warning: ieee_invalid is signaling
Warning: ieee_divide_by_zero is signaling
Warning: ieee_underflow is signaling
Warning: ieee_inexact is signaling
FORTRAN STOP
