       N       E                     dE             d eps       ncg     rms          ort
DAV:   1    -0.210813663502E+05   -0.21081E+05   -0.54831E+05  5008   0.752E+03
DAV:   2    -0.655459986086E+05   -0.44465E+05   -0.42930E+05  5008   0.124E+03
DAV:   3    -0.706571537354E+05   -0.51112E+04   -0.46400E+04  5008   0.380E+02
DAV:   4    -0.714608342411E+05   -0.80368E+03   -0.70001E+03  5008   0.122E+02
DAV:   5    -0.391616476989E+05    0.32299E+05   -0.76125E+02  5008   0.595E+01
SDA:   6     0.308046174203E+05    0.69966E+05   -0.76125E+02  5008   0.106E+06 0.000E+00
CGA:   7     0.778920005434E+04   -0.23015E+05   -0.24684E+05  5008   0.604E+05-0.411E+05
CGA:   8     0.489113280820E+04   -0.28981E+04   -0.44732E+04  5008   0.206E+05 0.768E+04
CGA:   9     0.281644117583E+04   -0.20747E+04   -0.27301E+04  5008   0.139E+05 0.576E+03
CGA:  10     0.130007523563E+04   -0.15164E+04   -0.18743E+04  5008   0.506E+04 0.130E+04
CGA:  11     0.254877628592E+03   -0.10452E+04   -0.10468E+04  5008   0.274E+04 0.629E+03
CGA:  12    -0.286913773523E+03   -0.54179E+03   -0.55315E+03  5008   0.108E+04 0.468E+03
CGA:  13    -0.625807122459E+03   -0.33889E+03   -0.32934E+03  5008   0.521E+03 0.674E+02
CGA:  14    -0.799882327763E+03   -0.17408E+03   -0.18251E+03  5008   0.352E+03-0.644E+02
CGA:  15    -0.872588578651E+03   -0.72706E+02   -0.73232E+02  5008   0.189E+03-0.128E+02
CGA:  16    -0.910823160440E+03   -0.38235E+02   -0.38289E+02  5008   0.999E+02-0.442E+01
CGA:  17    -0.933006456366E+03   -0.22183E+02   -0.22339E+02  5008   0.580E+02-0.299E+01
CGA:  18    -0.945814195753E+03   -0.12808E+02   -0.12791E+02  5008   0.361E+02 0.600E+00
CGA:  19    -0.954046979153E+03   -0.82328E+01   -0.82842E+01  5008   0.285E+02-0.132E+01
CGA:  20    -0.957524642455E+03   -0.34777E+01   -0.37830E+01  5008   0.274E+02-0.253E+01
CGA:  21    -0.959654998904E+03   -0.21304E+01   -0.23736E+01  5008   0.244E+02-0.288E+01
CGA:  22    -0.961986680196E+03   -0.23317E+01   -0.22999E+01  5008   0.128E+02-0.371E-01
CGA:  23    -0.963203025244E+03   -0.12163E+01   -0.12348E+01  5008   0.102E+02-0.648E+00
CGA:  24    -0.964371731048E+03   -0.11687E+01   -0.12265E+01  5008   0.108E+02 0.868E-01
CGA:  25    -0.965248341690E+03   -0.87661E+00   -0.84760E+00  5008   0.541E+01 0.132E+00
CGA:  26    -0.965872496579E+03   -0.62415E+00   -0.64461E+00  5008   0.594E+01 0.106E+00
CGA:  27    -0.966494990323E+03   -0.62249E+00   -0.60916E+00  5008   0.418E+01 0.271E-01
CGA:  28    -0.966939537159E+03   -0.44455E+00   -0.46075E+00  5008   0.323E+01 0.591E-01
CGA:  29    -0.967226768625E+03   -0.28723E+00   -0.23005E+00  5008   0.270E+01 0.577E+00
CGA:  30    -0.967558401850E+03   -0.33163E+00   -0.31161E+00  5008   0.306E+01 0.183E-01
CGA:  31    -0.967703197075E+03   -0.14480E+00   -0.15127E+00  5008   0.221E+01-0.168E+00
CGA:  32    -0.967826878703E+03   -0.12368E+00   -0.13351E+00  5008   0.207E+01-0.861E-01
CGA:  33    -0.967957122338E+03   -0.13024E+00   -0.14264E+00  5008   0.180E+01-0.699E-01
CGA:  34    -0.968070466157E+03   -0.11334E+00   -0.10523E+00  5008   0.763E+00 0.109E+00
CGA:  35    -0.968130608386E+03   -0.60142E-01   -0.60886E-01  5008   0.828E+00-0.473E-02
CGA:  36    -0.968229880231E+03   -0.99272E-01   -0.99796E-01  5008   0.965E+00 0.116E-01
SDA:  37    -0.968295040879E+03   -0.65161E-01   -0.68245E-01  5008   0.412E+00-0.166E-01
CGA:  38    -0.968383954867E+03   -0.88914E-01   -0.92907E-01  5008   0.572E+00-0.412E-01
CGA:  39    -0.968468160852E+03   -0.84206E-01   -0.84363E-01  5008   0.243E+00-0.438E-02
CGA:  40    -0.968505284765E+03   -0.37124E-01   -0.37078E-01  5008   0.126E+00 0.186E-02
CGA:  41    -0.968536201753E+03   -0.30917E-01   -0.32003E-01  5008   0.452E-01-0.956E-02
CGA:  42    -0.968545597175E+03   -0.93954E-02   -0.93553E-02  5008   0.410E-01 0.441E-03
CGA:  43    -0.968550931588E+03   -0.53344E-02   -0.53383E-02  5008   0.210E-01 0.124E-03
CGA:  44    -0.968556884080E+03   -0.59525E-02   -0.59454E-02  5008   0.224E-01 0.743E-04
CGA:  45    -0.968565463835E+03   -0.85798E-02   -0.88431E-02  5008   0.535E-01-0.130E-02
CGA:  46    -0.968573697697E+03   -0.82339E-02   -0.82310E-02  5008   0.358E-01-0.250E-03
CGA:  47    -0.968581507279E+03   -0.78096E-02   -0.76104E-02  5008   0.409E-01 0.313E-02
CGA:  48    -0.968592826457E+03   -0.11319E-01   -0.11506E-01  5008   0.366E-01-0.160E-02
CGA:  49    -0.968599153718E+03   -0.63273E-02   -0.63130E-02  5008   0.297E-01 0.160E-02
CGA:  50    -0.968606901216E+03   -0.77475E-02   -0.75526E-02  5008   0.168E-01 0.217E-02
CGA:  51    -0.968612340607E+03   -0.54394E-02   -0.54043E-02  5008   0.109E-01 0.252E-03
CGA:  52    -0.968615154395E+03   -0.28138E-02   -0.28156E-02  5008   0.124E-01-0.315E-04
CGA:  53    -0.968617890699E+03   -0.27363E-02   -0.27503E-02  5008   0.504E-02-0.282E-03
CGA:  54    -0.968619900206E+03   -0.20095E-02   -0.20267E-02  5008   0.358E-02-0.784E-04
CGA:  55    -0.968620726907E+03   -0.82670E-03   -0.82962E-03  5008   0.431E-02-0.567E-04
CGA:  56    -0.968621634307E+03   -0.90740E-03   -0.90856E-03  5008   0.201E-02-0.568E-04
CGA:  57    -0.968622320815E+03   -0.68651E-03   -0.69188E-03  5008   0.145E-02-0.345E-04
CGA:  58    -0.968622860131E+03   -0.53932E-03   -0.53758E-03  5008   0.182E-02 0.992E-05
CGA:  59    -0.968623153444E+03   -0.29331E-03   -0.29408E-03  5008   0.124E-02 0.541E-05
CGA:  60    -0.968623684609E+03   -0.53116E-03   -0.52468E-03  5008   0.104E-02 0.307E-04
CGA:  61    -0.968624167795E+03   -0.48319E-03   -0.48706E-03  5008   0.148E-02-0.172E-04
CGA:  62    -0.968624642660E+03   -0.47487E-03   -0.47410E-03  5008   0.187E-02 0.872E-05
CGA:  63    -0.968625227578E+03   -0.58492E-03   -0.57174E-03  5008   0.204E-02 0.151E-03
CGA:  64    -0.968625950805E+03   -0.72323E-03   -0.76696E-03  5008   0.413E-02-0.343E-03
CGA:  65    -0.968626635194E+03   -0.68439E-03   -0.66611E-03  5008   0.552E-02-0.288E-04
CGA:  66    -0.968627528856E+03   -0.89366E-03   -0.92340E-03  5008   0.560E-02 0.125E-03
CGA:  67    -0.968628860317E+03   -0.13315E-02   -0.13159E-02  5008   0.695E-02-0.457E-03
SDA:  68    -0.968629674316E+03   -0.81400E-03   -0.70921E-03  5008   0.880E-02 0.653E-03
CGA:  69    -0.968631934043E+03   -0.22597E-02   -0.22599E-02  5008   0.996E-02-0.615E-05
CGA:  70    -0.968634385286E+03   -0.24512E-02   -0.24540E-02  5008   0.599E-02-0.163E-03
CGA:  71    -0.968637084864E+03   -0.26996E-02   -0.27619E-02  5008   0.760E-02-0.275E-03
CGA:  72    -0.968638466559E+03   -0.13817E-02   -0.13786E-02  5008   0.227E-02-0.141E-04
CGA:  73    -0.968640130847E+03   -0.16643E-02   -0.16497E-02  5008   0.278E-02 0.344E-04
CGA:  74    -0.968640864434E+03   -0.73359E-03   -0.73268E-03  5008   0.306E-02-0.398E-04
CGA:  75    -0.968641639465E+03   -0.77503E-03   -0.77640E-03  5008   0.218E-02 0.469E-04
CGA:  76    -0.968642290212E+03   -0.65075E-03   -0.65083E-03  5008   0.205E-02-0.250E-05
CGA:  77    -0.968642753194E+03   -0.46298E-03   -0.46312E-03  5008   0.110E-02 0.116E-05
CGA:  78    -0.968643150644E+03   -0.39745E-03   -0.39602E-03  5008   0.942E-03 0.119E-04
CGA:  79    -0.968643358352E+03   -0.20771E-03   -0.20767E-03  5008   0.764E-03 0.722E-06
CGA:  80    -0.968643555076E+03   -0.19672E-03   -0.19679E-03  5008   0.449E-03 0.330E-05
CGA:  81    -0.968643716206E+03   -0.16113E-03   -0.16105E-03  5008   0.337E-03 0.134E-05
CGA:  82    -0.968643802085E+03   -0.85879E-04   -0.85892E-04  5008   0.310E-03 0.124E-05
CGA:  83    -0.968643867217E+03   -0.65132E-04   -0.65204E-04  5008   0.152E-03 0.125E-05
CGA:  84    -0.968643910129E+03   -0.42912E-04   -0.42907E-04  5008   0.131E-03 0.602E-06
CGA:  85    -0.968643938201E+03   -0.28072E-04   -0.28103E-04  5008   0.644E-04 0.525E-06
CGA:  86    -0.968643958771E+03   -0.20570E-04   -0.20560E-04  5008   0.681E-04 0.220E-06
CGA:  87    -0.968643971707E+03   -0.12936E-04   -0.12948E-04  5008   0.367E-04 0.855E-07
CGA:  88    -0.968643985263E+03   -0.13556E-04   -0.13565E-04  5008   0.239E-04-0.780E-07
CGA:  89    -0.968643993808E+03   -0.85443E-05   -0.85601E-05  5008   0.234E-04-0.177E-06
   1 F= -.96864399E+03 E0= -.96864399E+03  d E =-.775123E-07
