 vasp.6.4.2 20Jul23 (build Nov 12 2023 22:16:35) complex                         
 executed on              LinuxNV date 2025.03.08  03:39:33
 running    4 mpi-ranks, on    1 nodes
 distrk:  each k-point on    1 cores,    4 groups
 distr:  one band on NCORE=   1 cores,    1 groups
 OpenACC runtime initialized ...    4 GPUs detected


--------------------------------------------------------------------------------------------------------


 INCAR:
   PREC = Normal
   ENCUT = 450
   NELM = 500
   IBRION = -1
   ISPIN = 1
   NSW = 0
   ISIF = 2
   EDIFF = 1E-5
   EDIFFG = -5E-3
   ISTART = 0
   ICHARG = 0
   ISMEAR = 0
   SIGMA = 0.05
   LWAVE = .T.
   LCHARG = .T.
   LREAL = Auto
   LPLANE = .TRUE.
   NPAR = 1
   KPAR = 4
   NCORE = 1
   ALGO = All
   LHFCALC = .TRUE.
   HSE06 = .TRUE.
   HFSCREEN = 0.18
   TIME = 0.4
   AEXX = 0.35
   LMAXFOCK = 4
   PRECFOCK = Fast
   NELECT = 1044

 POTCAR:    PAW_PBE Ga_d 06Jul2010                
 POTCAR:    PAW_PBE O 08Apr2002                   
 POTCAR:    PAW_PBE Ga_d 06Jul2010                
   SHA256 =  a60ddf36e14f00ea098d9e3914b3745f1b7105e68786148f49ae384e44b4226c Ga_d/POTCAR           
   COPYR  = (c) Copyright 06Jul2010 Georg Kresse                                                    
   COPYR  = This file is part of the software VASP. Any use, copying, and all other rights are regul
   COPYR  = If you do not have a valid VASP license, you may not use, copy or distribute this file. 
   VRHFIN =Ga: s2p1                                                                                 
   LEXCH  = PE                                                                                      
   EATOM  =  2148.8298 eV,  157.9345 Ry                                                             
                                                                                                    
   TITEL  = PAW_PBE Ga_d 06Jul2010                                                                  
   LULTRA =        F    use ultrasoft PP ?                                                          
   IUNSCR =        1    unscreen: 0-lin 1-nonlin 2-no                                               
   RPACOR =    1.700    partial core radius                                                         
   POMASS =   69.723; ZVAL   =   13.000    mass and valenz                                          
   RCORE  =    2.300    outmost cutoff radius                                                       
   RWIGS  =    2.300; RWIGS  =    1.217    wigner-seitz radius (au A)                               
   ENMAX  =  282.691; ENMIN  =  212.018 eV                                                          
   ICORE  =        3    local potential                                                             
   LCOR   =        T    correct aug charges                                                         
   LPAW   =        T    paw PP                                                                      
   EAUG   =  490.690                                                                                
   DEXC   =    0.000                                                                                
   RMAX   =    2.341    core radius for proj-oper                                                   
   RAUG   =    1.300    factor for augmentation sphere                                              
   RDEP   =    2.413    radius for radial grids                                                     
   RDEPT  =    1.856    core radius for aug-charge                                                  
                                                                                                    
   Atomic configuration                                                                             
    9 entries                                                                                       
     n  l   j            E        occ.                                                              
     1  0  0.50    -10228.7831   2.0000                                                             
     2  0  0.50     -1262.1604   2.0000                                                             
     2  1  1.50     -1098.6333   6.0000                                                             
     3  0  0.50      -148.1110   2.0000                                                             
     3  1  1.50       -98.8436   6.0000                                                             
     3  2  2.50       -19.1549  10.0000                                                             
     4  0  0.50        -8.9483   2.0000                                                             
     4  1  0.50        -2.5791   1.0000                                                             
     4  3  2.50        -2.7416   0.0000                                                             
   Description                                                                                      
     l       E           TYP  RCUT    TYP  RCUT                                                     
     2    -19.1549037     23  2.300                                                                 
     2     -5.4423304     23  2.300                                                                 
     0     -8.9483111     23  2.300                                                                 
     0     68.0291300     23  2.300                                                                 
     1     -2.5790802     23  2.100                                                                 
     1     81.6349560     23  2.300                                                                 
     3      6.8029130     23  2.300                                                                 
  local pseudopotential read in
  partial core-charges read in
  partial kinetic energy density read in
  atomic valenz-charges read in
  non local Contribution for L=            2  read in
    real space projection operators read in
  non local Contribution for L=            2  read in
    real space projection operators read in
  non local Contribution for L=            0  read in
    real space projection operators read in
  non local Contribution for L=            0  read in
    real space projection operators read in
  non local Contribution for L=            1  read in
    real space projection operators read in
  non local Contribution for L=            1  read in
    real space projection operators read in
    PAW grid and wavefunctions read in
 
   number of l-projection  operators is LMAX  =            6
   number of lm-projection operators is LMMAX =           18
 
 POTCAR:    PAW_PBE O 08Apr2002                   
   SHA256 =  818f92134a0a090dccd8ba1447fa70422a3b330e708bb4f08108d8ae51209ddf O/POTCAR              
   COPYR  = (c) Copyright 08Apr2002 Georg Kresse                                                    
   COPYR  = This file is part of the software VASP. Any use, copying, and all other rights are regul
   COPYR  = If you do not have a valid VASP license, you may not use, copy or distribute this file. 
   VRHFIN =O: s2p4                                                                                  
   LEXCH  = PE                                                                                      
   EATOM  =   432.3788 eV,   31.7789 Ry                                                             
                                                                                                    
   TITEL  = PAW_PBE O 08Apr2002                                                                     
   LULTRA =        F    use ultrasoft PP ?                                                          
   IUNSCR =        1    unscreen: 0-lin 1-nonlin 2-no                                               
   RPACOR =    1.200    partial core radius                                                         
   POMASS =   16.000; ZVAL   =    6.000    mass and valenz                                          
   RCORE  =    1.520    outmost cutoff radius                                                       
   RWIGS  =    1.550; RWIGS  =    0.820    wigner-seitz radius (au A)                               
   ENMAX  =  400.000; ENMIN  =  300.000 eV                                                          
   ICORE  =        2    local potential                                                             
   LCOR   =        T    correct aug charges                                                         
   LPAW   =        T    paw PP                                                                      
   EAUG   =  605.392                                                                                
   DEXC   =    0.000                                                                                
   RMAX   =    1.553    core radius for proj-oper                                                   
   RAUG   =    1.300    factor for augmentation sphere                                              
   RDEP   =    1.550    radius for radial grids                                                     
   RDEPT  =    1.329    core radius for aug-charge                                                  
                                                                                                    
   Atomic configuration                                                                             
    4 entries                                                                                       
     n  l   j            E        occ.                                                              
     1  0  0.50      -514.6923   2.0000                                                             
     2  0  0.50       -23.9615   2.0000                                                             
     2  1  0.50        -9.0305   4.0000                                                             
     3  2  1.50        -9.5241   0.0000                                                             
   Description                                                                                      
     l       E           TYP  RCUT    TYP  RCUT                                                     
     0    -23.9615318     23  1.200                                                                 
     0     -9.5240782     23  1.200                                                                 
     1     -9.0304911     23  1.520                                                                 
     1      8.1634956     23  1.520                                                                 
     2     -9.5240782      7  1.500                                                                 
  local pseudopotential read in
  partial core-charges read in
  partial kinetic energy density read in
  kinetic energy density of atom read in
  atomic valenz-charges read in
  non local Contribution for L=            0  read in
    real space projection operators read in
  non local Contribution for L=            0  read in
    real space projection operators read in
  non local Contribution for L=            1  read in
    real space projection operators read in
  non local Contribution for L=            1  read in
    real space projection operators read in
    PAW grid and wavefunctions read in
 
   number of l-projection  operators is LMAX  =            4
   number of lm-projection operators is LMMAX =            8
 
 Optimization of the real space projectors (new method)

 maximal supplied QI-value         = 16.25
 optimisation between [QCUT,QGAM] = [ 10.73, 21.61] = [ 32.22,130.83] Ry 
 Optimized for a Real-space Cutoff    1.42 Angstroem

   l    n(q)    QCUT    max X(q) W(low)/X(q) W(high)/X(q)  e(spline) 
   2      8    10.726     7.143    0.22E-03    0.16E-03    0.73E-07
   2      8    10.726     5.586    0.40E-03    0.26E-03    0.10E-06
   0      9    10.726    12.382    0.25E-04    0.21E-05    0.37E-07
   0      9    10.726     6.622    0.42E-04    0.48E-05    0.77E-07
   1      9    10.726     7.935    0.27E-03    0.13E-04    0.16E-06
   1      9    10.726     2.425    0.23E-03    0.15E-04    0.14E-06
 Optimization of the real space projectors (new method)

 maximal supplied QI-value         = 24.76
 optimisation between [QCUT,QGAM] = [ 10.64, 21.54] = [ 31.73,129.89] Ry 
 Optimized for a Real-space Cutoff    1.23 Angstroem

   l    n(q)    QCUT    max X(q) W(low)/X(q) W(high)/X(q)  e(spline) 
   0      8    10.645    20.381    0.38E-03    0.60E-03    0.15E-06
   0      8    10.645    15.268    0.40E-03    0.65E-03    0.17E-06
   1      7    10.645     5.964    0.30E-03    0.63E-03    0.18E-06
   1      7    10.645     5.382    0.24E-03    0.53E-03    0.16E-06
  PAW_PBE Ga_d 06Jul2010                :
 energy of atom  1       EATOM=-2148.8298
 kinetic energy error for atom=    0.0038 (will be added to EATOM!!)
  PAW_PBE O 08Apr2002                   :
 energy of atom  2       EATOM= -432.3788
 kinetic energy error for atom=    0.0389 (will be added to EATOM!!)
 
 
 POSCAR: Ga47 O72
  positions in direct lattice
  velocities in cartesian coordinates
 exchange correlation table for  LEXCH =        8
   RHO(1)=    0.500       N(1)  =     2000
   RHO(2)=  100.500       N(2)  =     4000
 


--------------------------------------------------------------------------------------------------------


 ion  position               nearest neighbor table
   1  0.661  0.000  0.158-  84 1.93  82 1.96  78 1.96  66 2.02  60 2.07  64 2.08
   2  0.658  0.000  0.655-  85 1.93  79 1.95  83 1.95  67 2.03  65 2.08  61 2.08
   3  0.661  0.333  0.158-  80 1.96  78 1.96  86 1.96  68 2.02  62 2.07  60 2.07
   4  0.658  0.333  0.655-  81 1.95  79 1.95  87 1.96  69 2.03  63 2.08  61 2.08
   5  0.661  0.667  0.158-  88 1.93  82 1.96  80 1.96  70 2.02  62 2.07  64 2.08
   6  0.658  0.666  0.655-  89 1.93  81 1.95  83 1.95  71 2.03  65 2.08  63 2.08
   7  0.844  0.167  0.344-  90 1.94  74 1.95  72 1.96  60 2.03  68 2.08  66 2.08
   8  0.840  0.167  0.843-  91 1.94  75 1.95  73 1.95  61 2.02  69 2.07  67 2.08
   9  0.844  0.499  0.344-  92 1.94  74 1.95  76 1.96  62 2.03  68 2.08  70 2.08
  10  0.840  0.499  0.843-  93 1.94  75 1.95  77 1.95  63 2.02  69 2.07  71 2.08
  11  0.843  0.833  0.344-  94 1.93  72 1.95  76 1.95  64 2.02  66 2.08  70 2.08
  12  0.840  0.833  0.842-  95 1.94  73 1.96  77 1.96  65 2.01  67 2.08  71 2.08
  13  0.589  0.170  0.396-  56 1.82  54 1.85  79 1.86  60 1.89
  14  0.592  0.167  0.898-  78 1.84  55 1.84  57 1.85  61 1.87
  15  0.589  0.496  0.396-  56 1.82  58 1.85  81 1.86  62 1.89
  16  0.592  0.500  0.898-  80 1.84  59 1.84  57 1.85  63 1.87
  17  0.590  0.833  0.397-  54 1.84  58 1.84  83 1.85  64 1.88
  18  0.593  0.833  0.899-  82 1.84  55 1.84  59 1.84  65 1.87
  19  0.909  0.000  0.101-  52 1.84  48 1.84  73 1.85  66 1.88
  20  0.909  0.000  0.603-  72 1.84  49 1.85  53 1.85  67 1.87
  21  0.912  0.333  0.103-  50 1.84  48 1.84  75 1.85  68 1.88
  22  0.910  0.333  0.603-  74 1.84  51 1.85  49 1.85  69 1.88
  23  0.909  0.666  0.101-  52 1.84  50 1.84  77 1.85  70 1.88
  24  0.909  0.666  0.603-  76 1.84  51 1.85  53 1.85  71 1.87
  25  0.163  0.170  0.161- 102 1.94  98 1.96 116 1.98  48 1.99 114 2.00  96 2.08
  26  0.160  0.167  0.658- 117 1.94 115 1.95  49 1.95 103 2.02  99 2.08  97 2.08
  27  0.163  0.497  0.161- 104 1.94  98 1.96 116 1.98  50 1.99 118 2.00 100 2.08
  28  0.160  0.500  0.658- 117 1.94 119 1.95  51 1.95 105 2.02  99 2.08 101 2.08
  29  0.158  0.833  0.158- 114 1.96 118 1.96  52 1.96 106 2.03  96 2.03 100 2.03
  30  0.159  0.833  0.660- 115 1.94 119 1.94  53 1.95 107 2.02  97 2.07 101 2.07
  31  0.340  0.005  0.341- 108 1.91 102 1.95  54 1.96 112 1.99  96 2.06 106 2.09
  32  0.343  0.000  0.844-  55 1.95 109 1.95 113 1.95  97 2.03 103 2.07 107 2.08
  33  0.342  0.333  0.844- 111 1.95 109 1.95  57 1.95  99 2.03 105 2.07 103 2.07
  34  0.340  0.662  0.341- 110 1.91 104 1.95  58 1.96 112 1.99 100 2.06 106 2.09
  35  0.343  0.666  0.844-  59 1.95 111 1.95 113 1.95 101 2.03 105 2.07 107 2.08
  36  0.093  0.001  0.398-  90 1.85 115 1.85  96 1.85  94 1.86
  37  0.090  0.000  0.898- 114 1.83  91 1.85  95 1.85  97 1.88
  38  0.100  0.333  0.397-  98 1.82 117 1.84  92 1.88  90 1.88
  39  0.091  0.333  0.898- 116 1.83  93 1.85  91 1.85  99 1.87
  40  0.093  0.666  0.398-  92 1.85 119 1.85 100 1.85  94 1.86
  41  0.090  0.667  0.898- 118 1.83  93 1.85  95 1.85 101 1.88
  42  0.410  0.166  0.105- 102 1.82 109 1.85  86 1.86  84 1.86
  43  0.405  0.166  0.598- 108 1.81  87 1.85  85 1.86 103 1.89
  44  0.410  0.501  0.105- 104 1.82 111 1.85  86 1.86  88 1.86
  45  0.405  0.500  0.598- 110 1.81  87 1.85  89 1.86 105 1.89
  46  0.410  0.833  0.104- 113 1.85  84 1.85  88 1.85 106 1.86
  47  0.408  0.833  0.600- 112 1.84  85 1.85  89 1.85 107 1.89
  48  0.997  0.166  0.124-  19 1.84  21 1.84  25 1.99
  49  0.997  0.167  0.629-  22 1.85  20 1.85  26 1.95
  50  0.997  0.501  0.124-  23 1.84  21 1.84  27 1.99
  51  0.997  0.500  0.629-  22 1.85  24 1.85  28 1.95
  52  0.995  0.833  0.125-  19 1.84  23 1.84  29 1.96
  53  0.996  0.833  0.630-  20 1.85  24 1.85  30 1.95
  54  0.504  0.001  0.374-  17 1.84  13 1.85  31 1.96
  55  0.505  1.000  0.873-  14 1.84  18 1.84  32 1.95
  56  0.501  0.333  0.372-  15 1.82  13 1.82
  57  0.505  0.333  0.872-  16 1.85  14 1.85  33 1.95
  58  0.504  0.666  0.374-  17 1.84  15 1.85  34 1.96
  59  0.505  0.667  0.873-  16 1.84  18 1.84  35 1.95
  60  0.675  0.166  0.281-  13 1.89   7 2.03   1 2.07   3 2.07
  61  0.672  0.168  0.780-  14 1.87   8 2.02   4 2.08   2 2.08
  62  0.675  0.500  0.281-  15 1.89   9 2.03   5 2.07   3 2.07
  63  0.672  0.499  0.780-  16 1.87  10 2.02   4 2.08   6 2.08
  64  0.674  0.833  0.282-  17 1.88  11 2.02   1 2.08   5 2.08
  65  0.672  0.833  0.780-  18 1.87  12 2.01   2 2.08   6 2.08
  66  0.829  0.000  0.220-  19 1.88   1 2.02   7 2.08  11 2.08
  67  0.826  0.000  0.719-  20 1.87   2 2.03  12 2.08   8 2.08
  68  0.830  0.333  0.220-  21 1.88   3 2.02   9 2.08   7 2.08
  69  0.827  0.333  0.719-  22 1.88   4 2.03  10 2.07   8 2.07
  70  0.829  0.666  0.220-  23 1.88   5 2.02   9 2.08  11 2.08
  71  0.826  0.666  0.719-  24 1.87   6 2.03  12 2.08  10 2.08
  72  0.834  0.000  0.446-  20 1.84  11 1.95   7 1.96
  73  0.831  0.000  0.945-  19 1.85   8 1.95  12 1.96
  74  0.833  0.333  0.446-  22 1.84   9 1.95   7 1.95
  75  0.832  0.333  0.946-  21 1.85  10 1.95   8 1.95
  76  0.834  0.666  0.446-  24 1.84  11 1.95   9 1.96
  77  0.831  0.666  0.945-  23 1.85  10 1.95  12 1.96
  78  0.669  0.167  0.055-  14 1.84   3 1.96   1 1.96
  79  0.668  0.167  0.554-  13 1.86   2 1.95   4 1.95
  80  0.669  0.499  0.055-  16 1.84   3 1.96   5 1.96
  81  0.668  0.500  0.554-  15 1.86   6 1.95   4 1.95
  82  0.671  0.833  0.055-  18 1.84   1 1.96   5 1.96
  83  0.668  0.833  0.554-  17 1.85   2 1.95   6 1.95
  84  0.499  0.999  0.127-  46 1.85  42 1.86   1 1.93
  85  0.496  0.001  0.628-  47 1.85  43 1.86   2 1.93
  86  0.498  0.333  0.131-  44 1.86  42 1.86   3 1.96
  87  0.493  0.333  0.622-  43 1.85  45 1.85   4 1.96
  88  0.499  0.667  0.127-  46 1.85  44 1.86   5 1.93
  89  0.496  0.666  0.628-  47 1.85  45 1.86   6 1.93
  90  0.006  0.168  0.376-  36 1.85  38 1.88   7 1.94
  91  0.003  0.167  0.871-  37 1.85  39 1.85   8 1.94
  92  0.006  0.498  0.376-  40 1.85  38 1.88   9 1.94
  93  0.003  0.500  0.871-  41 1.85  39 1.85  10 1.94
  94  0.005  0.833  0.375-  36 1.86  40 1.86  11 1.93
  95  0.002  0.833  0.871-  37 1.85  41 1.85  12 1.94
  96  0.169  0.997  0.278-  36 1.85  29 2.03  31 2.06  25 2.08
  97  0.173  0.000  0.782-  37 1.88  32 2.03  30 2.07  26 2.08
  98  0.161  0.333  0.270-  38 1.82  27 1.96  25 1.96
  99  0.173  0.333  0.782-  39 1.87  33 2.03  28 2.08  26 2.08
 100  0.169  0.670  0.278-  40 1.85  29 2.03  34 2.06  27 2.08
 101  0.173  0.667  0.782-  41 1.88  35 2.03  30 2.07  28 2.08
 102  0.325  0.148  0.213-  42 1.82  25 1.94  31 1.95
 103  0.328  0.167  0.721-  43 1.89  26 2.02  33 2.07  32 2.07
 104  0.325  0.519  0.213-  44 1.82  27 1.94  34 1.95
 105  0.328  0.500  0.721-  45 1.89  28 2.02  33 2.07  35 2.07
 106  0.328  0.833  0.219-  46 1.86  29 2.03  31 2.09  34 2.09
 107  0.328  0.833  0.720-  47 1.89  30 2.02  32 2.08  35 2.08
 108  0.314  0.148  0.451-  43 1.81  31 1.91
 109  0.336  0.167  0.947-  42 1.85  33 1.95  32 1.95
 110  0.314  0.519  0.451-  45 1.81  34 1.91
 111  0.336  0.500  0.947-  44 1.85  33 1.95  35 1.95
 112  0.333  0.833  0.444-  47 1.84  31 1.99  34 1.99
 113  0.335  0.833  0.947-  46 1.85  32 1.95  35 1.95
 114  0.165  0.999  0.053-  37 1.83  29 1.96  25 2.00
 115  0.165  0.999  0.557-  36 1.85  30 1.94  26 1.95
 116  0.171  0.333  0.052-  39 1.83  27 1.98  25 1.98
 117  0.168  0.333  0.557-  38 1.84  28 1.94  26 1.94
 118  0.165  0.667  0.053-  41 1.83  29 1.96  27 2.00
 119  0.165  0.668  0.557-  40 1.85  30 1.94  28 1.95
 
  LATTYP: Found a simple monoclinic cell.
 ALAT       =    11.6348202465
 B/A-ratio  =     0.7858051831
 C/A-ratio  =     1.0554931797
 COS(beta)  =    -0.2379290539
  
  Lattice vectors:
  
 A1 = (   0.0000000000,  -2.7682617730, -11.3006977184)
 A2 = (  -9.1427020537,   0.0000000000,   0.0000000000)
 A3 = (   0.0000000000,  12.2804734172,   0.0000000000)


Analysis of symmetry for initial positions (statically):
=====================================================================
 Subroutine PRICEL returns:
 Original cell was already a primitive cell.
 

 Routine SETGRP: Setting up the symmetry group for a 
 simple monoclinic supercell.


 Subroutine GETGRP returns: Found  2 space group operations
 (whereof  1 operations were pure point group operations)
 out of a pool of  4 trial point group operations.


The static configuration has the point symmetry C_1 .
 The point group associated with its full space group is C_1h.


Analysis of symmetry for dynamics (positions and initial velocities):
=====================================================================
 Subroutine PRICEL returns:
 Original cell was already a primitive cell.
 

 Routine SETGRP: Setting up the symmetry group for a 
 simple monoclinic supercell.


 Subroutine GETGRP returns: Found  2 space group operations
 (whereof  1 operations were pure point group operations)
 out of a pool of  4 trial point group operations.


The dynamic configuration has the point symmetry C_1 .
 The point group associated with its full space group is C_1h.


 Subroutine INISYM returns: Found  2 space group operations
 (whereof  1 operations are pure point group operations),
 and found     1 'primitive' translations


----------------------------------------------------------------------------------------

                                     Primitive cell                                     

  volume of cell :    1268.8052

  direct lattice vectors                    reciprocal lattice vectors
     0.000000000 12.280473417  0.000000000     0.000000000  0.081430085 -0.019947423
     9.142702054  0.000000000  0.000000000     0.109376855 -0.000000000  0.000000000
     0.000000000 -2.768261773-11.300697718     0.000000000  0.000000000 -0.088490111

  length of vectors
    12.280473417  9.142702054 11.634820246     0.083837691  0.109376855  0.088490111

  position of ions in fractional coordinates (direct lattice)
     0.661060644  0.000144958  0.157927272
     0.657809109  0.000331036  0.655302271
     0.661392851  0.333333333  0.158350324
     0.657535064  0.333333333  0.654744352
     0.661060644  0.666521709  0.157927272
     0.657809109  0.666335630  0.655302271
     0.844002208  0.167203558  0.344307840
     0.840162435  0.167283884  0.842634276
     0.844002208  0.499463109  0.344307840
     0.840162435  0.499382782  0.842634276
     0.842740282  0.833333333  0.344198980
     0.839703399  0.833333333  0.842348577
     0.589176614  0.170497725  0.395942552
     0.591989903  0.166531050  0.898045006
     0.589176614  0.496168942  0.395942552
     0.591989903  0.500135616  0.898045006
     0.590199074  0.833333333  0.397086741
     0.592828259  0.833333333  0.898867975
     0.908985373  0.000363361  0.101394015
     0.909318582  0.000219940  0.602842337
     0.911655372  0.333333333  0.102766986
     0.909819676  0.333333333  0.602641931
     0.908985373  0.666303306  0.101394015
     0.909318582  0.666446727  0.602842337
     0.163345542  0.169832874  0.161031733
     0.159979645  0.166914999  0.657992525
     0.163345542  0.496833792  0.161031733
     0.159979645  0.499751667  0.657992525
     0.158498815  0.833333333  0.157547696
     0.159464003  0.833333333  0.659815798
     0.340172900  0.004659047  0.340956722
     0.342669172  0.000217533  0.844106526
     0.342076063  0.333333333  0.843861677
     0.340172900  0.662007620  0.340956722
     0.342669172  0.666449134  0.844106526
     0.092599652  0.000614332  0.397997032
     0.089731311  0.000147831  0.897922521
     0.099847578  0.333333333  0.397078253
     0.090952861  0.333333333  0.898466792
     0.092599652  0.666052335  0.397997032
     0.089731311  0.666518836  0.897922521
     0.409738845  0.165765066  0.105154082
     0.405349139  0.166281621  0.597579827
     0.409738845  0.500901601  0.105154082
     0.405349139  0.500385046  0.597579827
     0.410118968  0.833333333  0.104166888
     0.408421100  0.833333333  0.600119242
     0.996667963  0.165574075  0.123696331
     0.996942814  0.166562066  0.629097538
     0.996667963  0.501092592  0.123696331
     0.996942814  0.500104601  0.629097538
     0.994567130  0.833333333  0.125235523
     0.996335452  0.833333333  0.629643015
     0.504280179  0.001001716  0.373643414
     0.505348926  0.999573216  0.873277617
     0.501308420  0.333333333  0.371980458
     0.504981532  0.333333333  0.872407439
     0.504280179  0.665664950  0.373643414
     0.505348926  0.667093450  0.873277617
     0.674681589  0.166302650  0.280809243
     0.671873066  0.167733737  0.779602477
     0.674681589  0.500364016  0.280809243
     0.671873066  0.498932929  0.779602477
     0.674220185  0.833333333  0.281595227
     0.672226103  0.833333333  0.779872595
     0.829216776  0.000396329  0.220262083
     0.826482110  0.000396136  0.718783776
     0.829777680  0.333333333  0.220057318
     0.826732552  0.333333333  0.718623954
     0.829216776  0.666270338  0.220262083
     0.826482110  0.666270531  0.718783776
     0.833604364  0.000269957  0.446289899
     0.830741807  0.000309463  0.944698153
     0.832692713  0.333333333  0.446426289
     0.832045952  0.333333333  0.945885555
     0.833604364  0.666396710  0.446289899
     0.830741807  0.666357204  0.944698153
     0.668971641  0.167250896  0.054565975
     0.667559954  0.166514336  0.553530136
     0.668971641  0.499415770  0.054565975
     0.667559954  0.500152331  0.553530136
     0.671120434  0.833333333  0.055020427
     0.667698578  0.833333333  0.553794141
     0.499363356  0.999241161  0.126614407
     0.496143283  0.000672516  0.628141467
     0.497759411  0.333333333  0.131272175
     0.493347598  0.333333333  0.621539655
     0.499363356  0.667425505  0.126614407
     0.496143283  0.665994151  0.628141467
     0.006269943  0.168244213  0.375835981
     0.002552705  0.167126997  0.870926668
     0.006269943  0.498422454  0.375835981
     0.002552705  0.499539669  0.870926668
     0.004528248  0.833333333  0.375066870
     0.001936603  0.833333333  0.870815957
     0.168989150  0.996545725  0.278382347
     0.173426224  0.000030455  0.782488434
     0.161286949  0.333333333  0.269517840
     0.173314137  0.333333333  0.781909436
     0.168989150  0.670120941  0.278382347
     0.173426224  0.666636212  0.782488434
     0.324913064  0.147676078  0.213249855
     0.328485125  0.166750459  0.720564133
     0.324913064  0.518990588  0.213249855
     0.328485125  0.499916207  0.720564133
     0.327767750  0.833333333  0.219212488
     0.328277405  0.833333333  0.719727823
     0.313826242  0.147681095  0.450915373
     0.336209856  0.166897670  0.946699336
     0.313826242  0.518985571  0.450915373
     0.336209856  0.499768997  0.946699336
     0.332529913  0.833333333  0.443783566
     0.334594205  0.833333333  0.946524807
     0.164776367  0.999452939  0.053497212
     0.165478258  0.998697228  0.556553809
     0.171036337  0.333333333  0.052283162
     0.167707980  0.333333333  0.556582839
     0.164776367  0.667213727  0.053497212
     0.165478258  0.667969439  0.556553809

  ion indices of the primitive-cell ions
   primitive index   ion index
                 1           1
                 2           2
                 3           3
                 4           4
                 5           5
                 6           6
                 7           7
                 8           8
                 9           9
                10          10
                11          11
                12          12
                13          13
                14          14
                15          15
                16          16
                17          17
                18          18
                19          19
                20          20
                21          21
                22          22
                23          23
                24          24
                25          25
                26          26
                27          27
                28          28
                29          29
                30          30
                31          31
                32          32
                33          33
                34          34
                35          35
                36          36
                37          37
                38          38
                39          39
                40          40
                41          41
                42          42
                43          43
                44          44
                45          45
                46          46
                47          47
                48          48
                49          49
                50          50
                51          51
                52          52
                53          53
                54          54
                55          55
                56          56
                57          57
                58          58
                59          59
                60          60
                61          61
                62          62
                63          63
                64          64
                65          65
                66          66
                67          67
                68          68
                69          69
                70          70
                71          71
                72          72
                73          73
                74          74
                75          75
                76          76
                77          77
                78          78
                79          79
                80          80
                81          81
                82          82
                83          83
                84          84
                85          85
                86          86
                87          87
                88          88
                89          89
                90          90
                91          91
                92          92
                93          93
                94          94
                95          95
                96          96
                97          97
                98          98
                99          99
               100         100
               101         101
               102         102
               103         103
               104         104
               105         105
               106         106
               107         107
               108         108
               109         109
               110         110
               111         111
               112         112
               113         113
               114         114
               115         115
               116         116
               117         117
               118         118
               119         119

----------------------------------------------------------------------------------------

 
 
 KPOINTS: Automatic mesh                          

Automatic generation of k-mesh.
 Grid dimensions read from file:
 generate k-points for:    2    2    2

 Generating k-lattice:

  Cartesian coordinates                     Fractional coordinates (reciprocal lattice)
     0.000000000  0.040715043 -0.009973711     0.500000000  0.000000000  0.000000000
     0.054688428 -0.000000000  0.000000000     0.000000000  0.500000000  0.000000000
     0.000000000  0.000000000 -0.044245056     0.000000000  0.000000000  0.500000000

  Length of vectors
     0.041918846  0.054688428  0.044245056

  Shift w.r.t. Gamma in fractional coordinates (k-lattice)
     0.000000000  0.000000000  0.000000000

 
 Subroutine IBZKPT returns following result:
 ===========================================
 
 Found      8 irreducible k-points:
 
 Following reciprocal coordinates:
            Coordinates               Weight
  0.000000  0.000000  0.000000      1.000000
  0.500000  0.000000  0.000000      1.000000
  0.000000  0.500000  0.000000      1.000000
  0.500000  0.500000  0.000000      1.000000
  0.000000  0.000000  0.500000      1.000000
  0.500000  0.000000  0.500000      1.000000
  0.000000  0.500000  0.500000      1.000000
  0.500000  0.500000  0.500000      1.000000
 
 Following cartesian coordinates:
            Coordinates               Weight
  0.000000  0.000000 -0.000000      1.000000
  0.000000  0.040715 -0.009974      1.000000
  0.054688  0.000000 -0.000000      1.000000
  0.054688  0.040715 -0.009974      1.000000
  0.000000  0.000000 -0.044245      1.000000
  0.000000  0.040715 -0.054219      1.000000
  0.054688  0.000000 -0.044245      1.000000
  0.054688  0.040715 -0.054219      1.000000
 
 
 Subroutine IBZKPT_HF returns following result:
 ==============================================
 
 Found      8 k-points in 1st BZ
 the following      8 k-points will be used (e.g. in the exchange kernel)
 Following reciprocal coordinates:   # in IRBZ
  0.000000  0.000000  0.000000    0.12500000   1 t-inv F
  0.500000  0.000000  0.000000    0.12500000   2 t-inv F
  0.000000  0.500000  0.000000    0.12500000   3 t-inv F
  0.500000  0.500000  0.000000    0.12500000   4 t-inv F
  0.000000  0.000000  0.500000    0.12500000   5 t-inv F
  0.500000  0.000000  0.500000    0.12500000   6 t-inv F
  0.000000  0.500000  0.500000    0.12500000   7 t-inv F
  0.500000  0.500000  0.500000    0.12500000   8 t-inv F


--------------------------------------------------------------------------------------------------------




 Dimension of arrays:
   k-points           NKPTS =      8   k-points in BZ     NKDIM =      8   number of bands    NBANDS=    626
   number of dos      NEDOS =    301   number of ions     NIONS =    119
   non local maximal  LDIM  =      6   non local SUM 2l+1 LMDIM =     18
   total plane-waves  NPLWV = 184320
   max r-space proj   IRMAX =   1800   max aug-charges    IRDMAX=   5704
   dimension x,y,z NGX =    64 NGY =   48 NGZ =   60
   dimension x,y,z NGXF=   128 NGYF=   96 NGZF=  120
   support grid    NGXF=   128 NGYF=   96 NGZF=  120
   ions per type =              47  72
   NGX,Y,Z   is equivalent  to a cutoff of   8.66,  8.73,  8.57 a.u.
   NGXF,Y,Z  is equivalent  to a cutoff of  17.33, 17.46, 17.15 a.u.

 SYSTEM =  unknown system                          
 POSCAR =  Ga47 O72                                

 Startparameter for this run:
   NWRITE =      2    write-flag & timer
   PREC   = normal    normal or accurate (medium, high low for compatibility)
   ISTART =      0    job   : 0-new  1-cont  2-samecut
   ICHARG =      0    charge: 1-file 2-atom 10-const
   ISPIN  =      1    spin polarized calculation?
   LNONCOLLINEAR =      F non collinear calculations
   LSORBIT =      F    spin-orbit coupling
   INIWAV =      1    electr: 0-lowe 1-rand  2-diag
   LASPH  =      F    aspherical Exc in radial PAW
 Electronic Relaxation 1
   ENCUT  =  450.0 eV  33.07 Ry    5.75 a.u.  21.24 15.81 20.12*2*pi/ulx,y,z
   ENINI  =  450.0     initial cutoff
   ENAUG  =  605.4 eV  augmentation charge cutoff
   NELM   =    500;   NELMIN=  2; NELMDL= -5     # of ELM steps 
   EDIFF  = 0.1E-04   stopping-criterion for ELM
   LREAL  =      T    real-space projection
   NLSPLINE    = F    spline interpolate recip. space projectors
   LCOMPAT=      F    compatible to vasp.4.4
   GGA_COMPAT  = T    GGA compatible to vasp.4.4-vasp.4.6
   LMAXPAW     = -100 max onsite density
   LMAXMIX     =    2 max onsite mixed and CHGCAR
   VOSKOWN=      0    Vosko Wilk Nusair interpolation
   ROPT   =   -0.00050  -0.00050
 Ionic relaxation
   EDIFFG = -.5E-02   stopping-criterion for IOM
   NSW    =      0    number of steps for IOM
   NBLOCK =      1;   KBLOCK =      1    inner block; outer block 
   IBRION =     -1    ionic relax: 0-MD 1-quasi-New 2-CG
   NFREE  =      0    steps in history (QN), initial steepest desc. (CG)
   ISIF   =      2    stress and relaxation
   IWAVPR =     10    prediction:  0-non 1-charg 2-wave 3-comb
   ISYM   =      3    0-nonsym 1-usesym 2-fastsym
   LCORR  =      T    Harris-Foulkes like correction to forces

   POTIM  = 0.5000    time-step for ionic-motion
   TEIN   =    0.0    initial temperature
   TEBEG  =    0.0;   TEEND  =   0.0 temperature during run
   SMASS  =  -3.00    Nose mass-parameter (am)
   estimated Nose-frequenzy (Omega)   =  0.10E-29 period in steps = 0.13E+47 mass=  -0.345E-26a.u.
   SCALEE = 1.0000    scale energy and forces
   NPACO  =    256;   APACO  = 10.0  distance and # of slots for P.C.
   PSTRESS=    0.0 pullay stress

  Mass of Ions in am
   POMASS =  69.72 16.00
  Ionic Valenz
   ZVAL   =  13.00  6.00
  Atomic Wigner-Seitz radii
   RWIGS  =  -1.00 -1.00
  virtual crystal weights 
   VCA    =   1.00  1.00
   NELECT =    1044.0000    total number of electrons
   NUPDOWN=      -1.0000    fix difference up-down

 DOS related values:
   EMIN   =  10.00;   EMAX   =-10.00  energy-range for DOS
   EFERMI =   0.00;   METHOD = LEGACY      
   ISMEAR =     0;   SIGMA  =   0.05  broadening in eV -4-tet -1-fermi 0-gaus

 Electronic relaxation 2 (details)
   IALGO  =     58    algorithm
   LDIAG  =      T    sub-space diagonalisation (order eigenvalues)
   LSUBROT=      F    optimize rotation matrix (better conditioning)
   TURBO    =      0    0=normal 1=particle mesh
   IRESTART =      0    0=no restart 2=restart with 2 vectors
   NREBOOT  =      0    no. of reboots
   NMIN     =      0    reboot dimension
   EREF     =   0.00    reference energy to select bands
   IMIX   =      4    mixing-type and parameters
     AMIX     =   0.40;   BMIX     =  1.00
     AMIX_MAG =   1.60;   BMIX_MAG =  1.00
     AMIN     =   0.10
     WC   =   100.;   INIMIX=   1;  MIXPRE=   1;  MAXMIX= -45

 Intra band minimization:
   WEIMIN = 0.0000     energy-eigenvalue tresh-hold
   EBREAK =  0.40E-08  absolut break condition
   DEPER  =   0.30     relativ break condition  

   TIME   =   0.40     timestep for ELM

  volume/ion in A,a.u.               =      10.66        71.95
  Fermi-wavevector in a.u.,A,eV,Ry     =   1.534064  2.898960 32.019284  2.353351
  Thomas-Fermi vector in A             =   2.641044
 
 Write flags
   LWAVE        =      T    write WAVECAR
   LDOWNSAMPLE  =      F    k-point downsampling of WAVECAR
   LCHARG       =      T    write CHGCAR
   LVTOT        =      F    write LOCPOT, total local potential
   LVHAR        =      F    write LOCPOT, Hartree potential only
   LELF         =      F    write electronic localiz. function (ELF)
   LORBIT       =      0    0 simple, 1 ext, 2 COOP (PROOUT), +10 PAW based schemes


 Dipole corrections
   LMONO  =      F    monopole corrections only (constant potential shift)
   LDIPOL =      F    correct potential (dipole corrections)
   IDIPOL =      0    1-x, 2-y, 3-z, 4-all directions 
   EPSILON=  1.0000000 bulk dielectric constant

 Exchange correlation treatment:
   GGA     =    --    GGA type
   LEXCH   =     8    internal setting for exchange type
   LIBXC   =     F    Libxc                    
   VOSKOWN =     0    Vosko Wilk Nusair interpolation
   EXXOEP  =     0    0=HF, 1=EXX-LHF (local Hartree Fock) 2=EXX OEP
   LHFCALC =     T    Hartree Fock is set to
   LSYMGRAD=     F    symmetrize gradient (conserves proper symmetry)
   PRECFOCK=fast      Normal, Fast or Accurate (Low or Medium for compatibility)
   LRHFCALC=     F    long range Hartree Fock
   LRSCOR  =     F    long range correlation only (use DFT for short range part)
   LTHOMAS =     F    Thomas Fermi screening in HF
   LMODELHF=     F    short range full HF, long range fraction AEXX
   FOCKCORR=     1    mode to apply convergence corrections
   LFOCKACE=     T    use Adeptively-Compressed-Exchange operator
   ENCUT4O =  -1.0   cutoff for four orbital integrals eV
   LMAXFOCK=     4    L truncation for augmentation on plane wave grid
   LMAXFOCKAE=  -1    L truncation for all-electron charge restoration on plane wave grid
   NMAXFOCKAE=   1    number of basis functions for all-electron charge restoration
   LFOCKAEDFT=     F  apply the AE augmentation even for DFT
   NKREDX  =     1    reduce k-point grid by
   NKREDY  =     1    reduce k-point grid by
   NKREDZ  =     1    reduce k-point grid by
   SHIFTRED=     F    shift reduced grid of Gamma
   HFKIDENT=     F    idential grid for each k-point
   ODDONLY =     F    use only odd q-grid points
   EVENONLY=     F    use only even q-grid points
   HFALPHA =   -1.0000 decay constant for conv. correction
   MCALPHA =    0.0000 extent of test-charge in conv. correction in multipole expansion
   AEXX    =    0.3500 exact exchange contribution
   HFSCREEN=    0.1800 screening length (either q_TF or 0.3 A-1)
   HFSCREENC=   0.1800 screening length for correlation (either q_TF or 0.3 A-1)
   HFRCUT  =    0.0000 spherical cutoff for potential kernel
   ALDAX   =    0.6500 LDA exchange part
   AGGAX   =    0.6500 GGA exchange part
   ALDAC   =    1.0000 LDA correlation
   AGGAC   =    1.0000 GGA correlation
   ENCUTFOCK=  -1.0 apply spherical cutoff to Coloumb kernel
   NBANDSGWLOW=     1    first orbital included in HF term
   NBLOCK_FOCK=    64    blocking factor in FOCK_ACC

 Linear response parameters
   LEPSILON=     F    determine dielectric tensor
   LRPA    =     F    only Hartree local field effects (RPA)
   LNABLA  =     F    use nabla operator in PAW spheres
   LVEL    =     F    velocity operator in full k-point grid
   CSHIFT  =0.1000    complex shift for real part using Kramers Kronig
   OMEGAMAX=  -1.0    maximum frequency
   DEG_THRESHOLD= 0.2000000E-02 threshold for treating states as degnerate
   RTIME   =   -0.100 relaxation time in fs
  (WPLASMAI=    0.000 imaginary part of plasma frequency in eV, 0.658/RTIME)
   DFIELD  = 0.0000000 0.0000000 0.0000000 field for delta impulse in time
 
  Optional k-point grid parameters
   LKPOINTS_OPT  =     F    use optional k-point grid
   KPOINTS_OPT_MODE=     1    mode for optional k-point grid
 
 Orbital magnetization related:
   ORBITALMAG=     F  switch on orbital magnetization
   LCHIMAG   =     F  perturbation theory with respect to B field
   DQ        =  0.001000  dq finite difference perturbation B field
   LLRAUG    =     F  two centre corrections for induced B field
   LBONE     =     F  B-component reconstruction in AE one-centre
   LVGVCALC  =     T  calculate vGv susceptibility
   LVGVAPPL  =     F  apply vGv susceptibility instead of pGv for G=0

 Random number generation:
   RANDOM_GENERATOR = DEFAULT
   PCG_SEED         = not used


--------------------------------------------------------------------------------------------------------


 Static calculation
 charge density and potential will be updated during run
 non-spin polarized calculation
 Conjugate gradient for all bands (Freysoldt, et al. PRB 79, 241103 (2009))
 preconditioned conjugated gradient                                        
 perform sub-space diagonalisation
    before iterative eigenvector-optimisation
 modified Broyden-mixing scheme, WC =      100.0
 initial mixing is a Kerker type mixing with AMIX =  0.4000 and BMIX =      1.0000
 Hartree-type preconditioning will be used
 using additional bands           104
 real space projection scheme for non local part
 use partial core corrections
 no Harris-corrections to forces 
 use gradient corrections 
 use of overlap-Matrix (Vanderbilt PP)
 Gauss-broadening in eV      SIGMA  =   0.05


--------------------------------------------------------------------------------------------------------


  energy-cutoff  :      450.00
  volume of cell :     1268.81
      direct lattice vectors                 reciprocal lattice vectors
     0.000000000 12.280473417  0.000000000     0.000000000  0.081430085 -0.019947423
     9.142702054  0.000000000  0.000000000     0.109376855 -0.000000000  0.000000000
     0.000000000 -2.768261773-11.300697718     0.000000000  0.000000000 -0.088490111

  length of vectors
    12.280473417  9.142702054 11.634820246     0.083837691  0.109376855  0.088490111


 
 k-points in units of 2pi/SCALE and weight: Automatic mesh                          
   0.00000000  0.00000000 -0.00000000       0.125
   0.00000000  0.04071504 -0.00997371       0.125
   0.05468843  0.00000000 -0.00000000       0.125
   0.05468843  0.04071504 -0.00997371       0.125
   0.00000000  0.00000000 -0.04424506       0.125
   0.00000000  0.04071504 -0.05421877       0.125
   0.05468843  0.00000000 -0.04424506       0.125
   0.05468843  0.04071504 -0.05421877       0.125
 
 k-points in reciprocal lattice and weights: Automatic mesh                          
   0.00000000  0.00000000  0.00000000       0.125
   0.50000000  0.00000000  0.00000000       0.125
   0.00000000  0.50000000  0.00000000       0.125
   0.50000000  0.50000000  0.00000000       0.125
   0.00000000  0.00000000  0.50000000       0.125
   0.50000000  0.00000000  0.50000000       0.125
   0.00000000  0.50000000  0.50000000       0.125
   0.50000000  0.50000000  0.50000000       0.125
 
 position of ions in fractional coordinates (direct lattice) 
   0.66106064  0.00014496  0.15792727
   0.65780911  0.00033104  0.65530227
   0.66139285  0.33333333  0.15835032
   0.65753506  0.33333333  0.65474435
   0.66106064  0.66652171  0.15792727
   0.65780911  0.66633563  0.65530227
   0.84400221  0.16720356  0.34430784
   0.84016243  0.16728388  0.84263428
   0.84400221  0.49946311  0.34430784
   0.84016243  0.49938278  0.84263428
   0.84274028  0.83333333  0.34419898
   0.83970340  0.83333333  0.84234858
   0.58917661  0.17049772  0.39594255
   0.59198990  0.16653105  0.89804501
   0.58917661  0.49616894  0.39594255
   0.59198990  0.50013562  0.89804501
   0.59019907  0.83333333  0.39708674
   0.59282826  0.83333333  0.89886798
   0.90898537  0.00036336  0.10139402
   0.90931858  0.00021994  0.60284234
   0.91165537  0.33333333  0.10276699
   0.90981968  0.33333333  0.60264193
   0.90898537  0.66630331  0.10139402
   0.90931858  0.66644673  0.60284234
   0.16334554  0.16983287  0.16103173
   0.15997964  0.16691500  0.65799252
   0.16334554  0.49683379  0.16103173
   0.15997964  0.49975167  0.65799252
   0.15849881  0.83333333  0.15754770
   0.15946400  0.83333333  0.65981580
   0.34017290  0.00465905  0.34095672
   0.34266917  0.00021753  0.84410653
   0.34207606  0.33333333  0.84386168
   0.34017290  0.66200762  0.34095672
   0.34266917  0.66644913  0.84410653
   0.09259965  0.00061433  0.39799703
   0.08973131  0.00014783  0.89792252
   0.09984758  0.33333333  0.39707825
   0.09095286  0.33333333  0.89846679
   0.09259965  0.66605233  0.39799703
   0.08973131  0.66651884  0.89792252
   0.40973884  0.16576507  0.10515408
   0.40534914  0.16628162  0.59757983
   0.40973884  0.50090160  0.10515408
   0.40534914  0.50038505  0.59757983
   0.41011897  0.83333333  0.10416689
   0.40842110  0.83333333  0.60011924
   0.99666796  0.16557408  0.12369633
   0.99694281  0.16656207  0.62909754
   0.99666796  0.50109259  0.12369633
   0.99694281  0.50010460  0.62909754
   0.99456713  0.83333333  0.12523552
   0.99633545  0.83333333  0.62964302
   0.50428018  0.00100172  0.37364341
   0.50534893  0.99957322  0.87327762
   0.50130842  0.33333333  0.37198046
   0.50498153  0.33333333  0.87240744
   0.50428018  0.66566495  0.37364341
   0.50534893  0.66709345  0.87327762
   0.67468159  0.16630265  0.28080924
   0.67187307  0.16773374  0.77960248
   0.67468159  0.50036402  0.28080924
   0.67187307  0.49893293  0.77960248
   0.67422018  0.83333333  0.28159523
   0.67222610  0.83333333  0.77987259
   0.82921678  0.00039633  0.22026208
   0.82648211  0.00039614  0.71878378
   0.82977768  0.33333333  0.22005732
   0.82673255  0.33333333  0.71862395
   0.82921678  0.66627034  0.22026208
   0.82648211  0.66627053  0.71878378
   0.83360436  0.00026996  0.44628990
   0.83074181  0.00030946  0.94469815
   0.83269271  0.33333333  0.44642629
   0.83204595  0.33333333  0.94588556
   0.83360436  0.66639671  0.44628990
   0.83074181  0.66635720  0.94469815
   0.66897164  0.16725090  0.05456597
   0.66755995  0.16651434  0.55353014
   0.66897164  0.49941577  0.05456597
   0.66755995  0.50015233  0.55353014
   0.67112043  0.83333333  0.05502043
   0.66769858  0.83333333  0.55379414
   0.49936336  0.99924116  0.12661441
   0.49614328  0.00067252  0.62814147
   0.49775941  0.33333333  0.13127217
   0.49334760  0.33333333  0.62153965
   0.49936336  0.66742551  0.12661441
   0.49614328  0.66599415  0.62814147
   0.00626994  0.16824421  0.37583598
   0.00255270  0.16712700  0.87092667
   0.00626994  0.49842245  0.37583598
   0.00255270  0.49953967  0.87092667
   0.00452825  0.83333333  0.37506687
   0.00193660  0.83333333  0.87081596
   0.16898915  0.99654573  0.27838235
   0.17342622  0.00003045  0.78248843
   0.16128695  0.33333333  0.26951784
   0.17331414  0.33333333  0.78190944
   0.16898915  0.67012094  0.27838235
   0.17342622  0.66663621  0.78248843
   0.32491306  0.14767608  0.21324985
   0.32848512  0.16675046  0.72056413
   0.32491306  0.51899059  0.21324985
   0.32848512  0.49991621  0.72056413
   0.32776775  0.83333333  0.21921249
   0.32827741  0.83333333  0.71972782
   0.31382624  0.14768110  0.45091537
   0.33620986  0.16689767  0.94669934
   0.31382624  0.51898557  0.45091537
   0.33620986  0.49976900  0.94669934
   0.33252991  0.83333333  0.44378357
   0.33459420  0.83333333  0.94652481
   0.16477637  0.99945294  0.05349721
   0.16547826  0.99869723  0.55655381
   0.17103634  0.33333333  0.05228316
   0.16770798  0.33333333  0.55658284
   0.16477637  0.66721373  0.05349721
   0.16547826  0.66796944  0.55655381
 
 position of ions in cartesian coordinates  (Angst):
   0.00132531  7.68095364 -1.78468837
   0.00302657  6.26415905 -7.40537288
   3.04756735  7.68386218 -1.78946915
   3.04756735  6.26233811 -7.39906801
   6.09380940  7.68095364 -1.78468837
   6.09210813  6.26415905 -7.40537288
   1.52869231  9.41161245 -3.89091882
   1.52942671  7.98496019 -9.52235524
   4.56644239  9.41161245 -3.89091882
   4.56570799  7.98496019 -9.52235524
   7.61891838  9.39641676 -3.88968863
   7.61891838  7.98011391 -9.51912664
   1.55880990  6.13929511 -4.47442709
   1.52254378  4.78389261-10.14853515
   4.53632480  6.13929511 -4.47442709
   4.57259093  4.78389261-10.14853515
   7.61891838  6.14868400 -4.48735722
   7.61891838  4.79190983-10.15783528
   0.00332210 10.88208553 -1.14582311
   0.00201084  9.49803727 -6.81253902
   3.04756735 10.91107365 -1.16133865
   3.04756735  9.50474572 -6.81027429
   6.09181260 10.88208553 -1.14582311
   6.09312386  9.49803727 -6.81253902
   1.55273137  1.56018260 -1.81977094
   1.52605411  0.14313022 -7.43577462
   4.54240333  1.56018260 -1.81977094
   4.56908060  0.14313022 -7.43577462
   7.61891838  1.51030722 -1.78039888
   7.61891838  0.13175060 -7.45637888
   0.04259628  3.23362680 -3.85304885
   0.00198884  1.87143183 -9.53899269
   3.04756735  1.86482597 -9.53622573
   6.05253842  3.23362680 -3.85304885
   6.09314586  1.87143183 -9.53899269
   0.00561665  0.03540759 -4.49764415
   0.00135157 -1.38374161-10.14715098
   3.04756735  0.12695898 -4.48726131
   3.04756735 -1.37024709-10.15330163
   6.08951805  0.03540759 -4.49764415
   6.09378313 -1.38374161-10.14715098
   1.51554061  4.74069296 -1.18831449
   1.52026332  3.32362193 -6.75306899
   4.57959409  4.74069296 -1.18831449
   4.57487138  3.32362193 -6.75306899
   7.61891838  4.74809387 -1.17715851
   7.61891838  3.35431730 -6.78176615
   1.51379444 11.89713060 -1.39785484
   1.52282734 10.50142306 -7.10924111
   4.58134027 11.89713060 -1.39785484
   4.57230736 10.50142306 -7.10924111
   7.61891838 11.86707049 -1.41524879
   7.61891838 10.49245434 -7.11540539
   0.00915839  5.15845656 -4.22243127
   9.13880010  3.78846301 -9.86864637
   3.04756735  5.12656544 -4.20363872
   3.04756735  3.78636012 -9.85881276
   6.08597631  5.15845656 -4.22243127
   6.09903666  3.78846301 -9.86864637
   1.52045558  7.50805582 -3.17334038
   1.53353958  6.09277559 -8.81005194
   4.57467912  7.50805582 -3.17334038
   4.56159512  6.09277559 -8.81005194
   7.61891838  7.50021375 -3.18222254
   7.61891838  6.09636329 -8.81310445
   0.00362352  9.57343147 -2.48911522
   0.00362175  8.15980993 -8.12275818
   3.04756735  9.58088648 -2.48680124
   3.04756735  8.16332791 -8.12095208
   6.09151118  9.57343147 -2.48911522
   6.09151295  8.15980993 -8.12275818
   0.00246813  9.00160897 -5.04338725
   0.00282933  7.58673089-10.67574826
   3.04756735  8.99003590 -5.04492854
   3.04756735  7.59945937-10.68916674
   6.09266657  9.00160897 -5.04338725
   6.09230538  7.58673089-10.67574826
   1.52912511  8.06423555 -0.61663358
   1.52239096  6.66563595 -6.25527675
   4.56600959  8.06423555 -0.61663358
   4.57274374  6.66563595 -6.25527675
   7.61891838  8.08936570 -0.62176922
   7.61891838  6.66660749 -6.25826019
   9.13576422  5.78191660 -1.43083114
   0.00614861  4.35401438 -7.09843684
   3.04756735  5.74932548 -1.48346717
   3.04756735  4.33795760 -7.02383176
   6.10207254  5.78191660 -1.43083114
   6.08898609  4.35401438 -7.09843684
   1.53820671 -0.96341451 -4.24720881
   1.52799234 -2.37960458 -9.84207901
   4.55692799 -0.96341451 -4.24720881
   4.56714236 -2.37960458 -9.84207901
   7.61891838 -0.98267425 -4.23851732
   7.61891838 -2.38686412 -9.84082790
   9.11112065  1.30463156 -3.14591475
   0.00027844 -0.03637668 -8.84266526
   3.04756735  1.23458415 -3.04573964
   3.04756735 -0.03615035 -8.83612218
   6.12671611  1.30463156 -3.14591475
   6.09485626 -0.03637668 -8.84266526
   1.35015838  3.39975482 -2.40987215
   1.52454977  2.03924270 -8.14287745
   4.74497632  3.39975482 -2.40987215
   4.57058494  2.03924270 -8.14287745
   7.61891838  3.41830559 -2.47725407
   7.61891838  2.03900693 -8.13342657
   1.35020425  2.60568303 -5.09565833
   1.52589567  1.50810462-10.69836302
   4.74493045  2.60568303 -5.09565833
   4.56923903  1.50810462-10.69836302
   7.61891838  2.85511567 -5.01506393
   7.61891838  1.48874680-10.69639072
   9.13770044  1.87543751 -0.60455582
   9.13079120  0.49146471 -6.28944636
   3.04756735  1.95567371 -0.59083621
   3.04756735  0.51876640 -6.28977442
   6.10013631  1.87543751 -0.60455582
   6.10704556  0.49146471 -6.28944636
 


--------------------------------------------------------------------------------------------------------


 k-point   1 :   0.0000 0.0000 0.0000  plane waves:   27533
 k-point   2 :   0.5000 0.0000 0.0000  plane waves:   27522
 k-point   3 :   0.0000 0.5000 0.0000  plane waves:   27488
 k-point   4 :   0.5000 0.5000 0.0000  plane waves:   27488
 k-point   5 :   0.0000 0.0000 0.5000  plane waves:   27482
 k-point   6 :   0.5000 0.0000 0.5000  plane waves:   27476
 k-point   7 :   0.0000 0.5000 0.5000  plane waves:   27468
 k-point   8 :   0.5000 0.5000 0.5000  plane waves:   27564

 maximum and minimum number of plane-waves per node :     27564    27468

 maximum number of plane-waves:     27564
 maximum index in each direction: 
   IXMAX=   21   IYMAX=   15   IZMAX=   20
   IXMIN=  -21   IYMIN=  -16   IZMIN=  -20


 serial   3D FFT for wavefunctions
 parallel 3D FFT for charge:
    minimum data exchange during FFTs selected (reduces bandwidth)


 FFT grid for exact exchange (Hartree Fock) 
  NGX = 48; NGY = 36; NGZ = 48

 
 Radii for the augmentation spheres in the non-local exchange
 for species   1 augmentation radius   1.392 (default was   1.031)
       energy cutoff for augmentation   1800.0
 for species   2 augmentation radius   0.974 (default was   0.722)
       energy cutoff for augmentation   1800.0
 Maximum index for augmentation-charges in exchange           744
  SETUP_FOCK is finished

 total amount of memory used by VASP MPI-rank0  7174199. kBytes
=======================================================================

   base      :      30000. kBytes
   nonlr-proj:      32458. kBytes
   fftplans  :      51012. kBytes
   grid      :      90980. kBytes
   one-center:       1850. kBytes
   HF        :        129. kBytes
   wavefun   :    6967770. kBytes
 
     INWAV:  cpu time      0.0001: real time      0.0002
 Broyden mixing: mesh for mixing (old mesh)
   NGX = 43   NGY = 31   NGZ = 41
  (NGX  =128   NGY  = 96   NGZ  =120)
  gives a total of  54653 points

 charge density for first step will be calculated from the start-wavefunctions


--------------------------------------------------------------------------------------------------------


 Maximum index for non-local projection operator          1717
 Maximum index for augmentation-charges          5360 (set IRDMAX)


--------------------------------------------------------------------------------------------------------


 initial charge from wavefunction
 First call to EWALD:  gamma=   0.164
 Maximum number of real-space cells 3x 3x 3
 Maximum number of reciprocal cells 3x 2x 3

    FEWALD:  cpu time      0.0743: real time      0.0743


--------------------------------------- Ionic step        1  -------------------------------------------




--------------------------------------- Iteration      1(   1)  ---------------------------------------


    POTLOK:  cpu time      0.0335: real time      0.0335
    SETDIJ:  cpu time      0.1184: real time      0.1184
    TRIAL :  cpu time      2.8175: real time      2.8343
    CORREC:  cpu time      0.0015: real time      0.0015
    --------------------------------------------
      LOOP:  cpu time      3.9052: real time      3.9302

 eigenvalue-minimisations  : 10512
 total energy-change (2. order) :-0.2108137E+05  (-0.5483053E+05)
 number of electron    1043.9999527 magnetization 
 augmentation part      118.7814573 magnetization 

 Free energy of the ion-electron system (eV)
  ---------------------------------------------------
  alpha Z        PSCENC =      5383.97153279
  Ewald energy   TEWEN  =    -86594.47826338
  -Hartree energ DENC   =     -2064.40049882
  -exchange      EXHF   =         0.00000000
  -V(xc)+E(xc)   XCENC  =      2770.72451716
  PAW double counting   =     54439.57402276   -85616.10912185
  entropy T*S    EENTRO =        -0.01036391
  eigenvalues    EBANDS =    -41114.25392617
  atomic energy  EATOM  =    131713.61575125
  ---------------------------------------------------
  free energy    TOTEN  =    -21081.36635015 eV

  energy without entropy =   -21081.35598625  energy(sigma->0) =   -21081.36116820
  exchange ACFDT corr.  =         0.00000000  see jH, gK, PRB 81, 115126


--------------------------------------------------------------------------------------------------------




--------------------------------------- Iteration      1(   2)  ---------------------------------------


    TRIAL :  cpu time      3.0621: real time      3.0618
    CORREC:  cpu time      0.0014: real time      0.0014
    --------------------------------------------
      LOOP:  cpu time      3.0638: real time      3.0644

 eigenvalue-minimisations  : 13216
 total energy-change (2. order) :-0.4446463E+05  (-0.4293013E+05)
 number of electron    1043.9999527 magnetization 
 augmentation part      118.7814573 magnetization 

 Free energy of the ion-electron system (eV)
  ---------------------------------------------------
  alpha Z        PSCENC =      5383.97153279
  Ewald energy   TEWEN  =    -86594.47826338
  -Hartree energ DENC   =     -2064.40049882
  -exchange      EXHF   =         0.00000000
  -V(xc)+E(xc)   XCENC  =      2770.72451716
  PAW double counting   =     54439.57402276   -85616.10912185
  entropy T*S    EENTRO =        -0.01509962
  eigenvalues    EBANDS =    -85578.88144888
  atomic energy  EATOM  =    131713.61575125
  ---------------------------------------------------
  free energy    TOTEN  =    -65545.99860858 eV

  energy without entropy =   -65545.98350896  energy(sigma->0) =   -65545.99105877
  exchange ACFDT corr.  =         0.00000000  see jH, gK, PRB 81, 115126


--------------------------------------------------------------------------------------------------------




--------------------------------------- Iteration      1(   3)  ---------------------------------------


    TRIAL :  cpu time      3.2976: real time      3.2973
    CORREC:  cpu time      0.0015: real time      0.0015
    --------------------------------------------
      LOOP:  cpu time      3.2994: real time      3.2995

 eigenvalue-minimisations  : 14496
 total energy-change (2. order) :-0.5111155E+04  (-0.4639955E+04)
 number of electron    1043.9999527 magnetization 
 augmentation part      118.7814573 magnetization 

 Free energy of the ion-electron system (eV)
  ---------------------------------------------------
  alpha Z        PSCENC =      5383.97153279
  Ewald energy   TEWEN  =    -86594.47826338
  -Hartree energ DENC   =     -2064.40049882
  -exchange      EXHF   =         0.00000000
  -V(xc)+E(xc)   XCENC  =      2770.72451716
  PAW double counting   =     54439.57402276   -85616.10912185
  entropy T*S    EENTRO =        -0.03305030
  eigenvalues    EBANDS =    -90690.01862504
  atomic energy  EATOM  =    131713.61575125
  ---------------------------------------------------
  free energy    TOTEN  =    -70657.15373542 eV

  energy without entropy =   -70657.12068512  energy(sigma->0) =   -70657.13721027
  exchange ACFDT corr.  =         0.00000000  see jH, gK, PRB 81, 115126


--------------------------------------------------------------------------------------------------------




--------------------------------------- Iteration      1(   4)  ---------------------------------------


    TRIAL :  cpu time      3.8524: real time      3.8520
    CORREC:  cpu time      0.0016: real time      0.0016
    --------------------------------------------
      LOOP:  cpu time      3.8542: real time      3.8543

 eigenvalue-minimisations  : 18624
 total energy-change (2. order) :-0.8036805E+03  (-0.7000141E+03)
 number of electron    1043.9999527 magnetization 
 augmentation part      118.7814573 magnetization 

 Free energy of the ion-electron system (eV)
  ---------------------------------------------------
  alpha Z        PSCENC =      5383.97153279
  Ewald energy   TEWEN  =    -86594.47826338
  -Hartree energ DENC   =     -2064.40049882
  -exchange      EXHF   =         0.00000000
  -V(xc)+E(xc)   XCENC  =      2770.72451716
  PAW double counting   =     54439.57402276   -85616.10912185
  entropy T*S    EENTRO =        -0.04749495
  eigenvalues    EBANDS =    -91493.68468609
  atomic energy  EATOM  =    131713.61575125
  ---------------------------------------------------
  free energy    TOTEN  =    -71460.83424113 eV

  energy without entropy =   -71460.78674617  energy(sigma->0) =   -71460.81049365
  exchange ACFDT corr.  =         0.00000000  see jH, gK, PRB 81, 115126


--------------------------------------------------------------------------------------------------------




--------------------------------------- Iteration      1(   5)  ---------------------------------------


    POTLOK:  cpu time      1.3701: real time      1.3700
    SETDIJ:  cpu time      0.4487: real time      0.4486
    TRIAL :  cpu time    229.4429: real time    229.4283
    CORREC:  cpu time      0.0014: real time      0.0014
    CHARGE:  cpu time      0.2044: real time      0.2044
    --------------------------------------------
      LOOP:  cpu time    231.4678: real time    231.4535

 eigenvalue-minimisations  : 18272
 total energy-change (2. order) : 0.3229919E+05  (-0.7612455E+02)
 number of electron    1043.9998666 magnetization 
 augmentation part      467.7894893 magnetization 

 Free energy of the ion-electron system (eV)
  ---------------------------------------------------
  alpha Z        PSCENC =      5383.97153279
  Ewald energy   TEWEN  =    -86594.47826338
  -Hartree energ DENC   =     -2064.40049882
  -exchange      EXHF   =      5213.82595611
  -V(xc)+E(xc)   XCENC  =      1837.35315132
  PAW double counting   =     55086.35634251   -57090.00561526
  entropy T*S    EENTRO =        -0.00012047
  eigenvalues    EBANDS =    -92647.88593492
  atomic energy  EATOM  =    131713.61575125
  ---------------------------------------------------
  free energy    TOTEN  =    -39161.64769886 eV

  energy without entropy =   -39161.64757840  energy(sigma->0) =   -39161.64763863
  exchange ACFDT corr.  =        -0.66250926  see jH, gK, PRB 81, 115126


--------------------------------------------------------------------------------------------------------




--------------------------------------- Iteration      1(   6)  ---------------------------------------


    POTLOK:  cpu time      1.4039: real time      1.4039
    SETDIJ:  cpu time      0.4273: real time      0.4273
    TRIAL :  cpu time    227.7276: real time    227.7170
    CORREC:  cpu time    229.3583: real time    229.3864
    CHARGE:  cpu time      0.2038: real time      0.2038
    --------------------------------------------
      LOOP:  cpu time    459.1211: real time    459.1410

 eigenvalue-minimisations  :     0
 total energy-change (2. order) : 0.6996627E+05  (-0.2468350E+05)
 number of electron    1043.9998128 magnetization 
 augmentation part      456.3281845 magnetization 

 Free energy of the ion-electron system (eV)
  ---------------------------------------------------
  alpha Z        PSCENC =      5383.97153279
  Ewald energy   TEWEN  =    -86594.47826338
  -Hartree energ DENC   =    -79282.88456755
  -exchange      EXHF   =      5311.60700724
  -V(xc)+E(xc)   XCENC  =      3580.20417353
  PAW double counting   =    151471.04048011  -176463.07011909
  entropy T*S    EENTRO =        -0.03858105
  eigenvalues    EBANDS =     75684.61154590
  atomic energy  EATOM  =    131713.61575125
  ---------------------------------------------------
  free energy    TOTEN  =     30804.61742032 eV

  energy without entropy =    30804.65600137  energy(sigma->0) =    30804.63671085
  exchange ACFDT corr.  =        -0.00108440  see jH, gK, PRB 81, 115126


--------------------------------------------------------------------------------------------------------




--------------------------------------- Iteration      1(   7)  ---------------------------------------


    POTLOK:  cpu time      1.4586: real time      1.4590
    SETDIJ:  cpu time      0.4572: real time      0.4572
    TRIAL :  cpu time    228.1817: real time    228.2030
    CORREC:  cpu time    230.4697: real time    230.4863
    CHARGE:  cpu time      0.2045: real time      0.2045
    --------------------------------------------
      LOOP:  cpu time    460.7739: real time    460.8126

 eigenvalue-minimisations  :     0
 total energy-change (2. order) :-0.2301542E+05  (-0.4473192E+04)
 number of electron    1043.9998481 magnetization 
 augmentation part      425.4335083 magnetization 

 Free energy of the ion-electron system (eV)
  ---------------------------------------------------
  alpha Z        PSCENC =      5383.97153279
  Ewald energy   TEWEN  =    -86594.47826338
  -Hartree energ DENC   =    -37860.49377347
  -exchange      EXHF   =      4078.88678322
  -V(xc)+E(xc)   XCENC  =      2741.69007348
  PAW double counting   =    147379.07205746  -164228.10392832
  entropy T*S    EENTRO =        -0.04360123
  eigenvalues    EBANDS =      5175.07840235
  atomic energy  EATOM  =    131713.61575125
  ---------------------------------------------------
  free energy    TOTEN  =      7789.20005434 eV

  energy without entropy =     7789.24365557  energy(sigma->0) =     7789.22185496
  exchange ACFDT corr.  =      -155.84806912  see jH, gK, PRB 81, 115126


--------------------------------------------------------------------------------------------------------




--------------------------------------- Iteration      1(   8)  ---------------------------------------


    POTLOK:  cpu time      1.4787: real time      1.4785
    SETDIJ:  cpu time      0.4768: real time      0.4767
    TRIAL :  cpu time    229.2734: real time    229.2606
    CORREC:  cpu time    229.2640: real time    229.2631
    CHARGE:  cpu time      0.2105: real time      0.2104
    --------------------------------------------
      LOOP:  cpu time    460.7056: real time    460.6923

 eigenvalue-minimisations  :     0
 total energy-change (2. order) :-0.2898067E+04  (-0.2730126E+04)
 number of electron    1043.9998523 magnetization 
 augmentation part      432.7576890 magnetization 

 Free energy of the ion-electron system (eV)
  ---------------------------------------------------
  alpha Z        PSCENC =      5383.97153279
  Ewald energy   TEWEN  =    -86594.47826338
  -Hartree energ DENC   =    -30412.08876768
  -exchange      EXHF   =      3809.53158540
  -V(xc)+E(xc)   XCENC  =      2569.65090594
  PAW double counting   =    140765.86978199  -155029.75921150
  entropy T*S    EENTRO =        -0.02864559
  eigenvalues    EBANDS =     -7315.13690539
  atomic energy  EATOM  =    131713.61575125
  ---------------------------------------------------
  free energy    TOTEN  =      4891.13280820 eV

  energy without entropy =     4891.16145379  energy(sigma->0) =     4891.14713099
  exchange ACFDT corr.  =       -96.26649427  see jH, gK, PRB 81, 115126


--------------------------------------------------------------------------------------------------------




--------------------------------------- Iteration      1(   9)  ---------------------------------------


    POTLOK:  cpu time      1.5564: real time      1.5562
    SETDIJ:  cpu time      0.4119: real time      0.4118
    TRIAL :  cpu time    228.0216: real time    228.0356
    CORREC:  cpu time    229.1436: real time    229.1444
    CHARGE:  cpu time      0.2045: real time      0.2044
    --------------------------------------------
      LOOP:  cpu time    459.3381: real time    459.3531

 eigenvalue-minimisations  :     0
 total energy-change (2. order) :-0.2074692E+04  (-0.1874342E+04)
 number of electron    1043.9998346 magnetization 
 augmentation part      449.8038923 magnetization 

 Free energy of the ion-electron system (eV)
  ---------------------------------------------------
  alpha Z        PSCENC =      5383.97153279
  Ewald energy   TEWEN  =    -86594.47826338
  -Hartree energ DENC   =    -30609.62918979
  -exchange      EXHF   =      3841.10042027
  -V(xc)+E(xc)   XCENC  =      2585.86237019
  PAW double counting   =    130054.86697840  -144546.70328971
  entropy T*S    EENTRO =        -0.01032364
  eigenvalues    EBANDS =     -9012.13648861
  atomic energy  EATOM  =    131713.61575125
  ---------------------------------------------------
  free energy    TOTEN  =      2816.44117583 eV

  energy without entropy =     2816.45149947  energy(sigma->0) =     2816.44633765
  exchange ACFDT corr.  =       -93.72676452  see jH, gK, PRB 81, 115126


--------------------------------------------------------------------------------------------------------




--------------------------------------- Iteration      1(  10)  ---------------------------------------


    POTLOK:  cpu time      1.5086: real time      1.5084
    SETDIJ:  cpu time      0.4123: real time      0.4122
    TRIAL :  cpu time    227.8888: real time    227.8910
    CORREC:  cpu time    229.2427: real time    229.2560
    CHARGE:  cpu time      0.2060: real time      0.2059
    --------------------------------------------
      LOOP:  cpu time    459.2594: real time    459.2751

 eigenvalue-minimisations  :     0
 total energy-change (2. order) :-0.1516366E+04  (-0.1046833E+04)
 number of electron    1043.9998238 magnetization 
 augmentation part      453.1373834 magnetization 

 Free energy of the ion-electron system (eV)
  ---------------------------------------------------
  alpha Z        PSCENC =      5383.97153279
  Ewald energy   TEWEN  =    -86594.47826338
  -Hartree energ DENC   =    -32716.47907541
  -exchange      EXHF   =      3989.86758295
  -V(xc)+E(xc)   XCENC  =      2677.90576319
  PAW double counting   =    129005.22488657  -144494.16370944
  entropy T*S    EENTRO =        -0.01096324
  eigenvalues    EBANDS =     -7665.37890926
  atomic energy  EATOM  =    131713.61575125
  ---------------------------------------------------
  free energy    TOTEN  =      1300.07523563 eV

  energy without entropy =     1300.08619887  energy(sigma->0) =     1300.08071725
  exchange ACFDT corr.  =        -3.13807098  see jH, gK, PRB 81, 115126


--------------------------------------------------------------------------------------------------------




--------------------------------------- Iteration      1(  11)  ---------------------------------------


    POTLOK:  cpu time      1.5361: real time      1.5359
    SETDIJ:  cpu time      0.4130: real time      0.4129
    TRIAL :  cpu time    228.0453: real time    228.0503
    CORREC:  cpu time    229.1308: real time    229.1275
    CHARGE:  cpu time      0.2043: real time      0.2043
    --------------------------------------------
      LOOP:  cpu time    459.3302: real time    459.3370

 eigenvalue-minimisations  :     0
 total energy-change (2. order) :-0.1045198E+04  (-0.5531463E+03)
 number of electron    1043.9998293 magnetization 
 augmentation part      451.8357582 magnetization 

 Free energy of the ion-electron system (eV)
  ---------------------------------------------------
  alpha Z        PSCENC =      5383.97153279
  Ewald energy   TEWEN  =    -86594.47826338
  -Hartree energ DENC   =    -33536.76251092
  -exchange      EXHF   =      4130.56135125
  -V(xc)+E(xc)   XCENC  =      2734.48197583
  PAW double counting   =    128172.71520644  -143667.10306017
  entropy T*S    EENTRO =        -0.00940878
  eigenvalues    EBANDS =     -8082.11339125
  atomic energy  EATOM  =    131713.61575125
  ---------------------------------------------------
  free energy    TOTEN  =       254.87762859 eV

  energy without entropy =      254.88703737  energy(sigma->0) =      254.88233298
  exchange ACFDT corr.  =        -8.12997043  see jH, gK, PRB 81, 115126


--------------------------------------------------------------------------------------------------------




--------------------------------------- Iteration      1(  12)  ---------------------------------------


    POTLOK:  cpu time      1.4959: real time      1.4957
    SETDIJ:  cpu time      0.4208: real time      0.4207
    TRIAL :  cpu time    227.6199: real time    227.6293
    CORREC:  cpu time    229.1921: real time    229.2015
    CHARGE:  cpu time      0.2052: real time      0.2052
    --------------------------------------------
      LOOP:  cpu time    458.9346: real time    458.9535

 eigenvalue-minimisations  :     0
 total energy-change (2. order) :-0.5417914E+03  (-0.3293427E+03)
 number of electron    1043.9998320 magnetization 
 augmentation part      450.7413607 magnetization 

 Free energy of the ion-electron system (eV)
  ---------------------------------------------------
  alpha Z        PSCENC =      5383.97153279
  Ewald energy   TEWEN  =    -86594.47826338
  -Hartree energ DENC   =    -33876.22235540
  -exchange      EXHF   =      4216.04479653
  -V(xc)+E(xc)   XCENC  =      2761.23115289
  PAW double counting   =    126667.77619322  -141796.16370301
  entropy T*S    EENTRO =        -0.01161807
  eigenvalues    EBANDS =     -8762.67946965
  atomic energy  EATOM  =    131713.61575125
  ---------------------------------------------------
  free energy    TOTEN  =      -286.91377352 eV

  energy without entropy =     -286.90215545  energy(sigma->0) =     -286.90796449
  exchange ACFDT corr.  =        -1.11290457  see jH, gK, PRB 81, 115126


--------------------------------------------------------------------------------------------------------




--------------------------------------- Iteration      1(  13)  ---------------------------------------


    POTLOK:  cpu time      1.4701: real time      1.4699
    SETDIJ:  cpu time      0.4690: real time      0.4689
    TRIAL :  cpu time    227.7208: real time    227.7112
    CORREC:  cpu time    228.9831: real time    228.9893
    CHARGE:  cpu time      0.2041: real time      0.2041
    --------------------------------------------
      LOOP:  cpu time    458.8477: real time    458.8442

 eigenvalue-minimisations  :     0
 total energy-change (2. order) :-0.3388933E+03  (-0.1825071E+03)
 number of electron    1043.9998341 magnetization 
 augmentation part      451.9930716 magnetization 

 Free energy of the ion-electron system (eV)
  ---------------------------------------------------
  alpha Z        PSCENC =      5383.97153279
  Ewald energy   TEWEN  =    -86594.47826338
  -Hartree energ DENC   =    -34105.08071609
  -exchange      EXHF   =      4243.97247091
  -V(xc)+E(xc)   XCENC  =      2772.73612215
  PAW double counting   =    122842.46019940  -137901.09506410
  entropy T*S    EENTRO =        -0.00947889
  eigenvalues    EBANDS =     -8981.89753732
  atomic energy  EATOM  =    131713.61575125
  ---------------------------------------------------
  free energy    TOTEN  =      -625.80712246 eV

  energy without entropy =     -625.79764357  energy(sigma->0) =     -625.80238302
  exchange ACFDT corr.  =        -0.85403988  see jH, gK, PRB 81, 115126


--------------------------------------------------------------------------------------------------------




--------------------------------------- Iteration      1(  14)  ---------------------------------------


    POTLOK:  cpu time      1.4355: real time      1.4352
    SETDIJ:  cpu time      0.4565: real time      0.4565
    TRIAL :  cpu time    227.8653: real time    227.8641
    CORREC:  cpu time    229.0390: real time    229.0486
    CHARGE:  cpu time      0.2049: real time      0.2049
    --------------------------------------------
      LOOP:  cpu time    459.0020: real time    459.0103

 eigenvalue-minimisations  :     0
 total energy-change (2. order) :-0.1740752E+03  (-0.7323161E+02)
 number of electron    1043.9998372 magnetization 
 augmentation part      451.1522408 magnetization 

 Free energy of the ion-electron system (eV)
  ---------------------------------------------------
  alpha Z        PSCENC =      5383.97153279
  Ewald energy   TEWEN  =    -86594.47826338
  -Hartree energ DENC   =    -34173.48037282
  -exchange      EXHF   =      4244.71179385
  -V(xc)+E(xc)   XCENC  =      2772.43130846
  PAW double counting   =    119852.34873902  -135142.74262839
  entropy T*S    EENTRO =        -0.00561407
  eigenvalues    EBANDS =     -8856.25070966
  atomic energy  EATOM  =    131713.61575125
  ---------------------------------------------------
  free energy    TOTEN  =      -799.88232776 eV

  energy without entropy =     -799.87671369  energy(sigma->0) =     -799.87952073
  exchange ACFDT corr.  =        -0.09840511  see jH, gK, PRB 81, 115126


--------------------------------------------------------------------------------------------------------




[...]
   -.117E+03 0.618E+01 -.199E+03   0.115E+03 -.609E+01 0.201E+03   0.140E+01 0.372E-01 -.234E+01
   0.107E+03 0.957E+02 0.932E+02   -.105E+03 -.967E+02 -.934E+02   -.157E+01 0.101E+01 0.239E+00
   0.117E+03 0.619E+01 -.199E+03   -.115E+03 -.609E+01 0.201E+03   -.140E+01 0.372E-01 -.234E+01
   0.154E-02 0.661E+02 0.657E+01   -.530E-10 -.647E+02 -.560E+01   0.000E+00 -.124E+01 -.887E+00
   0.479E-02 0.401E+02 -.741E+02   -.481E-11 -.383E+02 0.766E+02   0.000E+00 -.166E+01 -.247E+01
   -.512E+01 -.560E+02 0.272E+02   0.488E+01 0.664E+02 -.301E+02   0.201E+00 -.881E+01 0.253E+01
   -.504E+01 -.276E+02 0.767E+01   0.499E+01 0.351E+02 -.119E+02   0.554E-01 -.633E+01 0.362E+01
   0.512E+01 -.560E+02 0.272E+02   -.488E+01 0.664E+02 -.301E+02   -.201E+00 -.881E+01 0.253E+01
   0.504E+01 -.276E+02 0.767E+01   -.499E+01 0.351E+02 -.119E+02   -.554E-01 -.633E+01 0.362E+01
   0.387E-03 -.346E+02 0.246E+02   -.437E-11 0.432E+02 -.283E+02   0.000E+00 -.730E+01 0.312E+01
   0.528E-03 -.233E+02 0.984E+01   -.354E-10 0.308E+02 -.141E+02   0.000E+00 -.625E+01 0.362E+01
   -.506E+02 0.589E+02 -.127E+02   0.507E+02 -.666E+02 0.162E+02   -.297E-01 0.647E+01 -.299E+01
   -.604E+01 0.279E+02 -.218E+02   0.593E+01 -.355E+02 0.258E+02   0.907E-01 0.638E+01 -.331E+01
   -.851E-03 0.315E+03 -.607E+02   -.782E-11 -.344E+03 0.682E+02   0.000E+00 0.242E+02 -.639E+01
   -.316E-03 0.292E+02 -.247E+02   -.695E-11 -.368E+02 0.288E+02   0.000E+00 0.642E+01 -.345E+01
   0.506E+02 0.589E+02 -.127E+02   -.507E+02 -.666E+02 0.162E+02   0.297E-01 0.647E+01 -.299E+01
   0.604E+01 0.279E+02 -.218E+02   -.593E+01 -.355E+02 0.258E+02   -.907E-01 0.638E+01 -.331E+01
   -.758E+01 0.102E+03 0.554E+02   0.717E+01 -.100E+03 -.520E+02   0.375E+00 -.181E+01 -.294E+01
   -.717E+01 0.845E+02 0.161E+02   0.712E+01 -.826E+02 -.112E+02   0.394E-01 -.159E+01 -.409E+01
   0.757E+01 0.102E+03 0.554E+02   -.717E+01 -.100E+03 -.520E+02   -.375E+00 -.181E+01 -.294E+01
   0.717E+01 0.845E+02 0.161E+02   -.712E+01 -.826E+02 -.112E+02   -.394E-01 -.159E+01 -.409E+01
   0.287E-03 0.867E+02 0.487E+02   -.123E-10 -.847E+02 -.444E+02   0.000E+00 -.171E+01 -.367E+01
   0.287E-03 0.809E+02 0.193E+02   0.137E-11 -.795E+02 -.142E+02   0.000E+00 -.128E+01 -.430E+01
   -.583E+01 -.662E+02 -.278E+02   0.580E+01 0.647E+02 0.230E+02   0.318E-01 0.126E+01 0.403E+01
   -.394E+01 -.554E+02 -.479E+02   0.397E+01 0.532E+02 0.432E+02   -.290E-01 0.184E+01 0.398E+01
   -.200E-03 -.665E+02 -.312E+02   -.129E-10 0.650E+02 0.268E+02   0.000E+00 0.129E+01 0.363E+01
   -.167E-03 -.527E+02 -.517E+02   -.745E-11 0.504E+02 0.474E+02   0.000E+00 0.194E+01 0.366E+01
   0.583E+01 -.662E+02 -.278E+02   -.580E+01 0.647E+02 0.230E+02   -.318E-01 0.126E+01 0.403E+01
   0.394E+01 -.554E+02 -.479E+02   -.397E+01 0.532E+02 0.432E+02   0.290E-01 0.184E+01 0.398E+01
   -.622E+01 0.134E+03 0.544E+02   0.635E+01 -.147E+03 -.504E+02   -.110E+00 0.108E+02 -.336E+01
   -.419E+01 0.121E+03 0.670E+02   0.418E+01 -.133E+03 -.639E+02   0.266E-02 0.106E+02 -.257E+01
   -.230E-03 0.135E+03 0.541E+02   -.142E-10 -.149E+03 -.504E+02   0.000E+00 0.111E+02 -.317E+01
   -.143E-03 0.122E+03 0.722E+02   -.400E-11 -.135E+03 -.698E+02   0.000E+00 0.106E+02 -.198E+01
   0.622E+01 0.134E+03 0.544E+02   -.635E+01 -.147E+03 -.504E+02   0.110E+00 0.108E+02 -.336E+01
   0.419E+01 0.121E+03 0.670E+02   -.418E+01 -.133E+03 -.639E+02   -.266E-02 0.106E+02 -.257E+01
   -.782E+01 -.101E+03 -.539E+02   0.776E+01 0.113E+03 0.503E+02   0.491E-01 -.105E+02 0.306E+01
   -.913E+01 -.849E+02 -.959E+02   0.878E+01 0.977E+02 0.935E+02   0.336E+00 -.109E+02 0.202E+01
   0.782E+01 -.101E+03 -.539E+02   -.776E+01 0.113E+03 0.503E+02   -.491E-01 -.105E+02 0.306E+01
   0.913E+01 -.849E+02 -.959E+02   -.878E+01 0.977E+02 0.935E+02   -.336E+00 -.109E+02 0.202E+01
   0.185E-03 -.108E+03 -.549E+02   -.174E-10 0.121E+03 0.511E+02   0.000E+00 -.108E+02 0.317E+01
   0.467E-03 -.104E+03 -.806E+02   0.107E-11 0.117E+03 0.774E+02   0.000E+00 -.109E+02 0.272E+01
   -.197E+02 0.529E+01 0.277E+02   0.201E+02 0.126E+01 -.301E+02   -.319E+00 -.554E+01 0.205E+01
   -.261E+02 -.204E+01 -.963E+01   0.267E+02 0.813E+01 0.461E+01   -.429E+00 -.521E+01 0.432E+01
   -.508E-03 0.455E+02 0.676E+02   -.385E-10 -.387E+02 -.722E+02   0.000E+00 -.577E+01 0.387E+01
   -.992E-03 0.113E+02 -.724E+02   -.321E-11 -.339E+01 0.695E+02   0.000E+00 -.677E+01 0.256E+01
   0.197E+02 0.529E+01 0.277E+02   -.201E+02 0.126E+01 -.301E+02   0.319E+00 -.554E+01 0.205E+01
   0.261E+02 -.204E+01 -.963E+01   -.267E+02 0.813E+01 0.461E+01   0.429E+00 -.521E+01 0.432E+01
   -.246E+02 -.104E+02 -.108E+02   0.267E+02 0.382E+01 0.133E+02   -.179E+01 0.556E+01 -.218E+01
   -.525E+01 0.370E+01 -.691E+01   0.545E+01 -.106E+02 0.112E+02   -.174E+00 0.585E+01 -.359E+01
   0.246E+02 -.104E+02 -.108E+02   -.267E+02 0.382E+01 0.133E+02   0.179E+01 0.556E+01 -.218E+01
   0.525E+01 0.370E+01 -.691E+01   -.545E+01 -.106E+02 0.112E+02   0.174E+00 0.585E+01 -.359E+01
   0.619E-03 0.138E+01 -.111E+02   -.320E-10 -.778E+01 0.141E+02   0.000E+00 0.542E+01 -.252E+01
   0.196E-03 0.554E+01 -.101E+02   -.322E-10 -.123E+02 0.142E+02   0.000E+00 0.569E+01 -.351E+01
   -.388E+02 0.275E+02 0.458E+02   0.392E+02 -.247E+02 -.407E+02   -.292E+00 -.238E+01 -.441E+01
   -.813E+01 0.493E+02 0.479E+02   0.852E+01 -.470E+02 -.439E+02   -.325E+00 -.187E+01 -.337E+01
   -.171E-02 -.162E+03 0.128E+03   -.276E-10 0.173E+03 -.128E+03   0.000E+00 -.920E+01 -.689E+00
   -.525E-03 0.492E+02 0.447E+02   -.279E-10 -.473E+02 -.406E+02   0.000E+00 -.158E+01 -.350E+01
   0.388E+02 0.275E+02 0.458E+02   -.392E+02 -.247E+02 -.407E+02   0.292E+00 -.238E+01 -.441E+01
   0.813E+01 0.493E+02 0.479E+02   -.852E+01 -.470E+02 -.439E+02   0.325E+00 -.187E+01 -.337E+01
   -.179E+03 -.623E+02 0.108E+03   0.186E+03 0.600E+02 -.117E+03   -.594E+01 0.196E+01 0.752E+01
   -.125E+02 -.891E+02 -.594E+02   0.126E+02 0.883E+02 0.550E+02   -.153E-01 0.655E+00 0.381E+01
   0.179E+03 -.623E+02 0.108E+03   -.186E+03 0.600E+02 -.117E+03   0.594E+01 0.196E+01 0.752E+01
   0.125E+02 -.891E+02 -.594E+02   -.126E+02 0.883E+02 0.550E+02   0.153E-01 0.655E+00 0.381E+01
   0.135E-02 -.652E+02 -.100E+02   -.270E-10 0.623E+02 0.409E+01   0.000E+00 0.248E+01 0.498E+01
   0.997E-03 -.774E+02 -.493E+02   -.159E-10 0.761E+02 0.449E+02   0.000E+00 0.115E+01 0.382E+01
   -.203E+03 0.579E+02 -.844E+02   0.214E+03 -.727E+02 0.958E+02   -.862E+01 0.125E+02 -.966E+01
   -.124E+02 0.118E+03 0.908E+02   0.125E+02 -.130E+03 -.882E+02   -.864E-01 0.996E+01 -.219E+01
   0.203E+03 0.579E+02 -.844E+02   -.214E+03 -.727E+02 0.958E+02   0.862E+01 0.125E+02 -.966E+01
   0.124E+02 0.118E+03 0.908E+02   -.125E+02 -.130E+03 -.882E+02   0.864E-01 0.996E+01 -.219E+01
   0.299E-02 0.982E+02 0.365E+02   -.258E-10 -.110E+03 -.306E+02   0.000E+00 0.100E+02 -.498E+01
   0.357E-03 0.122E+03 0.754E+02   -.236E-10 -.135E+03 -.724E+02   0.000E+00 0.104E+02 -.254E+01
   -.232E+02 -.132E+03 -.339E+02   0.246E+02 0.143E+03 0.282E+02   -.126E+01 -.970E+01 0.480E+01
   -.739E+01 -.131E+03 -.786E+02   0.721E+01 0.142E+03 0.759E+02   0.197E+00 -.928E+01 0.232E+01
   -.578E-03 -.164E+03 0.571E+01   -.291E-10 0.177E+03 -.109E+02   0.000E+00 -.110E+02 0.435E+01
   -.165E-02 -.160E+03 -.106E+03   -.287E-10 0.171E+03 0.103E+03   0.000E+00 -.909E+01 0.246E+01
   0.232E+02 -.132E+03 -.339E+02   -.246E+02 0.143E+03 0.282E+02   0.126E+01 -.970E+01 0.480E+01
   0.739E+01 -.131E+03 -.786E+02   -.721E+01 0.142E+03 0.759E+02   -.197E+00 -.928E+01 0.232E+01
 -----------------------------------------------------------------------------------------------
   0.179E-01 -.135E+02 -.668E+00   -.300E-12 0.250E-11 -.554E-12   0.278E-15 0.109E+02 0.629E+00
 
 
 POSITION                                       TOTAL-FORCE (eV/Angst)
 -----------------------------------------------------------------------------------
      0.00133      7.68095     -1.78469        -0.000026      0.049426      0.064262
      0.00303      6.26416     -7.40537        -0.009339      0.136630     -0.044647
      3.04757      7.68386     -1.78947         0.000000      0.080517      0.081007
      3.04757      6.26234     -7.39907         0.000000      0.154482     -0.075937
      6.09381      7.68095     -1.78469         0.000026      0.049426      0.064262
      6.09211      6.26416     -7.40537         0.009339      0.136630     -0.044647
      1.52869      9.41161     -3.89092         0.004852     -0.048320      0.000641
      1.52943      7.98496     -9.52236         0.007741     -0.033023     -0.064731
      4.56644      9.41161     -3.89092        -0.004852     -0.048320      0.000641
      4.56571      7.98496     -9.52236        -0.007741     -0.033023     -0.064731
      7.61892      9.39642     -3.88969         0.000000     -0.057161     -0.002351
      7.61892      7.98011     -9.51913         0.000000     -0.040003     -0.058312
      1.55881      6.13930     -4.47443        -0.243880      0.118549      0.024962
      1.52254      4.78389    -10.14854         0.026893     -0.057857     -0.011576
      4.53632      6.13930     -4.47443         0.243880      0.118549      0.024962
      4.57259      4.78389    -10.14854        -0.026893     -0.057857     -0.011576
      7.61892      6.14868     -4.48736         0.000000      0.024448      0.018893
      7.61892      4.79191    -10.15784         0.000000     -0.048427     -0.009794
      0.00332     10.88209     -1.14582         0.031152      0.112102      0.006159
      0.00201      9.49804     -6.81254         0.000160      0.035591     -0.034383
      3.04757     10.91107     -1.16134         0.000000      0.115485      0.004123
      3.04757      9.50475     -6.81027         0.000000      0.029665     -0.039473
      6.09181     10.88209     -1.14582        -0.031152      0.112102      0.006159
      6.09312      9.49804     -6.81254        -0.000160      0.035591     -0.034383
      1.55273      1.56018     -1.81977         0.061848     -0.005343      0.113077
      1.52605      0.14313     -7.43577        -0.021864     -0.015693     -0.063834
      4.54240      1.56018     -1.81977        -0.061848     -0.005343      0.113077
      4.56908      0.14313     -7.43577         0.021864     -0.015693     -0.063834
      7.61892      1.51031     -1.78040         0.000000      0.076515      0.095487
      7.61892      0.13175     -7.45638         0.000000      0.025932     -0.025676
      0.04260      3.23363     -3.85305        -0.300894     -0.021390      0.425229
      0.00199      1.87143     -9.53899        -0.016841     -0.075107     -0.112612
      3.04757      1.86483     -9.53623         0.000000     -0.044628     -0.126761
      6.05254      3.23363     -3.85305         0.300894     -0.021390      0.425229
      6.09315      1.87143     -9.53899         0.016841     -0.075107     -0.112612
      0.00562      0.03541     -4.49764        -0.048104     -0.135292      0.071768
      0.00135     -1.38374    -10.14715         0.007758     -0.043336     -0.068938
      3.04757      0.12696     -4.48726         0.000000     -0.225466      0.166951
      3.04757     -1.37025    -10.15330         0.000000     -0.027164     -0.060161
      6.08952      0.03541     -4.49764         0.048104     -0.135292      0.071768
      6.09378     -1.38374    -10.14715        -0.007758     -0.043336     -0.068938
      1.51554      4.74069     -1.18831        -0.019736      0.077620      0.064332
      1.52026      3.32362     -6.75307        -0.009714      0.103789     -0.509769
      4.57959      4.74069     -1.18831         0.019736      0.077620      0.064332
      4.57487      3.32362     -6.75307         0.009714      0.103789     -0.509769
      7.61892      4.74809     -1.17716         0.000000      0.002004      0.007561
      7.61892      3.35432     -6.78177         0.000000     -0.017092     -0.062162
      1.51379     11.89713     -1.39785         0.006133     -0.300524      0.082700
      1.52283     10.50142     -7.10924         0.011935     -0.175005      0.157601
      4.58134     11.89713     -1.39785        -0.006133     -0.300524      0.082700
      4.57231     10.50142     -7.10924        -0.011935     -0.175005      0.157601
      7.61892     11.86707     -1.41525         0.000000     -0.233336      0.101997
      7.61892     10.49245     -7.11541         0.000000     -0.169918      0.159536
      0.00916      5.15846     -4.22243         0.076373      0.118527     -0.156786
      9.13880      3.78846     -9.86865         0.003062      0.198538     -0.109727
      3.04757      5.12657     -4.20364         0.000000      0.550889     -0.207385
      3.04757      3.78636     -9.85881         0.000000      0.197045     -0.114289
      6.08598      5.15846     -4.22243        -0.076373      0.118527     -0.156786
      6.09904      3.78846     -9.86865        -0.003062      0.198538     -0.109727
      1.52046      7.50806     -3.17334         0.055307     -0.121861     -0.159052
      1.53354      6.09278     -8.81005        -0.003842     -0.043822     -0.073264
      4.57468      7.50806     -3.17334        -0.055307     -0.121861     -0.159052
      4.56160      6.09278     -8.81005         0.003842     -0.043822     -0.073264
      7.61892      7.50021     -3.18222         0.000000     -0.068838     -0.136755
      7.61892      6.09636     -8.81310         0.000000     -0.046213     -0.088778
      0.00362      9.57343     -2.48912         0.005270      0.000669      0.095077
      0.00362      8.15981     -8.12276        -0.000385      0.024757      0.155027
      3.04757      9.58089     -2.48680         0.000000     -0.005823      0.072081
      3.04757      8.16333     -8.12095         0.000000      0.028866      0.144382
      6.09151      9.57343     -2.48912        -0.005270      0.000669      0.095077
      6.09151      8.15981     -8.12276         0.000385      0.024757      0.155027
      0.00247      9.00161     -5.04339         0.000131      0.432652     -0.092196
      0.00283      7.58673    -10.67575        -0.007737      0.419862     -0.043248
      3.04757      8.99004     -5.04493         0.000000      0.432712     -0.082910
      3.04757      7.59946    -10.68917         0.000000      0.415521     -0.015114
      6.09267      9.00161     -5.04339        -0.000131      0.432652     -0.092196
      6.09231      7.58673    -10.67575         0.007737      0.419862     -0.043248
      1.52913      8.06424     -0.61663        -0.004773     -0.421116      0.065422
      1.52239      6.66564     -6.25528         0.066017     -0.489504      0.124635
      4.56601      8.06424     -0.61663         0.004773     -0.421116      0.065422
      4.57274      6.66564     -6.25528        -0.066017     -0.489504      0.124635
      7.61892      8.08937     -0.62177         0.000000     -0.443912      0.079872
      7.61892      6.66661     -6.25826         0.000000     -0.476658      0.076987
      9.13576      5.78192     -1.43083         0.004390     -0.183311      0.073661
      0.00615      4.35401     -7.09844         0.053222     -0.248747      0.259710
      3.04757      5.74933     -1.48347         0.000000     -0.202339      0.086123
      3.04757      4.33796     -7.02383         0.000000     -0.326561      0.208117
      6.10207      5.78192     -1.43083        -0.004390     -0.183311      0.073661
      6.08899      4.35401     -7.09844        -0.053222     -0.248747      0.259710
      1.53821     -0.96341     -4.24721        -0.056392      0.216418     -0.112030
      1.52799     -2.37960     -9.84208        -0.003599      0.173933     -0.119775
      4.55693     -0.96341     -4.24721         0.056392      0.216418     -0.112030
      4.56714     -2.37960     -9.84208         0.003599      0.173933     -0.119775
      7.61892     -0.98267     -4.23852         0.000000      0.185604     -0.113846
      7.61892     -2.38686     -9.84083         0.000000      0.169998     -0.129636
      9.11112      1.30463     -3.14591         0.044715     -0.016474     -0.259767
      0.00028     -0.03638     -8.84267        -0.007272     -0.014989     -0.060490
      3.04757      1.23458     -3.04574         0.000000     -0.276479     -0.090895
      3.04757     -0.03615     -8.83612         0.000000      0.008459     -0.052443
      6.12672      1.30463     -3.14591        -0.044715     -0.016474     -0.259767
      6.09486     -0.03638     -8.84267         0.007272     -0.014989     -0.060490
      1.35016      3.39975     -2.40987        -0.240583     -0.006590      0.076599
      1.52455      2.03924     -8.14288        -0.002778      0.036359      0.247741
      4.74498      3.39975     -2.40987         0.240583     -0.006590      0.076599
      4.57058      2.03924     -8.14288         0.002778      0.036359      0.247741
      7.61892      3.41831     -2.47725         0.000000      0.064369      0.108638
      7.61892      2.03901     -8.13343         0.000000      0.043526      0.170563
      1.35020      2.60568     -5.09566        -0.051926      0.428352     -0.248134
      1.52590      1.50810    -10.69836        -0.009856      0.396944     -0.029664
      4.74493      2.60568     -5.09566         0.051926      0.428352     -0.248134
      4.56924      1.50810    -10.69836         0.009856      0.396944     -0.029664
      7.61892      2.85512     -5.01506         0.000000      0.412137     -0.179663
      7.61892      1.48875    -10.69639         0.000000      0.432433     -0.033416
      9.13770      1.87544     -0.60456        -0.028326     -0.364559      0.094935
      9.13079      0.49146     -6.28945         0.085232     -0.279168      0.117380
      3.04757      1.95567     -0.59084         0.000000     -0.426728      0.118526
      3.04757      0.51877     -6.28977         0.000000     -0.273242      0.112321
      6.10014      1.87544     -0.60456         0.028326     -0.364559      0.094935
      6.10705      0.49146     -6.28945        -0.085232     -0.279168      0.117380
 -----------------------------------------------------------------------------------
    total drift:                                0.017949      0.022591     -0.064807


--------------------------------------------------------------------------------------------------------



  FREE ENERGIE OF THE ION-ELECTRON SYSTEM (eV)
  ---------------------------------------------------
  free  energy   TOTEN  =      -968.64399381 eV

  energy  without entropy=     -968.64399373  energy(sigma->0) =     -968.64399377
 


--------------------------------------------------------------------------------------------------------


    POTLOK:  cpu time      1.9340: real time      1.9435


--------------------------------------------------------------------------------------------------------


 writing wavefunctions
     LOOP+:  cpu time  39604.3242: real time  39605.4510
    4ORBIT:  cpu time      0.0000: real time      0.0000

 total amount of memory used by VASP MPI-rank0  7417445. kBytes
=======================================================================

   base      :      30000. kBytes
   nonlr-proj:      46471. kBytes
   fftplans  :      51012. kBytes
   grid      :      90980. kBytes
   one-center:       1850. kBytes
   HF        :        129. kBytes
   wavefun   :    6967770. kBytes
   fock_wrk  :     229233. kBytes
 
  
  
 General timing and accounting informations for this job:
 ========================================================
  
                  Total CPU time used (sec):    39635.246
                            User time (sec):    39601.095
                          System time (sec):       34.150
                         Elapsed time (sec):    39638.588
  
                   Maximum memory used (kb):    13196672.
                   Average memory used (kb):          N/A
  
                          Minor page faults:     20557234
                          Major page faults:            2
                 Voluntary context switches:       737989
