 running    4 mpi-ranks, on    1 nodes
 distrk:  each k-point on    1 cores,    4 groups
 distr:  one band on    1 cores,    1 groups
 OpenACC runtime initialized ...    4 GPUs detected
 vasp.6.4.2 20Jul23 (build Nov 12 2023 22:16:35) complex                         
 POSCAR found type information on POSCAR GaO P 
 POSCAR found :  3 types and     120 ions
 scaLAPACK will be used selectively (only on CPU)
 LDA part: xc-table for Pade appr. of Perdew
 POSCAR, INCAR and KPOINTS ok, starting setup
 FFT: planning ... GRIDC
 FFT: planning ... GRID_SOFT
 FFT: planning ... GRID
 WAVECAR not read
 initial charge from wavefunction
 entering main loop
       N       E                     dE             d eps       ncg     rms          ort
DAV:   1    -0.188454762707E+05   -0.18845E+05   -0.54486E+05  5064   0.748E+03
DAV:   2    -0.633828285303E+05   -0.44537E+05   -0.43044E+05  5064   0.123E+03
DAV:   3    -0.683984145256E+05   -0.50156E+04   -0.44818E+04  5064   0.370E+02
DAV:   4    -0.691163067695E+05   -0.71789E+03   -0.63843E+03  5064   0.116E+02
DAV:   5    -0.389647088780E+05    0.30152E+05   -0.72506E+02  5064   0.562E+01
 gam= 0.000 g(H,U,f)=  0.833E+05 0.193E+05 0.215E+01 ort(H,U,f) = 0.000E+00 0.000E+00 0.000E+00
SDA:   6     0.346622221271E+05    0.73627E+05   -0.72506E+02  5064   0.103E+06 0.000E+00
 gam= 0.000 trial= 0.400  step= 0.516 mean= 0.400
 gam= 1.059 g(H,U,f)=  0.546E+05 0.525E+05 0.151E+04 ort(H,U,f) =-0.123E+05-0.278E+05-0.802E+03
CGA:   7     0.130537051267E+05   -0.21609E+05   -0.26449E+05  5064   0.109E+06-0.408E+05
 gam= 1.059 trial= 0.406  step= 0.229 mean= 0.406
 gam= 0.364 g(H,U,f)=  0.323E+05 0.723E+04 0.694E+02 ort(H,U,f) = 0.394E+04 0.284E+04 0.295E+02
CGA:   8     0.917740888194E+04   -0.38763E+04   -0.74736E+04  5064   0.396E+05 0.680E+04
 gam= 0.364 trial= 0.397  step= 0.193 mean= 0.397
 gam= 0.450 g(H,U,f)=  0.150E+05 0.271E+04 0.671E+02 ort(H,U,f) = 0.484E+04 0.203E+04 0.156E+03
CGA:   9     0.542911238878E+04   -0.37483E+04   -0.40617E+04  5064   0.178E+05 0.702E+04
 gam= 0.450 trial= 0.387  step= 0.221 mean= 0.387
 gam= 0.988 g(H,U,f)=  0.136E+05 0.392E+04 0.891E+02 ort(H,U,f) = 0.466E+04-0.227E+04-0.996E+02
CGA:  10     0.365143277513E+04   -0.17777E+04   -0.23169E+04  5064   0.176E+05 0.229E+04
 gam= 0.988 trial= 0.378  step= 0.229 mean= 0.378
 gam= 0.401 g(H,U,f)=  0.577E+04 0.126E+04 0.221E+02 ort(H,U,f) = 0.110E+04 0.654E+03 0.156E+02
CGA:  11     0.195161983233E+04   -0.16998E+04   -0.22715E+04  5064   0.705E+04 0.177E+04
 gam= 0.401 trial= 0.371  step= 0.297 mean= 0.371
 gam= 0.559 g(H,U,f)=  0.311E+04 0.789E+03 0.379E+02 ort(H,U,f) = 0.611E+03 0.307E+03 0.145E+02
CGA:  12     0.921601269722E+03   -0.10300E+04   -0.11523E+04  5064   0.394E+04 0.932E+03
 gam= 0.559 trial= 0.367  step= 0.347 mean= 0.367
 gam= 0.450 g(H,U,f)=  0.159E+04 0.185E+03 0.935E-01 ort(H,U,f) = 0.211E+03 0.282E+03 0.221E+00
CGA:  13     0.160685310528E+03   -0.76092E+03   -0.77269E+03  5064   0.177E+04 0.494E+03
 gam= 0.450 trial= 0.366  step= 0.538 mean= 0.366
 gam= 0.579 g(H,U,f)=  0.879E+03 0.144E+03 0.185E+01 ort(H,U,f) =-0.226E+03 0.284E+03-0.799E+01
CGA:  14    -0.385515103122E+03   -0.54620E+03   -0.53577E+03  5064   0.103E+04 0.499E+02
 gam= 0.579 trial= 0.375  step= 0.517 mean= 0.375
 gam= 0.564 g(H,U,f)=  0.501E+03 0.754E+02 0.161E+01 ort(H,U,f) =-0.145E+03 0.738E+02 0.507E+01
CGA:  15    -0.654439941804E+03   -0.26892E+03   -0.27231E+03  5064   0.578E+03-0.657E+02
 gam= 0.564 trial= 0.382  step= 0.388 mean= 0.382
 gam= 0.624 g(H,U,f)=  0.285E+03 0.755E+02 0.210E+00 ort(H,U,f) = 0.600E+02-0.755E+02-0.121E-01
CGA:  16    -0.759252041503E+03   -0.10481E+03   -0.10487E+03  5064   0.361E+03-0.155E+02
 gam= 0.624 trial= 0.382  step= 0.366 mean= 0.382
 gam= 0.609 g(H,U,f)=  0.147E+03 0.711E+02 0.169E+01 ort(H,U,f) = 0.338E+02-0.404E+02 0.279E+01
CGA:  17    -0.823479115876E+03   -0.64227E+02   -0.64187E+02  5064   0.220E+03-0.389E+01
 gam= 0.609 trial= 0.381  step= 0.364 mean= 0.381
 gam= 0.621 g(H,U,f)=  0.947E+02 0.411E+02 0.701E+00 ort(H,U,f) =-0.493E+01 0.114E+02-0.299E+00
CGA:  18    -0.862855648471E+03   -0.39377E+02   -0.39488E+02  5064   0.136E+03 0.616E+01
 gam= 0.621 trial= 0.380  step= 0.414 mean= 0.380
 gam= 0.658 g(H,U,f)=  0.671E+02 0.222E+02 0.432E+00 ort(H,U,f) =-0.161E+02 0.215E+02-0.414E+00
CGA:  19    -0.891983550950E+03   -0.29128E+02   -0.29014E+02  5064   0.898E+02 0.502E+01
 gam= 0.658 trial= 0.382  step= 0.450 mean= 0.382
 gam= 0.650 g(H,U,f)=  0.451E+02 0.133E+02 0.286E-02 ort(H,U,f) =-0.139E+02 0.173E+02-0.333E-01
CGA:  20    -0.913052350481E+03   -0.21069E+02   -0.20934E+02  5064   0.584E+02 0.334E+01
 gam= 0.650 trial= 0.386  step= 0.458 mean= 0.386
 gam= 0.628 g(H,U,f)=  0.289E+02 0.778E+01 0.320E-03 ort(H,U,f) =-0.991E+01 0.111E+02 0.107E-02
CGA:  21    -0.926951184816E+03   -0.13899E+02   -0.13862E+02  5064   0.366E+02 0.121E+01
 gam= 0.628 trial= 0.389  step= 0.455 mean= 0.389
 gam= 0.635 g(H,U,f)=  0.185E+02 0.473E+01 0.297E-02 ort(H,U,f) =-0.408E+01 0.478E+01-0.129E-01
CGA:  22    -0.935482477244E+03   -0.85313E+01   -0.85137E+01  5064   0.233E+02 0.690E+00
 gam= 0.635 trial= 0.392  step= 0.443 mean= 0.392
 gam= 0.590 g(H,U,f)=  0.106E+02 0.315E+01 0.298E-02 ort(H,U,f) =-0.851E+00 0.142E+01-0.597E-02
CGA:  23    -0.940746844805E+03   -0.52644E+01   -0.52496E+01  5064   0.137E+02 0.563E+00
 gam= 0.590 trial= 0.395  step= 0.449 mean= 0.395
 gam= 0.595 g(H,U,f)=  0.610E+01 0.206E+01 0.114E-01 ort(H,U,f) =-0.270E+00 0.625E+00 0.898E-02
CGA:  24    -0.943917010491E+03   -0.31702E+01   -0.31579E+01  5064   0.818E+01 0.364E+00
 gam= 0.595 trial= 0.398  step= 0.465 mean= 0.398
 gam= 0.655 g(H,U,f)=  0.396E+01 0.139E+01 0.900E-02 ort(H,U,f) =-0.445E+00 0.577E+00 0.154E-01
CGA:  25    -0.945876871143E+03   -0.19599E+01   -0.19536E+01  5064   0.535E+01 0.147E+00
 gam= 0.655 trial= 0.401  step= 0.469 mean= 0.401
 gam= 0.710 g(H,U,f)=  0.286E+01 0.927E+00 0.731E-02 ort(H,U,f) =-0.575E+00 0.606E+00 0.168E-01
CGA:  26    -0.947157886072E+03   -0.12810E+01   -0.12790E+01  5064   0.380E+01 0.485E-01
 gam= 0.710 trial= 0.404  step= 0.444 mean= 0.404
 gam= 0.618 g(H,U,f)=  0.175E+01 0.587E+00 0.557E-02 ort(H,U,f) =-0.528E+00 0.505E+00 0.173E-01
CGA:  27    -0.948007890184E+03   -0.85000E+00   -0.85042E+00  5064   0.235E+01-0.569E-02
 gam= 0.618 trial= 0.406  step= 0.445 mean= 0.406
 gam= 0.627 g(H,U,f)=  0.111E+01 0.358E+00 0.431E-02 ort(H,U,f) =-0.359E+00 0.343E+00 0.149E-01
CGA:  28    -0.948529122029E+03   -0.52123E+00   -0.52143E+00  5064   0.147E+01-0.187E-02
 gam= 0.627 trial= 0.408  step= 0.487 mean= 0.408
 gam= 0.649 g(H,U,f)=  0.748E+00 0.204E+00 0.396E-02 ort(H,U,f) =-0.172E+00 0.162E+00 0.117E-01
CGA:  29    -0.948887098281E+03   -0.35798E+00   -0.35799E+00  5064   0.956E+00 0.208E-02
 gam= 0.649 trial= 0.412  step= 0.499 mean= 0.412
 gam= 0.596 g(H,U,f)=  0.434E+00 0.133E+00 0.284E-02 ort(H,U,f) =-0.471E-01 0.468E-01 0.494E-02
CGA:  30    -0.949125951852E+03   -0.23885E+00   -0.23863E+00  5064   0.570E+00 0.471E-02
 gam= 0.596 trial= 0.417  step= 0.504 mean= 0.417
 gam= 0.655 g(H,U,f)=  0.274E+00 0.976E-01 0.140E-02 ort(H,U,f) =-0.295E-01 0.316E-01 0.130E-02
CGA:  31    -0.949270542595E+03   -0.14459E+00   -0.14441E+00  5064   0.373E+00 0.341E-02
 gam= 0.655 trial= 0.421  step= 0.509 mean= 0.421
 gam= 0.741 g(H,U,f)=  0.208E+00 0.682E-01 0.622E-03 ort(H,U,f) =-0.326E-01 0.338E-01 0.516E-03
CGA:  32    -0.949366204461E+03   -0.95662E-01   -0.95574E-01  5064   0.277E+00 0.164E-02
 gam= 0.741 trial= 0.425  step= 0.471 mean= 0.425
 gam= 0.665 g(H,U,f)=  0.139E+00 0.451E-01 0.305E-03 ort(H,U,f) =-0.255E-01 0.256E-01 0.333E-03
CGA:  33    -0.949431698957E+03   -0.65494E-01   -0.65483E-01  5064   0.184E+00 0.504E-03
 gam= 0.665 trial= 0.428  step= 0.428 mean= 0.428
 gam= 0.587 g(H,U,f)=  0.768E-01 0.310E-01 0.158E-03 ort(H,U,f) =-0.198E-01 0.197E-01 0.298E-03
CGA:  34    -0.949471097587E+03   -0.39399E-01   -0.39399E-01  5064   0.108E+00 0.207E-03
 gam= 0.587 trial= 0.428  step= 0.493 mean= 0.428
 gam= 0.692 g(H,U,f)=  0.544E-01 0.202E-01 0.720E-04 ort(H,U,f) =-0.152E-01 0.153E-01 0.180E-03
CGA:  35    -0.949497739475E+03   -0.26642E-01   -0.26634E-01  5064   0.747E-01 0.240E-03
 gam= 0.692 trial= 0.431  step= 0.524 mean= 0.431
 gam= 0.629 g(H,U,f)=  0.355E-01 0.114E-01 0.302E-04 ort(H,U,f) =-0.820E-02 0.841E-02 0.529E-04
CGA:  36    -0.949517358509E+03   -0.19619E-01   -0.19606E-01  5064   0.470E-01 0.265E-03
 gam= 0.629 trial= 0.436  step= 0.506 mean= 0.436
 gam= 0.000 g(H,U,f)=  0.227E-01 0.657E-02 0.164E-04 ort(H,U,f) =-0.293E-02 0.308E-02-0.986E-05
SDA:  37    -0.949529291853E+03   -0.11933E-01   -0.11928E-01  5064   0.292E-01 0.137E-03
 gam= 0.000 trial= 0.439  step= 1.050 mean= 0.439
 gam= 0.389 g(H,U,f)=  0.894E-02 0.244E-02 0.574E-05 ort(H,U,f) =-0.339E-02 0.330E-02 0.884E-05
CGA:  38    -0.949544612433E+03   -0.15321E-01   -0.15347E-01  5064   0.114E-01-0.860E-04
 gam= 0.389 trial= 0.470  step= 0.809 mean= 0.470
 gam= 0.295 g(H,U,f)=  0.281E-02 0.541E-03 0.116E-05 ort(H,U,f) =-0.177E-02 0.176E-02 0.404E-05
CGA:  39    -0.949549201377E+03   -0.45889E-02   -0.45905E-02  5064   0.335E-02-0.923E-05
 gam= 0.295 trial= 0.487  step= 0.809 mean= 0.487
 gam= 0.317 g(H,U,f)=  0.970E-03 0.935E-04 0.485E-06 ort(H,U,f) =-0.319E-03 0.330E-03 0.685E-06
CGA:  40    -0.949550558818E+03   -0.13574E-02   -0.13556E-02  5064   0.106E-02 0.117E-04
 gam= 0.317 trial= 0.503  step= 0.676 mean= 0.503
 gam= 0.280 g(H,U,f)=  0.281E-03 0.166E-04 0.224E-06 ort(H,U,f) =-0.665E-04 0.589E-04 0.325E-06
CGA:  41    -0.949550918909E+03   -0.36009E-03   -0.36076E-03  5064   0.298E-03-0.733E-05
 gam= 0.280 trial= 0.511  step= 0.651 mean= 0.511
 gam= 0.260 g(H,U,f)=  0.719E-04 0.534E-05 0.106E-06 ort(H,U,f) =-0.107E-04 0.623E-05 0.192E-06
CGA:  42    -0.949551015001E+03   -0.96092E-04   -0.96388E-04  5064   0.774E-04-0.429E-05
 gam= 0.260 trial= 0.518  step= 0.759 mean= 0.518
 gam= 0.391 g(H,U,f)=  0.269E-04 0.327E-05 0.105E-06 ort(H,U,f) =-0.332E-05 0.368E-05 0.153E-06
CGA:  43    -0.949551044023E+03   -0.29022E-04   -0.28958E-04  5064   0.303E-04 0.506E-06
 gam= 0.391 trial= 0.530  step= 0.766 mean= 0.530
 gam= 0.430 g(H,U,f)=  0.108E-04 0.212E-05 0.902E-07 ort(H,U,f) =-0.303E-05 0.315E-05 0.153E-06
CGA:  44    -0.949551055718E+03   -0.11695E-04   -0.11658E-04  5064   0.130E-04 0.269E-06
 gam= 0.430 trial= 0.542  step= 0.911 mean= 0.542
 gam= 0.653 g(H,U,f)=  0.738E-05 0.106E-05 0.486E-07 ort(H,U,f) =-0.253E-05 0.229E-05 0.114E-06
CGA:  45    -0.949551061669E+03   -0.59513E-05   -0.59730E-05  5064   0.849E-05-0.125E-06
 gam= 0.653 trial= 0.561  step= 0.857 mean= 0.561
 final diagonalization
   1 F= -.94955106E+03 E0= -.94954811E+03  d E =-.589752E-02
 writing wavefunctions
Warning: ieee_invalid is signaling
Warning: ieee_divide_by_zero is signaling
Warning: ieee_underflow is signaling
Warning: ieee_inexact is signaling
FORTRAN STOP
Warning: ieee_invalid is signaling
Warning: ieee_divide_by_zero is signaling
Warning: ieee_underflow is signaling
Warning: ieee_inexact is signaling
FORTRAN STOP
Warning: ieee_invalid is signaling
Warning: ieee_divide_by_zero is signaling
Warning: ieee_underflow is signaling
Warning: ieee_inexact is signaling
FORTRAN STOP
Warning: ieee_invalid is signaling
Warning: ieee_divide_by_zero is signaling
Warning: ieee_underflow is signaling
Warning: ieee_inexact is signaling
FORTRAN STOP
