       N       E                     dE             d eps       ncg     rms          ort
DAV:   1    -0.188454762707E+05   -0.18845E+05   -0.54486E+05  5064   0.748E+03
DAV:   2    -0.633828285303E+05   -0.44537E+05   -0.43044E+05  5064   0.123E+03
DAV:   3    -0.683984145256E+05   -0.50156E+04   -0.44818E+04  5064   0.370E+02
DAV:   4    -0.691163067695E+05   -0.71789E+03   -0.63843E+03  5064   0.116E+02
DAV:   5    -0.389647088780E+05    0.30152E+05   -0.72506E+02  5064   0.562E+01
SDA:   6     0.346622221271E+05    0.73627E+05   -0.72506E+02  5064   0.103E+06 0.000E+00
CGA:   7     0.130537051267E+05   -0.21609E+05   -0.26449E+05  5064   0.109E+06-0.408E+05
CGA:   8     0.917740888194E+04   -0.38763E+04   -0.74736E+04  5064   0.396E+05 0.680E+04
CGA:   9     0.542911238878E+04   -0.37483E+04   -0.40617E+04  5064   0.178E+05 0.702E+04
CGA:  10     0.365143277513E+04   -0.17777E+04   -0.23169E+04  5064   0.176E+05 0.229E+04
CGA:  11     0.195161983233E+04   -0.16998E+04   -0.22715E+04  5064   0.705E+04 0.177E+04
CGA:  12     0.921601269722E+03   -0.10300E+04   -0.11523E+04  5064   0.394E+04 0.932E+03
CGA:  13     0.160685310528E+03   -0.76092E+03   -0.77269E+03  5064   0.177E+04 0.494E+03
CGA:  14    -0.385515103122E+03   -0.54620E+03   -0.53577E+03  5064   0.103E+04 0.499E+02
CGA:  15    -0.654439941804E+03   -0.26892E+03   -0.27231E+03  5064   0.578E+03-0.657E+02
CGA:  16    -0.759252041503E+03   -0.10481E+03   -0.10487E+03  5064   0.361E+03-0.155E+02
CGA:  17    -0.823479115876E+03   -0.64227E+02   -0.64187E+02  5064   0.220E+03-0.389E+01
CGA:  18    -0.862855648471E+03   -0.39377E+02   -0.39488E+02  5064   0.136E+03 0.616E+01
CGA:  19    -0.891983550950E+03   -0.29128E+02   -0.29014E+02  5064   0.898E+02 0.502E+01
CGA:  20    -0.913052350481E+03   -0.21069E+02   -0.20934E+02  5064   0.584E+02 0.334E+01
CGA:  21    -0.926951184816E+03   -0.13899E+02   -0.13862E+02  5064   0.366E+02 0.121E+01
CGA:  22    -0.935482477244E+03   -0.85313E+01   -0.85137E+01  5064   0.233E+02 0.690E+00
CGA:  23    -0.940746844805E+03   -0.52644E+01   -0.52496E+01  5064   0.137E+02 0.563E+00
CGA:  24    -0.943917010491E+03   -0.31702E+01   -0.31579E+01  5064   0.818E+01 0.364E+00
CGA:  25    -0.945876871143E+03   -0.19599E+01   -0.19536E+01  5064   0.535E+01 0.147E+00
CGA:  26    -0.947157886072E+03   -0.12810E+01   -0.12790E+01  5064   0.380E+01 0.485E-01
CGA:  27    -0.948007890184E+03   -0.85000E+00   -0.85042E+00  5064   0.235E+01-0.569E-02
CGA:  28    -0.948529122029E+03   -0.52123E+00   -0.52143E+00  5064   0.147E+01-0.187E-02
CGA:  29    -0.948887098281E+03   -0.35798E+00   -0.35799E+00  5064   0.956E+00 0.208E-02
CGA:  30    -0.949125951852E+03   -0.23885E+00   -0.23863E+00  5064   0.570E+00 0.471E-02
CGA:  31    -0.949270542595E+03   -0.14459E+00   -0.14441E+00  5064   0.373E+00 0.341E-02
CGA:  32    -0.949366204461E+03   -0.95662E-01   -0.95574E-01  5064   0.277E+00 0.164E-02
CGA:  33    -0.949431698957E+03   -0.65494E-01   -0.65483E-01  5064   0.184E+00 0.504E-03
CGA:  34    -0.949471097587E+03   -0.39399E-01   -0.39399E-01  5064   0.108E+00 0.207E-03
CGA:  35    -0.949497739475E+03   -0.26642E-01   -0.26634E-01  5064   0.747E-01 0.240E-03
CGA:  36    -0.949517358509E+03   -0.19619E-01   -0.19606E-01  5064   0.470E-01 0.265E-03
SDA:  37    -0.949529291853E+03   -0.11933E-01   -0.11928E-01  5064   0.292E-01 0.137E-03
CGA:  38    -0.949544612433E+03   -0.15321E-01   -0.15347E-01  5064   0.114E-01-0.860E-04
CGA:  39    -0.949549201377E+03   -0.45889E-02   -0.45905E-02  5064   0.335E-02-0.923E-05
CGA:  40    -0.949550558818E+03   -0.13574E-02   -0.13556E-02  5064   0.106E-02 0.117E-04
CGA:  41    -0.949550918909E+03   -0.36009E-03   -0.36076E-03  5064   0.298E-03-0.733E-05
CGA:  42    -0.949551015001E+03   -0.96092E-04   -0.96388E-04  5064   0.774E-04-0.429E-05
CGA:  43    -0.949551044023E+03   -0.29022E-04   -0.28958E-04  5064   0.303E-04 0.506E-06
CGA:  44    -0.949551055718E+03   -0.11695E-04   -0.11658E-04  5064   0.130E-04 0.269E-06
CGA:  45    -0.949551061669E+03   -0.59513E-05   -0.59730E-05  5064   0.849E-05-0.125E-06
   1 F= -.94955106E+03 E0= -.94954811E+03  d E =-.589752E-02
