 vasp.6.4.2 20Jul23 (build Nov 12 2023 22:16:35) complex                         
 executed on              LinuxNV date 2025.03.17  21:26:10
 running    4 mpi-ranks, on    1 nodes
 distrk:  each k-point on    1 cores,    4 groups
 distr:  one band on NCORE=   1 cores,    1 groups
 OpenACC runtime initialized ...    4 GPUs detected


--------------------------------------------------------------------------------------------------------


 INCAR:
   PREC = Normal
   ENCUT = 450
   NELM = 500
   IBRION = -1
   ISPIN = 1
   NSW = 0
   ISIF = 2
   EDIFF = 1E-5
   EDIFFG = -5E-3
   ISTART = 0
   ICHARG = 0
   ISMEAR = 0
   SIGMA = 0.05
   LWAVE = .T.
   LCHARG = .T.
   LREAL = Auto
   LPLANE = .TRUE.
   NPAR = 1
   KPAR = 4
   NCORE = 1
   ALGO = All
   LHFCALC = .TRUE.
   HSE06 = .TRUE.
   HFSCREEN = 0.2
   TIME = 0.4
   AEXX = 0.32
   LMAXFOCK = 4
   PRECFOCK = Fast

 POTCAR:    PAW_PBE Ga_d 06Jul2010                
 POTCAR:     PAW_PBE O 08Apr2002                  
 POTCAR:    PAW_PBE P 06Sep2000                   
 POTCAR:    PAW_PBE Ga_d 06Jul2010                
   SHA256 =  a60ddf36e14f00ea098d9e3914b3745f1b7105e68786148f49ae384e44b4226c Ga_d/POTCAR           
   COPYR  = (c) Copyright 06Jul2010 Georg Kresse                                                    
   COPYR  = This file is part of the software VASP. Any use, copying, and all other rights are regul
   COPYR  = If you do not have a valid VASP license, you may not use, copy or distribute this file. 
   VRHFIN =Ga: s2p1                                                                                 
   LEXCH  = PE                                                                                      
   EATOM  =  2148.8298 eV,  157.9345 Ry                                                             
                                                                                                    
   TITEL  = PAW_PBE Ga_d 06Jul2010                                                                  
   LULTRA =        F    use ultrasoft PP ?                                                          
   IUNSCR =        1    unscreen: 0-lin 1-nonlin 2-no                                               
   RPACOR =    1.700    partial core radius                                                         
   POMASS =   69.723; ZVAL   =   13.000    mass and valenz                                          
   RCORE  =    2.300    outmost cutoff radius                                                       
   RWIGS  =    2.300; RWIGS  =    1.217    wigner-seitz radius (au A)                               
   ENMAX  =  282.691; ENMIN  =  212.018 eV                                                          
   ICORE  =        3    local potential                                                             
   LCOR   =        T    correct aug charges                                                         
   LPAW   =        T    paw PP                                                                      
   EAUG   =  490.690                                                                                
   DEXC   =    0.000                                                                                
   RMAX   =    2.341    core radius for proj-oper                                                   
   RAUG   =    1.300    factor for augmentation sphere                                              
   RDEP   =    2.413    radius for radial grids                                                     
   RDEPT  =    1.856    core radius for aug-charge                                                  
                                                                                                    
   Atomic configuration                                                                             
    9 entries                                                                                       
     n  l   j            E        occ.                                                              
     1  0  0.50    -10228.7831   2.0000                                                             
     2  0  0.50     -1262.1604   2.0000                                                             
     2  1  1.50     -1098.6333   6.0000                                                             
     3  0  0.50      -148.1110   2.0000                                                             
     3  1  1.50       -98.8436   6.0000                                                             
     3  2  2.50       -19.1549  10.0000                                                             
     4  0  0.50        -8.9483   2.0000                                                             
     4  1  0.50        -2.5791   1.0000                                                             
     4  3  2.50        -2.7416   0.0000                                                             
   Description                                                                                      
     l       E           TYP  RCUT    TYP  RCUT                                                     
     2    -19.1549037     23  2.300                                                                 
     2     -5.4423304     23  2.300                                                                 
     0     -8.9483111     23  2.300                                                                 
     0     68.0291300     23  2.300                                                                 
     1     -2.5790802     23  2.100                                                                 
     1     81.6349560     23  2.300                                                                 
     3      6.8029130     23  2.300                                                                 
  local pseudopotential read in
  partial core-charges read in
  partial kinetic energy density read in
  atomic valenz-charges read in
  non local Contribution for L=            2  read in
    real space projection operators read in
  non local Contribution for L=            2  read in
    real space projection operators read in
  non local Contribution for L=            0  read in
    real space projection operators read in
  non local Contribution for L=            0  read in
    real space projection operators read in
  non local Contribution for L=            1  read in
    real space projection operators read in
  non local Contribution for L=            1  read in
    real space projection operators read in
    PAW grid and wavefunctions read in
 
   number of l-projection  operators is LMAX  =            6
   number of lm-projection operators is LMMAX =           18
 
 POTCAR:     PAW_PBE O 08Apr2002                  
   SHA256 =  818f92134a0a090dccd8ba1447fa70422a3b330e708bb4f08108d8ae51209ddf O/POTCAR              
   COPYR  = (c) Copyright 08Apr2002 Georg Kresse                                                    
   COPYR  = This file is part of the software VASP. Any use, copying, and all other rights are regul
   COPYR  = If you do not have a valid VASP license, you may not use, copy or distribute this file. 
   VRHFIN =O: s2p4                                                                                  
   LEXCH  = PE                                                                                      
   EATOM  =   432.3788 eV,   31.7789 Ry                                                             
                                                                                                    
   TITEL  = PAW_PBE O 08Apr2002                                                                     
   LULTRA =        F    use ultrasoft PP ?                                                          
   IUNSCR =        1    unscreen: 0-lin 1-nonlin 2-no                                               
   RPACOR =    1.200    partial core radius                                                         
   POMASS =   16.000; ZVAL   =    6.000    mass and valenz                                          
   RCORE  =    1.520    outmost cutoff radius                                                       
   RWIGS  =    1.550; RWIGS  =    0.820    wigner-seitz radius (au A)                               
   ENMAX  =  400.000; ENMIN  =  300.000 eV                                                          
   ICORE  =        2    local potential                                                             
   LCOR   =        T    correct aug charges                                                         
   LPAW   =        T    paw PP                                                                      
   EAUG   =  605.392                                                                                
   DEXC   =    0.000                                                                                
   RMAX   =    1.553    core radius for proj-oper                                                   
   RAUG   =    1.300    factor for augmentation sphere                                              
   RDEP   =    1.550    radius for radial grids                                                     
   RDEPT  =    1.329    core radius for aug-charge                                                  
                                                                                                    
   Atomic configuration                                                                             
    4 entries                                                                                       
     n  l   j            E        occ.                                                              
     1  0  0.50      -514.6923   2.0000                                                             
     2  0  0.50       -23.9615   2.0000                                                             
     2  1  0.50        -9.0305   4.0000                                                             
     3  2  1.50        -9.5241   0.0000                                                             
   Description                                                                                      
     l       E           TYP  RCUT    TYP  RCUT                                                     
     0    -23.9615318     23  1.200                                                                 
     0     -9.5240782     23  1.200                                                                 
     1     -9.0304911     23  1.520                                                                 
     1      8.1634956     23  1.520                                                                 
     2     -9.5240782      7  1.500                                                                 
  local pseudopotential read in
  partial core-charges read in
  partial kinetic energy density read in
  kinetic energy density of atom read in
  atomic valenz-charges read in
  non local Contribution for L=            0  read in
    real space projection operators read in
  non local Contribution for L=            0  read in
    real space projection operators read in
  non local Contribution for L=            1  read in
    real space projection operators read in
  non local Contribution for L=            1  read in
    real space projection operators read in
    PAW grid and wavefunctions read in
 
   number of l-projection  operators is LMAX  =            4
   number of lm-projection operators is LMMAX =            8
 
 POTCAR:    PAW_PBE P 06Sep2000                   
   SHA256 =  df60c54a93efe35c9e85ae94c010c75e9f6960a95d5595d7cdba4096d109af88 P/POTCAR              
   COPYR  = (c) Copyright 06Sep2000 Georg Kresse                                                    
   COPYR  = This file is part of the software VASP. Any use, copying, and all other rights are regul
   COPYR  = If you do not have a valid VASP license, you may not use, copy or distribute this file. 
   VRHFIN =P : s2p3                                                                                 
   LEXCH  = PE                                                                                      
   EATOM  =   176.0430 eV,   12.9388 Ry                                                             
                                                                                                    
   TITEL  = PAW_PBE P 06Sep2000                                                                     
   LULTRA =        F    use ultrasoft PP ?                                                          
   IUNSCR =        1    unscreen: 0-lin 1-nonlin 2-no                                               
   RPACOR =    1.500    partial core radius                                                         
   POMASS =   30.974; ZVAL   =    5.000    mass and valenz                                          
   RCORE  =    1.900    outmost cutoff radius                                                       
   RWIGS  =    2.330; RWIGS  =    1.233    wigner-seitz radius (au A)                               
   ENMAX  =  255.040; ENMIN  =  191.280 eV                                                          
   ICORE  =        2    local potential                                                             
   LCOR   =        T    correct aug charges                                                         
   LPAW   =        T    paw PP                                                                      
   EAUG   =  342.924                                                                                
   DEXC   =    0.000                                                                                
   RMAX   =    1.935    core radius for proj-oper                                                   
   RAUG   =    1.300    factor for augmentation sphere                                              
   RDEP   =    1.931    radius for radial grids                                                     
   RDEPT  =    1.794    core radius for aug-charge                                                  
                                                                                                    
   Atomic configuration                                                                             
    6 entries                                                                                       
     n  l   j            E        occ.                                                              
     1  0  0.50     -2084.0982   2.0000                                                             
     2  0  0.50      -173.9859   2.0000                                                             
     2  1  1.50      -124.4865   6.0000                                                             
     3  0  0.50       -13.9692   2.0000                                                             
     3  1  0.50        -5.5067   3.0000                                                             
     3  2  1.50        -5.4423   0.0000                                                             
   Description                                                                                      
     l       E           TYP  RCUT    TYP  RCUT                                                     
     0    -13.9691527     23  1.900                                                                 
     0    -11.7794650     23  1.900                                                                 
     1     -5.5066937     23  1.900                                                                 
     1     -0.2556953     23  1.900                                                                 
     2     -5.4423304     23  1.900                                                                 
  local pseudopotential read in
  partial core-charges read in
  partial kinetic energy density read in
  atomic valenz-charges read in
  non local Contribution for L=            0  read in
    real space projection operators read in
  non local Contribution for L=            0  read in
    real space projection operators read in
  non local Contribution for L=            1  read in
    real space projection operators read in
  non local Contribution for L=            1  read in
    real space projection operators read in
    PAW grid and wavefunctions read in
 
   number of l-projection  operators is LMAX  =            4
   number of lm-projection operators is LMMAX =            8
 
 Optimization of the real space projectors (new method)

 maximal supplied QI-value         = 16.25
 optimisation between [QCUT,QGAM] = [ 10.73, 21.61] = [ 32.22,130.83] Ry 
 Optimized for a Real-space Cutoff    1.42 Angstroem

   l    n(q)    QCUT    max X(q) W(low)/X(q) W(high)/X(q)  e(spline) 
   2      8    10.726     7.143    0.22E-03    0.16E-03    0.73E-07
   2      8    10.726     5.586    0.40E-03    0.26E-03    0.10E-06
   0      9    10.726    12.382    0.25E-04    0.21E-05    0.37E-07
   0      9    10.726     6.622    0.42E-04    0.48E-05    0.77E-07
   1      9    10.726     7.935    0.27E-03    0.13E-04    0.16E-06
   1      9    10.726     2.425    0.23E-03    0.15E-04    0.14E-06
 Optimization of the real space projectors (new method)

 maximal supplied QI-value         = 24.76
 optimisation between [QCUT,QGAM] = [ 10.64, 21.54] = [ 31.73,129.89] Ry 
 Optimized for a Real-space Cutoff    1.23 Angstroem

   l    n(q)    QCUT    max X(q) W(low)/X(q) W(high)/X(q)  e(spline) 
   0      8    10.645    20.381    0.38E-03    0.60E-03    0.15E-06
   0      8    10.645    15.268    0.40E-03    0.65E-03    0.17E-06
   1      7    10.645     5.964    0.30E-03    0.63E-03    0.18E-06
   1      7    10.645     5.382    0.24E-03    0.53E-03    0.16E-06
 Optimization of the real space projectors (new method)

 maximal supplied QI-value         = 19.84
 optimisation between [QCUT,QGAM] = [ 10.71, 21.63] = [ 32.15,130.99] Ry 
 Optimized for a Real-space Cutoff    1.19 Angstroem

   l    n(q)    QCUT    max X(q) W(low)/X(q) W(high)/X(q)  e(spline) 
   0      8    10.715   160.924    0.37E-03    0.37E-04    0.63E-07
   0      8    10.715   130.086    0.37E-03    0.36E-04    0.63E-07
   1      7    10.715    74.434    0.19E-03    0.56E-03    0.65E-07
   1      7    10.715    49.120    0.19E-03    0.55E-03    0.63E-07
  PAW_PBE Ga_d 06Jul2010                :
 energy of atom  1       EATOM=-2148.8298
 kinetic energy error for atom=    0.0038 (will be added to EATOM!!)
   PAW_PBE O 08Apr2002                  :
 energy of atom  2       EATOM= -432.3788
 kinetic energy error for atom=    0.0389 (will be added to EATOM!!)
  PAW_PBE P 06Sep2000                   :
 energy of atom  3       EATOM= -176.0430
 kinetic energy error for atom=    0.0019 (will be added to EATOM!!)
 
 
 POSCAR: Ga48 O72
  positions in direct lattice
  velocities in cartesian coordinates
 exchange correlation table for  LEXCH =        8
   RHO(1)=    0.500       N(1)  =     2000
   RHO(2)=  100.500       N(2)  =     4000
 


--------------------------------------------------------------------------------------------------------


 ion  position               nearest neighbor table
   1  0.661  0.000  0.155-  85 1.94  83 1.95  79 1.95  67 2.01  61 2.08  65 2.08
   2  0.658  0.000  0.658-  86 1.94  84 1.95  80 1.95  68 2.02  62 2.07  66 2.07
   3  0.660  0.335  0.155-  87 1.92  81 1.95  79 1.95  69 2.01  63 2.06  61 2.09
   4  0.660  0.334  0.657-  88 1.93  82 1.95  80 1.95  70 2.01  64 2.07  62 2.08
   5  0.660  0.665  0.155-  89 1.92  81 1.95  83 1.95  71 2.01  63 2.06  65 2.09
   6  0.660  0.666  0.657-  90 1.93  82 1.95  84 1.95  72 2.01  64 2.07  66 2.08
   7  0.835  0.170  0.343-  91 1.90  75 1.96  61 1.97  73 1.97  69 2.07  67 2.10
   8  0.840  0.167  0.844-  76 1.94  92 1.94  74 1.95  62 2.01  68 2.07  70 2.08
   9  0.841  0.500  0.344-  93 1.94  77 1.96  75 1.96  63 2.02  71 2.07  69 2.07
  10  0.839  0.500  0.842-  94 1.94  78 1.95  76 1.95  64 2.00  72 2.07  70 2.07
  11  0.835  0.830  0.343-  95 1.90  77 1.96  65 1.97  73 1.97  71 2.07  67 2.10
  12  0.840  0.833  0.844-  78 1.94  96 1.94  74 1.95  66 2.01  68 2.07  72 2.08
  13  0.594  0.170  0.399-  80 1.83  57 1.84  55 1.84  61 1.87
  14  0.591  0.167  0.898-  79 1.84  58 1.84  56 1.85  62 1.87
  15  0.595  0.500  0.398-  82 1.84  59 1.84  57 1.84  63 1.87
  16  0.592  0.500  0.897-  81 1.84  60 1.84  58 1.84  64 1.87
  17  0.594  0.830  0.399-  84 1.83  59 1.84  55 1.84  65 1.87
  18  0.591  0.833  0.898-  83 1.84  60 1.84  56 1.85  66 1.87
  19  0.910  0.000  0.103-  49 1.85  53 1.85  74 1.85  67 1.88
  20  0.906  0.000  0.605-  73 1.85  68 1.85  50 1.85  54 1.85
  21  0.907  0.334  0.101-  49 1.84  76 1.84  51 1.85  69 1.87
  22  0.907  0.334  0.601-  75 1.84  50 1.85  52 1.85  70 1.87
  23  0.907  0.666  0.101-  53 1.84  78 1.84  51 1.85  71 1.87
  24  0.907  0.666  0.601-  77 1.84  54 1.85  52 1.85  72 1.87
  25  0.162  0.172  0.146- 116 1.89 114 1.98  49 2.00 102 2.07  98 2.16 120 2.30
  26  0.159  0.169  0.661- 115 1.92  50 1.96 117 1.96 103 2.02  99 2.03  97 2.08
  27  0.158  0.500  0.158-  51 1.95 116 1.96 118 1.96  98 2.03 100 2.03 104 2.04
  28  0.159  0.500  0.654- 117 1.95 119 1.95  52 1.95 105 2.02 101 2.09  99 2.09
  29  0.162  0.828  0.146- 118 1.89 114 1.98  53 2.00 106 2.07 100 2.16 120 2.30
  30  0.159  0.831  0.661- 115 1.92  54 1.96 119 1.96 107 2.02 101 2.03  97 2.08
  31  0.355  0.000  0.349-  55 1.87 108 1.97 112 1.97 102 2.19 106 2.19 120 2.26
  32  0.341  0.000  0.845- 109 1.95 113 1.95  56 1.95  97 2.01 103 2.08 107 2.08
  33  0.343  0.334  0.341- 108 1.94  57 1.95 110 1.95  98 2.04 102 2.04 104 2.07
  34  0.342  0.334  0.843-  58 1.94 111 1.95 109 1.95  99 2.04 103 2.07 105 2.08
  35  0.343  0.666  0.341- 112 1.94  59 1.95 110 1.95 100 2.04 106 2.04 104 2.07
  36  0.342  0.666  0.843-  60 1.94 111 1.95 113 1.95 101 2.04 107 2.07 105 2.08
  37  0.064  0.000  0.421- 115 1.82  95 1.84  91 1.84 120 2.18
  38  0.088  0.000  0.894- 114 1.83  96 1.84  92 1.84  97 1.85
  39  0.091  0.333  0.397- 117 1.85  91 1.85  93 1.85  98 1.87
  40  0.089  0.334  0.894-  94 1.84  92 1.84 116 1.84  99 1.87
  41  0.091  0.667  0.397- 119 1.85  95 1.85  93 1.85 100 1.87
  42  0.089  0.666  0.894-  94 1.84  96 1.84 118 1.84 101 1.87
  43  0.413  0.168  0.101- 109 1.84  87 1.84  85 1.84 102 1.85
  44  0.411  0.168  0.605- 108 1.83  88 1.84  86 1.85 103 1.87
  45  0.410  0.500  0.101- 111 1.84  89 1.84  87 1.84 104 1.86
  46  0.410  0.500  0.601- 110 1.84  90 1.84  88 1.84 105 1.88
  47  0.413  0.832  0.101- 113 1.84  89 1.84  85 1.84 106 1.85
  48  0.411  0.832  0.605- 112 1.83  90 1.84  86 1.85 107 1.87
  49  0.995  0.169  0.122-  21 1.84  19 1.85  25 2.00
  50  0.995  0.167  0.629-  22 1.85  20 1.85  26 1.96
  51  0.995  0.500  0.126-  21 1.85  23 1.85  27 1.95
  52  0.996  0.500  0.626-  22 1.85  24 1.85  28 1.95
  53  0.995  0.831  0.122-  23 1.84  19 1.85  29 2.00
  54  0.995  0.833  0.629-  24 1.85  20 1.85  30 1.96
  55  0.510  0.000  0.372-  13 1.84  17 1.84  31 1.87
  56  0.504  0.000  0.873-  14 1.85  18 1.85  32 1.95
  57  0.506  0.335  0.372-  13 1.84  15 1.84  33 1.95
  58  0.504  0.334  0.873-  16 1.84  14 1.84  34 1.94
  59  0.506  0.665  0.372-  17 1.84  15 1.84  35 1.95
  60  0.504  0.666  0.873-  16 1.84  18 1.84  36 1.94
  61  0.672  0.167  0.279-  13 1.87   7 1.97   1 2.08   3 2.09
  62  0.672  0.167  0.780-  14 1.87   8 2.01   2 2.07   4 2.08
  63  0.673  0.500  0.278-  15 1.87   9 2.02   3 2.06   5 2.06
  64  0.673  0.500  0.780-  16 1.87  10 2.00   4 2.07   6 2.07
  65  0.672  0.833  0.279-  17 1.87  11 1.97   1 2.08   5 2.09
  66  0.672  0.833  0.780-  18 1.87  12 2.01   2 2.07   6 2.08
  67  0.828  0.000  0.221-  19 1.88   1 2.01  11 2.10   7 2.10
  68  0.826  0.000  0.721-  20 1.85   2 2.02  12 2.07   8 2.07
  69  0.827  0.334  0.220-  21 1.87   3 2.01   7 2.07   9 2.07
  70  0.827  0.333  0.720-  22 1.87   4 2.01  10 2.07   8 2.08
  71  0.827  0.666  0.220-  23 1.87   5 2.01  11 2.07   9 2.07
  72  0.827  0.667  0.720-  24 1.87   6 2.01  10 2.07  12 2.08
  73  0.833  0.000  0.447-  20 1.85  11 1.97   7 1.97
  74  0.832  0.000  0.947-  19 1.85  12 1.95   8 1.95
  75  0.824  0.336  0.447-  22 1.84   9 1.96   7 1.96
  76  0.830  0.334  0.945-  21 1.84   8 1.94  10 1.95
  77  0.824  0.664  0.447-  24 1.84   9 1.96  11 1.96
  78  0.830  0.666  0.945-  23 1.84  12 1.94  10 1.95
  79  0.669  0.167  0.054-  14 1.84   1 1.95   3 1.95
  80  0.669  0.166  0.555-  13 1.83   2 1.95   4 1.95
  81  0.671  0.500  0.052-  16 1.84   5 1.95   3 1.95
  82  0.668  0.500  0.555-  15 1.84   6 1.95   4 1.95
  83  0.669  0.833  0.054-  18 1.84   1 1.95   5 1.95
  84  0.669  0.834  0.555-  17 1.83   2 1.95   6 1.95
  85  0.499  0.000  0.126-  43 1.84  47 1.84   1 1.94
  86  0.496  0.000  0.628-  44 1.85  48 1.85   2 1.94
  87  0.499  0.336  0.125-  43 1.84  45 1.84   3 1.92
  88  0.498  0.334  0.630-  44 1.84  46 1.84   4 1.93
  89  0.499  0.664  0.125-  47 1.84  45 1.84   5 1.92
  90  0.498  0.666  0.630-  48 1.84  46 1.84   6 1.93
  91  0.994  0.177  0.381-  37 1.84  39 1.85   7 1.90
  92  0.002  0.167  0.872-  38 1.84  40 1.84   8 1.94
  93  0.003  0.500  0.374-  39 1.85  41 1.85   9 1.94
  94  0.002  0.500  0.871-  40 1.84  42 1.84  10 1.94
  95  0.994  0.823  0.381-  37 1.84  41 1.85  11 1.90
  96  0.002  0.833  0.872-  38 1.84  42 1.84  12 1.94
  97  0.174  0.000  0.783-  38 1.85  32 2.01  26 2.08  30 2.08
  98  0.173  0.338  0.280-  39 1.87  27 2.03  33 2.04  25 2.16
  99  0.172  0.334  0.780-  40 1.87  26 2.03  34 2.04  28 2.09
 100  0.173  0.662  0.280-  41 1.87  27 2.03  35 2.04  29 2.16
 101  0.172  0.666  0.780-  42 1.87  30 2.03  36 2.04  28 2.09
 102  0.333  0.174  0.217-  43 1.85  33 2.04  25 2.07  31 2.19
 103  0.328  0.167  0.721-  44 1.87  26 2.02  34 2.07  32 2.08
 104  0.328  0.500  0.218-  45 1.86  27 2.04  35 2.07  33 2.07
 105  0.327  0.500  0.718-  46 1.88  28 2.02  36 2.08  34 2.08
 106  0.333  0.826  0.217-  47 1.85  35 2.04  29 2.07  31 2.19
 107  0.328  0.833  0.721-  48 1.87  30 2.02  36 2.07  32 2.08
 108  0.341  0.171  0.448-  44 1.83  33 1.94  31 1.97
 109  0.334  0.168  0.946-  43 1.84  32 1.95  34 1.95
 110  0.335  0.500  0.445-  46 1.84  35 1.95  33 1.95
 111  0.333  0.500  0.945-  45 1.84  36 1.95  34 1.95
 112  0.341  0.829  0.448-  48 1.83  35 1.94  31 1.97
 113  0.334  0.832  0.946-  47 1.84  32 1.95  36 1.95
 114  0.173  0.000  0.046-  38 1.83  29 1.98  25 1.98
 115  0.164  0.000  0.564-  37 1.82  30 1.92  26 1.92
 116  0.167  0.338  0.050-  40 1.84  25 1.89  27 1.96
 117  0.168  0.332  0.554-  39 1.85  28 1.95  26 1.96
 118  0.167  0.662  0.050-  42 1.84  29 1.89  27 1.96
 119  0.168  0.668  0.554-  41 1.85  28 1.95  30 1.96
 120  0.165  0.000  0.291-  37 2.18  31 2.26  25 2.30  29 2.30
 
  LATTYP: Found a simple monoclinic cell.
 ALAT       =    11.6348202465
 B/A-ratio  =     0.7858051831
 C/A-ratio  =     1.0554931797
 COS(beta)  =    -0.2379290539
  
  Lattice vectors:
  
 A1 = (   0.0000000000,  -2.7682617730, -11.3006977184)
 A2 = (  -9.1427020537,   0.0000000000,   0.0000000000)
 A3 = (   0.0000000000,  12.2804734172,   0.0000000000)


Analysis of symmetry for initial positions (statically):
=====================================================================
 Subroutine PRICEL returns:
 Original cell was already a primitive cell.
 

 Routine SETGRP: Setting up the symmetry group for a 
 simple monoclinic supercell.


 Subroutine GETGRP returns: Found  2 space group operations
 (whereof  2 operations were pure point group operations)
 out of a pool of  4 trial point group operations.


The static configuration has the point symmetry C_1h.


Analysis of symmetry for dynamics (positions and initial velocities):
=====================================================================
 Subroutine PRICEL returns:
 Original cell was already a primitive cell.
 

 Routine SETGRP: Setting up the symmetry group for a 
 simple monoclinic supercell.


 Subroutine GETGRP returns: Found  2 space group operations
 (whereof  2 operations were pure point group operations)
 out of a pool of  4 trial point group operations.


The dynamic configuration has the point symmetry C_1h.


 Subroutine INISYM returns: Found  2 space group operations
 (whereof  2 operations are pure point group operations),
 and found     1 'primitive' translations


----------------------------------------------------------------------------------------

                                     Primitive cell                                     

  volume of cell :    1268.8052

  direct lattice vectors                    reciprocal lattice vectors
     0.000000000 12.280473417  0.000000000     0.000000000  0.081430085 -0.019947423
     9.142702054  0.000000000  0.000000000     0.109376855 -0.000000000  0.000000000
     0.000000000 -2.768261773-11.300697718     0.000000000  0.000000000 -0.088490111

  length of vectors
    12.280473417  9.142702054 11.634820246     0.083837691  0.109376855  0.088490111

  position of ions in fractional coordinates (direct lattice)
     0.660831387  0.000000000  0.155245475
     0.658252042  0.000000000  0.657733327
     0.660102450  0.335045314  0.154892472
     0.659714788  0.333695663  0.656879472
     0.660102450  0.664954686  0.154892472
     0.659714788  0.666304337  0.656879472
     0.834764327  0.169892795  0.343441913
     0.839516401  0.166898412  0.844498280
     0.840713076  0.500000000  0.343770780
     0.839446454  0.500000000  0.842134981
     0.834764327  0.830107205  0.343441913
     0.839516401  0.833101588  0.844498280
     0.593694342  0.169707751  0.399014893
     0.591161637  0.166772717  0.897814090
     0.594784196  0.500000000  0.397781808
     0.591868774  0.500000000  0.896952924
     0.593694342  0.830292249  0.399014893
     0.591161637  0.833227283  0.897814090
     0.909869526  0.000000000  0.103445908
     0.906420966  0.000000000  0.605209476
     0.906594401  0.334294146  0.101236677
     0.907280134  0.333742394  0.600924358
     0.906594401  0.665705854  0.101236677
     0.907280134  0.666257606  0.600924358
     0.161542933  0.172313258  0.145521211
     0.158862751  0.168786252  0.661127731
     0.157989947  0.500000000  0.158096739
     0.159074313  0.500000000  0.653683919
     0.161542933  0.827686742  0.145521211
     0.158862751  0.831213748  0.661127731
     0.354651348  0.000000000  0.348529843
     0.341198774  0.000000000  0.844991010
     0.343132704  0.334482342  0.341437909
     0.342037180  0.334036198  0.843032810
     0.343132704  0.665517658  0.341437909
     0.342037180  0.665963802  0.843032810
     0.063891990  0.000000000  0.421223819
     0.087996097  0.000000000  0.894367630
     0.091412847  0.333285919  0.396605622
     0.088633086  0.334197363  0.894385266
     0.091412847  0.666714081  0.396605622
     0.088633086  0.665802637  0.894385266
     0.413482800  0.167987580  0.100929189
     0.410632062  0.168288276  0.605483733
     0.409601581  0.500000000  0.101419225
     0.409945753  0.500000000  0.601468127
     0.413482800  0.832012420  0.100929189
     0.410632062  0.831711724  0.605483733
     0.994687417  0.169198666  0.121707165
     0.994812786  0.166762687  0.628586000
     0.995147272  0.500000000  0.126038016
     0.995948855  0.500000000  0.625597631
     0.994687417  0.830801334  0.121707165
     0.994812786  0.833237313  0.628586000
     0.510324880  0.000000000  0.372008923
     0.503907975  0.000000000  0.872828504
     0.506334084  0.334901726  0.372153523
     0.504331081  0.333698165  0.872753511
     0.506334084  0.665098274  0.372153523
     0.504331081  0.666301835  0.872753511
     0.671517363  0.166668687  0.279095131
     0.671956765  0.166598135  0.780484265
     0.672787728  0.500000000  0.278254944
     0.672551357  0.500000000  0.779813825
     0.671517363  0.833331313  0.279095131
     0.671956765  0.833401865  0.780484265
     0.828149459  0.000000000  0.220701522
     0.826228236  0.000000000  0.721484533
     0.826848014  0.334395934  0.219534767
     0.827307795  0.333097486  0.719551352
     0.826848014  0.665604066  0.219534767
     0.827307795  0.666902514  0.719551352
     0.833019810  0.000000000  0.446999961
     0.831627080  0.000000000  0.946522482
     0.824246639  0.336264269  0.446561207
     0.830023302  0.334304766  0.944707500
     0.824246639  0.663735731  0.446561207
     0.830023302  0.665695234  0.944707500
     0.669362624  0.167082347  0.053818804
     0.668794827  0.166116612  0.555416228
     0.671190349  0.500000000  0.052349819
     0.668159688  0.500000000  0.555038515
     0.669362624  0.832917653  0.053818804
     0.668794827  0.833883388  0.555416228
     0.498943279  0.000000000  0.125826279
     0.496343336  0.000000000  0.627841674
     0.499208933  0.335585195  0.124655646
     0.498045000  0.334396295  0.629667489
     0.499208933  0.664414805  0.124655646
     0.498045000  0.665603705  0.629667489
     0.993609450  0.176952622  0.381357933
     0.002038293  0.167363382  0.871914823
     0.003050738  0.500000000  0.373714702
     0.001589900  0.500000000  0.870733011
     0.993609450  0.823047378  0.381357933
     0.002038293  0.832636618  0.871914823
     0.173655802  0.000000000  0.783305752
     0.173231856  0.338052710  0.280402655
     0.172371691  0.334280671  0.779950232
     0.173231856  0.661947290  0.280402655
     0.172371691  0.665719329  0.779950232
     0.332768393  0.174480145  0.216669779
     0.327781499  0.167063415  0.720632060
     0.328101527  0.500000000  0.217728432
     0.327241679  0.500000000  0.718196165
     0.332768393  0.825519855  0.216669779
     0.327781499  0.832936585  0.720632060
     0.341190908  0.170981751  0.447568661
     0.334133046  0.168136774  0.945573120
     0.334517477  0.500000000  0.444975153
     0.332550328  0.500000000  0.944815094
     0.341190908  0.829018249  0.447568661
     0.334133046  0.831863226  0.945573120
     0.173103602  0.000000000  0.046250060
     0.164378270  0.000000000  0.563912102
     0.167476307  0.337923734  0.050364162
     0.168121832  0.331696923  0.553764647
     0.167476307  0.662076266  0.050364162
     0.168121832  0.668303077  0.553764647
     0.165415649  0.000000000  0.290775338

  ion indices of the primitive-cell ions
   primitive index   ion index
                 1           1
                 2           2
                 3           3
                 4           4
                 5           5
                 6           6
                 7           7
                 8           8
                 9           9
                10          10
                11          11
                12          12
                13          13
                14          14
                15          15
                16          16
                17          17
                18          18
                19          19
                20          20
                21          21
                22          22
                23          23
                24          24
                25          25
                26          26
                27          27
                28          28
                29          29
                30          30
                31          31
                32          32
                33          33
                34          34
                35          35
                36          36
                37          37
                38          38
                39          39
                40          40
                41          41
                42          42
                43          43
                44          44
                45          45
                46          46
                47          47
                48          48
                49          49
                50          50
                51          51
                52          52
                53          53
                54          54
                55          55
                56          56
                57          57
                58          58
                59          59
                60          60
                61          61
                62          62
                63          63
                64          64
                65          65
                66          66
                67          67
                68          68
                69          69
                70          70
                71          71
                72          72
                73          73
                74          74
                75          75
                76          76
                77          77
                78          78
                79          79
                80          80
                81          81
                82          82
                83          83
                84          84
                85          85
                86          86
                87          87
                88          88
                89          89
                90          90
                91          91
                92          92
                93          93
                94          94
                95          95
                96          96
                97          97
                98          98
                99          99
               100         100
               101         101
               102         102
               103         103
               104         104
               105         105
               106         106
               107         107
               108         108
               109         109
               110         110
               111         111
               112         112
               113         113
               114         114
               115         115
               116         116
               117         117
               118         118
               119         119
               120         120

----------------------------------------------------------------------------------------

 
 
 KPOINTS: Automatic mesh                          

Automatic generation of k-mesh.
 Grid dimensions read from file:
 generate k-points for:    2    2    2

 Generating k-lattice:

  Cartesian coordinates                     Fractional coordinates (reciprocal lattice)
     0.000000000  0.040715043 -0.009973711     0.500000000  0.000000000  0.000000000
     0.054688428 -0.000000000  0.000000000     0.000000000  0.500000000  0.000000000
     0.000000000  0.000000000 -0.044245056     0.000000000  0.000000000  0.500000000

  Length of vectors
     0.041918846  0.054688428  0.044245056

  Shift w.r.t. Gamma in fractional coordinates (k-lattice)
     0.000000000  0.000000000  0.000000000

 
 Subroutine IBZKPT returns following result:
 ===========================================
 
 Found      8 irreducible k-points:
 
 Following reciprocal coordinates:
            Coordinates               Weight
  0.000000  0.000000  0.000000      1.000000
  0.500000  0.000000  0.000000      1.000000
  0.000000  0.500000  0.000000      1.000000
  0.500000  0.500000  0.000000      1.000000
  0.000000  0.000000  0.500000      1.000000
  0.500000  0.000000  0.500000      1.000000
  0.000000  0.500000  0.500000      1.000000
  0.500000  0.500000  0.500000      1.000000
 
 Following cartesian coordinates:
            Coordinates               Weight
  0.000000  0.000000 -0.000000      1.000000
  0.000000  0.040715 -0.009974      1.000000
  0.054688  0.000000 -0.000000      1.000000
  0.054688  0.040715 -0.009974      1.000000
  0.000000  0.000000 -0.044245      1.000000
  0.000000  0.040715 -0.054219      1.000000
  0.054688  0.000000 -0.044245      1.000000
  0.054688  0.040715 -0.054219      1.000000
 
 
 Subroutine IBZKPT_HF returns following result:
 ==============================================
 
 Found      8 k-points in 1st BZ
 the following      8 k-points will be used (e.g. in the exchange kernel)
 Following reciprocal coordinates:   # in IRBZ
  0.000000  0.000000  0.000000    0.12500000   1 t-inv F
  0.500000  0.000000  0.000000    0.12500000   2 t-inv F
  0.000000  0.500000  0.000000    0.12500000   3 t-inv F
  0.500000  0.500000  0.000000    0.12500000   4 t-inv F
  0.000000  0.000000  0.500000    0.12500000   5 t-inv F
  0.500000  0.000000  0.500000    0.12500000   6 t-inv F
  0.000000  0.500000  0.500000    0.12500000   7 t-inv F
  0.500000  0.500000  0.500000    0.12500000   8 t-inv F


--------------------------------------------------------------------------------------------------------




 Dimension of arrays:
   k-points           NKPTS =      8   k-points in BZ     NKDIM =      8   number of bands    NBANDS=    633
   number of dos      NEDOS =    301   number of ions     NIONS =    120
   non local maximal  LDIM  =      6   non local SUM 2l+1 LMDIM =     18
   total plane-waves  NPLWV = 184320
   max r-space proj   IRMAX =   1800   max aug-charges    IRDMAX=   5704
   dimension x,y,z NGX =    64 NGY =   48 NGZ =   60
   dimension x,y,z NGXF=   128 NGYF=   96 NGZF=  120
   support grid    NGXF=   128 NGYF=   96 NGZF=  120
   ions per type =              48  71   1
   NGX,Y,Z   is equivalent  to a cutoff of   8.66,  8.73,  8.57 a.u.
   NGXF,Y,Z  is equivalent  to a cutoff of  17.33, 17.46, 17.15 a.u.

 SYSTEM =  unknown system                          
 POSCAR =  Ga48 O72                                

 Startparameter for this run:
   NWRITE =      2    write-flag & timer
   PREC   = normal    normal or accurate (medium, high low for compatibility)
   ISTART =      0    job   : 0-new  1-cont  2-samecut
   ICHARG =      0    charge: 1-file 2-atom 10-const
   ISPIN  =      1    spin polarized calculation?
   LNONCOLLINEAR =      F non collinear calculations
   LSORBIT =      F    spin-orbit coupling
   INIWAV =      1    electr: 0-lowe 1-rand  2-diag
   LASPH  =      F    aspherical Exc in radial PAW
 Electronic Relaxation 1
   ENCUT  =  450.0 eV  33.07 Ry    5.75 a.u.  21.24 15.81 20.12*2*pi/ulx,y,z
   ENINI  =  450.0     initial cutoff
   ENAUG  =  605.4 eV  augmentation charge cutoff
   NELM   =    500;   NELMIN=  2; NELMDL= -5     # of ELM steps 
   EDIFF  = 0.1E-04   stopping-criterion for ELM
   LREAL  =      T    real-space projection
   NLSPLINE    = F    spline interpolate recip. space projectors
   LCOMPAT=      F    compatible to vasp.4.4
   GGA_COMPAT  = T    GGA compatible to vasp.4.4-vasp.4.6
   LMAXPAW     = -100 max onsite density
   LMAXMIX     =    2 max onsite mixed and CHGCAR
   VOSKOWN=      0    Vosko Wilk Nusair interpolation
   ROPT   =   -0.00050  -0.00050  -0.00050
 Ionic relaxation
   EDIFFG = -.5E-02   stopping-criterion for IOM
   NSW    =      0    number of steps for IOM
   NBLOCK =      1;   KBLOCK =      1    inner block; outer block 
   IBRION =     -1    ionic relax: 0-MD 1-quasi-New 2-CG
   NFREE  =      0    steps in history (QN), initial steepest desc. (CG)
   ISIF   =      2    stress and relaxation
   IWAVPR =     10    prediction:  0-non 1-charg 2-wave 3-comb
   ISYM   =      3    0-nonsym 1-usesym 2-fastsym
   LCORR  =      T    Harris-Foulkes like correction to forces

   POTIM  = 0.5000    time-step for ionic-motion
   TEIN   =    0.0    initial temperature
   TEBEG  =    0.0;   TEEND  =   0.0 temperature during run
   SMASS  =  -3.00    Nose mass-parameter (am)
   estimated Nose-frequenzy (Omega)   =  0.10E-29 period in steps = 0.13E+47 mass=  -0.345E-26a.u.
   SCALEE = 1.0000    scale energy and forces
   NPACO  =    256;   APACO  = 10.0  distance and # of slots for P.C.
   PSTRESS=    0.0 pullay stress

  Mass of Ions in am
   POMASS =  69.72 16.00 30.97
  Ionic Valenz
   ZVAL   =  13.00  6.00  5.00
  Atomic Wigner-Seitz radii
   RWIGS  =  -1.00 -1.00 -1.00
  virtual crystal weights 
   VCA    =   1.00  1.00  1.00
   NELECT =    1055.0000    total number of electrons
   NUPDOWN=      -1.0000    fix difference up-down

 DOS related values:
   EMIN   =  10.00;   EMAX   =-10.00  energy-range for DOS
   EFERMI =   0.00;   METHOD = LEGACY      
   ISMEAR =     0;   SIGMA  =   0.05  broadening in eV -4-tet -1-fermi 0-gaus

 Electronic relaxation 2 (details)
   IALGO  =     58    algorithm
   LDIAG  =      T    sub-space diagonalisation (order eigenvalues)
   LSUBROT=      F    optimize rotation matrix (better conditioning)
   TURBO    =      0    0=normal 1=particle mesh
   IRESTART =      0    0=no restart 2=restart with 2 vectors
   NREBOOT  =      0    no. of reboots
   NMIN     =      0    reboot dimension
   EREF     =   0.00    reference energy to select bands
   IMIX   =      4    mixing-type and parameters
     AMIX     =   0.40;   BMIX     =  1.00
     AMIX_MAG =   1.60;   BMIX_MAG =  1.00
     AMIN     =   0.10
     WC   =   100.;   INIMIX=   1;  MIXPRE=   1;  MAXMIX= -45

 Intra band minimization:
   WEIMIN = 0.0000     energy-eigenvalue tresh-hold
   EBREAK =  0.39E-08  absolut break condition
   DEPER  =   0.30     relativ break condition  

   TIME   =   0.40     timestep for ELM

  volume/ion in A,a.u.               =      10.57        71.35
  Fermi-wavevector in a.u.,A,eV,Ry     =   1.539433  2.909106 32.243803  2.369853
  Thomas-Fermi vector in A             =   2.645661
 
 Write flags
   LWAVE        =      T    write WAVECAR
   LDOWNSAMPLE  =      F    k-point downsampling of WAVECAR
   LCHARG       =      T    write CHGCAR
   LVTOT        =      F    write LOCPOT, total local potential
   LVHAR        =      F    write LOCPOT, Hartree potential only
   LELF         =      F    write electronic localiz. function (ELF)
   LORBIT       =      0    0 simple, 1 ext, 2 COOP (PROOUT), +10 PAW based schemes


 Dipole corrections
   LMONO  =      F    monopole corrections only (constant potential shift)
   LDIPOL =      F    correct potential (dipole corrections)
   IDIPOL =      0    1-x, 2-y, 3-z, 4-all directions 
   EPSILON=  1.0000000 bulk dielectric constant

 Exchange correlation treatment:
   GGA     =    --    GGA type
   LEXCH   =     8    internal setting for exchange type
   LIBXC   =     F    Libxc                    
   VOSKOWN =     0    Vosko Wilk Nusair interpolation
   EXXOEP  =     0    0=HF, 1=EXX-LHF (local Hartree Fock) 2=EXX OEP
   LHFCALC =     T    Hartree Fock is set to
   LSYMGRAD=     F    symmetrize gradient (conserves proper symmetry)
   PRECFOCK=fast      Normal, Fast or Accurate (Low or Medium for compatibility)
   LRHFCALC=     F    long range Hartree Fock
   LRSCOR  =     F    long range correlation only (use DFT for short range part)
   LTHOMAS =     F    Thomas Fermi screening in HF
   LMODELHF=     F    short range full HF, long range fraction AEXX
   FOCKCORR=     1    mode to apply convergence corrections
   LFOCKACE=     T    use Adeptively-Compressed-Exchange operator
   ENCUT4O =  -1.0   cutoff for four orbital integrals eV
   LMAXFOCK=     4    L truncation for augmentation on plane wave grid
   LMAXFOCKAE=  -1    L truncation for all-electron charge restoration on plane wave grid
   NMAXFOCKAE=   1    number of basis functions for all-electron charge restoration
   LFOCKAEDFT=     F  apply the AE augmentation even for DFT
   NKREDX  =     1    reduce k-point grid by
   NKREDY  =     1    reduce k-point grid by
   NKREDZ  =     1    reduce k-point grid by
   SHIFTRED=     F    shift reduced grid of Gamma
   HFKIDENT=     F    idential grid for each k-point
   ODDONLY =     F    use only odd q-grid points
   EVENONLY=     F    use only even q-grid points
   HFALPHA =   -1.0000 decay constant for conv. correction
   MCALPHA =    0.0000 extent of test-charge in conv. correction in multipole expansion
   AEXX    =    0.3200 exact exchange contribution
   HFSCREEN=    0.2000 screening length (either q_TF or 0.3 A-1)
   HFSCREENC=   0.2000 screening length for correlation (either q_TF or 0.3 A-1)
   HFRCUT  =    0.0000 spherical cutoff for potential kernel
   ALDAX   =    0.6800 LDA exchange part
   AGGAX   =    0.6800 GGA exchange part
   ALDAC   =    1.0000 LDA correlation
   AGGAC   =    1.0000 GGA correlation
   ENCUTFOCK=  -1.0 apply spherical cutoff to Coloumb kernel
   NBANDSGWLOW=     1    first orbital included in HF term
   NBLOCK_FOCK=    64    blocking factor in FOCK_ACC

 Linear response parameters
   LEPSILON=     F    determine dielectric tensor
   LRPA    =     F    only Hartree local field effects (RPA)
   LNABLA  =     F    use nabla operator in PAW spheres
   LVEL    =     F    velocity operator in full k-point grid
   CSHIFT  =0.1000    complex shift for real part using Kramers Kronig
   OMEGAMAX=  -1.0    maximum frequency
   DEG_THRESHOLD= 0.2000000E-02 threshold for treating states as degnerate
   RTIME   =   -0.100 relaxation time in fs
  (WPLASMAI=    0.000 imaginary part of plasma frequency in eV, 0.658/RTIME)
   DFIELD  = 0.0000000 0.0000000 0.0000000 field for delta impulse in time
 
  Optional k-point grid parameters
   LKPOINTS_OPT  =     F    use optional k-point grid
   KPOINTS_OPT_MODE=     1    mode for optional k-point grid
 
 Orbital magnetization related:
   ORBITALMAG=     F  switch on orbital magnetization
   LCHIMAG   =     F  perturbation theory with respect to B field
   DQ        =  0.001000  dq finite difference perturbation B field
   LLRAUG    =     F  two centre corrections for induced B field
   LBONE     =     F  B-component reconstruction in AE one-centre
   LVGVCALC  =     T  calculate vGv susceptibility
   LVGVAPPL  =     F  apply vGv susceptibility instead of pGv for G=0

 Random number generation:
   RANDOM_GENERATOR = DEFAULT
   PCG_SEED         = not used


--------------------------------------------------------------------------------------------------------


 Static calculation
 charge density and potential will be updated during run
 non-spin polarized calculation
 Conjugate gradient for all bands (Freysoldt, et al. PRB 79, 241103 (2009))
 preconditioned conjugated gradient                                        
 perform sub-space diagonalisation
    before iterative eigenvector-optimisation
 modified Broyden-mixing scheme, WC =      100.0
 initial mixing is a Kerker type mixing with AMIX =  0.4000 and BMIX =      1.0000
 Hartree-type preconditioning will be used
 using additional bands           105
 real space projection scheme for non local part
 use partial core corrections
 no Harris-corrections to forces 
 use gradient corrections 
 use of overlap-Matrix (Vanderbilt PP)
 Gauss-broadening in eV      SIGMA  =   0.05


--------------------------------------------------------------------------------------------------------


  energy-cutoff  :      450.00
  volume of cell :     1268.81
      direct lattice vectors                 reciprocal lattice vectors
     0.000000000 12.280473417  0.000000000     0.000000000  0.081430085 -0.019947423
     9.142702054  0.000000000  0.000000000     0.109376855 -0.000000000  0.000000000
     0.000000000 -2.768261773-11.300697718     0.000000000  0.000000000 -0.088490111

  length of vectors
    12.280473417  9.142702054 11.634820246     0.083837691  0.109376855  0.088490111


 
 k-points in units of 2pi/SCALE and weight: Automatic mesh                          
   0.00000000  0.00000000 -0.00000000       0.125
   0.00000000  0.04071504 -0.00997371       0.125
   0.05468843  0.00000000 -0.00000000       0.125
   0.05468843  0.04071504 -0.00997371       0.125
   0.00000000  0.00000000 -0.04424506       0.125
   0.00000000  0.04071504 -0.05421877       0.125
   0.05468843  0.00000000 -0.04424506       0.125
   0.05468843  0.04071504 -0.05421877       0.125
 
 k-points in reciprocal lattice and weights: Automatic mesh                          
   0.00000000  0.00000000  0.00000000       0.125
   0.50000000  0.00000000  0.00000000       0.125
   0.00000000  0.50000000  0.00000000       0.125
   0.50000000  0.50000000  0.00000000       0.125
   0.00000000  0.00000000  0.50000000       0.125
   0.50000000  0.00000000  0.50000000       0.125
   0.00000000  0.50000000  0.50000000       0.125
   0.50000000  0.50000000  0.50000000       0.125
 
 position of ions in fractional coordinates (direct lattice) 
   0.66083139  0.00000000  0.15524547
   0.65825204  0.00000000  0.65773333
   0.66010245  0.33504531  0.15489247
   0.65971479  0.33369566  0.65687947
   0.66010245  0.66495469  0.15489247
   0.65971479  0.66630434  0.65687947
   0.83476433  0.16989279  0.34344191
   0.83951640  0.16689841  0.84449828
   0.84071308  0.50000000  0.34377078
   0.83944645  0.50000000  0.84213498
   0.83476433  0.83010721  0.34344191
   0.83951640  0.83310159  0.84449828
   0.59369434  0.16970775  0.39901489
   0.59116164  0.16677272  0.89781409
   0.59478420  0.50000000  0.39778181
   0.59186877  0.50000000  0.89695292
   0.59369434  0.83029225  0.39901489
   0.59116164  0.83322728  0.89781409
   0.90986953  0.00000000  0.10344591
   0.90642097  0.00000000  0.60520948
   0.90659440  0.33429415  0.10123668
   0.90728013  0.33374239  0.60092436
   0.90659440  0.66570585  0.10123668
   0.90728013  0.66625761  0.60092436
   0.16154293  0.17231326  0.14552121
   0.15886275  0.16878625  0.66112773
   0.15798995  0.50000000  0.15809674
   0.15907431  0.50000000  0.65368392
   0.16154293  0.82768674  0.14552121
   0.15886275  0.83121375  0.66112773
   0.35465135  0.00000000  0.34852984
   0.34119877  0.00000000  0.84499101
   0.34313270  0.33448234  0.34143791
   0.34203718  0.33403620  0.84303281
   0.34313270  0.66551766  0.34143791
   0.34203718  0.66596380  0.84303281
   0.06389199  0.00000000  0.42122382
   0.08799610  0.00000000  0.89436763
   0.09141285  0.33328592  0.39660562
   0.08863309  0.33419736  0.89438527
   0.09141285  0.66671408  0.39660562
   0.08863309  0.66580264  0.89438527
   0.41348280  0.16798758  0.10092919
   0.41063206  0.16828828  0.60548373
   0.40960158  0.50000000  0.10141923
   0.40994575  0.50000000  0.60146813
   0.41348280  0.83201242  0.10092919
   0.41063206  0.83171172  0.60548373
   0.99468742  0.16919867  0.12170716
   0.99481279  0.16676269  0.62858600
   0.99514727  0.50000000  0.12603802
   0.99594886  0.50000000  0.62559763
   0.99468742  0.83080133  0.12170716
   0.99481279  0.83323731  0.62858600
   0.51032488  0.00000000  0.37200892
   0.50390797  0.00000000  0.87282850
   0.50633408  0.33490173  0.37215352
   0.50433108  0.33369816  0.87275351
   0.50633408  0.66509827  0.37215352
   0.50433108  0.66630184  0.87275351
   0.67151736  0.16666869  0.27909513
   0.67195677  0.16659814  0.78048427
   0.67278773  0.50000000  0.27825494
   0.67255136  0.50000000  0.77981382
   0.67151736  0.83333131  0.27909513
   0.67195677  0.83340186  0.78048427
   0.82814946  0.00000000  0.22070152
   0.82622824  0.00000000  0.72148453
   0.82684801  0.33439593  0.21953477
   0.82730780  0.33309749  0.71955135
   0.82684801  0.66560407  0.21953477
   0.82730780  0.66690251  0.71955135
   0.83301981  0.00000000  0.44699996
   0.83162708  0.00000000  0.94652248
   0.82424664  0.33626427  0.44656121
   0.83002330  0.33430477  0.94470750
   0.82424664  0.66373573  0.44656121
   0.83002330  0.66569523  0.94470750
   0.66936262  0.16708235  0.05381880
   0.66879483  0.16611661  0.55541623
   0.67119035  0.50000000  0.05234982
   0.66815969  0.50000000  0.55503852
   0.66936262  0.83291765  0.05381880
   0.66879483  0.83388339  0.55541623
   0.49894328  0.00000000  0.12582628
   0.49634334  0.00000000  0.62784167
   0.49920893  0.33558519  0.12465565
   0.49804500  0.33439630  0.62966749
   0.49920893  0.66441481  0.12465565
   0.49804500  0.66560370  0.62966749
   0.99360945  0.17695262  0.38135793
   0.00203829  0.16736338  0.87191482
   0.00305074  0.50000000  0.37371470
   0.00158990  0.50000000  0.87073301
   0.99360945  0.82304738  0.38135793
   0.00203829  0.83263662  0.87191482
   0.17365580  0.00000000  0.78330575
   0.17323186  0.33805271  0.28040266
   0.17237169  0.33428067  0.77995023
   0.17323186  0.66194729  0.28040266
   0.17237169  0.66571933  0.77995023
   0.33276839  0.17448015  0.21666978
   0.32778150  0.16706341  0.72063206
   0.32810153  0.50000000  0.21772843
   0.32724168  0.50000000  0.71819616
   0.33276839  0.82551985  0.21666978
   0.32778150  0.83293659  0.72063206
   0.34119091  0.17098175  0.44756866
   0.33413305  0.16813677  0.94557312
   0.33451748  0.50000000  0.44497515
   0.33255033  0.50000000  0.94481509
   0.34119091  0.82901825  0.44756866
   0.33413305  0.83186323  0.94557312
   0.17310360  0.00000000  0.04625006
   0.16437827  0.00000000  0.56391210
   0.16747631  0.33792373  0.05036416
   0.16812183  0.33169692  0.55376465
   0.16747631  0.66207627  0.05036416
   0.16812183  0.66830308  0.55376465
   0.16541565  0.00000000  0.29077534
 
 position of ions in cartesian coordinates  (Angst):
   0.00000000  7.68556217 -1.75438218
   0.00000000  6.26286868 -7.43284551
   3.06321948  7.67758768 -1.75039300
   3.05088002  6.28319558 -7.42319635
   6.07948257  7.67758768 -1.75039300
   6.09182203  6.28319558 -7.42319635
   1.55327920  9.30056401 -3.88113324
   1.52590245  7.97186653 -9.54341979
   4.57135103  9.37270707 -3.88484967
   4.57135103  7.97754979 -9.51671286
   7.58942285  9.30056401 -3.88113324
   7.61679960  7.97186653 -9.54341979
   1.55158740  6.18626991 -4.50914669
   1.52475326  4.77436035-10.14592564
   4.57135103  6.20306734 -4.49521198
   4.57135103  4.78542825-10.13619386
   7.59111465  6.18626991 -4.50914669
   7.61794879  4.77436035-10.14592564
   0.00000000 10.88726318 -1.16901093
   0.00000000  9.45590032 -6.83928934
   3.05635178 10.85315882 -1.14404509
   3.05130727  9.47831364 -6.79086452
   6.08635028 10.85315882 -1.14404509
   6.09139478  9.47831364 -6.79086452
   1.57540878  1.58098288 -1.64449122
   1.54316241  0.12073517 -7.47120464
   4.57135103  1.50253819 -1.78660346
   4.57135103  0.14393966 -7.38708437
   7.56729327  1.58098288 -1.64449122
   7.59953964  0.12073517 -7.47120464
   0.00000000  3.39046460 -3.93863041
   0.00000000  1.85092616 -9.54898798
   3.05807239  3.26864255 -3.85848660
   3.05399343  1.86664299 -9.52685896
   6.08462966  3.26864255 -3.85848660
   6.08870862  1.86664299 -9.52685896
   0.00000000 -0.38143391 -4.76012305
   0.00000000 -1.39520999-10.10697824
   3.04713386  0.02468486 -4.48192025
   3.05546692 -1.38743628-10.10717754
   6.09556819  0.02468486 -4.48192025
   6.08723513 -1.38743628-10.10717754
   1.53586039  4.79836612 -1.14057025
   1.53860956  3.36661865 -6.84238864
   4.57135103  4.74934637 -1.14610800
   4.57135103  3.36930670 -6.79700949
   7.60684166  4.79836612 -1.14057025
   7.60409249  3.36661865 -6.84238864
   1.54693299 11.87831509 -1.37537588
   1.52466156 10.47668138 -7.10346037
   4.57135103 11.87197340 -1.42431752
   4.57135103 10.49890544 -7.06968972
   7.59576906 11.87831509 -1.37537588
   7.61804049 10.47668138 -7.10346037
   0.00000000  5.23721305 -4.20396038
   0.00000000  3.77201071 -9.86357108
   3.06190670  5.18780389 -4.20559447
   3.05090290  3.77741426 -9.86272361
   6.08079535  5.18780389 -4.20559447
   6.09179916  3.77741426 -9.86272361
   1.52380215  7.47394274 -3.15396971
   1.52315711  6.09136244 -8.82001675
   4.57135103  7.49186929 -3.14447501
   4.57135103  6.10052026 -8.81244031
   7.61889990  7.47394274 -3.15396971
   7.61954494  6.09136244 -8.82001675
   0.00000000  9.55910783 -2.49408118
   0.00000000  8.14921584 -8.15327862
   3.05728239  9.54635535 -2.48089604
   3.04541107  8.16782489 -8.13143232
   6.08541966  9.54635535 -2.48089604
   6.09729098  8.16782489 -8.13143232
   0.00000000  8.99246473 -5.05141144
   0.00000000  7.59255224-10.69636445
   3.07436402  8.88594062 -5.04645322
   3.05644887  7.57788144-10.67585389
   6.06833803  8.88594062 -5.04645322
   6.08625318  7.57788144-10.67585389
   1.52758412  8.07110537 -0.60819004
   1.51875469  6.67557959 -6.27659090
   4.57135103  8.09761724 -0.59158948
   4.57135103  6.66882538 -6.27232248
   7.61511794  8.07110537 -0.60819004
   7.62394736  6.67557959 -6.27659090
   0.00000000  5.77893959 -1.42192474
   0.00000000  4.35730104 -7.09504898
   3.06815545  5.78544258 -1.40869577
   3.05728570  4.37314394 -7.11568195
   6.07454660  5.78544258 -1.40869577
   6.08541636  4.37314394 -7.11568195
   1.61782510 11.14629585 -4.30961072
   1.53015354 -2.38865727 -9.85324585
   4.57135103 -0.99707562 -4.22323689
   4.57135103 -2.39089218 -9.83989055
   7.52487695 11.14629585 -4.30961072
   7.61254851 -2.38865727 -9.85324585
   0.00000000 -0.03581990 -8.85190153
   3.09071520  1.35114126 -3.16874564
   3.05622858 -0.04230044 -8.81398181
   6.05198685  1.35114126 -3.16874564
   6.08647347 -0.04230044 -8.81398181
   1.59521998  3.48675473 -2.44851968
   1.52741103  2.03041380 -8.14364508
   4.57135103  3.42651279 -2.46048319
   4.57135103  2.03052775 -8.11611776
   7.54748207  3.48675473 -2.44851968
   7.61529103  2.03041380 -8.14364508
   1.56323520  2.95099866 -5.05783814
   1.53722443  1.48571807-10.68563600
   4.57135103  2.87622528 -5.02852970
   4.57135103  1.46837996-10.67706978
   7.57946685  2.95099866 -5.05783814
   7.60547762  1.48571807-10.68563600
   0.00000000  1.99776192 -0.52265794
   0.00000000  0.45758666 -6.37260020
   3.08953602  1.91726716 -0.56915017
   3.03260614  0.53165019 -6.25792689
   6.05316604  1.91726716 -0.56915017
   6.11009591  0.53165019 -6.25792689
   0.00000000  1.22644023 -3.28596420
 


--------------------------------------------------------------------------------------------------------


 k-point   1 :   0.0000 0.0000 0.0000  plane waves:   27533
 k-point   2 :   0.5000 0.0000 0.0000  plane waves:   27522
 k-point   3 :   0.0000 0.5000 0.0000  plane waves:   27488
 k-point   4 :   0.5000 0.5000 0.0000  plane waves:   27488
 k-point   5 :   0.0000 0.0000 0.5000  plane waves:   27482
 k-point   6 :   0.5000 0.0000 0.5000  plane waves:   27476
 k-point   7 :   0.0000 0.5000 0.5000  plane waves:   27468
 k-point   8 :   0.5000 0.5000 0.5000  plane waves:   27564

 maximum and minimum number of plane-waves per node :     27564    27468

 maximum number of plane-waves:     27564
 maximum index in each direction: 
   IXMAX=   21   IYMAX=   15   IZMAX=   20
   IXMIN=  -21   IYMIN=  -16   IZMIN=  -20


 serial   3D FFT for wavefunctions
 parallel 3D FFT for charge:
    minimum data exchange during FFTs selected (reduces bandwidth)


 FFT grid for exact exchange (Hartree Fock) 
  NGX = 48; NGY = 36; NGZ = 48

 
 Radii for the augmentation spheres in the non-local exchange
 for species   1 augmentation radius   1.392 (default was   1.031)
       energy cutoff for augmentation   1800.0
 for species   2 augmentation radius   0.974 (default was   0.722)
       energy cutoff for augmentation   1800.0
 for species   3 augmentation radius   1.294 (default was   0.959)
       energy cutoff for augmentation   1800.0
 Maximum index for augmentation-charges in exchange           752
  SETUP_FOCK is finished

 total amount of memory used by VASP MPI-rank0  7269126. kBytes
=======================================================================

   base      :      30000. kBytes
   nonlr-proj:      33021. kBytes
   fftplans  :      51012. kBytes
   grid      :     102973. kBytes
   one-center:       1866. kBytes
   HF        :        194. kBytes
   wavefun   :    7050060. kBytes
 
     INWAV:  cpu time      0.0001: real time      0.0001
 Broyden mixing: mesh for mixing (old mesh)
   NGX = 43   NGY = 31   NGZ = 41
  (NGX  =128   NGY  = 96   NGZ  =120)
  gives a total of  54653 points

 charge density for first step will be calculated from the start-wavefunctions


--------------------------------------------------------------------------------------------------------


 Maximum index for non-local projection operator          1719
 Maximum index for augmentation-charges          5360 (set IRDMAX)


--------------------------------------------------------------------------------------------------------


 initial charge from wavefunction
 First call to EWALD:  gamma=   0.164
 Maximum number of real-space cells 3x 3x 3
 Maximum number of reciprocal cells 3x 2x 3

    FEWALD:  cpu time      0.0733: real time      0.0733


--------------------------------------- Ionic step        1  -------------------------------------------




--------------------------------------- Iteration      1(   1)  ---------------------------------------


    POTLOK:  cpu time      0.0304: real time      0.0304
    SETDIJ:  cpu time      0.2865: real time      0.2865
    TRIAL :  cpu time      2.8674: real time      2.8727
    CORREC:  cpu time      0.0015: real time      0.0015
    --------------------------------------------
      LOOP:  cpu time      4.0882: real time      4.0930

 eigenvalue-minimisations  : 10648
 total energy-change (2. order) :-0.1884548E+05  (-0.5448552E+05)
 number of electron    1054.9999573 magnetization 
 augmentation part      121.7875724 magnetization 

 Free energy of the ion-electron system (eV)
  ---------------------------------------------------
  alpha Z        PSCENC =      5529.70323211
  Ewald energy   TEWEN  =    -88556.18533230
  -Hartree energ DENC   =     -2117.95812904
  -exchange      EXHF   =         0.00000000
  -V(xc)+E(xc)   XCENC  =      2792.00970920
  PAW double counting   =    337737.28076865  -367072.89964457
  entropy T*S    EENTRO =        -0.00962174
  eigenvalues    EBANDS =    -40804.35011291
  atomic energy  EATOM  =    133646.93285989
  ---------------------------------------------------
  free energy    TOTEN  =    -18845.47627071 eV

  energy without entropy =   -18845.46664896  energy(sigma->0) =   -18845.47145984
  exchange ACFDT corr.  =         0.00000000  see jH, gK, PRB 81, 115126


--------------------------------------------------------------------------------------------------------




--------------------------------------- Iteration      1(   2)  ---------------------------------------


    TRIAL :  cpu time      3.1151: real time      3.1146
    CORREC:  cpu time      0.0016: real time      0.0016
    --------------------------------------------
      LOOP:  cpu time      3.1168: real time      3.1172

 eigenvalue-minimisations  : 13432
 total energy-change (2. order) :-0.4453735E+05  (-0.4304410E+05)
 number of electron    1054.9999573 magnetization 
 augmentation part      121.7875724 magnetization 

 Free energy of the ion-electron system (eV)
  ---------------------------------------------------
  alpha Z        PSCENC =      5529.70323211
  Ewald energy   TEWEN  =    -88556.18533230
  -Hartree energ DENC   =     -2117.95812904
  -exchange      EXHF   =         0.00000000
  -V(xc)+E(xc)   XCENC  =      2792.00970920
  PAW double counting   =    337737.28076865  -367072.89964457
  entropy T*S    EENTRO =        -0.01999315
  eigenvalues    EBANDS =    -85341.69200105
  atomic energy  EATOM  =    133646.93285989
  ---------------------------------------------------
  free energy    TOTEN  =    -63382.82853026 eV

  energy without entropy =   -63382.80853711  energy(sigma->0) =   -63382.81853369
  exchange ACFDT corr.  =         0.00000000  see jH, gK, PRB 81, 115126


--------------------------------------------------------------------------------------------------------




--------------------------------------- Iteration      1(   3)  ---------------------------------------


    TRIAL :  cpu time      3.2988: real time      3.2983
    CORREC:  cpu time      0.0016: real time      0.0016
    --------------------------------------------
      LOOP:  cpu time      3.3007: real time      3.3006

 eigenvalue-minimisations  : 14531
 total energy-change (2. order) :-0.5015586E+04  (-0.4481755E+04)
 number of electron    1054.9999573 magnetization 
 augmentation part      121.7875724 magnetization 

 Free energy of the ion-electron system (eV)
  ---------------------------------------------------
  alpha Z        PSCENC =      5529.70323211
  Ewald energy   TEWEN  =    -88556.18533230
  -Hartree energ DENC   =     -2117.95812904
  -exchange      EXHF   =         0.00000000
  -V(xc)+E(xc)   XCENC  =      2792.00970920
  PAW double counting   =    337737.28076865  -367072.89964457
  entropy T*S    EENTRO =        -0.01961853
  eigenvalues    EBANDS =    -90357.27837097
  atomic energy  EATOM  =    133646.93285989
  ---------------------------------------------------
  free energy    TOTEN  =    -68398.41452556 eV

  energy without entropy =   -68398.39490703  energy(sigma->0) =   -68398.40471629
  exchange ACFDT corr.  =         0.00000000  see jH, gK, PRB 81, 115126


--------------------------------------------------------------------------------------------------------




--------------------------------------- Iteration      1(   4)  ---------------------------------------


    TRIAL :  cpu time      3.7724: real time      3.7717
    CORREC:  cpu time      0.0016: real time      0.0016
    --------------------------------------------
      LOOP:  cpu time      3.7741: real time      3.7739

 eigenvalue-minimisations  : 17968
 total energy-change (2. order) :-0.7178922E+03  (-0.6384318E+03)
 number of electron    1054.9999573 magnetization 
 augmentation part      121.7875724 magnetization 

 Free energy of the ion-electron system (eV)
  ---------------------------------------------------
  alpha Z        PSCENC =      5529.70323211
  Ewald energy   TEWEN  =    -88556.18533230
  -Hartree energ DENC   =     -2117.95812904
  -exchange      EXHF   =         0.00000000
  -V(xc)+E(xc)   XCENC  =      2792.00970920
  PAW double counting   =    337737.28076865  -367072.89964457
  entropy T*S    EENTRO =        -0.05376066
  eigenvalues    EBANDS =    -91075.13647279
  atomic energy  EATOM  =    133646.93285989
  ---------------------------------------------------
  free energy    TOTEN  =    -69116.30676951 eV

  energy without entropy =   -69116.25300885  energy(sigma->0) =   -69116.27988918
  exchange ACFDT corr.  =         0.00000000  see jH, gK, PRB 81, 115126


--------------------------------------------------------------------------------------------------------




--------------------------------------- Iteration      1(   5)  ---------------------------------------


    POTLOK:  cpu time      1.3854: real time      1.3851
    SETDIJ:  cpu time      0.4680: real time      0.4680
    TRIAL :  cpu time    234.2753: real time    234.2615
    CORREC:  cpu time      0.0016: real time      0.0015
    CHARGE:  cpu time      0.2077: real time      0.2076
    --------------------------------------------
      LOOP:  cpu time    236.3381: real time    236.3245

 eigenvalue-minimisations  : 17792
 total energy-change (2. order) : 0.3015160E+05  (-0.7250562E+02)
 number of electron    1054.9998411 magnetization 
 augmentation part      480.9394997 magnetization 

 Free energy of the ion-electron system (eV)
  ---------------------------------------------------
  alpha Z        PSCENC =      5529.70323211
  Ewald energy   TEWEN  =    -88556.18533230
  -Hartree energ DENC   =     -2117.95812904
  -exchange      EXHF   =      4792.25493327
  -V(xc)+E(xc)   XCENC  =      1929.52955186
  PAW double counting   =    338968.45127279  -341038.31452539
  entropy T*S    EENTRO =        -0.02556573
  eigenvalues    EBANDS =    -92119.09717550
  atomic energy  EATOM  =    133646.93285989
  ---------------------------------------------------
  free energy    TOTEN  =    -38964.70887801 eV

  energy without entropy =   -38964.68331228  energy(sigma->0) =   -38964.69609515
  exchange ACFDT corr.  =        -1.25666348  see jH, gK, PRB 81, 115126


--------------------------------------------------------------------------------------------------------




--------------------------------------- Iteration      1(   6)  ---------------------------------------


    POTLOK:  cpu time      1.4152: real time      1.4150
    SETDIJ:  cpu time      0.4687: real time      0.4685
    TRIAL :  cpu time    233.1338: real time    233.1558
    CORREC:  cpu time    236.7729: real time    236.7804
    CHARGE:  cpu time      0.2050: real time      0.2050
    --------------------------------------------
      LOOP:  cpu time    471.9958: real time    472.0253

 eigenvalue-minimisations  :     0
 total energy-change (2. order) : 0.7362693E+05  (-0.2644903E+05)
 number of electron    1054.9998569 magnetization 
 augmentation part      454.4677356 magnetization 

 Free energy of the ion-electron system (eV)
  ---------------------------------------------------
  alpha Z        PSCENC =      5529.70323211
  Ewald energy   TEWEN  =    -88556.18533230
  -Hartree energ DENC   =    -82808.12996899
  -exchange      EXHF   =      4868.82714090
  -V(xc)+E(xc)   XCENC  =      3771.84294225
  PAW double counting   =    153282.01396821  -178712.25551339
  entropy T*S    EENTRO =        -0.02794944
  eigenvalues    EBANDS =     83639.49836409
  atomic energy  EATOM  =    133646.93285989
  ---------------------------------------------------
  free energy    TOTEN  =     34662.22212706 eV

  energy without entropy =    34662.25007649  energy(sigma->0) =    34662.23610177
  exchange ACFDT corr.  =        -0.41029862  see jH, gK, PRB 81, 115126


--------------------------------------------------------------------------------------------------------




--------------------------------------- Iteration      1(   7)  ---------------------------------------


    POTLOK:  cpu time      1.4706: real time      1.4704
    SETDIJ:  cpu time      0.4687: real time      0.4686
    TRIAL :  cpu time    234.6653: real time    234.6706
    CORREC:  cpu time    235.3780: real time    235.3662
    CHARGE:  cpu time      0.2046: real time      0.2046
    --------------------------------------------
      LOOP:  cpu time    472.1874: real time    472.1809

 eigenvalue-minimisations  :     0
 total energy-change (2. order) :-0.2160852E+05  (-0.7473575E+04)
 number of electron    1054.9998817 magnetization 
 augmentation part      415.2617096 magnetization 

 Free energy of the ion-electron system (eV)
  ---------------------------------------------------
  alpha Z        PSCENC =      5529.70323211
  Ewald energy   TEWEN  =    -88556.18533230
  -Hartree energ DENC   =    -40119.67058750
  -exchange      EXHF   =      3622.26426448
  -V(xc)+E(xc)   XCENC  =      2835.42148149
  PAW double counting   =    161113.95036352  -177994.43160826
  entropy T*S    EENTRO =        -0.01195157
  eigenvalues    EBANDS =     12975.74840274
  atomic energy  EATOM  =    133646.93285989
  ---------------------------------------------------
  free energy    TOTEN  =     13053.70512675 eV

  energy without entropy =    13053.71707831  energy(sigma->0) =    13053.71110253
  exchange ACFDT corr.  =      -152.57720659  see jH, gK, PRB 81, 115126


--------------------------------------------------------------------------------------------------------




--------------------------------------- Iteration      1(   8)  ---------------------------------------


    POTLOK:  cpu time      1.4820: real time      1.4819
    SETDIJ:  cpu time      0.4912: real time      0.4912
    TRIAL :  cpu time    233.6931: real time    233.6926
    CORREC:  cpu time    235.3777: real time    235.3741
    CHARGE:  cpu time      0.2060: real time      0.2060
    --------------------------------------------
      LOOP:  cpu time    471.2503: real time    471.2522

 eigenvalue-minimisations  :     0
 total energy-change (2. order) :-0.3876296E+04  (-0.4061744E+04)
 number of electron    1054.9998671 magnetization 
 augmentation part      424.9652733 magnetization 

 Free energy of the ion-electron system (eV)
  ---------------------------------------------------
  alpha Z        PSCENC =      5529.70323211
  Ewald energy   TEWEN  =    -88556.18533230
  -Hartree energ DENC   =    -29419.16506968
  -exchange      EXHF   =      3300.35168733
  -V(xc)+E(xc)   XCENC  =      2628.03020616
  PAW double counting   =    164336.42692520  -177926.75535833
  entropy T*S    EENTRO =        -0.03311142
  eigenvalues    EBANDS =     -4361.91831688
  atomic energy  EATOM  =    133646.93285989
  ---------------------------------------------------
  free energy    TOTEN  =      9177.40888194 eV

  energy without entropy =     9177.44199335  energy(sigma->0) =     9177.42543764
  exchange ACFDT corr.  =       -91.53783792  see jH, gK, PRB 81, 115126


--------------------------------------------------------------------------------------------------------




--------------------------------------- Iteration      1(   9)  ---------------------------------------


    POTLOK:  cpu time      1.5086: real time      1.5083
    SETDIJ:  cpu time      0.4671: real time      0.4670
    TRIAL :  cpu time    233.5821: real time    233.5752
    CORREC:  cpu time    235.2960: real time    235.3152
    CHARGE:  cpu time      0.2069: real time      0.2068
    --------------------------------------------
      LOOP:  cpu time    471.0609: real time    471.0735

 eigenvalue-minimisations  :     0
 total energy-change (2. order) :-0.3748296E+04  (-0.2316892E+04)
 number of electron    1054.9998580 magnetization 
 augmentation part      447.9823950 magnetization 

 Free energy of the ion-electron system (eV)
  ---------------------------------------------------
  alpha Z        PSCENC =      5529.70323211
  Ewald energy   TEWEN  =    -88556.18533230
  -Hartree energ DENC   =    -28163.16516352
  -exchange      EXHF   =      3295.71404430
  -V(xc)+E(xc)   XCENC  =      2627.01211752
  PAW double counting   =    152187.79589143  -166457.32543831
  entropy T*S    EENTRO =        -0.02196422
  eigenvalues    EBANDS =     -8681.33671092
  atomic energy  EATOM  =    133646.93285989
  ---------------------------------------------------
  free energy    TOTEN  =      5429.11238878 eV

  energy without entropy =     5429.13435300  energy(sigma->0) =     5429.12337089
  exchange ACFDT corr.  =      -102.06371191  see jH, gK, PRB 81, 115126


--------------------------------------------------------------------------------------------------------




--------------------------------------- Iteration      1(  10)  ---------------------------------------


    POTLOK:  cpu time      1.4976: real time      1.4974
    SETDIJ:  cpu time      0.4680: real time      0.4679
    TRIAL :  cpu time    233.6765: real time    233.6668
    CORREC:  cpu time    235.3546: real time    235.3734
    CHARGE:  cpu time      0.2049: real time      0.2049
    --------------------------------------------
      LOOP:  cpu time    471.2018: real time    471.2110

 eigenvalue-minimisations  :     0
 total energy-change (2. order) :-0.1777680E+04  (-0.2271493E+04)
 number of electron    1054.9998540 magnetization 
 augmentation part      467.8614909 magnetization 

 Free energy of the ion-electron system (eV)
  ---------------------------------------------------
  alpha Z        PSCENC =      5529.70323211
  Ewald energy   TEWEN  =    -88556.18533230
  -Hartree energ DENC   =    -31386.27015510
  -exchange      EXHF   =      3443.30856262
  -V(xc)+E(xc)   XCENC  =      2720.32752473
  PAW double counting   =    145863.54514369  -161730.73653604
  entropy T*S    EENTRO =        -0.02219430
  eigenvalues    EBANDS =     -5879.17056026
  atomic energy  EATOM  =    133646.93285989
  ---------------------------------------------------
  free energy    TOTEN  =      3651.43277513 eV

  energy without entropy =     3651.45496943  energy(sigma->0) =     3651.44387228
  exchange ACFDT corr.  =       -89.71871564  see jH, gK, PRB 81, 115126


--------------------------------------------------------------------------------------------------------




--------------------------------------- Iteration      1(  11)  ---------------------------------------


    POTLOK:  cpu time      1.4584: real time      1.4582
    SETDIJ:  cpu time      0.4667: real time      0.4666
    TRIAL :  cpu time    234.0045: real time    233.9887
    CORREC:  cpu time    235.6146: real time    235.6154
    CHARGE:  cpu time      0.2056: real time      0.2056
[...]
   0.253E-03 0.986E+02 -.128E+02   0.201E-13 -.962E+02 0.143E+02   0.000E+00 -.206E+01 -.139E+01
   0.540E-03 0.932E+02 -.733E+02   0.121E-12 -.906E+02 0.752E+02   0.000E+00 -.230E+01 -.180E+01
   -.349E+02 0.109E+03 0.737E+01   0.340E+02 -.109E+03 -.668E+01   0.779E+00 -.398E+00 -.676E+00
   -.298E+02 0.117E+03 -.931E+02   0.291E+02 -.114E+03 0.958E+02   0.567E+00 -.216E+01 -.246E+01
   0.331E+02 -.754E+02 0.702E+02   -.335E+02 0.853E+02 -.736E+02   0.367E+00 -.855E+01 0.298E+01
   -.790E+01 -.348E+02 0.170E+02   0.781E+01 0.424E+02 -.209E+02   0.684E-01 -.656E+01 0.334E+01
   -.267E-03 -.415E+02 0.330E+02   -.581E-13 0.491E+02 -.365E+02   0.000E+00 -.648E+01 0.300E+01
   0.642E-04 -.393E+02 0.105E+02   0.427E-13 0.468E+02 -.142E+02   0.000E+00 -.642E+01 0.324E+01
   -.331E+02 -.754E+02 0.702E+02   0.335E+02 0.853E+02 -.736E+02   -.367E+00 -.855E+01 0.298E+01
   0.790E+01 -.348E+02 0.170E+02   -.781E+01 0.424E+02 -.209E+02   -.684E-01 -.656E+01 0.334E+01
   -.146E-03 0.365E+02 -.307E+02   0.338E-13 -.389E+02 0.351E+02   0.000E+00 0.207E+01 -.378E+01
   -.902E-04 0.279E+02 -.217E+02   -.382E-13 -.354E+02 0.258E+02   0.000E+00 0.638E+01 -.350E+01
   0.479E+01 0.542E+02 -.225E+02   -.430E+01 -.625E+02 0.267E+02   -.425E+00 0.724E+01 -.363E+01
   0.111E+01 0.282E+02 -.195E+02   -.106E+01 -.355E+02 0.231E+02   -.468E-01 0.625E+01 -.318E+01
   -.479E+01 0.542E+02 -.225E+02   0.430E+01 -.625E+02 0.267E+02   0.425E+00 0.724E+01 -.363E+01
   -.111E+01 0.282E+02 -.195E+02   0.106E+01 -.355E+02 0.231E+02   0.468E-01 0.625E+01 -.318E+01
   0.108E+02 0.845E+02 0.173E+02   -.109E+02 -.851E+02 -.108E+02   0.155E+00 0.464E+00 -.565E+01
   0.164E+01 0.707E+02 0.344E+02   -.137E+01 -.689E+02 -.295E+02   -.238E+00 -.154E+01 -.429E+01
   0.104E-05 0.749E+02 0.287E+02   -.823E-14 -.732E+02 -.241E+02   0.000E+00 -.148E+01 -.401E+01
   0.852E-04 0.736E+02 0.345E+02   0.371E-13 -.721E+02 -.295E+02   0.000E+00 -.127E+01 -.427E+01
   -.108E+02 0.845E+02 0.173E+02   0.109E+02 -.851E+02 -.108E+02   -.155E+00 0.464E+00 -.565E+01
   -.164E+01 0.707E+02 0.344E+02   0.137E+01 -.689E+02 -.295E+02   0.238E+00 -.154E+01 -.429E+01
   0.134E-03 -.119E+03 -.284E+02   -.515E-13 0.118E+03 0.227E+02   0.000E+00 0.971E+00 0.496E+01
   -.497E-04 -.669E+02 -.266E+02   -.466E-13 0.642E+02 0.211E+02   0.000E+00 0.232E+01 0.474E+01
   0.122E+02 -.106E+03 -.312E+02   -.122E+02 0.105E+03 0.262E+02   0.117E-01 0.100E+01 0.433E+01
   0.574E+01 -.787E+02 -.302E+02   -.617E+01 0.774E+02 0.253E+02   0.373E+00 0.116E+01 0.421E+01
   -.122E+02 -.106E+03 -.312E+02   0.122E+02 0.105E+03 0.262E+02   -.117E-01 0.100E+01 0.433E+01
   -.574E+01 -.787E+02 -.302E+02   0.617E+01 0.774E+02 0.253E+02   -.373E+00 0.116E+01 0.421E+01
   0.131E-04 0.108E+03 0.468E+02   0.442E-14 -.119E+03 -.428E+02   0.000E+00 0.923E+01 -.343E+01
   0.112E-03 0.103E+03 0.864E+02   0.384E-13 -.115E+03 -.838E+02   0.000E+00 0.106E+02 -.231E+01
   -.172E+00 0.109E+03 0.606E+02   0.543E+00 -.123E+03 -.573E+02   -.321E+00 0.121E+02 -.282E+01
   0.454E+01 0.104E+03 0.764E+02   -.424E+01 -.117E+03 -.731E+02   -.258E+00 0.109E+02 -.282E+01
   0.172E+00 0.109E+03 0.606E+02   -.543E+00 -.123E+03 -.573E+02   0.321E+00 0.121E+02 -.282E+01
   -.454E+01 0.104E+03 0.764E+02   0.424E+01 -.117E+03 -.731E+02   0.258E+00 0.109E+02 -.282E+01
   0.605E+01 -.127E+03 -.569E+02   -.583E+01 0.140E+03 0.534E+02   -.186E+00 -.111E+02 0.296E+01
   0.949E+01 -.105E+03 -.634E+02   -.983E+01 0.117E+03 0.593E+02   0.297E+00 -.108E+02 0.353E+01
   0.693E-04 -.126E+03 -.625E+02   -.152E-13 0.139E+03 0.593E+02   0.000E+00 -.116E+02 0.272E+01
   0.746E-04 -.101E+03 -.637E+02   0.665E-13 0.114E+03 0.602E+02   0.000E+00 -.105E+02 0.299E+01
   -.605E+01 -.127E+03 -.569E+02   0.583E+01 0.140E+03 0.534E+02   0.186E+00 -.111E+02 0.296E+01
   -.949E+01 -.105E+03 -.634E+02   0.983E+01 0.117E+03 0.593E+02   -.297E+00 -.108E+02 0.353E+01
   -.121E-03 0.172E+02 0.259E+02   0.555E-14 -.104E+02 -.298E+02   0.000E+00 -.580E+01 0.341E+01
   -.279E-03 0.139E+02 -.117E+02   -.888E-14 -.720E+01 0.878E+01   0.000E+00 -.571E+01 0.251E+01
   0.194E+01 0.601E+01 0.174E+02   -.154E+01 0.678E+00 -.208E+02   -.349E+00 -.575E+01 0.290E+01
   0.352E+01 0.440E+01 0.790E+00   -.331E+01 0.269E+01 -.497E+01   -.175E+00 -.610E+01 0.359E+01
   -.194E+01 0.601E+01 0.174E+02   0.154E+01 0.678E+00 -.208E+02   0.349E+00 -.575E+01 0.290E+01
   -.352E+01 0.440E+01 0.790E+00   0.331E+01 0.269E+01 -.497E+01   0.175E+00 -.610E+01 0.359E+01
   -.410E+01 -.790E+02 -.556E+02   0.667E+01 0.743E+02 0.590E+02   -.222E+01 0.403E+01 -.292E+01
   0.246E+01 0.966E+01 0.995E+01   -.242E+01 -.174E+02 -.652E+01   -.293E-01 0.667E+01 -.296E+01
   -.592E-04 -.129E+02 -.198E+02   -.128E-12 0.606E+01 0.229E+02   0.000E+00 0.585E+01 -.266E+01
   0.196E-04 0.848E+01 -.139E+00   0.808E-14 -.164E+02 0.378E+01   0.000E+00 0.679E+01 -.314E+01
   0.410E+01 -.790E+02 -.556E+02   -.667E+01 0.743E+02 0.590E+02   0.222E+01 0.403E+01 -.292E+01
   -.246E+01 0.966E+01 0.995E+01   0.242E+01 -.174E+02 -.652E+01   0.293E-01 0.667E+01 -.296E+01
   -.839E-04 0.481E+02 0.386E+02   -.285E-13 -.451E+02 -.333E+02   0.000E+00 -.261E+01 -.456E+01
   0.747E+02 0.663E+02 0.473E+02   -.770E+02 -.635E+02 -.424E+02   0.195E+01 -.244E+01 -.417E+01
   -.122E+02 0.544E+02 0.417E+02   0.139E+02 -.514E+02 -.379E+02   -.142E+01 -.258E+01 -.329E+01
   -.747E+02 0.663E+02 0.473E+02   0.770E+02 -.635E+02 -.424E+02   -.195E+01 -.244E+01 -.417E+01
   0.122E+02 0.544E+02 0.417E+02   -.139E+02 -.514E+02 -.379E+02   0.142E+01 -.258E+01 -.329E+01
   0.559E+02 0.179E+02 -.182E+01   -.581E+02 -.222E+02 -.424E+01   0.189E+01 0.371E+01 0.525E+01
   0.115E+02 -.563E+02 -.657E+02   -.121E+02 0.538E+02 0.611E+02   0.559E+00 0.210E+01 0.397E+01
   0.646E-04 -.383E+02 -.342E+02   0.306E-13 0.354E+02 0.300E+02   0.000E+00 0.246E+01 0.363E+01
   0.119E-03 -.558E+02 -.540E+02   0.527E-13 0.539E+02 0.497E+02   0.000E+00 0.162E+01 0.378E+01
   -.559E+02 0.179E+02 -.182E+01   0.581E+02 -.222E+02 -.424E+01   -.189E+01 0.371E+01 0.525E+01
   -.115E+02 -.563E+02 -.657E+02   0.121E+02 0.538E+02 0.611E+02   -.559E+00 0.210E+01 0.397E+01
   0.378E+02 0.174E+03 0.127E+02   -.387E+02 -.186E+03 -.811E+01   0.796E+00 0.986E+01 -.398E+01
   0.271E+01 0.139E+03 0.735E+02   -.265E+01 -.152E+03 -.703E+02   -.565E-01 0.112E+02 -.275E+01
   0.286E-03 0.142E+03 0.514E+02   -.251E-13 -.155E+03 -.476E+02   0.000E+00 0.108E+02 -.325E+01
   0.866E-04 0.137E+03 0.677E+02   -.708E-13 -.150E+03 -.647E+02   0.000E+00 0.112E+02 -.262E+01
   -.378E+02 0.174E+03 0.127E+02   0.387E+02 -.186E+03 -.811E+01   -.796E+00 0.986E+01 -.398E+01
   -.271E+01 0.139E+03 0.735E+02   0.265E+01 -.152E+03 -.703E+02   0.565E-01 0.112E+02 -.275E+01
   0.684E-03 -.115E+03 0.372E+02   -.661E-13 0.129E+03 -.427E+02   0.000E+00 -.120E+02 0.480E+01
   -.154E-03 -.202E+03 -.138E+03   -.725E-14 0.219E+03 0.136E+03   0.000E+00 -.147E+02 0.123E+01
   -.636E+01 -.118E+03 -.410E+02   0.103E+02 0.131E+03 0.393E+02   -.343E+01 -.115E+02 0.145E+01
   0.217E+02 -.141E+03 -.937E+02   -.228E+02 0.154E+03 0.905E+02   0.967E+00 -.109E+02 0.277E+01
   0.636E+01 -.118E+03 -.410E+02   -.103E+02 0.131E+03 0.393E+02   0.343E+01 -.115E+02 0.145E+01
   -.217E+02 -.141E+03 -.937E+02   0.228E+02 0.154E+03 0.905E+02   -.967E+00 -.109E+02 0.277E+01
   0.109E-02 0.507E+02 0.554E+02   -.195E-13 -.494E+02 -.548E+02   0.000E+00 -.125E+01 -.781E+00
 -----------------------------------------------------------------------------------------------
   -.331E-02 0.182E+02 -.614E+01   -.176E-12 0.243E-11 0.178E-12   0.666E-15 -.153E+02 0.565E+01
 
 
 POSITION                                       TOTAL-FORCE (eV/Angst)
 -----------------------------------------------------------------------------------
      0.00000      7.68556     -1.75438         0.000000      0.050185      0.009401
      0.00000      6.26287     -7.43285         0.000000      0.052936      0.005753
      3.06322      7.67759     -1.75039         0.022769      0.054648      0.011089
      3.05088      6.28320     -7.42320         0.014142      0.046246      0.000913
      6.07948      7.67759     -1.75039        -0.022769      0.054648      0.011089
      6.09182      6.28320     -7.42320        -0.014142      0.046246      0.000913
      1.55328      9.30056     -3.88113         0.035046     -0.056898     -0.012054
      1.52590      7.97187     -9.54342         0.000986     -0.078951     -0.009082
      4.57135      9.37271     -3.88485         0.000000     -0.110912      0.000650
      4.57135      7.97755     -9.51671         0.000000     -0.087393     -0.013224
      7.58942      9.30056     -3.88113        -0.035046     -0.056898     -0.012054
      7.61680      7.97187     -9.54342        -0.000986     -0.078951     -0.009082
      1.55159      6.18627     -4.50915        -0.020712     -0.042894      0.022447
      1.52475      4.77436    -10.14593         0.006102     -0.009182      0.030218
      4.57135      6.20307     -4.49521         0.000000     -0.066632      0.025632
      4.57135      4.78543    -10.13619         0.000000     -0.009946      0.025073
      7.59111      6.18627     -4.50915         0.020712     -0.042894      0.022447
      7.61795      4.77436    -10.14593        -0.006102     -0.009182      0.030218
      0.00000     10.88726     -1.16901         0.000000      0.029795      0.036933
      0.00000      9.45590     -6.83929         0.000000     -0.019765     -0.051830
      3.05635     10.85316     -1.14405        -0.023039      0.050287      0.021418
      3.05131      9.47831     -6.79086         0.005482     -0.014358     -0.032505
      6.08635     10.85316     -1.14405         0.023039      0.050287      0.021418
      6.09139      9.47831     -6.79086        -0.005482     -0.014358     -0.032505
      1.57541      1.58098     -1.64449         0.237695      0.113272      0.373817
      1.54316      0.12074     -7.47120        -0.026443      0.099607      0.012301
      4.57135      1.50254     -1.78660         0.000000      0.079597      0.030783
      4.57135      0.14394     -7.38708         0.000000      0.083427      0.002834
      7.56729      1.58098     -1.64449        -0.237695      0.113272      0.373817
      7.59954      0.12074     -7.47120         0.026443      0.099607      0.012301
      0.00000      3.39046     -3.93863         0.000000      0.156819     -0.274253
      0.00000      1.85093     -9.54899         0.000000     -0.080515     -0.004642
      3.05807      3.26864     -3.85849        -0.021895      0.003039     -0.071269
      3.05399      1.86664     -9.52686        -0.006478     -0.054318     -0.019084
      6.08463      3.26864     -3.85849         0.021895      0.003039     -0.071269
      6.08871      1.86664     -9.52686         0.006478     -0.054318     -0.019084
      0.00000     -0.38143     -4.76012         0.000000     -0.053633     -0.168347
      0.00000     -1.39521    -10.10698         0.000000      0.056203     -0.008817
      3.04713      0.02468     -4.48192         0.041795     -0.080724     -0.056203
      3.05547     -1.38744    -10.10718         0.020224     -0.016757      0.004618
      6.09557      0.02468     -4.48192        -0.041795     -0.080724     -0.056203
      6.08724     -1.38744    -10.10718        -0.020224     -0.016757      0.004618
      1.53586      4.79837     -1.14057         0.021909     -0.005774     -0.011607
      1.53861      3.36662     -6.84239         0.006340      0.049728      0.064431
      4.57135      4.74935     -1.14611         0.000000      0.031907     -0.004926
      4.57135      3.36931     -6.79701         0.000000      0.051124     -0.015849
      7.60684      4.79837     -1.14057        -0.021909     -0.005774     -0.011607
      7.60409      3.36662     -6.84239        -0.006340      0.049728      0.064431
      1.54693     11.87832     -1.37538         0.026924     -0.220770      0.090658
      1.52466     10.47668     -7.10346        -0.011587     -0.182059      0.128339
      4.57135     11.87197     -1.42432         0.000000     -0.179168      0.099184
      4.57135     10.49891     -7.06969         0.000000     -0.178678      0.116631
      7.59577     11.87832     -1.37538        -0.026924     -0.220770      0.090658
      7.61804     10.47668     -7.10346         0.011587     -0.182059      0.128339
      0.00000      5.23721     -4.20396         0.000000      0.053256     -0.121524
      0.00000      3.77201     -9.86357         0.000000      0.169403     -0.131372
      3.06191      5.18780     -4.20559        -0.009907      0.224221     -0.123905
      3.05090      3.77741     -9.86272        -0.005171      0.167162     -0.115266
      6.08080      5.18780     -4.20559         0.009907      0.224221     -0.123905
      6.09180      3.77741     -9.86272         0.005171      0.167162     -0.115266
      1.52380      7.47394     -3.15397         0.011312      0.053504     -0.165288
      1.52316      6.09136     -8.82002        -0.009913     -0.029010     -0.127708
      4.57135      7.49187     -3.14448         0.000000     -0.018273     -0.110594
      4.57135      6.10052     -8.81244         0.000000     -0.015641     -0.123077
      7.61890      7.47394     -3.15397        -0.011312      0.053504     -0.165288
      7.61954      6.09136     -8.82002         0.009913     -0.029010     -0.127708
      0.00000      9.55911     -2.49408         0.000000      0.021141      0.138887
      0.00000      8.14922     -8.15328         0.000000      0.063469      0.139360
      3.05728      9.54636     -2.48090         0.000760      0.008920      0.116511
      3.04541      8.16782     -8.13143         0.012362      0.020809      0.123088
      6.08542      9.54636     -2.48090        -0.000760      0.008920      0.116511
      6.09729      8.16782     -8.13143        -0.012362      0.020809      0.123088
      0.00000      8.99246     -5.05141         0.000000      0.351105     -0.094460
      0.00000      7.59255    -10.69636         0.000000      0.388995     -0.059761
      3.07436      8.88594     -5.04645        -0.020644      0.454180     -0.060178
      3.05645      7.57788    -10.67585        -0.011539      0.398510     -0.072443
      6.06834      8.88594     -5.04645         0.020644      0.454180     -0.060178
      6.08625      7.57788    -10.67585         0.011539      0.398510     -0.072443
      1.52758      8.07111     -0.60819        -0.009122     -0.403724      0.069741
      1.51875      6.67558     -6.27659         0.018426     -0.384353      0.086782
      4.57135      8.09762     -0.59159         0.000000     -0.427725      0.055963
      4.57135      6.66883     -6.27232         0.000000     -0.375542      0.078080
      7.61512      8.07111     -0.60819         0.009122     -0.403724      0.069741
      7.62395      6.67558     -6.27659        -0.018426     -0.384353      0.086782
      0.00000      5.77894     -1.42192         0.000000     -0.156620      0.121855
      0.00000      4.35730     -7.09505         0.000000     -0.131636      0.075604
      3.06816      5.78544     -1.40870        -0.028131     -0.164493      0.105208
      3.05729      4.37314     -7.11568        -0.004147     -0.160142      0.115413
      6.07455      5.78544     -1.40870         0.028131     -0.164493      0.105208
      6.08542      4.37314     -7.11568         0.004147     -0.160142      0.115413
      1.61783     11.14630     -4.30961        -0.123498      0.129593     -0.114731
      1.53015     -2.38866     -9.85325        -0.001133      0.185935     -0.106401
      4.57135     -0.99708     -4.22324         0.000000      0.167118     -0.094489
      4.57135     -2.39089     -9.83989         0.000000      0.176800     -0.106275
      7.52488     11.14630     -4.30961         0.123498      0.129593     -0.114731
      7.61255     -2.38866     -9.85325         0.001133      0.185935     -0.106401
      0.00000     -0.03582     -8.85190         0.000000     -0.076001     -0.111128
      3.09072      1.35114     -3.16875        -0.042240     -0.076772     -0.097580
      3.05623     -0.04230     -8.81398        -0.051785     -0.071114     -0.076128
      6.05199      1.35114     -3.16875         0.042240     -0.076772     -0.097580
      6.08647     -0.04230     -8.81398         0.051785     -0.071114     -0.076128
      1.59522      3.48675     -2.44852         0.030484      0.025590      0.157258
      1.52741      2.03041     -8.14365         0.026388      0.043754      0.092965
      4.57135      3.42651     -2.46048         0.000000      0.054079      0.086760
      4.57135      2.03053     -8.11612         0.000000      0.028656      0.106950
      7.54748      3.48675     -2.44852        -0.030484      0.025590      0.157258
      7.61529      2.03041     -8.14365        -0.026388      0.043754      0.092965
      1.56324      2.95100     -5.05784         0.030137      0.377414     -0.109844
      1.53722      1.48572    -10.68564        -0.004303      0.406123     -0.069706
      4.57135      2.87623     -5.02853         0.000000      0.374904     -0.051241
      4.57135      1.46838    -10.67707         0.000000      0.411108     -0.058470
      7.57947      2.95100     -5.05784        -0.030137      0.377414     -0.109844
      7.60548      1.48572    -10.68564         0.004303      0.406123     -0.069706
      0.00000      1.99776     -0.52266         0.000000     -0.457043      0.101227
      0.00000      0.45759     -6.37260         0.000000     -0.551600      0.031362
      3.08954      1.91727     -0.56915        -0.123720     -0.412865      0.015154
      3.03261      0.53165     -6.25793         0.043556     -0.403712      0.071218
      6.05317      1.91727     -0.56915         0.123720     -0.412865      0.015154
      6.11010      0.53165     -6.25793        -0.043556     -0.403712      0.071218
      0.00000      1.22644     -3.28596         0.000000      0.057351     -0.209856
 -----------------------------------------------------------------------------------
    total drift:                               -0.003307      0.044881      0.003882


--------------------------------------------------------------------------------------------------------



  FREE ENERGIE OF THE ION-ELECTRON SYSTEM (eV)
  ---------------------------------------------------
  free  energy   TOTEN  =      -949.55106167 eV

  energy  without entropy=     -949.54516415  energy(sigma->0) =     -949.54811291
 


--------------------------------------------------------------------------------------------------------


    POTLOK:  cpu time      1.9418: real time      1.9491


--------------------------------------------------------------------------------------------------------


 writing wavefunctions
     LOOP+:  cpu time  19887.6363: real time  19890.0491
    4ORBIT:  cpu time      0.0000: real time      0.0000

 total amount of memory used by VASP MPI-rank0  7512679. kBytes
=======================================================================

   base      :      30000. kBytes
   nonlr-proj:      47304. kBytes
   fftplans  :      51012. kBytes
   grid      :     102973. kBytes
   one-center:       1866. kBytes
   HF        :        194. kBytes
   wavefun   :    7050060. kBytes
   fock_wrk  :     229270. kBytes
 
  
  
 General timing and accounting informations for this job:
 ========================================================
  
                  Total CPU time used (sec):    19919.479
                            User time (sec):    19901.788
                          System time (sec):       17.690
                         Elapsed time (sec):    19924.329
  
                   Maximum memory used (kb):    13317504.
                   Average memory used (kb):          N/A
  
                          Minor page faults:      7907749
                          Major page faults:            4
                 Voluntary context switches:       381445
