<?xml version="1.0" encoding="ISO-8859-1"?>
<modeling>
 <generator>
  <i name="program" type="string">vasp </i>
  <i name="version" type="string">6.4.2  </i>
  <i name="subversion" type="string">20Jul23 (build Nov 12 2023 22:16:35) complex                          parallel </i>
  <i name="platform" type="string">LinuxNV </i>
  <i name="date" type="string">2025 03 17 </i>
  <i name="time" type="string">21:26:10 </i>
 </generator>
 <incar>
  <i type="int" name="ISTART">     0</i>
  <i type="string" name="PREC">Normal</i>
  <i type="string" name="ALGO">All</i>
  <i type="int" name="ISPIN">     1</i>
  <i type="int" name="ICHARG">     0</i>
  <i type="int" name="NELM">   500</i>
  <i type="int" name="IBRION">    -1</i>
  <i name="EDIFF">      0.00001000</i>
  <i name="EDIFFG">     -0.00500000</i>
  <i type="int" name="NSW">     0</i>
  <i type="int" name="ISIF">     2</i>
  <i name="ENCUT">    450.00000000</i>
  <i type="string" name="LREAL">Auto</i>
  <i type="logical" name="LPLANE"> T  </i>
  <i name="TIME">      0.40000000</i>
  <i type="int" name="ISMEAR">     0</i>
  <i name="SIGMA">      0.05000000</i>
  <i type="logical" name="LWAVE"> T  </i>
  <i type="logical" name="LCHARG"> T  </i>
  <i name="HFSCREEN">      0.20000000</i>
  <i type="logical" name="LHFCALC"> T  </i>
  <i type="int" name="LMAXFOCK">     4</i>
  <i name="AEXX">      0.32000000</i>
  <i type="string" name="PRECFOCK">Fast</i>
 </incar>
 <primitive_cell>
  <structure name="primitive_cell" >
   <crystal>
    <varray name="basis" >
     <v>       0.00000000      12.28047342       0.00000000 </v>
     <v>       9.14270205       0.00000000       0.00000000 </v>
     <v>       0.00000000      -2.76826177     -11.30069772 </v>
    </varray>
    <i name="volume">   1268.80515525 </i>
    <varray name="rec_basis" >
     <v>       0.00000000       0.08143009      -0.01994742 </v>
     <v>       0.10937686      -0.00000000       0.00000000 </v>
     <v>       0.00000000       0.00000000      -0.08849011 </v>
    </varray>
   </crystal>
   <varray name="positions" >
    <v>       0.66083139       0.00000000       0.15524547 </v>
    <v>       0.65825204       0.00000000       0.65773333 </v>
    <v>       0.66010245       0.33504531       0.15489247 </v>
    <v>       0.65971479       0.33369566       0.65687947 </v>
    <v>       0.66010245       0.66495469       0.15489247 </v>
    <v>       0.65971479       0.66630434       0.65687947 </v>
    <v>       0.83476433       0.16989279       0.34344191 </v>
    <v>       0.83951640       0.16689841       0.84449828 </v>
    <v>       0.84071308       0.50000000       0.34377078 </v>
    <v>       0.83944645       0.50000000       0.84213498 </v>
    <v>       0.83476433       0.83010721       0.34344191 </v>
    <v>       0.83951640       0.83310159       0.84449828 </v>
    <v>       0.59369434       0.16970775       0.39901489 </v>
    <v>       0.59116164       0.16677272       0.89781409 </v>
    <v>       0.59478420       0.50000000       0.39778181 </v>
    <v>       0.59186877       0.50000000       0.89695292 </v>
    <v>       0.59369434       0.83029225       0.39901489 </v>
    <v>       0.59116164       0.83322728       0.89781409 </v>
    <v>       0.90986953       0.00000000       0.10344591 </v>
    <v>       0.90642097       0.00000000       0.60520948 </v>
    <v>       0.90659440       0.33429415       0.10123668 </v>
    <v>       0.90728013       0.33374239       0.60092436 </v>
    <v>       0.90659440       0.66570585       0.10123668 </v>
    <v>       0.90728013       0.66625761       0.60092436 </v>
    <v>       0.16154293       0.17231326       0.14552121 </v>
    <v>       0.15886275       0.16878625       0.66112773 </v>
    <v>       0.15798995       0.50000000       0.15809674 </v>
    <v>       0.15907431       0.50000000       0.65368392 </v>
    <v>       0.16154293       0.82768674       0.14552121 </v>
    <v>       0.15886275       0.83121375       0.66112773 </v>
    <v>       0.35465135       0.00000000       0.34852984 </v>
    <v>       0.34119877       0.00000000       0.84499101 </v>
    <v>       0.34313270       0.33448234       0.34143791 </v>
    <v>       0.34203718       0.33403620       0.84303281 </v>
    <v>       0.34313270       0.66551766       0.34143791 </v>
    <v>       0.34203718       0.66596380       0.84303281 </v>
    <v>       0.06389199       0.00000000       0.42122382 </v>
    <v>       0.08799610       0.00000000       0.89436763 </v>
    <v>       0.09141285       0.33328592       0.39660562 </v>
    <v>       0.08863309       0.33419736       0.89438527 </v>
    <v>       0.09141285       0.66671408       0.39660562 </v>
    <v>       0.08863309       0.66580264       0.89438527 </v>
    <v>       0.41348280       0.16798758       0.10092919 </v>
    <v>       0.41063206       0.16828828       0.60548373 </v>
    <v>       0.40960158       0.50000000       0.10141923 </v>
    <v>       0.40994575       0.50000000       0.60146813 </v>
    <v>       0.41348280       0.83201242       0.10092919 </v>
    <v>       0.41063206       0.83171172       0.60548373 </v>
    <v>       0.99468742       0.16919867       0.12170716 </v>
    <v>       0.99481279       0.16676269       0.62858600 </v>
    <v>       0.99514727       0.50000000       0.12603802 </v>
    <v>       0.99594886       0.50000000       0.62559763 </v>
    <v>       0.99468742       0.83080133       0.12170716 </v>
    <v>       0.99481279       0.83323731       0.62858600 </v>
    <v>       0.51032488       0.00000000       0.37200892 </v>
    <v>       0.50390797       0.00000000       0.87282850 </v>
    <v>       0.50633408       0.33490173       0.37215352 </v>
    <v>       0.50433108       0.33369816       0.87275351 </v>
    <v>       0.50633408       0.66509827       0.37215352 </v>
    <v>       0.50433108       0.66630184       0.87275351 </v>
    <v>       0.67151736       0.16666869       0.27909513 </v>
    <v>       0.67195677       0.16659814       0.78048427 </v>
    <v>       0.67278773       0.50000000       0.27825494 </v>
    <v>       0.67255136       0.50000000       0.77981382 </v>
    <v>       0.67151736       0.83333131       0.27909513 </v>
    <v>       0.67195677       0.83340186       0.78048427 </v>
    <v>       0.82814946       0.00000000       0.22070152 </v>
    <v>       0.82622824       0.00000000       0.72148453 </v>
    <v>       0.82684801       0.33439593       0.21953477 </v>
    <v>       0.82730780       0.33309749       0.71955135 </v>
    <v>       0.82684801       0.66560407       0.21953477 </v>
    <v>       0.82730780       0.66690251       0.71955135 </v>
    <v>       0.83301981       0.00000000       0.44699996 </v>
    <v>       0.83162708       0.00000000       0.94652248 </v>
    <v>       0.82424664       0.33626427       0.44656121 </v>
    <v>       0.83002330       0.33430477       0.94470750 </v>
    <v>       0.82424664       0.66373573       0.44656121 </v>
    <v>       0.83002330       0.66569523       0.94470750 </v>
    <v>       0.66936262       0.16708235       0.05381880 </v>
    <v>       0.66879483       0.16611661       0.55541623 </v>
    <v>       0.67119035       0.50000000       0.05234982 </v>
    <v>       0.66815969       0.50000000       0.55503852 </v>
    <v>       0.66936262       0.83291765       0.05381880 </v>
    <v>       0.66879483       0.83388339       0.55541623 </v>
    <v>       0.49894328       0.00000000       0.12582628 </v>
    <v>       0.49634334       0.00000000       0.62784167 </v>
    <v>       0.49920893       0.33558519       0.12465565 </v>
    <v>       0.49804500       0.33439630       0.62966749 </v>
    <v>       0.49920893       0.66441481       0.12465565 </v>
    <v>       0.49804500       0.66560370       0.62966749 </v>
    <v>       0.99360945       0.17695262       0.38135793 </v>
    <v>       0.00203829       0.16736338       0.87191482 </v>
    <v>       0.00305074       0.50000000       0.37371470 </v>
    <v>       0.00158990       0.50000000       0.87073301 </v>
    <v>       0.99360945       0.82304738       0.38135793 </v>
    <v>       0.00203829       0.83263662       0.87191482 </v>
    <v>       0.17365580       0.00000000       0.78330575 </v>
    <v>       0.17323186       0.33805271       0.28040266 </v>
    <v>       0.17237169       0.33428067       0.77995023 </v>
    <v>       0.17323186       0.66194729       0.28040266 </v>
    <v>       0.17237169       0.66571933       0.77995023 </v>
    <v>       0.33276839       0.17448015       0.21666978 </v>
    <v>       0.32778150       0.16706341       0.72063206 </v>
    <v>       0.32810153       0.50000000       0.21772843 </v>
    <v>       0.32724168       0.50000000       0.71819616 </v>
    <v>       0.33276839       0.82551985       0.21666978 </v>
    <v>       0.32778150       0.83293659       0.72063206 </v>
    <v>       0.34119091       0.17098175       0.44756866 </v>
    <v>       0.33413305       0.16813677       0.94557312 </v>
    <v>       0.33451748       0.50000000       0.44497515 </v>
    <v>       0.33255033       0.50000000       0.94481509 </v>
    <v>       0.34119091       0.82901825       0.44756866 </v>
    <v>       0.33413305       0.83186323       0.94557312 </v>
    <v>       0.17310360       0.00000000       0.04625006 </v>
    <v>       0.16437827       0.00000000       0.56391210 </v>
    <v>       0.16747631       0.33792373       0.05036416 </v>
    <v>       0.16812183       0.33169692       0.55376465 </v>
    <v>       0.16747631       0.66207627       0.05036416 </v>
    <v>       0.16812183       0.66830308       0.55376465 </v>
    <v>       0.16541565       0.00000000       0.29077534 </v>
   </varray>
  </structure>
  <varray name="primitive_index" >
   <v type="int" >        1 </v>
   <v type="int" >        2 </v>
   <v type="int" >        3 </v>
   <v type="int" >        4 </v>
   <v type="int" >        5 </v>
   <v type="int" >        6 </v>
   <v type="int" >        7 </v>
   <v type="int" >        8 </v>
   <v type="int" >        9 </v>
   <v type="int" >       10 </v>
   <v type="int" >       11 </v>
   <v type="int" >       12 </v>
   <v type="int" >       13 </v>
   <v type="int" >       14 </v>
   <v type="int" >       15 </v>
   <v type="int" >       16 </v>
   <v type="int" >       17 </v>
   <v type="int" >       18 </v>
   <v type="int" >       19 </v>
   <v type="int" >       20 </v>
   <v type="int" >       21 </v>
   <v type="int" >       22 </v>
   <v type="int" >       23 </v>
   <v type="int" >       24 </v>
   <v type="int" >       25 </v>
   <v type="int" >       26 </v>
   <v type="int" >       27 </v>
   <v type="int" >       28 </v>
   <v type="int" >       29 </v>
   <v type="int" >       30 </v>
   <v type="int" >       31 </v>
   <v type="int" >       32 </v>
   <v type="int" >       33 </v>
   <v type="int" >       34 </v>
   <v type="int" >       35 </v>
   <v type="int" >       36 </v>
   <v type="int" >       37 </v>
   <v type="int" >       38 </v>
   <v type="int" >       39 </v>
   <v type="int" >       40 </v>
   <v type="int" >       41 </v>
   <v type="int" >       42 </v>
   <v type="int" >       43 </v>
   <v type="int" >       44 </v>
   <v type="int" >       45 </v>
   <v type="int" >       46 </v>
   <v type="int" >       47 </v>
   <v type="int" >       48 </v>
   <v type="int" >       49 </v>
   <v type="int" >       50 </v>
   <v type="int" >       51 </v>
   <v type="int" >       52 </v>
   <v type="int" >       53 </v>
   <v type="int" >       54 </v>
   <v type="int" >       55 </v>
   <v type="int" >       56 </v>
   <v type="int" >       57 </v>
   <v type="int" >       58 </v>
   <v type="int" >       59 </v>
   <v type="int" >       60 </v>
   <v type="int" >       61 </v>
   <v type="int" >       62 </v>
   <v type="int" >       63 </v>
   <v type="int" >       64 </v>
   <v type="int" >       65 </v>
   <v type="int" >       66 </v>
   <v type="int" >       67 </v>
   <v type="int" >       68 </v>
   <v type="int" >       69 </v>
   <v type="int" >       70 </v>
   <v type="int" >       71 </v>
   <v type="int" >       72 </v>
   <v type="int" >       73 </v>
   <v type="int" >       74 </v>
   <v type="int" >       75 </v>
   <v type="int" >       76 </v>
   <v type="int" >       77 </v>
   <v type="int" >       78 </v>
   <v type="int" >       79 </v>
   <v type="int" >       80 </v>
   <v type="int" >       81 </v>
   <v type="int" >       82 </v>
   <v type="int" >       83 </v>
   <v type="int" >       84 </v>
   <v type="int" >       85 </v>
   <v type="int" >       86 </v>
   <v type="int" >       87 </v>
   <v type="int" >       88 </v>
   <v type="int" >       89 </v>
   <v type="int" >       90 </v>
   <v type="int" >       91 </v>
   <v type="int" >       92 </v>
   <v type="int" >       93 </v>
   <v type="int" >       94 </v>
   <v type="int" >       95 </v>
   <v type="int" >       96 </v>
   <v type="int" >       97 </v>
   <v type="int" >       98 </v>
   <v type="int" >       99 </v>
   <v type="int" >      100 </v>
   <v type="int" >      101 </v>
   <v type="int" >      102 </v>
   <v type="int" >      103 </v>
   <v type="int" >      104 </v>
   <v type="int" >      105 </v>
   <v type="int" >      106 </v>
   <v type="int" >      107 </v>
   <v type="int" >      108 </v>
   <v type="int" >      109 </v>
   <v type="int" >      110 </v>
   <v type="int" >      111 </v>
   <v type="int" >      112 </v>
   <v type="int" >      113 </v>
   <v type="int" >      114 </v>
   <v type="int" >      115 </v>
   <v type="int" >      116 </v>
   <v type="int" >      117 </v>
   <v type="int" >      118 </v>
   <v type="int" >      119 </v>
   <v type="int" >      120 </v>
  </varray>
 </primitive_cell>
 <kpoints>
  <generation param="Gamma">
   <v type="int" name="divisions">       2        2        2 </v>
   <v name="usershift">      0.00000000       0.00000000       0.00000000 </v>
   <v name="genvec1">      0.50000000       0.00000000       0.00000000 </v>
   <v name="genvec2">      0.00000000       0.50000000       0.00000000 </v>
   <v name="genvec3">      0.00000000       0.00000000       0.50000000 </v>
   <v name="shift">      0.00000000       0.00000000       0.00000000 </v>
  </generation>
  <varray name="kpointlist" >
   <v>       0.00000000       0.00000000       0.00000000 </v>
   <v>       0.50000000       0.00000000       0.00000000 </v>
   <v>       0.00000000       0.50000000       0.00000000 </v>
   <v>       0.50000000       0.50000000       0.00000000 </v>
   <v>       0.00000000       0.00000000       0.50000000 </v>
   <v>       0.50000000       0.00000000       0.50000000 </v>
   <v>       0.00000000       0.50000000       0.50000000 </v>
   <v>       0.50000000       0.50000000       0.50000000 </v>
  </varray>
  <varray name="weights" >
   <v>       0.12500000 </v>
   <v>       0.12500000 </v>
   <v>       0.12500000 </v>
   <v>       0.12500000 </v>
   <v>       0.12500000 </v>
   <v>       0.12500000 </v>
   <v>       0.12500000 </v>
   <v>       0.12500000 </v>
  </varray>
 </kpoints>
 <parameters>
  <separator name="general" >
   <i type="string" name="SYSTEM">unknown system</i>
   <i type="logical" name="LCOMPAT"> F  </i>
  </separator>
  <separator name="electronic" >
   <i type="string" name="PREC">normal</i>
   <i name="ENMAX">    450.00000000</i>
   <i name="ENAUG">    605.39200000</i>
   <i name="EDIFF">      0.00001000</i>
   <i type="int" name="IALGO">    58</i>
   <i type="int" name="IWAVPR">    10</i>
   <i type="int" name="NBANDS">   633</i>
   <i type="int" name="NBANDSLOW">    -1</i>
   <i type="int" name="NBANDSHIGH">    -1</i>
   <i name="NELECT">   1055.00000000</i>
   <i type="int" name="TURBO">     0</i>
   <i type="int" name="IRESTART">     0</i>
   <i type="int" name="NREBOOT">     0</i>
   <i type="int" name="NMIN">     0</i>
   <i name="EREF">      0.00000000</i>
   <separator name="electronic smearing" >
    <i type="int" name="ISMEAR">     0</i>
    <i name="SIGMA">      0.05000000</i>
    <i name="KSPACING">      0.50000000</i>
    <i type="logical" name="KGAMMA"> T  </i>
    <i type="logical" name="KBLOWUP"> T  </i>
   </separator>
   <separator name="electronic projectors" >
    <i type="logical" name="LREAL"> T  </i>
    <v name="ROPT">     -0.00050000     -0.00050000     -0.00050000</v>
    <i type="int" name="LMAXPAW">  -100</i>
    <i type="int" name="LMAXMIX">     2</i>
    <i type="logical" name="NLSPLINE"> F  </i>
   </separator>
   <separator name="electronic startup" >
    <i type="int" name="ISTART">     0</i>
    <i type="int" name="ICHARG">     0</i>
    <i type="int" name="INIWAV">     1</i>
   </separator>
   <separator name="electronic spin" >
    <i type="int" name="ISPIN">     1</i>
    <i type="logical" name="LNONCOLLINEAR"> F  </i>
    <v name="MAGMOM">      1.00000000      1.00000000      1.00000000      1.00000000      1.00000000      1.00000000      1.00000000      1.00000000      1.00000000      1.00000000      1.00000000      1.00000000      1.00000000      1.00000000      1.00000000      1.00000000      1.00000000      1.00000000      1.00000000      1.00000000
      1.00000000      1.00000000      1.00000000      1.00000000      1.00000000      1.00000000      1.00000000      1.00000000      1.00000000      1.00000000      1.00000000      1.00000000      1.00000000      1.00000000      1.00000000      1.00000000      1.00000000      1.00000000      1.00000000      1.00000000
      1.00000000      1.00000000      1.00000000      1.00000000      1.00000000      1.00000000      1.00000000      1.00000000      1.00000000      1.00000000      1.00000000      1.00000000      1.00000000      1.00000000      1.00000000      1.00000000      1.00000000      1.00000000      1.00000000      1.00000000
      1.00000000      1.00000000      1.00000000      1.00000000      1.00000000      1.00000000      1.00000000      1.00000000      1.00000000      1.00000000      1.00000000      1.00000000      1.00000000      1.00000000      1.00000000      1.00000000      1.00000000      1.00000000      1.00000000      1.00000000
      1.00000000      1.00000000      1.00000000      1.00000000      1.00000000      1.00000000      1.00000000      1.00000000      1.00000000      1.00000000      1.00000000      1.00000000      1.00000000      1.00000000      1.00000000      1.00000000      1.00000000      1.00000000      1.00000000      1.00000000
      1.00000000      1.00000000      1.00000000      1.00000000      1.00000000      1.00000000      1.00000000      1.00000000      1.00000000      1.00000000      1.00000000      1.00000000      1.00000000      1.00000000      1.00000000      1.00000000      1.00000000      1.00000000      1.00000000      1.00000000
</v>
    <i name="NUPDOWN">     -1.00000000</i>
    <i type="logical" name="LSORBIT"> F  </i>
    <v name="SAXIS">      0.00000000      0.00000000      1.00000000</v>
    <i type="logical" name="LSPIRAL"> F  </i>
    <v name="QSPIRAL">      0.00000000      0.00000000      0.00000000</v>
    <i type="logical" name="LZEROZ"> F  </i>
   </separator>
   <separator name="electronic exchange-correlation" >
    <i type="logical" name="LASPH"> F  </i>
    <i type="logical" name="LMETAGGA"> F  </i>
   </separator>
   <separator name="electronic convergence" >
    <i type="int" name="NELM">   500</i>
    <i type="int" name="NELMDL">    -5</i>
    <i type="int" name="NELMIN">     2</i>
    <i name="ENINI">    450.00000000</i>
    <separator name="electronic convergence detail" >
     <i type="logical" name="LDIAG"> T  </i>
     <i type="logical" name="LSUBROT"> F  </i>
     <i name="WEIMIN">      0.00000000</i>
     <i name="EBREAK">      0.00000000</i>
     <i name="DEPER">      0.30000000</i>
     <i type="int" name="NRMM">     4</i>
     <i name="TIME">      0.40000000</i>
    </separator>
   </separator>
   <separator name="electronic mixer" >
    <i name="AMIX">      0.40000000</i>
    <i name="BMIX">      1.00000000</i>
    <i name="AMIN">      0.10000000</i>
    <i name="AMIX_MAG">      1.60000000</i>
    <i name="BMIX_MAG">      1.00000000</i>
    <separator name="electronic mixer details" >
     <i type="int" name="IMIX">     4</i>
     <i type="logical" name="MIXFIRST"> F  </i>
     <i type="int" name="MAXMIX">   -45</i>
     <i name="WC">    100.00000000</i>
     <i type="int" name="INIMIX">     1</i>
     <i type="int" name="MIXPRE">     1</i>
     <i type="int" name="MREMOVE">     5</i>
    </separator>
   </separator>
   <separator name="electronic dipolcorrection" >
    <i type="logical" name="LDIPOL"> F  </i>
    <i type="logical" name="LMONO"> F  </i>
    <i type="int" name="IDIPOL">     0</i>
    <i name="EPSILON">      1.00000000</i>
    <v name="DIPOL">   -100.00000000   -100.00000000   -100.00000000</v>
    <i name="EFIELD">      0.00000000</i>
   </separator>
  </separator>
  <separator name="grids" >
   <i type="int" name="NGX">    64</i>
   <i type="int" name="NGY">    48</i>
   <i type="int" name="NGZ">    60</i>
   <i type="int" name="NGXF">   128</i>
   <i type="int" name="NGYF">    96</i>
   <i type="int" name="NGZF">   120</i>
   <i type="logical" name="ADDGRID"> F  </i>
  </separator>
  <separator name="ionic" >
   <i type="int" name="NSW">     0</i>
   <i type="int" name="IBRION">    -1</i>
   <i type="int" name="MDALGO">     0</i>
   <i type="int" name="ISIF">     2</i>
   <i name="PSTRESS">      0.00000000</i>
   <i name="EDIFFG">     -0.00500000</i>
   <i type="int" name="NFREE">     0</i>
   <i name="POTIM">      0.50000000</i>
   <i name="SMASS">     -3.00000000</i>
   <i name="SCALEE">      1.00000000</i>
  </separator>
  <separator name="ionic md" >
   <i name="TEBEG">      0.00010000</i>
   <i name="TEEND">      0.00010000</i>
   <i type="int" name="NBLOCK">     1</i>
   <i type="int" name="KBLOCK">     1</i>
   <i type="int" name="NPACO">   256</i>
   <i name="APACO">     10.00000000</i>
  </separator>
  <separator name="symmetry" >
   <i type="int" name="ISYM">     3</i>
   <i name="SYMPREC">      0.00001000</i>
  </separator>
  <separator name="dos" >
   <i type="int" name="LORBIT">     0</i>
   <v name="RWIGS">     -1.00000000     -1.00000000     -1.00000000</v>
   <i type="int" name="NEDOS">   301</i>
   <i name="EMIN">     10.00000000</i>
   <i name="EMAX">    -10.00000000</i>
   <i name="EFERMI">      0.00000000</i>
  </separator>
  <separator name="writing" >
   <i type="int" name="NWRITE">     2</i>
   <i type="logical" name="LWAVE"> T  </i>
   <i type="logical" name="LDOWNSAMPLE"> F  </i>
   <i type="logical" name="LCHARG"> T  </i>
   <i type="logical" name="LPARD"> F  </i>
   <i type="logical" name="LVTOT"> F  </i>
   <i type="logical" name="LVHAR"> F  </i>
   <i type="logical" name="LELF"> F  </i>
   <i type="logical" name="LOPTICS"> F  </i>
   <v name="STM">      0.00000000      0.00000000      0.00000000      0.00000000      0.00000000      0.00000000      0.00000000</v>
  </separator>
  <separator name="performance" >
   <i type="int" name="NPAR">     1</i>
   <i type="int" name="NSIM">     4</i>
   <i type="int" name="NBLK">    -1</i>
   <i type="logical" name="LPLANE"> T  </i>
   <i type="logical" name="LSCALAPACK"> T  </i>
   <i type="logical" name="LSCAAWARE"> F  </i>
   <i type="logical" name="LSCALU"> F  </i>
   <i type="logical" name="LASYNC"> F  </i>
   <i type="logical" name="LORBITALREAL"> F  </i>
  </separator>
  <separator name="miscellaneous" >
   <i type="int" name="IDIOT">     3</i>
   <i type="int" name="PHON_NSTRUCT">    -1</i>
   <i type="logical" name="LMUSIC"> F  </i>
   <v name="POMASS">     69.72300000     16.00000000     30.97400000</v>
   <v name="DARWINR">      0.00000000      0.00000000      0.00000000</v>
   <v name="DARWINV">      1.00000000      1.00000000      1.00000000</v>
   <i type="logical" name="LCORR"> T  </i>
  </separator>
  <i type="logical" name="GGA_COMPAT"> T  </i>
  <i type="logical" name="LBERRY"> F  </i>
  <i type="int" name="ICORELEVEL">     0</i>
  <i type="logical" name="LDAU"> F  </i>
  <i type="int" name="I_CONSTRAINED_M">     0</i>
  <separator name="electronic exchange-correlation" >
   <i type="string" name="GGA">--</i>
   <i type="int" name="VOSKOWN">     0</i>
   <i type="logical" name="LHFCALC"> T  </i>
   <i type="string" name="PRECFOCK">fast</i>
   <i type="logical" name="LSYMGRAD"> F  </i>
   <i type="logical" name="LHFONE"> F  </i>
   <i type="logical" name="LRHFCALC"> F  </i>
   <i type="logical" name="LTHOMAS"> F  </i>
   <i type="logical" name="LMODELHF"> F  </i>
   <i type="logical" name="LFOCKACE"> T  </i>
   <i name="ENCUT4O">     -1.00000000</i>
   <i type="int" name="EXXOEP">     0</i>
   <i type="int" name="FOURORBIT">     0</i>
   <i name="AEXX">      0.32000000</i>
   <i name="HFALPHA">     -1.00000000</i>
   <i name="MCALPHA">      0.00000000</i>
   <i name="ALDAX">      0.68000000</i>
   <i name="AGGAX">      0.68000000</i>
   <i name="ALDAC">      1.00000000</i>
   <i name="AGGAC">      1.00000000</i>
   <i type="int" name="NKREDX">     1</i>
   <i type="int" name="NKREDY">     1</i>
   <i type="int" name="NKREDZ">     1</i>
   <i type="logical" name="SHIFTRED"> F  </i>
   <i type="logical" name="ODDONLY"> F  </i>
   <i type="logical" name="EVENONLY"> F  </i>
   <i type="int" name="LMAXFOCK">     4</i>
   <i type="int" name="NMAXFOCKAE">     1</i>
   <i type="logical" name="LFOCKAEDFT"> F  </i>
   <i name="HFSCREEN">      0.20000000</i>
   <i name="HFSCREENC">      0.20000000</i>
   <i type="int" name="NBANDSGWLOW">     1</i>
  </separator>
  <separator name="vdW DFT" >
   <i type="logical" name="LUSE_VDW"> F  </i>
   <i type="int" name="IVDW_NL">     1</i>
   <i type="logical" name="LSPIN_VDW"> F  </i>
   <i name="Zab_VDW">     -0.84910000</i>
   <i name="PARAM1">      0.12340000</i>
   <i name="PARAM2">      1.00000000</i>
   <i name="PARAM3">      0.00000000</i>
  </separator>
  <separator name="model GW" >
   <i type="int" name="MODEL_GW">     0</i>
   <i name="MODEL_EPS0">      6.34402578</i>
   <i name="MODEL_ALPHA">      1.00000000</i>
  </separator>
  <separator name="linear response parameters" >
   <i type="logical" name="LEPSILON"> F  </i>
   <i type="logical" name="LRPA"> F  </i>
   <i type="logical" name="LNABLA"> F  </i>
   <i type="logical" name="LVEL"> F  </i>
   <i name="CSHIFT">      0.10000000</i>
   <i name="OMEGAMAX">     -1.00000000</i>
   <i name="DEG_THRESHOLD">      0.00200000</i>
   <i name="RTIME">     -0.10000000</i>
   <i name="WPLASMAI">      0.00000000</i>
   <v name="DFIELD">      0.00000000      0.00000000      0.00000000</v>
   <v name="WPLASMA">      0.00000000      0.00000000      0.00000000      0.00000000      0.00000000      0.00000000      0.00000000      0.00000000      0.00000000</v>
  </separator>
  <separator name="orbital magnetization" >
   <i type="logical" name="NUCIND"> F  </i>
   <v name="MAGPOS">      0.00000000      0.00000000      0.00000000</v>
   <i type="logical" name="LNICSALL"> T  </i>
   <i type="logical" name="ORBITALMAG"> F  </i>
   <i type="logical" name="LMAGBLOCH"> F  </i>
   <i type="logical" name="LCHIMAG"> F  </i>
   <i type="logical" name="LGAUGE"> T  </i>
   <i type="int" name="MAGATOM">     0</i>
   <v name="MAGDIPOL">      0.00000000      0.00000000      0.00000000</v>
   <v name="AVECCONST">      0.00000000      0.00000000      0.00000000</v>
  </separator>
  <separator name="response functions" >
   <i type="logical" name="LALL_IN_ONE"> F  </i>
   <i type="int" name="IALL_IN_ONE">    -1</i>
   <i type="int" name="NBANDS_WAVE">    -1</i>
   <i type="logical" name="LFINITE_TEMPERATURE"> F  </i>
   <i type="logical" name="LADDER"> F  </i>
   <i type="logical" name="LRPAFORCE"> F  </i>
   <i type="logical" name="LFXC"> F  </i>
   <i type="logical" name="LHARTREE"> T  </i>
   <i type="int" name="IBSE">     0</i>
   <v type="int" name="KPOINT">    -1     0     0     0</v>
   <i type="logical" name="LTCTC"> F  </i>
   <i type="logical" name="LTCTE"> F  </i>
   <i type="logical" name="LTETE"> F  </i>
   <i type="logical" name="LTRIPLET"> F  </i>
   <i type="logical" name="LFXCEPS"> F  </i>
   <i type="logical" name="LFXHEG"> F  </i>
   <i type="int" name="NATURALO">     2</i>
   <i type="logical" name="LHOLEGF"> F  </i>
   <i type="logical" name="L2ORDER"> F  </i>
   <i type="logical" name="LDMP1"> F  </i>
   <i type="logical" name="LMP2LT"> F  </i>
   <i type="logical" name="LSMP2LT"> F  </i>
   <i type="logical" name="LGWLF"> F  </i>
   <i name="ENCUTGW">     -1.60000002</i>
   <i name="ENCUTGWSOFT">     -1.60000002</i>
   <i name="ENCUTLF">     -1.00000000</i>
   <i type="logical" name="LESF_SPLINES"> F  </i>
   <i type="int" name="LMAXMP2">    -1</i>
   <i name="SCISSOR">      0.00000000</i>
   <i type="int" name="NOMEGA">     0</i>
   <i type="int" name="NOMEGAR">     0</i>
   <i type="int" name="NBANDSGW">    -1</i>
   <i type="int" name="NBANDSO">    -1</i>
   <i type="int" name="NBANDSV">    -1</i>
   <i type="int" name="NELMGW">     1</i>
   <i type="int" name="NELMHF">     1</i>
   <i type="int" name="DIM">     3</i>
   <i type="int" name="IESPILON">     4</i>
   <i type="int" name="ANTIRES">     0</i>
   <i name="OMEGAMAX">    -30.00000000</i>
   <i name="OMEGAMIN">    -30.00000000</i>
   <i name="OMEGATL">   -200.00000000</i>
   <i type="int" name="OMEGAGRID">     0</i>
   <i name="CSHIFT">     -0.10000000</i>
   <i type="logical" name="LSELFENERGY"> F  </i>
   <i type="logical" name="LSPECTRAL"> F  </i>
   <i type="logical" name="LSPECTRALGW"> F  </i>
   <i type="logical" name="LSINGLES"> F  </i>
   <i type="logical" name="LFERMIGW"> F  </i>
   <i type="logical" name="ODDONLYGW"> F  </i>
   <i type="logical" name="EVENONLYGW"> F  </i>
   <i type="int" name="NKREDLFX">     1</i>
   <i type="int" name="NKREDLFY">     1</i>
   <i type="int" name="NKREDLFZ">     1</i>
   <i type="int" name="MAXMEM">  2800</i>
   <i type="int" name="TELESCOPE">     0</i>
   <i type="int" name="NTAUPAR">    -1</i>
   <i type="int" name="NOMEGAPAR">    -1</i>
   <i name="DAMP_NEWTON">      0.80000001</i>
   <i name="LAMBDA">      1.00000000</i>
  </separator>
  <separator name="External order field" >
   <i name="OFIELD_KAPPA">      0.00000000</i>
   <v name="OFIELD_K">      0.00000000      0.00000000      0.00000000</v>
   <i name="OFIELD_Q6_NEAR">      0.00000000</i>
   <i name="OFIELD_Q6_FAR">      0.00000000</i>
   <i name="OFIELD_A">      0.00000000</i>
  </separator>
  <separator name="optional k-points parameters" >
   <i type="int" name="KPOINTS_OPT_MODE">     1</i>
   <i type="logical" name="LKPOINTS_OPT"> F  </i>
  </separator>
 </parameters>
 <atominfo>
  <atoms>     120 </atoms>
  <types>       3 </types>
  <array name="atoms" >
   <dimension dim="1">ion</dimension>
   <field type="string">element</field>
   <field type="int">atomtype</field>
   <set>
    <rc><c>Ga</c><c>   1</c></rc>
    <rc><c>Ga</c><c>   1</c></rc>
    <rc><c>Ga</c><c>   1</c></rc>
    <rc><c>Ga</c><c>   1</c></rc>
    <rc><c>Ga</c><c>   1</c></rc>
    <rc><c>Ga</c><c>   1</c></rc>
    <rc><c>Ga</c><c>   1</c></rc>
    <rc><c>Ga</c><c>   1</c></rc>
    <rc><c>Ga</c><c>   1</c></rc>
    <rc><c>Ga</c><c>   1</c></rc>
    <rc><c>Ga</c><c>   1</c></rc>
    <rc><c>Ga</c><c>   1</c></rc>
    <rc><c>Ga</c><c>   1</c></rc>
    <rc><c>Ga</c><c>   1</c></rc>
    <rc><c>Ga</c><c>   1</c></rc>
    <rc><c>Ga</c><c>   1</c></rc>
    <rc><c>Ga</c><c>   1</c></rc>
    <rc><c>Ga</c><c>   1</c></rc>
    <rc><c>Ga</c><c>   1</c></rc>
    <rc><c>Ga</c><c>   1</c></rc>
    <rc><c>Ga</c><c>   1</c></rc>
    <rc><c>Ga</c><c>   1</c></rc>
    <rc><c>Ga</c><c>   1</c></rc>
    <rc><c>Ga</c><c>   1</c></rc>
    <rc><c>Ga</c><c>   1</c></rc>
    <rc><c>Ga</c><c>   1</c></rc>
    <rc><c>Ga</c><c>   1</c></rc>
    <rc><c>Ga</c><c>   1</c></rc>
    <rc><c>Ga</c><c>   1</c></rc>
    <rc><c>Ga</c><c>   1</c></rc>
    <rc><c>Ga</c><c>   1</c></rc>
    <rc><c>Ga</c><c>   1</c></rc>
    <rc><c>Ga</c><c>   1</c></rc>
    <rc><c>Ga</c><c>   1</c></rc>
    <rc><c>Ga</c><c>   1</c></rc>
    <rc><c>Ga</c><c>   1</c></rc>
    <rc><c>Ga</c><c>   1</c></rc>
    <rc><c>Ga</c><c>   1</c></rc>
    <rc><c>Ga</c><c>   1</c></rc>
    <rc><c>Ga</c><c>   1</c></rc>
    <rc><c>Ga</c><c>   1</c></rc>
    <rc><c>Ga</c><c>   1</c></rc>
    <rc><c>Ga</c><c>   1</c></rc>
    <rc><c>Ga</c><c>   1</c></rc>
    <rc><c>Ga</c><c>   1</c></rc>
    <rc><c>Ga</c><c>   1</c></rc>
    <rc><c>Ga</c><c>   1</c></rc>
    <rc><c>Ga</c><c>   1</c></rc>
    <rc><c>O </c><c>   2</c></rc>
    <rc><c>O </c><c>   2</c></rc>
    <rc><c>O </c><c>   2</c></rc>
    <rc><c>O </c><c>   2</c></rc>
    <rc><c>O </c><c>   2</c></rc>
    <rc><c>O </c><c>   2</c></rc>
    <rc><c>O </c><c>   2</c></rc>
    <rc><c>O </c><c>   2</c></rc>
    <rc><c>O </c><c>   2</c></rc>
    <rc><c>O </c><c>   2</c></rc>
    <rc><c>O </c><c>   2</c></rc>
    <rc><c>O </c><c>   2</c></rc>
    <rc><c>O </c><c>   2</c></rc>
    <rc><c>O </c><c>   2</c></rc>
    <rc><c>O </c><c>   2</c></rc>
    <rc><c>O </c><c>   2</c></rc>
    <rc><c>O </c><c>   2</c></rc>
    <rc><c>O </c><c>   2</c></rc>
    <rc><c>O </c><c>   2</c></rc>
    <rc><c>O </c><c>   2</c></rc>
    <rc><c>O </c><c>   2</c></rc>
    <rc><c>O </c><c>   2</c></rc>
    <rc><c>O </c><c>   2</c></rc>
    <rc><c>O </c><c>   2</c></rc>
    <rc><c>O </c><c>   2</c></rc>
    <rc><c>O </c><c>   2</c></rc>
    <rc><c>O </c><c>   2</c></rc>
    <rc><c>O </c><c>   2</c></rc>
    <rc><c>O </c><c>   2</c></rc>
    <rc><c>O </c><c>   2</c></rc>
    <rc><c>O </c><c>   2</c></rc>
    <rc><c>O </c><c>   2</c></rc>
    <rc><c>O </c><c>   2</c></rc>
    <rc><c>O </c><c>   2</c></rc>
    <rc><c>O </c><c>   2</c></rc>
    <rc><c>O </c><c>   2</c></rc>
    <rc><c>O </c><c>   2</c></rc>
    <rc><c>O </c><c>   2</c></rc>
    <rc><c>O </c><c>   2</c></rc>
    <rc><c>O </c><c>   2</c></rc>
    <rc><c>O </c><c>   2</c></rc>
    <rc><c>O </c><c>   2</c></rc>
    <rc><c>O </c><c>   2</c></rc>
    <rc><c>O </c><c>   2</c></rc>
    <rc><c>O </c><c>   2</c></rc>
    <rc><c>O </c><c>   2</c></rc>
    <rc><c>O </c><c>   2</c></rc>
    <rc><c>O </c><c>   2</c></rc>
    <rc><c>O </c><c>   2</c></rc>
    <rc><c>O </c><c>   2</c></rc>
    <rc><c>O </c><c>   2</c></rc>
    <rc><c>O </c><c>   2</c></rc>
    <rc><c>O </c><c>   2</c></rc>
    <rc><c>O </c><c>   2</c></rc>
    <rc><c>O </c><c>   2</c></rc>
    <rc><c>O </c><c>   2</c></rc>
    <rc><c>O </c><c>   2</c></rc>
    <rc><c>O </c><c>   2</c></rc>
    <rc><c>O </c><c>   2</c></rc>
    <rc><c>O </c><c>   2</c></rc>
    <rc><c>O </c><c>   2</c></rc>
    <rc><c>O </c><c>   2</c></rc>
    <rc><c>O </c><c>   2</c></rc>
    <rc><c>O </c><c>   2</c></rc>
    <rc><c>O </c><c>   2</c></rc>
    <rc><c>O </c><c>   2</c></rc>
    <rc><c>O </c><c>   2</c></rc>
    <rc><c>O </c><c>   2</c></rc>
    <rc><c>O </c><c>   2</c></rc>
    <rc><c>O </c><c>   2</c></rc>
    <rc><c>O </c><c>   2</c></rc>
    <rc><c>P </c><c>   3</c></rc>
   </set>
  </array>
  <array name="atomtypes" >
   <dimension dim="1">type</dimension>
   <field type="int">atomspertype</field>
   <field type="string">element</field>
   <field>mass</field>
   <field>valence</field>
   <field type="string">pseudopotential</field>
   <set>
    <rc><c>  48</c><c>Ga</c><c>     69.72300000</c><c>     13.00000000</c><c>  PAW_PBE Ga_d 06Jul2010                </c></rc>
    <rc><c>  71</c><c>O </c><c>     16.00000000</c><c>      6.00000000</c><c>   PAW_PBE O 08Apr2002                  </c></rc>
    <rc><c>   1</c><c>P </c><c>     30.97400000</c><c>      5.00000000</c><c>  PAW_PBE P 06Sep2000                   </c></rc>
   </set>
  </array>
 </atominfo>
 <structure name="initialpos" >
  <crystal>
   <varray name="basis" >
    <v>       0.00000000      12.28047342       0.00000000 </v>
    <v>       9.14270205       0.00000000       0.00000000 </v>
    <v>       0.00000000      -2.76826177     -11.30069772 </v>
   </varray>
   <i name="volume">   1268.80515525 </i>
   <varray name="rec_basis" >
    <v>       0.00000000       0.08143009      -0.01994742 </v>
    <v>       0.10937686      -0.00000000       0.00000000 </v>
    <v>       0.00000000       0.00000000      -0.08849011 </v>
   </varray>
  </crystal>
  <varray name="positions" >
   <v>       0.66083139       0.00000000       0.15524547 </v>
   <v>       0.65825204       0.00000000       0.65773333 </v>
   <v>       0.66010245       0.33504531       0.15489247 </v>
   <v>       0.65971479       0.33369566       0.65687947 </v>
   <v>       0.66010245       0.66495469       0.15489247 </v>
   <v>       0.65971479       0.66630434       0.65687947 </v>
   <v>       0.83476433       0.16989279       0.34344191 </v>
   <v>       0.83951640       0.16689841       0.84449828 </v>
   <v>       0.84071308       0.50000000       0.34377078 </v>
   <v>       0.83944645       0.50000000       0.84213498 </v>
   <v>       0.83476433       0.83010721       0.34344191 </v>
   <v>       0.83951640       0.83310159       0.84449828 </v>
   <v>       0.59369434       0.16970775       0.39901489 </v>
   <v>       0.59116164       0.16677272       0.89781409 </v>
   <v>       0.59478420       0.50000000       0.39778181 </v>
   <v>       0.59186877       0.50000000       0.89695292 </v>
   <v>       0.59369434       0.83029225       0.39901489 </v>
   <v>       0.59116164       0.83322728       0.89781409 </v>
   <v>       0.90986953       0.00000000       0.10344591 </v>
   <v>       0.90642097       0.00000000       0.60520948 </v>
   <v>       0.90659440       0.33429415       0.10123668 </v>
   <v>       0.90728013       0.33374239       0.60092436 </v>
   <v>       0.90659440       0.66570585       0.10123668 </v>
   <v>       0.90728013       0.66625761       0.60092436 </v>
   <v>       0.16154293       0.17231326       0.14552121 </v>
   <v>       0.15886275       0.16878625       0.66112773 </v>
   <v>       0.15798995       0.50000000       0.15809674 </v>
   <v>       0.15907431       0.50000000       0.65368392 </v>
   <v>       0.16154293       0.82768674       0.14552121 </v>
   <v>       0.15886275       0.83121375       0.66112773 </v>
   <v>       0.35465135       0.00000000       0.34852984 </v>
   <v>       0.34119877       0.00000000       0.84499101 </v>
   <v>       0.34313270       0.33448234       0.34143791 </v>
   <v>       0.34203718       0.33403620       0.84303281 </v>
   <v>       0.34313270       0.66551766       0.34143791 </v>
   <v>       0.34203718       0.66596380       0.84303281 </v>
   <v>       0.06389199       0.00000000       0.42122382 </v>
   <v>       0.08799610       0.00000000       0.89436763 </v>
   <v>       0.09141285       0.33328592       0.39660562 </v>
   <v>       0.08863309       0.33419736       0.89438527 </v>
   <v>       0.09141285       0.66671408       0.39660562 </v>
   <v>       0.08863309       0.66580264       0.89438527 </v>
   <v>       0.41348280       0.16798758       0.10092919 </v>
   <v>       0.41063206       0.16828828       0.60548373 </v>
   <v>       0.40960158       0.50000000       0.10141923 </v>
   <v>       0.40994575       0.50000000       0.60146813 </v>
   <v>       0.41348280       0.83201242       0.10092919 </v>
   <v>       0.41063206       0.83171172       0.60548373 </v>
   <v>       0.99468742       0.16919867       0.12170716 </v>
   <v>       0.99481279       0.16676269       0.62858600 </v>
   <v>       0.99514727       0.50000000       0.12603802 </v>
   <v>       0.99594886       0.50000000       0.62559763 </v>
   <v>       0.99468742       0.83080133       0.12170716 </v>
   <v>       0.99481279       0.83323731       0.62858600 </v>
   <v>       0.51032488       0.00000000       0.37200892 </v>
   <v>       0.50390797       0.00000000       0.87282850 </v>
   <v>       0.50633408       0.33490173       0.37215352 </v>
   <v>       0.50433108       0.33369816       0.87275351 </v>
   <v>       0.50633408       0.66509827       0.37215352 </v>
   <v>       0.50433108       0.66630184       0.87275351 </v>
   <v>       0.67151736       0.16666869       0.27909513 </v>
   <v>       0.67195677       0.16659814       0.78048427 </v>
   <v>       0.67278773       0.50000000       0.27825494 </v>
   <v>       0.67255136       0.50000000       0.77981382 </v>
   <v>       0.67151736       0.83333131       0.27909513 </v>
   <v>       0.67195677       0.83340186       0.78048427 </v>
   <v>       0.82814946       0.00000000       0.22070152 </v>
   <v>       0.82622824       0.00000000       0.72148453 </v>
   <v>       0.82684801       0.33439593       0.21953477 </v>
   <v>       0.82730780       0.33309749       0.71955135 </v>
   <v>       0.82684801       0.66560407       0.21953477 </v>
   <v>       0.82730780       0.66690251       0.71955135 </v>
   <v>       0.83301981       0.00000000       0.44699996 </v>
   <v>       0.83162708       0.00000000       0.94652248 </v>
   <v>       0.82424664       0.33626427       0.44656121 </v>
   <v>       0.83002330       0.33430477       0.94470750 </v>
   <v>       0.82424664       0.66373573       0.44656121 </v>
   <v>       0.83002330       0.66569523       0.94470750 </v>
   <v>       0.66936262       0.16708235       0.05381880 </v>
   <v>       0.66879483       0.16611661       0.55541623 </v>
   <v>       0.67119035       0.50000000       0.05234982 </v>
   <v>       0.66815969       0.50000000       0.55503852 </v>
   <v>       0.66936262       0.83291765       0.05381880 </v>
   <v>       0.66879483       0.83388339       0.55541623 </v>
   <v>       0.49894328       0.00000000       0.12582628 </v>
   <v>       0.49634334       0.00000000       0.62784167 </v>
   <v>       0.49920893       0.33558519       0.12465565 </v>
   <v>       0.49804500       0.33439630       0.62966749 </v>
   <v>       0.49920893       0.66441481       0.12465565 </v>
   <v>       0.49804500       0.66560370       0.62966749 </v>
   <v>       0.99360945       0.17695262       0.38135793 </v>
   <v>       0.00203829       0.16736338       0.87191482 </v>
   <v>       0.00305074       0.50000000       0.37371470 </v>
   <v>       0.00158990       0.50000000       0.87073301 </v>
   <v>       0.99360945       0.82304738       0.38135793 </v>
   <v>       0.00203829       0.83263662       0.87191482 </v>
   <v>       0.17365580       0.00000000       0.78330575 </v>
   <v>       0.17323186       0.33805271       0.28040266 </v>
   <v>       0.17237169       0.33428067       0.77995023 </v>
   <v>       0.17323186       0.66194729       0.28040266 </v>
   <v>       0.17237169       0.66571933       0.77995023 </v>
   <v>       0.33276839       0.17448015       0.21666978 </v>
   <v>       0.32778150       0.16706341       0.72063206 </v>
   <v>       0.32810153       0.50000000       0.21772843 </v>
   <v>       0.32724168       0.50000000       0.71819616 </v>
   <v>       0.33276839       0.82551985       0.21666978 </v>
   <v>       0.32778150       0.83293659       0.72063206 </v>
   <v>       0.34119091       0.17098175       0.44756866 </v>
   <v>       0.33413305       0.16813677       0.94557312 </v>
   <v>       0.33451748       0.50000000       0.44497515 </v>
   <v>       0.33255033       0.50000000       0.94481509 </v>
   <v>       0.34119091       0.82901825       0.44756866 </v>
   <v>       0.33413305       0.83186323       0.94557312 </v>
   <v>       0.17310360       0.00000000       0.04625006 </v>
   <v>       0.16437827       0.00000000       0.56391210 </v>
   <v>       0.16747631       0.33792373       0.05036416 </v>
   <v>       0.16812183       0.33169692       0.55376465 </v>
   <v>       0.16747631       0.66207627       0.05036416 </v>
   <v>       0.16812183       0.66830308       0.55376465 </v>
   <v>       0.16541565       0.00000000       0.29077534 </v>
  </varray>
 </structure>
 <calculation>
  <scstep>
   <time name="total">    4.09    4.09</time>
   <energy>
    <i name="alphaZ">   5529.70323211 </i>
    <i name="ewald"> -88556.18533230 </i>
    <i name="hartreedc">  -2117.95812904 </i>
    <i name="XCdc">   2792.00970920 </i>
    <i name="pawpsdc"> 337737.28076865 </i>
    <i name="pawaedc">-367072.89964457 </i>
    <i name="eentropy">     -0.00962174 </i>
    <i name="bandstr"> -40804.35011291 </i>
    <i name="atom"> 133646.93285989 </i>
    <i name="e_fr_energy"> -18845.47627071 </i>
    <i name="e_wo_entrp"> -18845.46664896 </i>
    <i name="e_0_energy"> -18845.47145984 </i>
   </energy>
  </scstep>
  <scstep>
   <time name="total">    3.12    3.12</time>
   <energy>
    <i name="e_fr_energy"> -63382.82853026 </i>
    <i name="e_wo_entrp"> -63382.80853711 </i>
    <i name="e_0_energy"> -63382.81853369 </i>
   </energy>
  </scstep>
  <scstep>
   <time name="total">    3.30    3.30</time>
   <energy>
    <i name="e_fr_energy"> -68398.41452556 </i>
    <i name="e_wo_entrp"> -68398.39490703 </i>
    <i name="e_0_energy"> -68398.40471629 </i>
   </energy>
  </scstep>
  <scstep>
   <time name="total">    3.77    3.77</time>
   <energy>
    <i name="e_fr_energy"> -69116.30676951 </i>
    <i name="e_wo_entrp"> -69116.25300885 </i>
    <i name="e_0_energy"> -69116.27988918 </i>
   </energy>
  </scstep>
  <scstep>
   <time name="total">  236.34  236.32</time>
   <energy>
    <i name="e_fr_energy"> -38964.70887801 </i>
    <i name="e_wo_entrp"> -38964.68331228 </i>
    <i name="e_0_energy"> -38964.69609515 </i>
   </energy>
  </scstep>
  <scstep>
   <time name="total">  472.00  472.03</time>
   <energy>
    <i name="e_fr_energy">  34662.22212706 </i>
    <i name="e_wo_entrp">  34662.25007649 </i>
    <i name="e_0_energy">  34662.23610177 </i>
   </energy>
  </scstep>
  <scstep>
   <time name="total">  472.19  472.18</time>
   <energy>
    <i name="e_fr_energy">  13053.70512675 </i>
    <i name="e_wo_entrp">  13053.71707831 </i>
    <i name="e_0_energy">  13053.71110253 </i>
   </energy>
  </scstep>
  <scstep>
   <time name="total">  471.25  471.25</time>
   <energy>
    <i name="e_fr_energy">   9177.40888194 </i>
    <i name="e_wo_entrp">   9177.44199335 </i>
    <i name="e_0_energy">   9177.42543764 </i>
   </energy>
  </scstep>
  <scstep>
   <time name="total">  471.06  471.07</time>
   <energy>
    <i name="e_fr_energy">   5429.11238878 </i>
    <i name="e_wo_entrp">   5429.13435300 </i>
    <i name="e_0_energy">   5429.12337089 </i>
   </energy>
  </scstep>
  <scstep>
   <time name="total">  471.20  471.21</time>
   <energy>
    <i name="e_fr_energy">   3651.43277513 </i>
    <i name="e_wo_entrp">   3651.45496943 </i>
    <i name="e_0_energy">   3651.44387228 </i>
   </energy>
  </scstep>
  <scstep>
   <time name="total">  471.75  471.74</time>
   <energy>
    <i name="e_fr_energy">   1951.61983233 </i>
    <i name="e_wo_entrp">   1951.64166148 </i>
    <i name="e_0_energy">   1951.63074691 </i>
   </energy>
  </scstep>
  <scstep>
   <time name="total">  470.68  470.69</time>
   <energy>
    <i name="e_fr_energy">    921.60126972 </i>
    <i name="e_wo_entrp">    921.60630686 </i>
    <i name="e_0_energy">    921.60378829 </i>
   </energy>
  </scstep>
  <scstep>
   <time name="total">  470.09  470.09</time>
   <energy>
    <i name="e_fr_energy">    160.68531053 </i>
    <i name="e_wo_entrp">    160.69081940 </i>
    <i name="e_0_energy">    160.68806496 </i>
   </energy>
  </scstep>
  <scstep>
   <time name="total">  470.32  470.31</time>
   <energy>
    <i name="e_fr_energy">   -385.51510312 </i>
    <i name="e_wo_entrp">   -385.50813907 </i>
    <i name="e_0_energy">   -385.51162109 </i>
   </energy>
  </scstep>
  <scstep>
   <time name="total">  470.14  470.12</time>
   <energy>
    <i name="e_fr_energy">   -654.43994180 </i>
    <i name="e_wo_entrp">   -654.43345459 </i>
    <i name="e_0_energy">   -654.43669820 </i>
   </energy>
  </scstep>
  <scstep>
   <time name="total">  470.64  470.63</time>
   <energy>
    <i name="e_fr_energy">   -759.25204150 </i>
    <i name="e_wo_entrp">   -759.24263148 </i>
    <i name="e_0_energy">   -759.24733649 </i>
   </energy>
  </scstep>
  <scstep>
   <time name="total">  470.16  470.14</time>
   <energy>
    <i name="e_fr_energy">   -823.47911588 </i>
    <i name="e_wo_entrp">   -823.47276281 </i>
    <i name="e_0_energy">   -823.47593934 </i>
   </energy>
  </scstep>
  <scstep>
   <time name="total">  470.08  470.08</time>
   <energy>
    <i name="e_fr_energy">   -862.85564847 </i>
    <i name="e_wo_entrp">   -862.84858205 </i>
    <i name="e_0_energy">   -862.85211526 </i>
   </energy>
  </scstep>
  <scstep>
   <time name="total">  470.03  470.04</time>
   <energy>
    <i name="e_fr_energy">   -891.98355095 </i>
    <i name="e_wo_entrp">   -891.97446792 </i>
    <i name="e_0_energy">   -891.97900944 </i>
   </energy>
  </scstep>
  <scstep>
   <time name="total">  470.11  470.12</time>
   <energy>
    <i name="e_fr_energy">   -913.05235048 </i>
    <i name="e_wo_entrp">   -913.04420972 </i>
    <i name="e_0_energy">   -913.04828010 </i>
   </energy>
  </scstep>
  <scstep>
   <time name="total">  469.92  469.93</time>
   <energy>
    <i name="e_fr_energy">   -926.95118482 </i>
    <i name="e_wo_entrp">   -926.93502444 </i>
    <i name="e_0_energy">   -926.94310463 </i>
   </energy>
  </scstep>
  <scstep>
   <time name="total">  470.09  470.12</time>
   <energy>
    <i name="e_fr_energy">   -935.48247724 </i>
    <i name="e_wo_entrp">   -935.46531051 </i>
    <i name="e_0_energy">   -935.47389388 </i>
   </energy>
  </scstep>
  <scstep>
   <time name="total">  469.87  469.89</time>
   <energy>
    <i name="e_fr_energy">   -940.74684480 </i>
    <i name="e_wo_entrp">   -940.73015313 </i>
    <i name="e_0_energy">   -940.73849897 </i>
   </energy>
  </scstep>
  <scstep>
   <time name="total">  470.45  470.46</time>
   <energy>
    <i name="e_fr_energy">   -943.91701049 </i>
    <i name="e_wo_entrp">   -943.90141593 </i>
    <i name="e_0_energy">   -943.90921321 </i>
   </energy>
  </scstep>
  <scstep>
   <time name="total">  470.10  470.09</time>
   <energy>
    <i name="e_fr_energy">   -945.87687114 </i>
    <i name="e_wo_entrp">   -945.86100585 </i>
    <i name="e_0_energy">   -945.86893849 </i>
   </energy>
  </scstep>
  <scstep>
   <time name="total">  470.36  470.38</time>
   <energy>
    <i name="e_fr_energy">   -947.15788607 </i>
    <i name="e_wo_entrp">   -947.13828151 </i>
    <i name="e_0_energy">   -947.14808379 </i>
   </energy>
  </scstep>
  <scstep>
   <time name="total">  470.15  470.16</time>
   <energy>
    <i name="e_fr_energy">   -948.00789018 </i>
    <i name="e_wo_entrp">   -947.98760799 </i>
    <i name="e_0_energy">   -947.99774909 </i>
   </energy>
  </scstep>
  <scstep>
   <time name="total">  470.13  470.14</time>
   <energy>
    <i name="e_fr_energy">   -948.52912203 </i>
    <i name="e_wo_entrp">   -948.51032293 </i>
    <i name="e_0_energy">   -948.51972248 </i>
   </energy>
  </scstep>
  <scstep>
   <time name="total">  469.93  469.90</time>
   <energy>
    <i name="e_fr_energy">   -948.88709828 </i>
    <i name="e_wo_entrp">   -948.87145061 </i>
    <i name="e_0_energy">   -948.87927445 </i>
   </energy>
  </scstep>
  <scstep>
   <time name="total">  470.11  470.08</time>
   <energy>
    <i name="e_fr_energy">   -949.12595185 </i>
    <i name="e_wo_entrp">   -949.11372330 </i>
    <i name="e_0_energy">   -949.11983758 </i>
   </energy>
  </scstep>
  <scstep>
   <time name="total">  470.06  470.04</time>
   <energy>
    <i name="e_fr_energy">   -949.27054260 </i>
    <i name="e_wo_entrp">   -949.26095886 </i>
    <i name="e_0_energy">   -949.26575073 </i>
   </energy>
  </scstep>
  <scstep>
   <time name="total">  470.19  470.21</time>
   <energy>
    <i name="e_fr_energy">   -949.36620446 </i>
    <i name="e_wo_entrp">   -949.35830356 </i>
    <i name="e_0_energy">   -949.36225401 </i>
   </energy>
  </scstep>
  <scstep>
   <time name="total">  469.85  469.87</time>
   <energy>
    <i name="e_fr_energy">   -949.43169896 </i>
    <i name="e_wo_entrp">   -949.42462808 </i>
    <i name="e_0_energy">   -949.42816352 </i>
   </energy>
  </scstep>
  <scstep>
   <time name="total">  470.14  470.15</time>
   <energy>
    <i name="e_fr_energy">   -949.47109759 </i>
    <i name="e_wo_entrp">   -949.46446008 </i>
    <i name="e_0_energy">   -949.46777883 </i>
   </energy>
  </scstep>
  <scstep>
   <time name="total">  470.22  470.23</time>
   <energy>
    <i name="e_fr_energy">   -949.49773947 </i>
    <i name="e_wo_entrp">   -949.49140468 </i>
    <i name="e_0_energy">   -949.49457208 </i>
   </energy>
  </scstep>
  <scstep>
   <time name="total">  470.66  470.67</time>
   <energy>
    <i name="e_fr_energy">   -949.51735851 </i>
    <i name="e_wo_entrp">   -949.51125613 </i>
    <i name="e_0_energy">   -949.51430732 </i>
   </energy>
  </scstep>
  <scstep>
   <time name="total">  470.14  470.10</time>
   <energy>
    <i name="e_fr_energy">   -949.52929185 </i>
    <i name="e_wo_entrp">   -949.52323161 </i>
    <i name="e_0_energy">   -949.52626173 </i>
   </energy>
  </scstep>
  <scstep>
   <time name="total">  470.16  470.16</time>
   <energy>
    <i name="e_fr_energy">   -949.54461243 </i>
    <i name="e_wo_entrp">   -949.53851138 </i>
    <i name="e_0_energy">   -949.54156191 </i>
   </energy>
  </scstep>
  <scstep>
   <time name="total">  469.89  469.89</time>
   <energy>
    <i name="e_fr_energy">   -949.54920138 </i>
    <i name="e_wo_entrp">   -949.54309312 </i>
    <i name="e_0_energy">   -949.54614725 </i>
   </energy>
  </scstep>
  <scstep>
   <time name="total">  470.25  470.32</time>
   <energy>
    <i name="e_fr_energy">   -949.55055882 </i>
    <i name="e_wo_entrp">   -949.54448288 </i>
    <i name="e_0_energy">   -949.54752085 </i>
   </energy>
  </scstep>
  <scstep>
   <time name="total">  470.01  470.03</time>
   <energy>
    <i name="e_fr_energy">   -949.55091891 </i>
    <i name="e_wo_entrp">   -949.54487756 </i>
    <i name="e_0_energy">   -949.54789823 </i>
   </energy>
  </scstep>
  <scstep>
   <time name="total">  470.45  470.46</time>
   <energy>
    <i name="e_fr_energy">   -949.55101500 </i>
    <i name="e_wo_entrp">   -949.54500488 </i>
    <i name="e_0_energy">   -949.54800994 </i>
   </energy>
  </scstep>
  <scstep>
   <time name="total">  470.04  470.04</time>
   <energy>
    <i name="e_fr_energy">   -949.55104402 </i>
    <i name="e_wo_entrp">   -949.54506685 </i>
    <i name="e_0_energy">   -949.54805544 </i>
   </energy>
  </scstep>
  <scstep>
   <time name="total">  470.12  470.12</time>
   <energy>
    <i name="e_fr_energy">   -949.55105572 </i>
    <i name="e_wo_entrp">   -949.54511817 </i>
    <i name="e_0_energy">   -949.54808694 </i>
   </energy>
  </scstep>
  <scstep>
   <time name="total">  701.24  701.26</time>
   <energy>
    <i name="alphaZ">   5529.70323211 </i>
    <i name="ewald"> -88556.18533230 </i>
    <i name="hartreedc"> -34041.95206238 </i>
    <i name="XCdc">   2901.93210564 </i>
    <i name="pawpsdc"> 122180.09282020 </i>
    <i name="pawaedc">-137748.92854634 </i>
    <i name="eentropy">     -0.00589752 </i>
    <i name="bandstr">  -8742.40318898 </i>
    <i name="atom"> 133646.93285989 </i>
    <i name="e_fr_energy">   -949.55106167 </i>
    <i name="e_wo_entrp">   -949.54516415 </i>
    <i name="e_0_energy">   -949.54811291 </i>
   </energy>
  </scstep>
  <structure>
   <crystal>
    <varray name="basis" >
     <v>       0.00000000      12.28047342       0.00000000 </v>
     <v>       9.14270205       0.00000000       0.00000000 </v>
     <v>       0.00000000      -2.76826177     -11.30069772 </v>
    </varray>
    <i name="volume">   1268.80515525 </i>
    <varray name="rec_basis" >
     <v>       0.00000000       0.08143009      -0.01994742 </v>
     <v>       0.10937686      -0.00000000       0.00000000 </v>
     <v>       0.00000000       0.00000000      -0.08849011 </v>
    </varray>
   </crystal>
   <varray name="positions" >
    <v>       0.66083139       0.00000000       0.15524547 </v>
    <v>       0.65825204       0.00000000       0.65773333 </v>
    <v>       0.66010245       0.33504531       0.15489247 </v>
    <v>       0.65971479       0.33369566       0.65687947 </v>
    <v>       0.66010245       0.66495469       0.15489247 </v>
    <v>       0.65971479       0.66630434       0.65687947 </v>
    <v>       0.83476433       0.16989279       0.34344191 </v>
    <v>       0.83951640       0.16689841       0.84449828 </v>
    <v>       0.84071308       0.50000000       0.34377078 </v>
    <v>       0.83944645       0.50000000       0.84213498 </v>
    <v>       0.83476433       0.83010721       0.34344191 </v>
    <v>       0.83951640       0.83310159       0.84449828 </v>
    <v>       0.59369434       0.16970775       0.39901489 </v>
    <v>       0.59116164       0.16677272       0.89781409 </v>
    <v>       0.59478420       0.50000000       0.39778181 </v>
    <v>       0.59186877       0.50000000       0.89695292 </v>
    <v>       0.59369434       0.83029225       0.39901489 </v>
    <v>       0.59116164       0.83322728       0.89781409 </v>
    <v>       0.90986953       0.00000000       0.10344591 </v>
    <v>       0.90642097       0.00000000       0.60520948 </v>
    <v>       0.90659440       0.33429415       0.10123668 </v>
    <v>       0.90728013       0.33374239       0.60092436 </v>
    <v>       0.90659440       0.66570585       0.10123668 </v>
    <v>       0.90728013       0.66625761       0.60092436 </v>
    <v>       0.16154293       0.17231326       0.14552121 </v>
    <v>       0.15886275       0.16878625       0.66112773 </v>
    <v>       0.15798995       0.50000000       0.15809674 </v>
    <v>       0.15907431       0.50000000       0.65368392 </v>
    <v>       0.16154293       0.82768674       0.14552121 </v>
    <v>       0.15886275       0.83121375       0.66112773 </v>
    <v>       0.35465135       0.00000000       0.34852984 </v>
    <v>       0.34119877       0.00000000       0.84499101 </v>
    <v>       0.34313270       0.33448234       0.34143791 </v>
    <v>       0.34203718       0.33403620       0.84303281 </v>
    <v>       0.34313270       0.66551766       0.34143791 </v>
    <v>       0.34203718       0.66596380       0.84303281 </v>
    <v>       0.06389199       0.00000000       0.42122382 </v>
    <v>       0.08799610       0.00000000       0.89436763 </v>
    <v>       0.09141285       0.33328592       0.39660562 </v>
    <v>       0.08863309       0.33419736       0.89438527 </v>
    <v>       0.09141285       0.66671408       0.39660562 </v>
    <v>       0.08863309       0.66580264       0.89438527 </v>
    <v>       0.41348280       0.16798758       0.10092919 </v>
    <v>       0.41063206       0.16828828       0.60548373 </v>
    <v>       0.40960158       0.50000000       0.10141923 </v>
    <v>       0.40994575       0.50000000       0.60146813 </v>
    <v>       0.41348280       0.83201242       0.10092919 </v>
    <v>       0.41063206       0.83171172       0.60548373 </v>
    <v>       0.99468742       0.16919867       0.12170716 </v>
    <v>       0.99481279       0.16676269       0.62858600 </v>
    <v>       0.99514727       0.50000000       0.12603802 </v>
    <v>       0.99594886       0.50000000       0.62559763 </v>
    <v>       0.99468742       0.83080133       0.12170716 </v>
    <v>       0.99481279       0.83323731       0.62858600 </v>
    <v>       0.51032488       0.00000000       0.37200892 </v>
    <v>       0.50390797       0.00000000       0.87282850 </v>
    <v>       0.50633408       0.33490173       0.37215352 </v>
    <v>       0.50433108       0.33369816       0.87275351 </v>
    <v>       0.50633408       0.66509827       0.37215352 </v>
    <v>       0.50433108       0.66630184       0.87275351 </v>
    <v>       0.67151736       0.16666869       0.27909513 </v>
    <v>       0.67195677       0.16659814       0.78048427 </v>
    <v>       0.67278773       0.50000000       0.27825494 </v>
    <v>       0.67255136       0.50000000       0.77981382 </v>
    <v>       0.67151736       0.83333131       0.27909513 </v>
    <v>       0.67195677       0.83340186       0.78048427 </v>
    <v>       0.82814946       0.00000000       0.22070152 </v>
    <v>       0.82622824       0.00000000       0.72148453 </v>
    <v>       0.82684801       0.33439593       0.21953477 </v>
    <v>       0.82730780       0.33309749       0.71955135 </v>
    <v>       0.82684801       0.66560407       0.21953477 </v>
    <v>       0.82730780       0.66690251       0.71955135 </v>
    <v>       0.83301981       0.00000000       0.44699996 </v>
    <v>       0.83162708       0.00000000       0.94652248 </v>
    <v>       0.82424664       0.33626427       0.44656121 </v>
    <v>       0.83002330       0.33430477       0.94470750 </v>
    <v>       0.82424664       0.66373573       0.44656121 </v>
    <v>       0.83002330       0.66569523       0.94470750 </v>
    <v>       0.66936262       0.16708235       0.05381880 </v>
    <v>       0.66879483       0.16611661       0.55541623 </v>
    <v>       0.67119035       0.50000000       0.05234982 </v>
    <v>       0.66815969       0.50000000       0.55503852 </v>
    <v>       0.66936262       0.83291765       0.05381880 </v>
    <v>       0.66879483       0.83388339       0.55541623 </v>
    <v>       0.49894328       0.00000000       0.12582628 </v>
    <v>       0.49634334       0.00000000       0.62784167 </v>
    <v>       0.49920893       0.33558519       0.12465565 </v>
    <v>       0.49804500       0.33439630       0.62966749 </v>
    <v>       0.49920893       0.66441481       0.12465565 </v>
    <v>       0.49804500       0.66560370       0.62966749 </v>
    <v>       0.99360945       0.17695262       0.38135793 </v>
    <v>       0.00203829       0.16736338       0.87191482 </v>
    <v>       0.00305074       0.50000000       0.37371470 </v>
    <v>       0.00158990       0.50000000       0.87073301 </v>
    <v>       0.99360945       0.82304738       0.38135793 </v>
    <v>       0.00203829       0.83263662       0.87191482 </v>
    <v>       0.17365580       0.00000000       0.78330575 </v>
    <v>       0.17323186       0.33805271       0.28040266 </v>
    <v>       0.17237169       0.33428067       0.77995023 </v>
    <v>       0.17323186       0.66194729       0.28040266 </v>
    <v>       0.17237169       0.66571933       0.77995023 </v>
    <v>       0.33276839       0.17448015       0.21666978 </v>
    <v>       0.32778150       0.16706341       0.72063206 </v>
    <v>       0.32810153       0.50000000       0.21772843 </v>
    <v>       0.32724168       0.50000000       0.71819616 </v>
    <v>       0.33276839       0.82551985       0.21666978 </v>
    <v>       0.32778150       0.83293659       0.72063206 </v>
    <v>       0.34119091       0.17098175       0.44756866 </v>
    <v>       0.33413305       0.16813677       0.94557312 </v>
    <v>       0.33451748       0.50000000       0.44497515 </v>
    <v>       0.33255033       0.50000000       0.94481509 </v>
    <v>       0.34119091       0.82901825       0.44756866 </v>
    <v>       0.33413305       0.83186323       0.94557312 </v>
    <v>       0.17310360       0.00000000       0.04625006 </v>
    <v>       0.16437827       0.00000000       0.56391210 </v>
    <v>       0.16747631       0.33792373       0.05036416 </v>
    <v>       0.16812183       0.33169692       0.55376465 </v>
    <v>       0.16747631       0.66207627       0.05036416 </v>
    <v>       0.16812183       0.66830308       0.55376465 </v>
    <v>       0.16541565       0.00000000       0.29077534 </v>
   </varray>
  </structure>
  <varray name="forces" >
   <v>       0.00000000       0.05018513       0.00940134 </v>
   <v>       0.00000000       0.05293647       0.00575313 </v>
   <v>       0.02276925       0.05464795       0.01108857 </v>
   <v>       0.01414227       0.04624614       0.00091295 </v>
   <v>      -0.02276925       0.05464795       0.01108857 </v>
   <v>      -0.01414227       0.04624614       0.00091295 </v>
   <v>       0.03504577      -0.05689827      -0.01205375 </v>
   <v>       0.00098554      -0.07895070      -0.00908177 </v>
   <v>       0.00000000      -0.11091194       0.00064960 </v>
   <v>       0.00000000      -0.08739323      -0.01322357 </v>
   <v>      -0.03504577      -0.05689827      -0.01205375 </v>
   <v>      -0.00098554      -0.07895070      -0.00908177 </v>
   <v>      -0.02071225      -0.04289431       0.02244657 </v>
   <v>       0.00610198      -0.00918155       0.03021781 </v>
   <v>       0.00000000      -0.06663243       0.02563167 </v>
   <v>       0.00000000      -0.00994635       0.02507322 </v>
   <v>       0.02071225      -0.04289431       0.02244657 </v>
   <v>      -0.00610198      -0.00918155       0.03021781 </v>
   <v>       0.00000000       0.02979503       0.03693280 </v>
   <v>       0.00000000      -0.01976478      -0.05182990 </v>
   <v>      -0.02303885       0.05028688       0.02141796 </v>
   <v>       0.00548153      -0.01435777      -0.03250524 </v>
   <v>       0.02303885       0.05028688       0.02141796 </v>
   <v>      -0.00548153      -0.01435777      -0.03250524 </v>
   <v>       0.23769521       0.11327229       0.37381747 </v>
   <v>      -0.02644300       0.09960654       0.01230097 </v>
   <v>       0.00000000       0.07959727       0.03078264 </v>
   <v>       0.00000000       0.08342656       0.00283402 </v>
   <v>      -0.23769521       0.11327229       0.37381747 </v>
   <v>       0.02644300       0.09960654       0.01230097 </v>
   <v>       0.00000000       0.15681928      -0.27425310 </v>
   <v>       0.00000000      -0.08051485      -0.00464175 </v>
   <v>      -0.02189515       0.00303851      -0.07126926 </v>
   <v>      -0.00647777      -0.05431815      -0.01908418 </v>
   <v>       0.02189515       0.00303851      -0.07126926 </v>
   <v>       0.00647777      -0.05431815      -0.01908418 </v>
   <v>       0.00000000      -0.05363296      -0.16834678 </v>
   <v>       0.00000000       0.05620274      -0.00881676 </v>
   <v>       0.04179529      -0.08072355      -0.05620340 </v>
   <v>       0.02022398      -0.01675684       0.00461818 </v>
   <v>      -0.04179529      -0.08072355      -0.05620340 </v>
   <v>      -0.02022398      -0.01675684       0.00461818 </v>
   <v>       0.02190944      -0.00577380      -0.01160721 </v>
   <v>       0.00633996       0.04972841       0.06443135 </v>
   <v>       0.00000000       0.03190655      -0.00492588 </v>
   <v>       0.00000000       0.05112375      -0.01584888 </v>
   <v>      -0.02190944      -0.00577380      -0.01160721 </v>
   <v>      -0.00633996       0.04972841       0.06443135 </v>
   <v>       0.02692400      -0.22076963       0.09065843 </v>
   <v>      -0.01158684      -0.18205905       0.12833931 </v>
   <v>       0.00000000      -0.17916782       0.09918443 </v>
   <v>       0.00000000      -0.17867812       0.11663095 </v>
   <v>      -0.02692400      -0.22076963       0.09065843 </v>
   <v>       0.01158684      -0.18205905       0.12833931 </v>
   <v>       0.00000000       0.05325569      -0.12152376 </v>
   <v>       0.00000000       0.16940305      -0.13137240 </v>
   <v>      -0.00990699       0.22422094      -0.12390521 </v>
   <v>      -0.00517065       0.16716167      -0.11526631 </v>
   <v>       0.00990699       0.22422094      -0.12390521 </v>
   <v>       0.00517065       0.16716167      -0.11526631 </v>
   <v>       0.01131172       0.05350420      -0.16528813 </v>
   <v>      -0.00991302      -0.02900954      -0.12770760 </v>
   <v>       0.00000000      -0.01827341      -0.11059414 </v>
   <v>       0.00000000      -0.01564131      -0.12307729 </v>
   <v>      -0.01131172       0.05350420      -0.16528813 </v>
   <v>       0.00991302      -0.02900954      -0.12770760 </v>
   <v>       0.00000000       0.02114138       0.13888711 </v>
   <v>       0.00000000       0.06346927       0.13936029 </v>
   <v>       0.00076048       0.00891962       0.11651118 </v>
   <v>       0.01236246       0.02080898       0.12308764 </v>
   <v>      -0.00076048       0.00891962       0.11651118 </v>
   <v>      -0.01236246       0.02080898       0.12308764 </v>
   <v>       0.00000000       0.35110484      -0.09445955 </v>
   <v>       0.00000000       0.38899452      -0.05976055 </v>
   <v>      -0.02064360       0.45417977      -0.06017847 </v>
   <v>      -0.01153946       0.39850997      -0.07244317 </v>
   <v>       0.02064360       0.45417977      -0.06017847 </v>
   <v>       0.01153946       0.39850997      -0.07244317 </v>
   <v>      -0.00912184      -0.40372444       0.06974111 </v>
   <v>       0.01842630      -0.38435259       0.08678182 </v>
   <v>       0.00000000      -0.42772504       0.05596288 </v>
   <v>       0.00000000      -0.37554162       0.07807967 </v>
   <v>       0.00912184      -0.40372444       0.06974111 </v>
   <v>      -0.01842630      -0.38435259       0.08678182 </v>
   <v>       0.00000000      -0.15662002       0.12185501 </v>
   <v>       0.00000000      -0.13163603       0.07560401 </v>
   <v>      -0.02813118      -0.16449334       0.10520776 </v>
   <v>      -0.00414707      -0.16014229       0.11541334 </v>
   <v>       0.02813118      -0.16449334       0.10520776 </v>
   <v>       0.00414707      -0.16014229       0.11541334 </v>
   <v>      -0.12349823       0.12959294      -0.11473117 </v>
   <v>      -0.00113288       0.18593540      -0.10640080 </v>
   <v>       0.00000000       0.16711808      -0.09448864 </v>
   <v>       0.00000000       0.17679986      -0.10627504 </v>
   <v>       0.12349823       0.12959294      -0.11473117 </v>
   <v>       0.00113288       0.18593540      -0.10640080 </v>
   <v>       0.00000000      -0.07600088      -0.11112800 </v>
   <v>      -0.04224041      -0.07677180      -0.09758028 </v>
   <v>      -0.05178499      -0.07111377      -0.07612750 </v>
   <v>       0.04224041      -0.07677180      -0.09758028 </v>
   <v>       0.05178499      -0.07111377      -0.07612750 </v>
   <v>       0.03048402       0.02558986       0.15725806 </v>
   <v>       0.02638811       0.04375416       0.09296519 </v>
   <v>       0.00000000       0.05407927       0.08675998 </v>
   <v>       0.00000000       0.02865647       0.10695003 </v>
   <v>      -0.03048402       0.02558986       0.15725806 </v>
   <v>      -0.02638811       0.04375416       0.09296519 </v>
   <v>       0.03013711       0.37741408      -0.10984354 </v>
   <v>      -0.00430266       0.40612306      -0.06970556 </v>
   <v>       0.00000000       0.37490358      -0.05124094 </v>
   <v>       0.00000000       0.41110838      -0.05847044 </v>
   <v>      -0.03013711       0.37741408      -0.10984354 </v>
   <v>       0.00430266       0.40612306      -0.06970556 </v>
   <v>       0.00000000      -0.45704330       0.10122682 </v>
   <v>       0.00000000      -0.55159979       0.03136189 </v>
   <v>      -0.12372036      -0.41286548       0.01515444 </v>
   <v>       0.04355622      -0.40371163       0.07121817 </v>
   <v>       0.12372036      -0.41286548       0.01515444 </v>
   <v>      -0.04355622      -0.40371163       0.07121817 </v>
   <v>       0.00000000       0.05735099      -0.20985556 </v>
  </varray>
  <varray name="stress" >
   <v>     -30.23423825       0.00000000       0.00000000 </v>
   <v>       0.00000000     -19.55124018       4.49566176 </v>
   <v>       0.00000000       4.49566251     -16.37219190 </v>
  </varray>
  <energy>
   <i name="e_fr_energy">   -949.55106167 </i>
   <i name="e_wo_entrp">   -949.54516415 </i>
   <i name="e_0_energy">   -949.54811291 </i>
  </energy>
  <time name="totalsc">19887.6419890.05</time>
  <eigenvalues>
   <array>
    <dimension dim="1">band</dimension>
    <dimension dim="2">kpoint</dimension>
    <dimension dim="3">spin</dimension>
    <field>eigene</field>
    <field>occ</field>
    <set>
     <set comment="spin 1">
      <set comment="kpoint 1">
       <r>  -18.6058    1.0000 </r>
       <r>  -18.3457    1.0000 </r>
       <r>  -18.2481    1.0000 </r>
       <r>  -18.1339    1.0000 </r>
       <r>  -18.0815    1.0000 </r>
       <r>  -17.9390    1.0000 </r>
       <r>  -17.9254    1.0000 </r>
       <r>  -17.8558    1.0000 </r>
       <r>  -17.8136    1.0000 </r>
       <r>  -17.7695    1.0000 </r>
       <r>  -17.7162    1.0000 </r>
       <r>  -17.6573    1.0000 </r>
       <r>  -17.6551    1.0000 </r>
       <r>  -17.6428    1.0000 </r>
       <r>  -17.6216    1.0000 </r>
       <r>  -17.5683    1.0000 </r>
       <r>  -17.5574    1.0000 </r>
       <r>  -17.5560    1.0000 </r>
       <r>  -17.4839    1.0000 </r>
       <r>  -17.4810    1.0000 </r>
       <r>  -17.4607    1.0000 </r>
       <r>  -17.4200    1.0000 </r>
       <r>  -17.4146    1.0000 </r>
       <r>  -17.3840    1.0000 </r>
       <r>  -17.3653    1.0000 </r>
       <r>  -17.3476    1.0000 </r>
       <r>  -17.3281    1.0000 </r>
       <r>  -17.3009    1.0000 </r>
       <r>  -17.2906    1.0000 </r>
       <r>  -17.2763    1.0000 </r>
       <r>  -17.2613    1.0000 </r>
       <r>  -17.2549    1.0000 </r>
       <r>  -17.2279    1.0000 </r>
       <r>  -17.2276    1.0000 </r>
       <r>  -17.1951    1.0000 </r>
       <r>  -17.1779    1.0000 </r>
       <r>  -17.1681    1.0000 </r>
       <r>  -17.1613    1.0000 </r>
       <r>  -17.1284    1.0000 </r>
       <r>  -17.1140    1.0000 </r>
       <r>  -17.1039    1.0000 </r>
       <r>  -17.1017    1.0000 </r>
       <r>  -17.0907    1.0000 </r>
       <r>  -17.0717    1.0000 </r>
       <r>  -17.0667    1.0000 </r>
       <r>  -17.0494    1.0000 </r>
       <r>  -17.0430    1.0000 </r>
       <r>  -17.0192    1.0000 </r>
       <r>  -16.9864    1.0000 </r>
       <r>  -16.9658    1.0000 </r>
       <r>  -16.9420    1.0000 </r>
       <r>  -16.9279    1.0000 </r>
       <r>  -16.9197    1.0000 </r>
       <r>  -16.8848    1.0000 </r>
       <r>  -16.8455    1.0000 </r>
       <r>  -16.8404    1.0000 </r>
       <r>  -16.8392    1.0000 </r>
       <r>  -16.8325    1.0000 </r>
       <r>  -16.8054    1.0000 </r>
       <r>  -16.7955    1.0000 </r>
       <r>  -16.7888    1.0000 </r>
       <r>  -16.7884    1.0000 </r>
       <r>  -16.7817    1.0000 </r>
       <r>  -16.7752    1.0000 </r>
       <r>  -16.7734    1.0000 </r>
       <r>  -16.7497    1.0000 </r>
       <r>  -16.7419    1.0000 </r>
       <r>  -16.7255    1.0000 </r>
       <r>  -16.7129    1.0000 </r>
       <r>  -16.6820    1.0000 </r>
       <r>  -16.6581    1.0000 </r>
       <r>  -12.9603    1.0000 </r>
       <r>  -12.9541    1.0000 </r>
       <r>  -12.9420    1.0000 </r>
       <r>  -12.9321    1.0000 </r>
       <r>  -12.9299    1.0000 </r>
       <r>  -12.9249    1.0000 </r>
       <r>  -12.9137    1.0000 </r>
       <r>  -12.9084    1.0000 </r>
       <r>  -12.9057    1.0000 </r>
       <r>  -12.8807    1.0000 </r>
       <r>  -12.8795    1.0000 </r>
       <r>  -12.8784    1.0000 </r>
       <r>  -12.8704    1.0000 </r>
       <r>  -12.8602    1.0000 </r>
       <r>  -12.8537    1.0000 </r>
       <r>  -12.8476    1.0000 </r>
       <r>  -12.8470    1.0000 </r>
       <r>  -12.8442    1.0000 </r>
       <r>  -12.8408    1.0000 </r>
       <r>  -12.8383    1.0000 </r>
       <r>  -12.8321    1.0000 </r>
       <r>  -12.8315    1.0000 </r>
       <r>  -12.8300    1.0000 </r>
       <r>  -12.8262    1.0000 </r>
       <r>  -12.8214    1.0000 </r>
       <r>  -12.8190    1.0000 </r>
       <r>  -12.8134    1.0000 </r>
       <r>  -12.8130    1.0000 </r>
       <r>  -12.8081    1.0000 </r>
       <r>  -12.8077    1.0000 </r>
       <r>  -12.8037    1.0000 </r>
       <r>  -12.7990    1.0000 </r>
       <r>  -12.7963    1.0000 </r>
       <r>  -12.7933    1.0000 </r>
       <r>  -12.7932    1.0000 </r>
       <r>  -12.7900    1.0000 </r>
       <r>  -12.7892    1.0000 </r>
       <r>  -12.7869    1.0000 </r>
       <r>  -12.7818    1.0000 </r>
       <r>  -12.7784    1.0000 </r>
       <r>  -12.7762    1.0000 </r>
       <r>  -12.7745    1.0000 </r>
       <r>  -12.7731    1.0000 </r>
       <r>  -12.7717    1.0000 </r>
       <r>  -12.7644    1.0000 </r>
       <r>  -12.7634    1.0000 </r>
       <r>  -12.7603    1.0000 </r>
       <r>  -12.7602    1.0000 </r>
       <r>  -12.7552    1.0000 </r>
       <r>  -12.7536    1.0000 </r>
       <r>  -12.7517    1.0000 </r>
       <r>  -12.7503    1.0000 </r>
       <r>  -12.7471    1.0000 </r>
       <r>  -12.7470    1.0000 </r>
       <r>  -12.7443    1.0000 </r>
       <r>  -12.7422    1.0000 </r>
       <r>  -12.7406    1.0000 </r>
       <r>  -12.7355    1.0000 </r>
       <r>  -12.7344    1.0000 </r>
       <r>  -12.7325    1.0000 </r>
       <r>  -12.7307    1.0000 </r>
       <r>  -12.7225    1.0000 </r>
       <r>  -12.7193    1.0000 </r>
       <r>  -12.7179    1.0000 </r>
       <r>  -12.7163    1.0000 </r>
       <r>  -12.7066    1.0000 </r>
       <r>  -12.7043    1.0000 </r>
       <r>  -12.7023    1.0000 </r>
       <r>  -12.6989    1.0000 </r>
       <r>  -12.6944    1.0000 </r>
       <r>  -12.6925    1.0000 </r>
       <r>  -12.6917    1.0000 </r>
       <r>  -12.6907    1.0000 </r>
       <r>  -12.6848    1.0000 </r>
       <r>  -12.6825    1.0000 </r>
       <r>  -12.6794    1.0000 </r>
       <r>  -12.6746    1.0000 </r>
       <r>  -12.6714    1.0000 </r>
       <r>  -12.6660    1.0000 </r>
       <r>  -12.6659    1.0000 </r>
       <r>  -12.6615    1.0000 </r>
       <r>  -12.6602    1.0000 </r>
       <r>  -12.6570    1.0000 </r>
       <r>  -12.6555    1.0000 </r>
       <r>  -12.6514    1.0000 </r>
       <r>  -12.6446    1.0000 </r>
       <r>  -12.6398    1.0000 </r>
       <r>  -12.6390    1.0000 </r>
       <r>  -12.6367    1.0000 </r>
       <r>  -12.6334    1.0000 </r>
       <r>  -12.6314    1.0000 </r>
       <r>  -12.6306    1.0000 </r>
       <r>  -12.6293    1.0000 </r>
       <r>  -12.6262    1.0000 </r>
       <r>  -12.6248    1.0000 </r>
       <r>  -12.6232    1.0000 </r>
       <r>  -12.6196    1.0000 </r>
       <r>  -12.6184    1.0000 </r>
       <r>  -12.6177    1.0000 </r>
       <r>  -12.6139    1.0000 </r>
       <r>  -12.6123    1.0000 </r>
       <r>  -12.6120    1.0000 </r>
       <r>  -12.6053    1.0000 </r>
       <r>  -12.6019    1.0000 </r>
       <r>  -12.5997    1.0000 </r>
       <r>  -12.5993    1.0000 </r>
       <r>  -12.5965    1.0000 </r>
       <r>  -12.5951    1.0000 </r>
       <r>  -12.5919    1.0000 </r>
       <r>  -12.5902    1.0000 </r>
       <r>  -12.5884    1.0000 </r>
       <r>  -12.5804    1.0000 </r>
       <r>  -12.5794    1.0000 </r>
       <r>  -12.5782    1.0000 </r>
       <r>  -12.5762    1.0000 </r>
       <r>  -12.5747    1.0000 </r>
       <r>  -12.5745    1.0000 </r>
       <r>  -12.5716    1.0000 </r>
       <r>  -12.5711    1.0000 </r>
       <r>  -12.5659    1.0000 </r>
       <r>  -12.5620    1.0000 </r>
       <r>  -12.5611    1.0000 </r>
       <r>  -12.5572    1.0000 </r>
       <r>  -12.5512    1.0000 </r>
       <r>  -12.5489    1.0000 </r>
       <r>  -12.5484    1.0000 </r>
       <r>  -12.5409    1.0000 </r>
       <r>  -12.5354    1.0000 </r>
       <r>  -12.5348    1.0000 </r>
       <r>  -12.5278    1.0000 </r>
       <r>  -12.5272    1.0000 </r>
       <r>  -12.5240    1.0000 </r>
       <r>  -12.5231    1.0000 </r>
       <r>  -12.5208    1.0000 </r>
       <r>  -12.5173    1.0000 </r>
       <r>  -12.5130    1.0000 </r>
       <r>  -12.5065    1.0000 </r>
       <r>  -12.5054    1.0000 </r>
       <r>  -12.5035    1.0000 </r>
       <r>  -12.5006    1.0000 </r>
       <r>  -12.4991    1.0000 </r>
       <r>  -12.4940    1.0000 </r>
       <r>  -12.4928    1.0000 </r>
       <r>  -12.4904    1.0000 </r>
       <r>  -12.4895    1.0000 </r>
       <r>  -12.4883    1.0000 </r>
       <r>  -12.4865    1.0000 </r>
       <r>  -12.4834    1.0000 </r>
       <r>  -12.4818    1.0000 </r>
       <r>  -12.4818    1.0000 </r>
       <r>  -12.4779    1.0000 </r>
       <r>  -12.4744    1.0000 </r>
       <r>  -12.4741    1.0000 </r>
       <r>  -12.4704    1.0000 </r>
       <r>  -12.4680    1.0000 </r>
[...]
       <r>   -12.2560   266.0812   539.3091 </r>
       <r>   -12.1247   124.2905   555.6275 </r>
       <r>   -11.9934   117.6905   571.0793 </r>
       <r>   -11.8621    95.1380   583.5701 </r>
       <r>   -11.7308   108.4611   597.8102 </r>
       <r>   -11.5996   118.9232   613.4238 </r>
       <r>   -11.4683    61.1551   621.4530 </r>
       <r>   -11.3370     4.1638   621.9997 </r>
       <r>   -11.2057     0.0026   622.0000 </r>
       <r>   -11.0744     0.0000   622.0000 </r>
       <r>   -10.9431     0.0000   622.0000 </r>
       <r>   -10.8118     0.0000   622.0000 </r>
       <r>   -10.6805     0.0000   622.0000 </r>
       <r>   -10.5492     0.0000   622.0000 </r>
       <r>   -10.4179     0.0000   622.0000 </r>
       <r>   -10.2866     0.0000   622.0000 </r>
       <r>   -10.1553     0.0000   622.0000 </r>
       <r>   -10.0241     0.0000   622.0000 </r>
       <r>    -9.8928     0.0000   622.0000 </r>
       <r>    -9.7615     0.0000   622.0000 </r>
       <r>    -9.6302     0.0000   622.0000 </r>
       <r>    -9.4989     0.0000   622.0000 </r>
       <r>    -9.3676     0.0000   622.0000 </r>
       <r>    -9.2363     0.0000   622.0000 </r>
       <r>    -9.1050     0.0000   622.0000 </r>
       <r>    -8.9737     0.0000   622.0000 </r>
       <r>    -8.8424     0.0000   622.0000 </r>
       <r>    -8.7111     0.0000   622.0000 </r>
       <r>    -8.5798     0.0000   622.0000 </r>
       <r>    -8.4486     0.0000   622.0000 </r>
       <r>    -8.3173     0.0000   622.0000 </r>
       <r>    -8.1860     0.0000   622.0000 </r>
       <r>    -8.0547     0.0000   622.0000 </r>
       <r>    -7.9234     0.0000   622.0000 </r>
       <r>    -7.7921     0.0000   622.0000 </r>
       <r>    -7.6608     0.0000   622.0000 </r>
       <r>    -7.5295     0.0003   622.0000 </r>
       <r>    -7.3982     4.9701   622.6526 </r>
       <r>    -7.2669    10.2534   623.9988 </r>
       <r>    -7.1356     0.0094   624.0000 </r>
       <r>    -7.0043     0.0000   624.0000 </r>
       <r>    -6.8730     0.0000   624.0000 </r>
       <r>    -6.7418     0.0000   624.0000 </r>
       <r>    -6.6105     0.0000   624.0000 </r>
       <r>    -6.4792     0.0000   624.0000 </r>
       <r>    -6.3479     0.0000   624.0000 </r>
       <r>    -6.2166     0.0000   624.0000 </r>
       <r>    -6.0853     0.0000   624.0000 </r>
       <r>    -5.9540     0.0000   624.0000 </r>
       <r>    -5.8227     0.0000   624.0000 </r>
       <r>    -5.6914     0.0000   624.0000 </r>
       <r>    -5.5601     0.0000   624.0000 </r>
       <r>    -5.4288     0.0000   624.0000 </r>
       <r>    -5.2975     0.0000   624.0000 </r>
       <r>    -5.1663     0.0093   624.0012 </r>
       <r>    -5.0350     5.2568   624.6914 </r>
       <r>    -4.9037     9.4370   625.9304 </r>
       <r>    -4.7724    20.7561   628.6555 </r>
       <r>    -4.6411    29.4643   632.5239 </r>
       <r>    -4.5098    30.0671   636.4715 </r>
       <r>    -4.3785    36.0411   641.2034 </r>
       <r>    -4.2472    43.9908   646.9790 </r>
       <r>    -4.1159    48.5399   653.3519 </r>
       <r>    -3.9846    58.4623   661.0275 </r>
       <r>    -3.8533    48.7883   667.4331 </r>
       <r>    -3.7220    38.0846   672.4333 </r>
       <r>    -3.5908    54.2199   679.5519 </r>
       <r>    -3.4595    37.4822   684.4730 </r>
       <r>    -3.3282    31.2180   688.5717 </r>
       <r>    -3.1969    26.4829   692.0486 </r>
       <r>    -3.0656    35.4202   696.6990 </r>
       <r>    -2.9343    37.0209   701.5596 </r>
       <r>    -2.8030    36.4026   706.3389 </r>
       <r>    -2.6717    34.4645   710.8638 </r>
       <r>    -2.5404    30.3628   714.8502 </r>
       <r>    -2.4091    34.4174   719.3689 </r>
       <r>    -2.2778    42.9352   725.0060 </r>
       <r>    -2.1465    40.9494   730.3823 </r>
       <r>    -2.0153    50.4189   737.0019 </r>
       <r>    -1.8840    31.0517   741.0787 </r>
       <r>    -1.7527    50.3757   747.6927 </r>
       <r>    -1.6214    68.8320   756.7297 </r>
       <r>    -1.4901    71.4514   766.1107 </r>
       <r>    -1.3588    48.3325   772.4564 </r>
       <r>    -1.2275    64.4807   780.9222 </r>
       <r>    -1.0962    65.6581   789.5426 </r>
       <r>    -0.9649    46.9184   795.7026 </r>
       <r>    -0.8336    51.0936   802.4107 </r>
       <r>    -0.7023    79.6420   812.8671 </r>
       <r>    -0.5710    64.7258   821.3651 </r>
       <r>    -0.4397    76.2133   831.3712 </r>
       <r>    -0.3085    71.0524   840.6998 </r>
       <r>    -0.1772    57.1642   848.2050 </r>
       <r>    -0.0459    72.2262   857.6877 </r>
       <r>     0.0854    68.0414   866.6210 </r>
       <r>     0.2167    84.2440   877.6816 </r>
       <r>     0.3480    74.9543   887.5225 </r>
       <r>     0.4793    64.9842   896.0543 </r>
       <r>     0.6106    63.4545   904.3854 </r>
       <r>     0.7419    90.3814   916.2517 </r>
       <r>     0.8732    87.6947   927.7653 </r>
       <r>     1.0045    96.8065   940.4753 </r>
       <r>     1.1358    86.9497   951.8910 </r>
       <r>     1.2670   101.5677   965.2260 </r>
       <r>     1.3983   118.5732   980.7937 </r>
       <r>     1.5296   118.3677   996.3345 </r>
       <r>     1.6609   127.2242  1013.0380 </r>
       <r>     1.7922   109.6249  1027.4308 </r>
       <r>     1.9235    73.2012  1037.0415 </r>
       <r>     2.0548    48.3706  1043.3922 </r>
       <r>     2.1861    45.8802  1049.4159 </r>
       <r>     2.3174     4.4481  1049.9999 </r>
       <r>     2.4487     0.0007  1050.0000 </r>
       <r>     2.5800     0.0000  1050.0000 </r>
       <r>     2.7113     0.0000  1050.0000 </r>
       <r>     2.8425     0.0000  1050.0000 </r>
       <r>     2.9738     0.0003  1050.0000 </r>
       <r>     3.1051     2.2685  1050.2979 </r>
       <r>     3.2364    10.0786  1051.6211 </r>
       <r>     3.3677     2.8850  1051.9999 </r>
       <r>     3.4990     0.0008  1052.0000 </r>
       <r>     3.6303     0.0000  1052.0000 </r>
       <r>     3.7616     0.6503  1052.0854 </r>
       <r>     3.8929    11.4608  1053.5901 </r>
       <r>     4.0242     3.1215  1053.9999 </r>
       <r>     4.1555     0.0006  1054.0000 </r>
       <r>     4.2868     0.1043  1054.0137 </r>
       <r>     4.4180     7.1177  1054.9482 </r>
       <r>     4.5493     7.5984  1055.9458 </r>
       <r>     4.6806     0.4128  1056.0000 </r>
       <r>     4.8119     0.0000  1056.0000 </r>
       <r>     4.9432     0.0000  1056.0000 </r>
       <r>     5.0745     0.0000  1056.0000 </r>
       <r>     5.2058     0.0000  1056.0000 </r>
       <r>     5.3371     0.0000  1056.0000 </r>
       <r>     5.4684     0.0000  1056.0000 </r>
       <r>     5.5997     0.0000  1056.0000 </r>
       <r>     5.7310     0.0000  1056.0000 </r>
       <r>     5.8623     0.0000  1056.0000 </r>
       <r>     5.9936     0.0000  1056.0000 </r>
       <r>     6.1248     0.0000  1056.0000 </r>
       <r>     6.2561     0.0000  1056.0000 </r>
       <r>     6.3874     0.0000  1056.0000 </r>
       <r>     6.5187     0.0000  1056.0000 </r>
       <r>     6.6500     0.0000  1056.0000 </r>
       <r>     6.7813     0.0000  1056.0000 </r>
       <r>     6.9126     0.1307  1056.0172 </r>
       <r>     7.0439     1.7488  1056.2468 </r>
       <r>     7.1752     0.0247  1056.2500 </r>
       <r>     7.3065     0.0000  1056.2500 </r>
       <r>     7.4378     0.0000  1056.2500 </r>
       <r>     7.5691     0.0000  1056.2500 </r>
       <r>     7.7003     0.1276  1056.2668 </r>
       <r>     7.8316     4.4121  1056.8460 </r>
       <r>     7.9629     2.9513  1057.2335 </r>
       <r>     8.0942     0.9361  1057.3564 </r>
       <r>     8.2255     3.5816  1057.8266 </r>
       <r>     8.3568     3.2162  1058.2489 </r>
       <r>     8.4881     0.0084  1058.2500 </r>
       <r>     8.6194     0.4679  1058.3114 </r>
       <r>     8.7507     8.3797  1059.4116 </r>
       <r>     8.8820     6.0172  1060.2016 </r>
       <r>     9.0133     5.2655  1060.8929 </r>
       <r>     9.1446     5.6850  1061.6393 </r>
       <r>     9.2758     3.2439  1062.0652 </r>
       <r>     9.4071     5.7118  1062.8151 </r>
       <r>     9.5384    11.7540  1064.3583 </r>
       <r>     9.6697     5.2882  1065.0526 </r>
       <r>     9.8010     3.6661  1065.5340 </r>
       <r>     9.9323    15.8024  1067.6087 </r>
       <r>    10.0636    15.9675  1069.7051 </r>
       <r>    10.1949    23.9958  1072.8556 </r>
       <r>    10.3262    10.7245  1074.2636 </r>
       <r>    10.4575    13.8794  1076.0858 </r>
       <r>    10.5888    22.7630  1079.0744 </r>
       <r>    10.7201    34.4959  1083.6035 </r>
       <r>    10.8513    33.1833  1087.9602 </r>
       <r>    10.9826    38.6683  1093.0370 </r>
       <r>    11.1139    42.7171  1098.6454 </r>
       <r>    11.2452    27.7275  1102.2858 </r>
       <r>    11.3765    31.4824  1106.4192 </r>
       <r>    11.5078    31.2513  1110.5222 </r>
       <r>    11.6391    28.3666  1114.2465 </r>
       <r>    11.7704    33.8554  1118.6915 </r>
       <r>    11.9017    39.1589  1123.8327 </r>
       <r>    12.0330    38.5097  1128.8887 </r>
       <r>    12.1643    35.7228  1133.5788 </r>
       <r>    12.2956    25.6690  1136.9489 </r>
       <r>    12.4269    32.2217  1141.1794 </r>
       <r>    12.5581    43.6354  1146.9083 </r>
       <r>    12.6894    43.9473  1152.6783 </r>
       <r>    12.8207    32.6861  1156.9697 </r>
       <r>    12.9520    31.1084  1161.0540 </r>
       <r>    13.0833    25.0759  1164.3462 </r>
       <r>    13.2146    27.0511  1167.8978 </r>
       <r>    13.3459    38.4481  1172.9457 </r>
       <r>    13.4772    41.0467  1178.3348 </r>
       <r>    13.6085    35.0010  1182.9302 </r>
       <r>    13.7398    32.9537  1187.2567 </r>
       <r>    13.8711    28.6260  1191.0151 </r>
       <r>    14.0024    29.6476  1194.9076 </r>
       <r>    14.1336    33.3467  1199.2857 </r>
       <r>    14.2649    29.4515  1203.1525 </r>
       <r>    14.3962    34.6083  1207.6963 </r>
       <r>    14.5275    30.6742  1211.7235 </r>
       <r>    14.6588    37.0458  1216.5873 </r>
       <r>    14.7901    28.6927  1220.3545 </r>
       <r>    14.9214    30.3920  1224.3447 </r>
       <r>    15.0527    30.0337  1228.2879 </r>
       <r>    15.1840    28.2271  1231.9939 </r>
       <r>    15.3153    30.7879  1236.0361 </r>
       <r>    15.4466    24.6367  1239.2706 </r>
       <r>    15.5779    17.9669  1241.6295 </r>
       <r>    15.7091    17.2854  1243.8990 </r>
       <r>    15.8404    23.0234  1246.9218 </r>
       <r>    15.9717    17.3680  1249.2020 </r>
       <r>    16.1030    17.6066  1251.5136 </r>
       <r>    16.2343    22.1106  1254.4166 </r>
       <r>    16.3656    23.3343  1257.4802 </r>
       <r>    16.4969    14.5123  1259.3855 </r>
       <r>    16.6282    14.2380  1261.2549 </r>
       <r>    16.7595    12.1001  1262.8435 </r>
       <r>    16.8908    11.0762  1264.2977 </r>
       <r>    17.0221     8.2579  1265.3819 </r>
       <r>    17.1534     1.9659  1265.6400 </r>
       <r>    17.2847     2.7243  1265.9977 </r>
       <r>    17.4159     0.0175  1266.0000 </r>
       <r>    17.5472     0.0000  1266.0000 </r>
       <r>    17.6785     0.0000  1266.0000 </r>
       <r>    17.8098     0.0000  1266.0000 </r>
       <r>    17.9411     0.0000  1266.0000 </r>
       <r>    18.0724     0.0000  1266.0000 </r>
       <r>    18.2037     0.0000  1266.0000 </r>
       <r>    18.3350     0.0000  1266.0000 </r>
       <r>    18.4663     0.0000  1266.0000 </r>
       <r>    18.5976     0.0000  1266.0000 </r>
       <r>    18.7289     0.0000  1266.0000 </r>
       <r>    18.8602     0.0000  1266.0000 </r>
       <r>    18.9914     0.0000  1266.0000 </r>
      </set>
     </set>
    </array>
   </total>
  </dos>
 </calculation>
 <structure name="finalpos" >
  <crystal>
   <varray name="basis" >
    <v>       0.00000000      12.28047342       0.00000000 </v>
    <v>       9.14270205       0.00000000       0.00000000 </v>
    <v>       0.00000000      -2.76826177     -11.30069772 </v>
   </varray>
   <i name="volume">   1268.80515525 </i>
   <varray name="rec_basis" >
    <v>       0.00000000       0.08143009      -0.01994742 </v>
    <v>       0.10937686      -0.00000000       0.00000000 </v>
    <v>       0.00000000       0.00000000      -0.08849011 </v>
   </varray>
  </crystal>
  <varray name="positions" >
   <v>       0.66083139       0.00000000       0.15524547 </v>
   <v>       0.65825204       0.00000000       0.65773333 </v>
   <v>       0.66010245       0.33504531       0.15489247 </v>
   <v>       0.65971479       0.33369566       0.65687947 </v>
   <v>       0.66010245       0.66495469       0.15489247 </v>
   <v>       0.65971479       0.66630434       0.65687947 </v>
   <v>       0.83476433       0.16989279       0.34344191 </v>
   <v>       0.83951640       0.16689841       0.84449828 </v>
   <v>       0.84071308       0.50000000       0.34377078 </v>
   <v>       0.83944645       0.50000000       0.84213498 </v>
   <v>       0.83476433       0.83010721       0.34344191 </v>
   <v>       0.83951640       0.83310159       0.84449828 </v>
   <v>       0.59369434       0.16970775       0.39901489 </v>
   <v>       0.59116164       0.16677272       0.89781409 </v>
   <v>       0.59478420       0.50000000       0.39778181 </v>
   <v>       0.59186877       0.50000000       0.89695292 </v>
   <v>       0.59369434       0.83029225       0.39901489 </v>
   <v>       0.59116164       0.83322728       0.89781409 </v>
   <v>       0.90986953       0.00000000       0.10344591 </v>
   <v>       0.90642097       0.00000000       0.60520948 </v>
   <v>       0.90659440       0.33429415       0.10123668 </v>
   <v>       0.90728013       0.33374239       0.60092436 </v>
   <v>       0.90659440       0.66570585       0.10123668 </v>
   <v>       0.90728013       0.66625761       0.60092436 </v>
   <v>       0.16154293       0.17231326       0.14552121 </v>
   <v>       0.15886275       0.16878625       0.66112773 </v>
   <v>       0.15798995       0.50000000       0.15809674 </v>
   <v>       0.15907431       0.50000000       0.65368392 </v>
   <v>       0.16154293       0.82768674       0.14552121 </v>
   <v>       0.15886275       0.83121375       0.66112773 </v>
   <v>       0.35465135       0.00000000       0.34852984 </v>
   <v>       0.34119877       0.00000000       0.84499101 </v>
   <v>       0.34313270       0.33448234       0.34143791 </v>
   <v>       0.34203718       0.33403620       0.84303281 </v>
   <v>       0.34313270       0.66551766       0.34143791 </v>
   <v>       0.34203718       0.66596380       0.84303281 </v>
   <v>       0.06389199       0.00000000       0.42122382 </v>
   <v>       0.08799610       0.00000000       0.89436763 </v>
   <v>       0.09141285       0.33328592       0.39660562 </v>
   <v>       0.08863309       0.33419736       0.89438527 </v>
   <v>       0.09141285       0.66671408       0.39660562 </v>
   <v>       0.08863309       0.66580264       0.89438527 </v>
   <v>       0.41348280       0.16798758       0.10092919 </v>
   <v>       0.41063206       0.16828828       0.60548373 </v>
   <v>       0.40960158       0.50000000       0.10141923 </v>
   <v>       0.40994575       0.50000000       0.60146813 </v>
   <v>       0.41348280       0.83201242       0.10092919 </v>
   <v>       0.41063206       0.83171172       0.60548373 </v>
   <v>       0.99468742       0.16919867       0.12170716 </v>
   <v>       0.99481279       0.16676269       0.62858600 </v>
   <v>       0.99514727       0.50000000       0.12603802 </v>
   <v>       0.99594886       0.50000000       0.62559763 </v>
   <v>       0.99468742       0.83080133       0.12170716 </v>
   <v>       0.99481279       0.83323731       0.62858600 </v>
   <v>       0.51032488       0.00000000       0.37200892 </v>
   <v>       0.50390797       0.00000000       0.87282850 </v>
   <v>       0.50633408       0.33490173       0.37215352 </v>
   <v>       0.50433108       0.33369816       0.87275351 </v>
   <v>       0.50633408       0.66509827       0.37215352 </v>
   <v>       0.50433108       0.66630184       0.87275351 </v>
   <v>       0.67151736       0.16666869       0.27909513 </v>
   <v>       0.67195677       0.16659814       0.78048427 </v>
   <v>       0.67278773       0.50000000       0.27825494 </v>
   <v>       0.67255136       0.50000000       0.77981382 </v>
   <v>       0.67151736       0.83333131       0.27909513 </v>
   <v>       0.67195677       0.83340186       0.78048427 </v>
   <v>       0.82814946       0.00000000       0.22070152 </v>
   <v>       0.82622824       0.00000000       0.72148453 </v>
   <v>       0.82684801       0.33439593       0.21953477 </v>
   <v>       0.82730780       0.33309749       0.71955135 </v>
   <v>       0.82684801       0.66560407       0.21953477 </v>
   <v>       0.82730780       0.66690251       0.71955135 </v>
   <v>       0.83301981       0.00000000       0.44699996 </v>
   <v>       0.83162708       0.00000000       0.94652248 </v>
   <v>       0.82424664       0.33626427       0.44656121 </v>
   <v>       0.83002330       0.33430477       0.94470750 </v>
   <v>       0.82424664       0.66373573       0.44656121 </v>
   <v>       0.83002330       0.66569523       0.94470750 </v>
   <v>       0.66936262       0.16708235       0.05381880 </v>
   <v>       0.66879483       0.16611661       0.55541623 </v>
   <v>       0.67119035       0.50000000       0.05234982 </v>
   <v>       0.66815969       0.50000000       0.55503852 </v>
   <v>       0.66936262       0.83291765       0.05381880 </v>
   <v>       0.66879483       0.83388339       0.55541623 </v>
   <v>       0.49894328       0.00000000       0.12582628 </v>
   <v>       0.49634334       0.00000000       0.62784167 </v>
   <v>       0.49920893       0.33558519       0.12465565 </v>
   <v>       0.49804500       0.33439630       0.62966749 </v>
   <v>       0.49920893       0.66441481       0.12465565 </v>
   <v>       0.49804500       0.66560370       0.62966749 </v>
   <v>       0.99360945       0.17695262       0.38135793 </v>
   <v>       0.00203829       0.16736338       0.87191482 </v>
   <v>       0.00305074       0.50000000       0.37371470 </v>
   <v>       0.00158990       0.50000000       0.87073301 </v>
   <v>       0.99360945       0.82304738       0.38135793 </v>
   <v>       0.00203829       0.83263662       0.87191482 </v>
   <v>       0.17365580       0.00000000       0.78330575 </v>
   <v>       0.17323186       0.33805271       0.28040266 </v>
   <v>       0.17237169       0.33428067       0.77995023 </v>
   <v>       0.17323186       0.66194729       0.28040266 </v>
   <v>       0.17237169       0.66571933       0.77995023 </v>
   <v>       0.33276839       0.17448015       0.21666978 </v>
   <v>       0.32778150       0.16706341       0.72063206 </v>
   <v>       0.32810153       0.50000000       0.21772843 </v>
   <v>       0.32724168       0.50000000       0.71819616 </v>
   <v>       0.33276839       0.82551985       0.21666978 </v>
   <v>       0.32778150       0.83293659       0.72063206 </v>
   <v>       0.34119091       0.17098175       0.44756866 </v>
   <v>       0.33413305       0.16813677       0.94557312 </v>
   <v>       0.33451748       0.50000000       0.44497515 </v>
   <v>       0.33255033       0.50000000       0.94481509 </v>
   <v>       0.34119091       0.82901825       0.44756866 </v>
   <v>       0.33413305       0.83186323       0.94557312 </v>
   <v>       0.17310360       0.00000000       0.04625006 </v>
   <v>       0.16437827       0.00000000       0.56391210 </v>
   <v>       0.16747631       0.33792373       0.05036416 </v>
   <v>       0.16812183       0.33169692       0.55376465 </v>
   <v>       0.16747631       0.66207627       0.05036416 </v>
   <v>       0.16812183       0.66830308       0.55376465 </v>
   <v>       0.16541565       0.00000000       0.29077534 </v>
  </varray>
 </structure>
</modeling>
