<?xml version="1.0" encoding="ISO-8859-1"?>
<modeling>
 <generator>
  <i name="program" type="string">vasp </i>
  <i name="version" type="string">6.4.2  </i>
  <i name="subversion" type="string">20Jul23 (build Nov 12 2023 22:16:35) complex                          parallel </i>
  <i name="platform" type="string">LinuxNV </i>
  <i name="date" type="string">2025 03 11 </i>
  <i name="time" type="string">22:10:48 </i>
 </generator>
 <incar>
  <i type="int" name="ISTART">     0</i>
  <i type="string" name="PREC">Normal</i>
  <i type="string" name="ALGO">All</i>
  <i type="int" name="ISPIN">     1</i>
  <i type="int" name="ICHARG">     0</i>
  <i type="int" name="NELM">   500</i>
  <i type="int" name="IBRION">    -1</i>
  <i name="EDIFF">      0.00001000</i>
  <i name="EDIFFG">     -0.00500000</i>
  <i type="int" name="NSW">     0</i>
  <i type="int" name="ISIF">     2</i>
  <i name="ENCUT">    450.00000000</i>
  <i type="string" name="LREAL">Auto</i>
  <i type="logical" name="LPLANE"> T  </i>
  <i name="TIME">      0.40000000</i>
  <i type="int" name="ISMEAR">     0</i>
  <i name="SIGMA">      0.05000000</i>
  <i type="logical" name="LWAVE"> T  </i>
  <i type="logical" name="LCHARG"> T  </i>
  <i name="HFSCREEN">      0.18000000</i>
  <i type="logical" name="LHFCALC"> T  </i>
  <i type="int" name="LMAXFOCK">     4</i>
  <i name="AEXX">      0.35000000</i>
  <i type="string" name="PRECFOCK">Fast</i>
 </incar>
 <primitive_cell>
  <structure name="primitive_cell" >
   <crystal>
    <varray name="basis" >
     <v>       0.00000000      12.28047342       0.00000000 </v>
     <v>       9.14270205       0.00000000       0.00000000 </v>
     <v>       0.00000000      -2.76826177     -11.30069772 </v>
    </varray>
    <i name="volume">   1268.80515525 </i>
    <varray name="rec_basis" >
     <v>       0.00000000       0.08143009      -0.01994742 </v>
     <v>       0.10937686      -0.00000000       0.00000000 </v>
     <v>       0.00000000       0.00000000      -0.08849011 </v>
    </varray>
   </crystal>
   <varray name="positions" >
    <v>       0.66083139       0.00000000       0.15524547 </v>
    <v>       0.65825204       0.00000000       0.65773333 </v>
    <v>       0.66010245       0.33504531       0.15489247 </v>
    <v>       0.65971479       0.33369566       0.65687947 </v>
    <v>       0.66010245       0.66495469       0.15489247 </v>
    <v>       0.65971479       0.66630434       0.65687947 </v>
    <v>       0.83476433       0.16989279       0.34344191 </v>
    <v>       0.83951640       0.16689841       0.84449828 </v>
    <v>       0.84071308       0.50000000       0.34377078 </v>
    <v>       0.83944645       0.50000000       0.84213498 </v>
    <v>       0.83476433       0.83010721       0.34344191 </v>
    <v>       0.83951640       0.83310159       0.84449828 </v>
    <v>       0.59369434       0.16970775       0.39901489 </v>
    <v>       0.59116164       0.16677272       0.89781409 </v>
    <v>       0.59478420       0.50000000       0.39778181 </v>
    <v>       0.59186877       0.50000000       0.89695292 </v>
    <v>       0.59369434       0.83029225       0.39901489 </v>
    <v>       0.59116164       0.83322728       0.89781409 </v>
    <v>       0.90986953       0.00000000       0.10344591 </v>
    <v>       0.90642097       0.00000000       0.60520948 </v>
    <v>       0.90659440       0.33429415       0.10123668 </v>
    <v>       0.90728013       0.33374239       0.60092436 </v>
    <v>       0.90659440       0.66570585       0.10123668 </v>
    <v>       0.90728013       0.66625761       0.60092436 </v>
    <v>       0.16154293       0.17231326       0.14552121 </v>
    <v>       0.15886275       0.16878625       0.66112773 </v>
    <v>       0.15798995       0.50000000       0.15809674 </v>
    <v>       0.15907431       0.50000000       0.65368392 </v>
    <v>       0.16154293       0.82768674       0.14552121 </v>
    <v>       0.15886275       0.83121375       0.66112773 </v>
    <v>       0.35465135       0.00000000       0.34852984 </v>
    <v>       0.34119877       0.00000000       0.84499101 </v>
    <v>       0.34313270       0.33448234       0.34143791 </v>
    <v>       0.34203718       0.33403620       0.84303281 </v>
    <v>       0.34313270       0.66551766       0.34143791 </v>
    <v>       0.34203718       0.66596380       0.84303281 </v>
    <v>       0.06389199       0.00000000       0.42122382 </v>
    <v>       0.08799610       0.00000000       0.89436763 </v>
    <v>       0.09141285       0.33328592       0.39660562 </v>
    <v>       0.08863309       0.33419736       0.89438527 </v>
    <v>       0.09141285       0.66671408       0.39660562 </v>
    <v>       0.08863309       0.66580264       0.89438527 </v>
    <v>       0.41348280       0.16798758       0.10092919 </v>
    <v>       0.41063206       0.16828828       0.60548373 </v>
    <v>       0.40960158       0.50000000       0.10141923 </v>
    <v>       0.40994575       0.50000000       0.60146813 </v>
    <v>       0.41348280       0.83201242       0.10092919 </v>
    <v>       0.41063206       0.83171172       0.60548373 </v>
    <v>       0.99468742       0.16919867       0.12170716 </v>
    <v>       0.99481279       0.16676269       0.62858600 </v>
    <v>       0.99514727       0.50000000       0.12603802 </v>
    <v>       0.99594886       0.50000000       0.62559763 </v>
    <v>       0.99468742       0.83080133       0.12170716 </v>
    <v>       0.99481279       0.83323731       0.62858600 </v>
    <v>       0.51032488       0.00000000       0.37200892 </v>
    <v>       0.50390797       0.00000000       0.87282850 </v>
    <v>       0.50633408       0.33490173       0.37215352 </v>
    <v>       0.50433108       0.33369816       0.87275351 </v>
    <v>       0.50633408       0.66509827       0.37215352 </v>
    <v>       0.50433108       0.66630184       0.87275351 </v>
    <v>       0.67151736       0.16666869       0.27909513 </v>
    <v>       0.67195677       0.16659814       0.78048427 </v>
    <v>       0.67278773       0.50000000       0.27825494 </v>
    <v>       0.67255136       0.50000000       0.77981382 </v>
    <v>       0.67151736       0.83333131       0.27909513 </v>
    <v>       0.67195677       0.83340186       0.78048427 </v>
    <v>       0.82814946       0.00000000       0.22070152 </v>
    <v>       0.82622824       0.00000000       0.72148453 </v>
    <v>       0.82684801       0.33439593       0.21953477 </v>
    <v>       0.82730780       0.33309749       0.71955135 </v>
    <v>       0.82684801       0.66560407       0.21953477 </v>
    <v>       0.82730780       0.66690251       0.71955135 </v>
    <v>       0.83301981       0.00000000       0.44699996 </v>
    <v>       0.83162708       0.00000000       0.94652248 </v>
    <v>       0.82424664       0.33626427       0.44656121 </v>
    <v>       0.83002330       0.33430477       0.94470750 </v>
    <v>       0.82424664       0.66373573       0.44656121 </v>
    <v>       0.83002330       0.66569523       0.94470750 </v>
    <v>       0.66936262       0.16708235       0.05381880 </v>
    <v>       0.66879483       0.16611661       0.55541623 </v>
    <v>       0.67119035       0.50000000       0.05234982 </v>
    <v>       0.66815969       0.50000000       0.55503852 </v>
    <v>       0.66936262       0.83291765       0.05381880 </v>
    <v>       0.66879483       0.83388339       0.55541623 </v>
    <v>       0.49894328       0.00000000       0.12582628 </v>
    <v>       0.49634334       0.00000000       0.62784167 </v>
    <v>       0.49920893       0.33558519       0.12465565 </v>
    <v>       0.49804500       0.33439630       0.62966749 </v>
    <v>       0.49920893       0.66441481       0.12465565 </v>
    <v>       0.49804500       0.66560370       0.62966749 </v>
    <v>       0.99360945       0.17695262       0.38135793 </v>
    <v>       0.00203829       0.16736338       0.87191482 </v>
    <v>       0.00305074       0.50000000       0.37371470 </v>
    <v>       0.00158990       0.50000000       0.87073301 </v>
    <v>       0.99360945       0.82304738       0.38135793 </v>
    <v>       0.00203829       0.83263662       0.87191482 </v>
    <v>       0.17365580       0.00000000       0.78330575 </v>
    <v>       0.17323186       0.33805271       0.28040266 </v>
    <v>       0.17237169       0.33428067       0.77995023 </v>
    <v>       0.17323186       0.66194729       0.28040266 </v>
    <v>       0.17237169       0.66571933       0.77995023 </v>
    <v>       0.33276839       0.17448015       0.21666978 </v>
    <v>       0.32778150       0.16706341       0.72063206 </v>
    <v>       0.32810153       0.50000000       0.21772843 </v>
    <v>       0.32724168       0.50000000       0.71819616 </v>
    <v>       0.33276839       0.82551985       0.21666978 </v>
    <v>       0.32778150       0.83293659       0.72063206 </v>
    <v>       0.34119091       0.17098175       0.44756866 </v>
    <v>       0.33413305       0.16813677       0.94557312 </v>
    <v>       0.33451748       0.50000000       0.44497515 </v>
    <v>       0.33255033       0.50000000       0.94481509 </v>
    <v>       0.34119091       0.82901825       0.44756866 </v>
    <v>       0.33413305       0.83186323       0.94557312 </v>
    <v>       0.17310360       0.00000000       0.04625006 </v>
    <v>       0.16437827       0.00000000       0.56391210 </v>
    <v>       0.16747631       0.33792373       0.05036416 </v>
    <v>       0.16812183       0.33169692       0.55376465 </v>
    <v>       0.16747631       0.66207627       0.05036416 </v>
    <v>       0.16812183       0.66830308       0.55376465 </v>
    <v>       0.16541565       0.00000000       0.29077534 </v>
   </varray>
  </structure>
  <varray name="primitive_index" >
   <v type="int" >        1 </v>
   <v type="int" >        2 </v>
   <v type="int" >        3 </v>
   <v type="int" >        4 </v>
   <v type="int" >        5 </v>
   <v type="int" >        6 </v>
   <v type="int" >        7 </v>
   <v type="int" >        8 </v>
   <v type="int" >        9 </v>
   <v type="int" >       10 </v>
   <v type="int" >       11 </v>
   <v type="int" >       12 </v>
   <v type="int" >       13 </v>
   <v type="int" >       14 </v>
   <v type="int" >       15 </v>
   <v type="int" >       16 </v>
   <v type="int" >       17 </v>
   <v type="int" >       18 </v>
   <v type="int" >       19 </v>
   <v type="int" >       20 </v>
   <v type="int" >       21 </v>
   <v type="int" >       22 </v>
   <v type="int" >       23 </v>
   <v type="int" >       24 </v>
   <v type="int" >       25 </v>
   <v type="int" >       26 </v>
   <v type="int" >       27 </v>
   <v type="int" >       28 </v>
   <v type="int" >       29 </v>
   <v type="int" >       30 </v>
   <v type="int" >       31 </v>
   <v type="int" >       32 </v>
   <v type="int" >       33 </v>
   <v type="int" >       34 </v>
   <v type="int" >       35 </v>
   <v type="int" >       36 </v>
   <v type="int" >       37 </v>
   <v type="int" >       38 </v>
   <v type="int" >       39 </v>
   <v type="int" >       40 </v>
   <v type="int" >       41 </v>
   <v type="int" >       42 </v>
   <v type="int" >       43 </v>
   <v type="int" >       44 </v>
   <v type="int" >       45 </v>
   <v type="int" >       46 </v>
   <v type="int" >       47 </v>
   <v type="int" >       48 </v>
   <v type="int" >       49 </v>
   <v type="int" >       50 </v>
   <v type="int" >       51 </v>
   <v type="int" >       52 </v>
   <v type="int" >       53 </v>
   <v type="int" >       54 </v>
   <v type="int" >       55 </v>
   <v type="int" >       56 </v>
   <v type="int" >       57 </v>
   <v type="int" >       58 </v>
   <v type="int" >       59 </v>
   <v type="int" >       60 </v>
   <v type="int" >       61 </v>
   <v type="int" >       62 </v>
   <v type="int" >       63 </v>
   <v type="int" >       64 </v>
   <v type="int" >       65 </v>
   <v type="int" >       66 </v>
   <v type="int" >       67 </v>
   <v type="int" >       68 </v>
   <v type="int" >       69 </v>
   <v type="int" >       70 </v>
   <v type="int" >       71 </v>
   <v type="int" >       72 </v>
   <v type="int" >       73 </v>
   <v type="int" >       74 </v>
   <v type="int" >       75 </v>
   <v type="int" >       76 </v>
   <v type="int" >       77 </v>
   <v type="int" >       78 </v>
   <v type="int" >       79 </v>
   <v type="int" >       80 </v>
   <v type="int" >       81 </v>
   <v type="int" >       82 </v>
   <v type="int" >       83 </v>
   <v type="int" >       84 </v>
   <v type="int" >       85 </v>
   <v type="int" >       86 </v>
   <v type="int" >       87 </v>
   <v type="int" >       88 </v>
   <v type="int" >       89 </v>
   <v type="int" >       90 </v>
   <v type="int" >       91 </v>
   <v type="int" >       92 </v>
   <v type="int" >       93 </v>
   <v type="int" >       94 </v>
   <v type="int" >       95 </v>
   <v type="int" >       96 </v>
   <v type="int" >       97 </v>
   <v type="int" >       98 </v>
   <v type="int" >       99 </v>
   <v type="int" >      100 </v>
   <v type="int" >      101 </v>
   <v type="int" >      102 </v>
   <v type="int" >      103 </v>
   <v type="int" >      104 </v>
   <v type="int" >      105 </v>
   <v type="int" >      106 </v>
   <v type="int" >      107 </v>
   <v type="int" >      108 </v>
   <v type="int" >      109 </v>
   <v type="int" >      110 </v>
   <v type="int" >      111 </v>
   <v type="int" >      112 </v>
   <v type="int" >      113 </v>
   <v type="int" >      114 </v>
   <v type="int" >      115 </v>
   <v type="int" >      116 </v>
   <v type="int" >      117 </v>
   <v type="int" >      118 </v>
   <v type="int" >      119 </v>
   <v type="int" >      120 </v>
  </varray>
 </primitive_cell>
 <kpoints>
  <generation param="Gamma">
   <v type="int" name="divisions">       2        2        2 </v>
   <v name="usershift">      0.00000000       0.00000000       0.00000000 </v>
   <v name="genvec1">      0.50000000       0.00000000       0.00000000 </v>
   <v name="genvec2">      0.00000000       0.50000000       0.00000000 </v>
   <v name="genvec3">      0.00000000       0.00000000       0.50000000 </v>
   <v name="shift">      0.00000000       0.00000000       0.00000000 </v>
  </generation>
  <varray name="kpointlist" >
   <v>       0.00000000       0.00000000       0.00000000 </v>
   <v>       0.50000000       0.00000000       0.00000000 </v>
   <v>       0.00000000       0.50000000       0.00000000 </v>
   <v>       0.50000000       0.50000000       0.00000000 </v>
   <v>       0.00000000       0.00000000       0.50000000 </v>
   <v>       0.50000000       0.00000000       0.50000000 </v>
   <v>       0.00000000       0.50000000       0.50000000 </v>
   <v>       0.50000000       0.50000000       0.50000000 </v>
  </varray>
  <varray name="weights" >
   <v>       0.12500000 </v>
   <v>       0.12500000 </v>
   <v>       0.12500000 </v>
   <v>       0.12500000 </v>
   <v>       0.12500000 </v>
   <v>       0.12500000 </v>
   <v>       0.12500000 </v>
   <v>       0.12500000 </v>
  </varray>
 </kpoints>
 <parameters>
  <separator name="general" >
   <i type="string" name="SYSTEM">unknown system</i>
   <i type="logical" name="LCOMPAT"> F  </i>
  </separator>
  <separator name="electronic" >
   <i type="string" name="PREC">normal</i>
   <i name="ENMAX">    450.00000000</i>
   <i name="ENAUG">    605.39200000</i>
   <i name="EDIFF">      0.00001000</i>
   <i type="int" name="IALGO">    58</i>
   <i type="int" name="IWAVPR">    10</i>
   <i type="int" name="NBANDS">   633</i>
   <i type="int" name="NBANDSLOW">    -1</i>
   <i type="int" name="NBANDSHIGH">    -1</i>
   <i name="NELECT">   1055.00000000</i>
   <i type="int" name="TURBO">     0</i>
   <i type="int" name="IRESTART">     0</i>
   <i type="int" name="NREBOOT">     0</i>
   <i type="int" name="NMIN">     0</i>
   <i name="EREF">      0.00000000</i>
   <separator name="electronic smearing" >
    <i type="int" name="ISMEAR">     0</i>
    <i name="SIGMA">      0.05000000</i>
    <i name="KSPACING">      0.50000000</i>
    <i type="logical" name="KGAMMA"> T  </i>
    <i type="logical" name="KBLOWUP"> T  </i>
   </separator>
   <separator name="electronic projectors" >
    <i type="logical" name="LREAL"> T  </i>
    <v name="ROPT">     -0.00050000     -0.00050000     -0.00050000</v>
    <i type="int" name="LMAXPAW">  -100</i>
    <i type="int" name="LMAXMIX">     2</i>
    <i type="logical" name="NLSPLINE"> F  </i>
   </separator>
   <separator name="electronic startup" >
    <i type="int" name="ISTART">     0</i>
    <i type="int" name="ICHARG">     0</i>
    <i type="int" name="INIWAV">     1</i>
   </separator>
   <separator name="electronic spin" >
    <i type="int" name="ISPIN">     1</i>
    <i type="logical" name="LNONCOLLINEAR"> F  </i>
    <v name="MAGMOM">      1.00000000      1.00000000      1.00000000      1.00000000      1.00000000      1.00000000      1.00000000      1.00000000      1.00000000      1.00000000      1.00000000      1.00000000      1.00000000      1.00000000      1.00000000      1.00000000      1.00000000      1.00000000      1.00000000      1.00000000
      1.00000000      1.00000000      1.00000000      1.00000000      1.00000000      1.00000000      1.00000000      1.00000000      1.00000000      1.00000000      1.00000000      1.00000000      1.00000000      1.00000000      1.00000000      1.00000000      1.00000000      1.00000000      1.00000000      1.00000000
      1.00000000      1.00000000      1.00000000      1.00000000      1.00000000      1.00000000      1.00000000      1.00000000      1.00000000      1.00000000      1.00000000      1.00000000      1.00000000      1.00000000      1.00000000      1.00000000      1.00000000      1.00000000      1.00000000      1.00000000
      1.00000000      1.00000000      1.00000000      1.00000000      1.00000000      1.00000000      1.00000000      1.00000000      1.00000000      1.00000000      1.00000000      1.00000000      1.00000000      1.00000000      1.00000000      1.00000000      1.00000000      1.00000000      1.00000000      1.00000000
      1.00000000      1.00000000      1.00000000      1.00000000      1.00000000      1.00000000      1.00000000      1.00000000      1.00000000      1.00000000      1.00000000      1.00000000      1.00000000      1.00000000      1.00000000      1.00000000      1.00000000      1.00000000      1.00000000      1.00000000
      1.00000000      1.00000000      1.00000000      1.00000000      1.00000000      1.00000000      1.00000000      1.00000000      1.00000000      1.00000000      1.00000000      1.00000000      1.00000000      1.00000000      1.00000000      1.00000000      1.00000000      1.00000000      1.00000000      1.00000000
</v>
    <i name="NUPDOWN">     -1.00000000</i>
    <i type="logical" name="LSORBIT"> F  </i>
    <v name="SAXIS">      0.00000000      0.00000000      1.00000000</v>
    <i type="logical" name="LSPIRAL"> F  </i>
    <v name="QSPIRAL">      0.00000000      0.00000000      0.00000000</v>
    <i type="logical" name="LZEROZ"> F  </i>
   </separator>
   <separator name="electronic exchange-correlation" >
    <i type="logical" name="LASPH"> F  </i>
    <i type="logical" name="LMETAGGA"> F  </i>
   </separator>
   <separator name="electronic convergence" >
    <i type="int" name="NELM">   500</i>
    <i type="int" name="NELMDL">    -5</i>
    <i type="int" name="NELMIN">     2</i>
    <i name="ENINI">    450.00000000</i>
    <separator name="electronic convergence detail" >
     <i type="logical" name="LDIAG"> T  </i>
     <i type="logical" name="LSUBROT"> F  </i>
     <i name="WEIMIN">      0.00000000</i>
     <i name="EBREAK">      0.00000000</i>
     <i name="DEPER">      0.30000000</i>
     <i type="int" name="NRMM">     4</i>
     <i name="TIME">      0.40000000</i>
    </separator>
   </separator>
   <separator name="electronic mixer" >
    <i name="AMIX">      0.40000000</i>
    <i name="BMIX">      1.00000000</i>
    <i name="AMIN">      0.10000000</i>
    <i name="AMIX_MAG">      1.60000000</i>
    <i name="BMIX_MAG">      1.00000000</i>
    <separator name="electronic mixer details" >
     <i type="int" name="IMIX">     4</i>
     <i type="logical" name="MIXFIRST"> F  </i>
     <i type="int" name="MAXMIX">   -45</i>
     <i name="WC">    100.00000000</i>
     <i type="int" name="INIMIX">     1</i>
     <i type="int" name="MIXPRE">     1</i>
     <i type="int" name="MREMOVE">     5</i>
    </separator>
   </separator>
   <separator name="electronic dipolcorrection" >
    <i type="logical" name="LDIPOL"> F  </i>
    <i type="logical" name="LMONO"> F  </i>
    <i type="int" name="IDIPOL">     0</i>
    <i name="EPSILON">      1.00000000</i>
    <v name="DIPOL">   -100.00000000   -100.00000000   -100.00000000</v>
    <i name="EFIELD">      0.00000000</i>
   </separator>
  </separator>
  <separator name="grids" >
   <i type="int" name="NGX">    64</i>
   <i type="int" name="NGY">    48</i>
   <i type="int" name="NGZ">    60</i>
   <i type="int" name="NGXF">   128</i>
   <i type="int" name="NGYF">    96</i>
   <i type="int" name="NGZF">   120</i>
   <i type="logical" name="ADDGRID"> F  </i>
  </separator>
  <separator name="ionic" >
   <i type="int" name="NSW">     0</i>
   <i type="int" name="IBRION">    -1</i>
   <i type="int" name="MDALGO">     0</i>
   <i type="int" name="ISIF">     2</i>
   <i name="PSTRESS">      0.00000000</i>
   <i name="EDIFFG">     -0.00500000</i>
   <i type="int" name="NFREE">     0</i>
   <i name="POTIM">      0.50000000</i>
   <i name="SMASS">     -3.00000000</i>
   <i name="SCALEE">      1.00000000</i>
  </separator>
  <separator name="ionic md" >
   <i name="TEBEG">      0.00010000</i>
   <i name="TEEND">      0.00010000</i>
   <i type="int" name="NBLOCK">     1</i>
   <i type="int" name="KBLOCK">     1</i>
   <i type="int" name="NPACO">   256</i>
   <i name="APACO">     10.00000000</i>
  </separator>
  <separator name="symmetry" >
   <i type="int" name="ISYM">     3</i>
   <i name="SYMPREC">      0.00001000</i>
  </separator>
  <separator name="dos" >
   <i type="int" name="LORBIT">     0</i>
   <v name="RWIGS">     -1.00000000     -1.00000000     -1.00000000</v>
   <i type="int" name="NEDOS">   301</i>
   <i name="EMIN">     10.00000000</i>
   <i name="EMAX">    -10.00000000</i>
   <i name="EFERMI">      0.00000000</i>
  </separator>
  <separator name="writing" >
   <i type="int" name="NWRITE">     2</i>
   <i type="logical" name="LWAVE"> T  </i>
   <i type="logical" name="LDOWNSAMPLE"> F  </i>
   <i type="logical" name="LCHARG"> T  </i>
   <i type="logical" name="LPARD"> F  </i>
   <i type="logical" name="LVTOT"> F  </i>
   <i type="logical" name="LVHAR"> F  </i>
   <i type="logical" name="LELF"> F  </i>
   <i type="logical" name="LOPTICS"> F  </i>
   <v name="STM">      0.00000000      0.00000000      0.00000000      0.00000000      0.00000000      0.00000000      0.00000000</v>
  </separator>
  <separator name="performance" >
   <i type="int" name="NPAR">     1</i>
   <i type="int" name="NSIM">     4</i>
   <i type="int" name="NBLK">    -1</i>
   <i type="logical" name="LPLANE"> T  </i>
   <i type="logical" name="LSCALAPACK"> T  </i>
   <i type="logical" name="LSCAAWARE"> F  </i>
   <i type="logical" name="LSCALU"> F  </i>
   <i type="logical" name="LASYNC"> F  </i>
   <i type="logical" name="LORBITALREAL"> F  </i>
  </separator>
  <separator name="miscellaneous" >
   <i type="int" name="IDIOT">     3</i>
   <i type="int" name="PHON_NSTRUCT">    -1</i>
   <i type="logical" name="LMUSIC"> F  </i>
   <v name="POMASS">     69.72300000     16.00000000     30.97400000</v>
   <v name="DARWINR">      0.00000000      0.00000000      0.00000000</v>
   <v name="DARWINV">      1.00000000      1.00000000      1.00000000</v>
   <i type="logical" name="LCORR"> T  </i>
  </separator>
  <i type="logical" name="GGA_COMPAT"> T  </i>
  <i type="logical" name="LBERRY"> F  </i>
  <i type="int" name="ICORELEVEL">     0</i>
  <i type="logical" name="LDAU"> F  </i>
  <i type="int" name="I_CONSTRAINED_M">     0</i>
  <separator name="electronic exchange-correlation" >
   <i type="string" name="GGA">--</i>
   <i type="int" name="VOSKOWN">     0</i>
   <i type="logical" name="LHFCALC"> T  </i>
   <i type="string" name="PRECFOCK">fast</i>
   <i type="logical" name="LSYMGRAD"> F  </i>
   <i type="logical" name="LHFONE"> F  </i>
   <i type="logical" name="LRHFCALC"> F  </i>
   <i type="logical" name="LTHOMAS"> F  </i>
   <i type="logical" name="LMODELHF"> F  </i>
   <i type="logical" name="LFOCKACE"> T  </i>
   <i name="ENCUT4O">     -1.00000000</i>
   <i type="int" name="EXXOEP">     0</i>
   <i type="int" name="FOURORBIT">     0</i>
   <i name="AEXX">      0.35000000</i>
   <i name="HFALPHA">     -1.00000000</i>
   <i name="MCALPHA">      0.00000000</i>
   <i name="ALDAX">      0.65000000</i>
   <i name="AGGAX">      0.65000000</i>
   <i name="ALDAC">      1.00000000</i>
   <i name="AGGAC">      1.00000000</i>
   <i type="int" name="NKREDX">     1</i>
   <i type="int" name="NKREDY">     1</i>
   <i type="int" name="NKREDZ">     1</i>
   <i type="logical" name="SHIFTRED"> F  </i>
   <i type="logical" name="ODDONLY"> F  </i>
   <i type="logical" name="EVENONLY"> F  </i>
   <i type="int" name="LMAXFOCK">     4</i>
   <i type="int" name="NMAXFOCKAE">     1</i>
   <i type="logical" name="LFOCKAEDFT"> F  </i>
   <i name="HFSCREEN">      0.18000000</i>
   <i name="HFSCREENC">      0.18000000</i>
   <i type="int" name="NBANDSGWLOW">     1</i>
  </separator>
  <separator name="vdW DFT" >
   <i type="logical" name="LUSE_VDW"> F  </i>
   <i type="int" name="IVDW_NL">     1</i>
   <i type="logical" name="LSPIN_VDW"> F  </i>
   <i name="Zab_VDW">     -0.84910000</i>
   <i name="PARAM1">      0.12340000</i>
   <i name="PARAM2">      1.00000000</i>
   <i name="PARAM3">      0.00000000</i>
  </separator>
  <separator name="model GW" >
   <i type="int" name="MODEL_GW">     0</i>
   <i name="MODEL_EPS0">      6.34402578</i>
   <i name="MODEL_ALPHA">      1.00000000</i>
  </separator>
  <separator name="linear response parameters" >
   <i type="logical" name="LEPSILON"> F  </i>
   <i type="logical" name="LRPA"> F  </i>
   <i type="logical" name="LNABLA"> F  </i>
   <i type="logical" name="LVEL"> F  </i>
   <i name="CSHIFT">      0.10000000</i>
   <i name="OMEGAMAX">     -1.00000000</i>
   <i name="DEG_THRESHOLD">      0.00200000</i>
   <i name="RTIME">     -0.10000000</i>
   <i name="WPLASMAI">      0.00000000</i>
   <v name="DFIELD">      0.00000000      0.00000000      0.00000000</v>
   <v name="WPLASMA">      0.00000000      0.00000000      0.00000000      0.00000000      0.00000000      0.00000000      0.00000000      0.00000000      0.00000000</v>
  </separator>
  <separator name="orbital magnetization" >
   <i type="logical" name="NUCIND"> F  </i>
   <v name="MAGPOS">      0.00000000      0.00000000      0.00000000</v>
   <i type="logical" name="LNICSALL"> T  </i>
   <i type="logical" name="ORBITALMAG"> F  </i>
   <i type="logical" name="LMAGBLOCH"> F  </i>
   <i type="logical" name="LCHIMAG"> F  </i>
   <i type="logical" name="LGAUGE"> T  </i>
   <i type="int" name="MAGATOM">     0</i>
   <v name="MAGDIPOL">      0.00000000      0.00000000      0.00000000</v>
   <v name="AVECCONST">      0.00000000      0.00000000      0.00000000</v>
  </separator>
  <separator name="response functions" >
   <i type="logical" name="LALL_IN_ONE"> F  </i>
   <i type="int" name="IALL_IN_ONE">    -1</i>
   <i type="int" name="NBANDS_WAVE">    -1</i>
   <i type="logical" name="LFINITE_TEMPERATURE"> F  </i>
   <i type="logical" name="LADDER"> F  </i>
   <i type="logical" name="LRPAFORCE"> F  </i>
   <i type="logical" name="LFXC"> F  </i>
   <i type="logical" name="LHARTREE"> T  </i>
   <i type="int" name="IBSE">     0</i>
   <v type="int" name="KPOINT">    -1     0     0     0</v>
   <i type="logical" name="LTCTC"> F  </i>
   <i type="logical" name="LTCTE"> F  </i>
   <i type="logical" name="LTETE"> F  </i>
   <i type="logical" name="LTRIPLET"> F  </i>
   <i type="logical" name="LFXCEPS"> F  </i>
   <i type="logical" name="LFXHEG"> F  </i>
   <i type="int" name="NATURALO">     2</i>
   <i type="logical" name="LHOLEGF"> F  </i>
   <i type="logical" name="L2ORDER"> F  </i>
   <i type="logical" name="LDMP1"> F  </i>
   <i type="logical" name="LMP2LT"> F  </i>
   <i type="logical" name="LSMP2LT"> F  </i>
   <i type="logical" name="LGWLF"> F  </i>
   <i name="ENCUTGW">     -1.60000002</i>
   <i name="ENCUTGWSOFT">     -1.60000002</i>
   <i name="ENCUTLF">     -1.00000000</i>
   <i type="logical" name="LESF_SPLINES"> F  </i>
   <i type="int" name="LMAXMP2">    -1</i>
   <i name="SCISSOR">      0.00000000</i>
   <i type="int" name="NOMEGA">     0</i>
   <i type="int" name="NOMEGAR">     0</i>
   <i type="int" name="NBANDSGW">    -1</i>
   <i type="int" name="NBANDSO">    -1</i>
   <i type="int" name="NBANDSV">    -1</i>
   <i type="int" name="NELMGW">     1</i>
   <i type="int" name="NELMHF">     1</i>
   <i type="int" name="DIM">     3</i>
   <i type="int" name="IESPILON">     4</i>
   <i type="int" name="ANTIRES">     0</i>
   <i name="OMEGAMAX">    -30.00000000</i>
   <i name="OMEGAMIN">    -30.00000000</i>
   <i name="OMEGATL">   -200.00000000</i>
   <i type="int" name="OMEGAGRID">     0</i>
   <i name="CSHIFT">     -0.10000000</i>
   <i type="logical" name="LSELFENERGY"> F  </i>
   <i type="logical" name="LSPECTRAL"> F  </i>
   <i type="logical" name="LSPECTRALGW"> F  </i>
   <i type="logical" name="LSINGLES"> F  </i>
   <i type="logical" name="LFERMIGW"> F  </i>
   <i type="logical" name="ODDONLYGW"> F  </i>
   <i type="logical" name="EVENONLYGW"> F  </i>
   <i type="int" name="NKREDLFX">     1</i>
   <i type="int" name="NKREDLFY">     1</i>
   <i type="int" name="NKREDLFZ">     1</i>
   <i type="int" name="MAXMEM">  2800</i>
   <i type="int" name="TELESCOPE">     0</i>
   <i type="int" name="NTAUPAR">    -1</i>
   <i type="int" name="NOMEGAPAR">    -1</i>
   <i name="DAMP_NEWTON">      0.80000001</i>
   <i name="LAMBDA">      1.00000000</i>
  </separator>
  <separator name="External order field" >
   <i name="OFIELD_KAPPA">      0.00000000</i>
   <v name="OFIELD_K">      0.00000000      0.00000000      0.00000000</v>
   <i name="OFIELD_Q6_NEAR">      0.00000000</i>
   <i name="OFIELD_Q6_FAR">      0.00000000</i>
   <i name="OFIELD_A">      0.00000000</i>
  </separator>
  <separator name="optional k-points parameters" >
   <i type="int" name="KPOINTS_OPT_MODE">     1</i>
   <i type="logical" name="LKPOINTS_OPT"> F  </i>
  </separator>
 </parameters>
 <atominfo>
  <atoms>     120 </atoms>
  <types>       3 </types>
  <array name="atoms" >
   <dimension dim="1">ion</dimension>
   <field type="string">element</field>
   <field type="int">atomtype</field>
   <set>
    <rc><c>Ga</c><c>   1</c></rc>
    <rc><c>Ga</c><c>   1</c></rc>
    <rc><c>Ga</c><c>   1</c></rc>
    <rc><c>Ga</c><c>   1</c></rc>
    <rc><c>Ga</c><c>   1</c></rc>
    <rc><c>Ga</c><c>   1</c></rc>
    <rc><c>Ga</c><c>   1</c></rc>
    <rc><c>Ga</c><c>   1</c></rc>
    <rc><c>Ga</c><c>   1</c></rc>
    <rc><c>Ga</c><c>   1</c></rc>
    <rc><c>Ga</c><c>   1</c></rc>
    <rc><c>Ga</c><c>   1</c></rc>
    <rc><c>Ga</c><c>   1</c></rc>
    <rc><c>Ga</c><c>   1</c></rc>
    <rc><c>Ga</c><c>   1</c></rc>
    <rc><c>Ga</c><c>   1</c></rc>
    <rc><c>Ga</c><c>   1</c></rc>
    <rc><c>Ga</c><c>   1</c></rc>
    <rc><c>Ga</c><c>   1</c></rc>
    <rc><c>Ga</c><c>   1</c></rc>
    <rc><c>Ga</c><c>   1</c></rc>
    <rc><c>Ga</c><c>   1</c></rc>
    <rc><c>Ga</c><c>   1</c></rc>
    <rc><c>Ga</c><c>   1</c></rc>
    <rc><c>Ga</c><c>   1</c></rc>
    <rc><c>Ga</c><c>   1</c></rc>
    <rc><c>Ga</c><c>   1</c></rc>
    <rc><c>Ga</c><c>   1</c></rc>
    <rc><c>Ga</c><c>   1</c></rc>
    <rc><c>Ga</c><c>   1</c></rc>
    <rc><c>Ga</c><c>   1</c></rc>
    <rc><c>Ga</c><c>   1</c></rc>
    <rc><c>Ga</c><c>   1</c></rc>
    <rc><c>Ga</c><c>   1</c></rc>
    <rc><c>Ga</c><c>   1</c></rc>
    <rc><c>Ga</c><c>   1</c></rc>
    <rc><c>Ga</c><c>   1</c></rc>
    <rc><c>Ga</c><c>   1</c></rc>
    <rc><c>Ga</c><c>   1</c></rc>
    <rc><c>Ga</c><c>   1</c></rc>
    <rc><c>Ga</c><c>   1</c></rc>
    <rc><c>Ga</c><c>   1</c></rc>
    <rc><c>Ga</c><c>   1</c></rc>
    <rc><c>Ga</c><c>   1</c></rc>
    <rc><c>Ga</c><c>   1</c></rc>
    <rc><c>Ga</c><c>   1</c></rc>
    <rc><c>Ga</c><c>   1</c></rc>
    <rc><c>Ga</c><c>   1</c></rc>
    <rc><c>O </c><c>   2</c></rc>
    <rc><c>O </c><c>   2</c></rc>
    <rc><c>O </c><c>   2</c></rc>
    <rc><c>O </c><c>   2</c></rc>
    <rc><c>O </c><c>   2</c></rc>
    <rc><c>O </c><c>   2</c></rc>
    <rc><c>O </c><c>   2</c></rc>
    <rc><c>O </c><c>   2</c></rc>
    <rc><c>O </c><c>   2</c></rc>
    <rc><c>O </c><c>   2</c></rc>
    <rc><c>O </c><c>   2</c></rc>
    <rc><c>O </c><c>   2</c></rc>
    <rc><c>O </c><c>   2</c></rc>
    <rc><c>O </c><c>   2</c></rc>
    <rc><c>O </c><c>   2</c></rc>
    <rc><c>O </c><c>   2</c></rc>
    <rc><c>O </c><c>   2</c></rc>
    <rc><c>O </c><c>   2</c></rc>
    <rc><c>O </c><c>   2</c></rc>
    <rc><c>O </c><c>   2</c></rc>
    <rc><c>O </c><c>   2</c></rc>
    <rc><c>O </c><c>   2</c></rc>
    <rc><c>O </c><c>   2</c></rc>
    <rc><c>O </c><c>   2</c></rc>
    <rc><c>O </c><c>   2</c></rc>
    <rc><c>O </c><c>   2</c></rc>
    <rc><c>O </c><c>   2</c></rc>
    <rc><c>O </c><c>   2</c></rc>
    <rc><c>O </c><c>   2</c></rc>
    <rc><c>O </c><c>   2</c></rc>
    <rc><c>O </c><c>   2</c></rc>
    <rc><c>O </c><c>   2</c></rc>
    <rc><c>O </c><c>   2</c></rc>
    <rc><c>O </c><c>   2</c></rc>
    <rc><c>O </c><c>   2</c></rc>
    <rc><c>O </c><c>   2</c></rc>
    <rc><c>O </c><c>   2</c></rc>
    <rc><c>O </c><c>   2</c></rc>
    <rc><c>O </c><c>   2</c></rc>
    <rc><c>O </c><c>   2</c></rc>
    <rc><c>O </c><c>   2</c></rc>
    <rc><c>O </c><c>   2</c></rc>
    <rc><c>O </c><c>   2</c></rc>
    <rc><c>O </c><c>   2</c></rc>
    <rc><c>O </c><c>   2</c></rc>
    <rc><c>O </c><c>   2</c></rc>
    <rc><c>O </c><c>   2</c></rc>
    <rc><c>O </c><c>   2</c></rc>
    <rc><c>O </c><c>   2</c></rc>
    <rc><c>O </c><c>   2</c></rc>
    <rc><c>O </c><c>   2</c></rc>
    <rc><c>O </c><c>   2</c></rc>
    <rc><c>O </c><c>   2</c></rc>
    <rc><c>O </c><c>   2</c></rc>
    <rc><c>O </c><c>   2</c></rc>
    <rc><c>O </c><c>   2</c></rc>
    <rc><c>O </c><c>   2</c></rc>
    <rc><c>O </c><c>   2</c></rc>
    <rc><c>O </c><c>   2</c></rc>
    <rc><c>O </c><c>   2</c></rc>
    <rc><c>O </c><c>   2</c></rc>
    <rc><c>O </c><c>   2</c></rc>
    <rc><c>O </c><c>   2</c></rc>
    <rc><c>O </c><c>   2</c></rc>
    <rc><c>O </c><c>   2</c></rc>
    <rc><c>O </c><c>   2</c></rc>
    <rc><c>O </c><c>   2</c></rc>
    <rc><c>O </c><c>   2</c></rc>
    <rc><c>O </c><c>   2</c></rc>
    <rc><c>O </c><c>   2</c></rc>
    <rc><c>O </c><c>   2</c></rc>
    <rc><c>P </c><c>   3</c></rc>
   </set>
  </array>
  <array name="atomtypes" >
   <dimension dim="1">type</dimension>
   <field type="int">atomspertype</field>
   <field type="string">element</field>
   <field>mass</field>
   <field>valence</field>
   <field type="string">pseudopotential</field>
   <set>
    <rc><c>  48</c><c>Ga</c><c>     69.72300000</c><c>     13.00000000</c><c>  PAW_PBE Ga_d 06Jul2010                </c></rc>
    <rc><c>  71</c><c>O </c><c>     16.00000000</c><c>      6.00000000</c><c>   PAW_PBE O 08Apr2002                  </c></rc>
    <rc><c>   1</c><c>P </c><c>     30.97400000</c><c>      5.00000000</c><c>  PAW_PBE P 06Sep2000                   </c></rc>
   </set>
  </array>
 </atominfo>
 <structure name="initialpos" >
  <crystal>
   <varray name="basis" >
    <v>       0.00000000      12.28047342       0.00000000 </v>
    <v>       9.14270205       0.00000000       0.00000000 </v>
    <v>       0.00000000      -2.76826177     -11.30069772 </v>
   </varray>
   <i name="volume">   1268.80515525 </i>
   <varray name="rec_basis" >
    <v>       0.00000000       0.08143009      -0.01994742 </v>
    <v>       0.10937686      -0.00000000       0.00000000 </v>
    <v>       0.00000000       0.00000000      -0.08849011 </v>
   </varray>
  </crystal>
  <varray name="positions" >
   <v>       0.66083139       0.00000000       0.15524547 </v>
   <v>       0.65825204       0.00000000       0.65773333 </v>
   <v>       0.66010245       0.33504531       0.15489247 </v>
   <v>       0.65971479       0.33369566       0.65687947 </v>
   <v>       0.66010245       0.66495469       0.15489247 </v>
   <v>       0.65971479       0.66630434       0.65687947 </v>
   <v>       0.83476433       0.16989279       0.34344191 </v>
   <v>       0.83951640       0.16689841       0.84449828 </v>
   <v>       0.84071308       0.50000000       0.34377078 </v>
   <v>       0.83944645       0.50000000       0.84213498 </v>
   <v>       0.83476433       0.83010721       0.34344191 </v>
   <v>       0.83951640       0.83310159       0.84449828 </v>
   <v>       0.59369434       0.16970775       0.39901489 </v>
   <v>       0.59116164       0.16677272       0.89781409 </v>
   <v>       0.59478420       0.50000000       0.39778181 </v>
   <v>       0.59186877       0.50000000       0.89695292 </v>
   <v>       0.59369434       0.83029225       0.39901489 </v>
   <v>       0.59116164       0.83322728       0.89781409 </v>
   <v>       0.90986953       0.00000000       0.10344591 </v>
   <v>       0.90642097       0.00000000       0.60520948 </v>
   <v>       0.90659440       0.33429415       0.10123668 </v>
   <v>       0.90728013       0.33374239       0.60092436 </v>
   <v>       0.90659440       0.66570585       0.10123668 </v>
   <v>       0.90728013       0.66625761       0.60092436 </v>
   <v>       0.16154293       0.17231326       0.14552121 </v>
   <v>       0.15886275       0.16878625       0.66112773 </v>
   <v>       0.15798995       0.50000000       0.15809674 </v>
   <v>       0.15907431       0.50000000       0.65368392 </v>
   <v>       0.16154293       0.82768674       0.14552121 </v>
   <v>       0.15886275       0.83121375       0.66112773 </v>
   <v>       0.35465135       0.00000000       0.34852984 </v>
   <v>       0.34119877       0.00000000       0.84499101 </v>
   <v>       0.34313270       0.33448234       0.34143791 </v>
   <v>       0.34203718       0.33403620       0.84303281 </v>
   <v>       0.34313270       0.66551766       0.34143791 </v>
   <v>       0.34203718       0.66596380       0.84303281 </v>
   <v>       0.06389199       0.00000000       0.42122382 </v>
   <v>       0.08799610       0.00000000       0.89436763 </v>
   <v>       0.09141285       0.33328592       0.39660562 </v>
   <v>       0.08863309       0.33419736       0.89438527 </v>
   <v>       0.09141285       0.66671408       0.39660562 </v>
   <v>       0.08863309       0.66580264       0.89438527 </v>
   <v>       0.41348280       0.16798758       0.10092919 </v>
   <v>       0.41063206       0.16828828       0.60548373 </v>
   <v>       0.40960158       0.50000000       0.10141923 </v>
   <v>       0.40994575       0.50000000       0.60146813 </v>
   <v>       0.41348280       0.83201242       0.10092919 </v>
   <v>       0.41063206       0.83171172       0.60548373 </v>
   <v>       0.99468742       0.16919867       0.12170716 </v>
   <v>       0.99481279       0.16676269       0.62858600 </v>
   <v>       0.99514727       0.50000000       0.12603802 </v>
   <v>       0.99594886       0.50000000       0.62559763 </v>
   <v>       0.99468742       0.83080133       0.12170716 </v>
   <v>       0.99481279       0.83323731       0.62858600 </v>
   <v>       0.51032488       0.00000000       0.37200892 </v>
   <v>       0.50390797       0.00000000       0.87282850 </v>
   <v>       0.50633408       0.33490173       0.37215352 </v>
   <v>       0.50433108       0.33369816       0.87275351 </v>
   <v>       0.50633408       0.66509827       0.37215352 </v>
   <v>       0.50433108       0.66630184       0.87275351 </v>
   <v>       0.67151736       0.16666869       0.27909513 </v>
   <v>       0.67195677       0.16659814       0.78048427 </v>
   <v>       0.67278773       0.50000000       0.27825494 </v>
   <v>       0.67255136       0.50000000       0.77981382 </v>
   <v>       0.67151736       0.83333131       0.27909513 </v>
   <v>       0.67195677       0.83340186       0.78048427 </v>
   <v>       0.82814946       0.00000000       0.22070152 </v>
   <v>       0.82622824       0.00000000       0.72148453 </v>
   <v>       0.82684801       0.33439593       0.21953477 </v>
   <v>       0.82730780       0.33309749       0.71955135 </v>
   <v>       0.82684801       0.66560407       0.21953477 </v>
   <v>       0.82730780       0.66690251       0.71955135 </v>
   <v>       0.83301981       0.00000000       0.44699996 </v>
   <v>       0.83162708       0.00000000       0.94652248 </v>
   <v>       0.82424664       0.33626427       0.44656121 </v>
   <v>       0.83002330       0.33430477       0.94470750 </v>
   <v>       0.82424664       0.66373573       0.44656121 </v>
   <v>       0.83002330       0.66569523       0.94470750 </v>
   <v>       0.66936262       0.16708235       0.05381880 </v>
   <v>       0.66879483       0.16611661       0.55541623 </v>
   <v>       0.67119035       0.50000000       0.05234982 </v>
   <v>       0.66815969       0.50000000       0.55503852 </v>
   <v>       0.66936262       0.83291765       0.05381880 </v>
   <v>       0.66879483       0.83388339       0.55541623 </v>
   <v>       0.49894328       0.00000000       0.12582628 </v>
   <v>       0.49634334       0.00000000       0.62784167 </v>
   <v>       0.49920893       0.33558519       0.12465565 </v>
   <v>       0.49804500       0.33439630       0.62966749 </v>
   <v>       0.49920893       0.66441481       0.12465565 </v>
   <v>       0.49804500       0.66560370       0.62966749 </v>
   <v>       0.99360945       0.17695262       0.38135793 </v>
   <v>       0.00203829       0.16736338       0.87191482 </v>
   <v>       0.00305074       0.50000000       0.37371470 </v>
   <v>       0.00158990       0.50000000       0.87073301 </v>
   <v>       0.99360945       0.82304738       0.38135793 </v>
   <v>       0.00203829       0.83263662       0.87191482 </v>
   <v>       0.17365580       0.00000000       0.78330575 </v>
   <v>       0.17323186       0.33805271       0.28040266 </v>
   <v>       0.17237169       0.33428067       0.77995023 </v>
   <v>       0.17323186       0.66194729       0.28040266 </v>
   <v>       0.17237169       0.66571933       0.77995023 </v>
   <v>       0.33276839       0.17448015       0.21666978 </v>
   <v>       0.32778150       0.16706341       0.72063206 </v>
   <v>       0.32810153       0.50000000       0.21772843 </v>
   <v>       0.32724168       0.50000000       0.71819616 </v>
   <v>       0.33276839       0.82551985       0.21666978 </v>
   <v>       0.32778150       0.83293659       0.72063206 </v>
   <v>       0.34119091       0.17098175       0.44756866 </v>
   <v>       0.33413305       0.16813677       0.94557312 </v>
   <v>       0.33451748       0.50000000       0.44497515 </v>
   <v>       0.33255033       0.50000000       0.94481509 </v>
   <v>       0.34119091       0.82901825       0.44756866 </v>
   <v>       0.33413305       0.83186323       0.94557312 </v>
   <v>       0.17310360       0.00000000       0.04625006 </v>
   <v>       0.16437827       0.00000000       0.56391210 </v>
   <v>       0.16747631       0.33792373       0.05036416 </v>
   <v>       0.16812183       0.33169692       0.55376465 </v>
   <v>       0.16747631       0.66207627       0.05036416 </v>
   <v>       0.16812183       0.66830308       0.55376465 </v>
   <v>       0.16541565       0.00000000       0.29077534 </v>
  </varray>
 </structure>
 <calculation>
  <scstep>
   <time name="total">    3.95    3.96</time>
   <energy>
    <i name="alphaZ">   5529.70323211 </i>
    <i name="ewald"> -88556.18533230 </i>
    <i name="hartreedc">  -2117.95812904 </i>
    <i name="XCdc">   2792.00970920 </i>
    <i name="pawpsdc"> 337737.28076865 </i>
    <i name="pawaedc">-369685.83385172 </i>
    <i name="eentropy">     -0.00213882 </i>
    <i name="bandstr"> -41107.47851256 </i>
    <i name="atom"> 133605.80973787 </i>
    <i name="e_fr_energy"> -21802.65451661 </i>
    <i name="e_wo_entrp"> -21802.65237779 </i>
    <i name="e_0_energy"> -21802.65344720 </i>
   </energy>
  </scstep>
  <scstep>
   <time name="total">    3.29    3.29</time>
   <energy>
    <i name="e_fr_energy"> -66391.07763435 </i>
    <i name="e_wo_entrp"> -66391.05672760 </i>
    <i name="e_0_energy"> -66391.06718098 </i>
   </energy>
  </scstep>
  <scstep>
   <time name="total">    3.30    3.30</time>
   <energy>
    <i name="e_fr_energy"> -71425.98649695 </i>
    <i name="e_wo_entrp"> -71425.96461260 </i>
    <i name="e_0_energy"> -71425.97555478 </i>
   </energy>
  </scstep>
  <scstep>
   <time name="total">    3.79    3.79</time>
   <energy>
    <i name="e_fr_energy"> -72145.78513180 </i>
    <i name="e_wo_entrp"> -72145.72508816 </i>
    <i name="e_0_energy"> -72145.75510998 </i>
   </energy>
  </scstep>
  <scstep>
   <time name="total">  236.71  236.68</time>
   <energy>
    <i name="e_fr_energy"> -39103.17283205 </i>
    <i name="e_wo_entrp"> -39103.16678930 </i>
    <i name="e_0_energy"> -39103.16981068 </i>
   </energy>
  </scstep>
  <scstep>
   <time name="total">  471.21  471.15</time>
   <energy>
    <i name="e_fr_energy">  34493.07810492 </i>
    <i name="e_wo_entrp">  34493.10733544 </i>
    <i name="e_0_energy">  34493.09272018 </i>
   </energy>
  </scstep>
  <scstep>
   <time name="total">  471.74  471.70</time>
   <energy>
    <i name="e_fr_energy">  11760.73313597 </i>
    <i name="e_wo_entrp">  11760.75657952 </i>
    <i name="e_0_energy">  11760.74485775 </i>
   </energy>
  </scstep>
  <scstep>
   <time name="total">  470.97  470.92</time>
   <energy>
    <i name="e_fr_energy">   7570.23889194 </i>
    <i name="e_wo_entrp">   7570.26347612 </i>
    <i name="e_0_energy">   7570.25118403 </i>
   </energy>
  </scstep>
  <scstep>
   <time name="total">  471.51  471.46</time>
   <energy>
    <i name="e_fr_energy">   4454.65939430 </i>
    <i name="e_wo_entrp">   4454.69731168 </i>
    <i name="e_0_energy">   4454.67835299 </i>
   </energy>
  </scstep>
  <scstep>
   <time name="total">  471.39  471.35</time>
   <energy>
    <i name="e_fr_energy">   2722.56880448 </i>
    <i name="e_wo_entrp">   2722.58330475 </i>
    <i name="e_0_energy">   2722.57605462 </i>
   </energy>
  </scstep>
  <scstep>
   <time name="total">  470.73  470.69</time>
   <energy>
    <i name="e_fr_energy">   1312.83938843 </i>
    <i name="e_wo_entrp">   1312.85370792 </i>
    <i name="e_0_energy">   1312.84654817 </i>
   </energy>
  </scstep>
  <scstep>
   <time name="total">  470.42  470.36</time>
   <energy>
    <i name="e_fr_energy">    318.50208277 </i>
    <i name="e_wo_entrp">    318.51690771 </i>
    <i name="e_0_energy">    318.50949524 </i>
   </energy>
  </scstep>
  <scstep>
   <time name="total">  470.40  470.35</time>
   <energy>
    <i name="e_fr_energy">   -265.27162558 </i>
    <i name="e_wo_entrp">   -265.26293243 </i>
    <i name="e_0_energy">   -265.26727901 </i>
   </energy>
  </scstep>
  <scstep>
   <time name="total">  470.26  470.20</time>
   <energy>
    <i name="e_fr_energy">   -615.98746222 </i>
    <i name="e_wo_entrp">   -615.97626948 </i>
    <i name="e_0_energy">   -615.98186585 </i>
   </energy>
  </scstep>
  <scstep>
   <time name="total">  469.91  469.87</time>
   <energy>
    <i name="e_fr_energy">   -776.16319836 </i>
    <i name="e_wo_entrp">   -776.16040667 </i>
    <i name="e_0_energy">   -776.16180252 </i>
   </energy>
  </scstep>
  <scstep>
   <time name="total">  469.86  469.81</time>
   <energy>
    <i name="e_fr_energy">   -845.34304089 </i>
    <i name="e_wo_entrp">   -845.34228354 </i>
    <i name="e_0_energy">   -845.34266222 </i>
   </energy>
  </scstep>
  <scstep>
   <time name="total">  469.85  469.79</time>
   <energy>
    <i name="e_fr_energy">   -890.36581132 </i>
    <i name="e_wo_entrp">   -890.36546169 </i>
    <i name="e_0_energy">   -890.36563651 </i>
   </energy>
  </scstep>
  <scstep>
   <time name="total">  470.16  470.10</time>
   <energy>
    <i name="e_fr_energy">   -920.30037632 </i>
    <i name="e_wo_entrp">   -920.29339765 </i>
    <i name="e_0_energy">   -920.29688698 </i>
   </energy>
  </scstep>
  <scstep>
   <time name="total">  470.23  470.17</time>
   <energy>
    <i name="e_fr_energy">   -942.06902622 </i>
    <i name="e_wo_entrp">   -942.06326117 </i>
    <i name="e_0_energy">   -942.06614369 </i>
   </energy>
  </scstep>
  <scstep>
   <time name="total">  469.86  469.79</time>
   <energy>
    <i name="e_fr_energy">   -955.80964070 </i>
    <i name="e_wo_entrp">   -955.79341973 </i>
    <i name="e_0_energy">   -955.80153022 </i>
   </energy>
  </scstep>
  <scstep>
   <time name="total">  469.90  469.84</time>
   <energy>
    <i name="e_fr_energy">   -965.39304641 </i>
    <i name="e_wo_entrp">   -965.38119167 </i>
    <i name="e_0_energy">   -965.38711904 </i>
   </energy>
  </scstep>
  <scstep>
   <time name="total">  469.91  469.85</time>
   <energy>
    <i name="e_fr_energy">   -971.06647931 </i>
    <i name="e_wo_entrp">   -971.05567318 </i>
    <i name="e_0_energy">   -971.06107625 </i>
   </energy>
  </scstep>
  <scstep>
   <time name="total">  470.05  469.99</time>
   <energy>
    <i name="e_fr_energy">   -974.53364438 </i>
    <i name="e_wo_entrp">   -974.52126702 </i>
    <i name="e_0_energy">   -974.52745570 </i>
   </energy>
  </scstep>
  <scstep>
   <time name="total">  470.00  469.94</time>
   <energy>
    <i name="e_fr_energy">   -976.59580361 </i>
    <i name="e_wo_entrp">   -976.57881732 </i>
    <i name="e_0_energy">   -976.58731047 </i>
   </energy>
  </scstep>
  <scstep>
   <time name="total">  470.19  470.14</time>
   <energy>
    <i name="e_fr_energy">   -977.85619061 </i>
    <i name="e_wo_entrp">   -977.83620576 </i>
    <i name="e_0_energy">   -977.84619819 </i>
   </energy>
  </scstep>
  <scstep>
   <time name="total">  469.98  469.92</time>
   <energy>
    <i name="e_fr_energy">   -978.65827789 </i>
    <i name="e_wo_entrp">   -978.63590768 </i>
    <i name="e_0_energy">   -978.64709278 </i>
   </energy>
  </scstep>
  <scstep>
   <time name="total">  470.31  470.25</time>
   <energy>
    <i name="e_fr_energy">   -979.13880615 </i>
    <i name="e_wo_entrp">   -979.11422094 </i>
    <i name="e_0_energy">   -979.12651355 </i>
   </energy>
  </scstep>
  <scstep>
   <time name="total">  469.81  469.75</time>
   <energy>
    <i name="e_fr_energy">   -979.46373205 </i>
    <i name="e_wo_entrp">   -979.43850087 </i>
    <i name="e_0_energy">   -979.45111646 </i>
   </energy>
  </scstep>
  <scstep>
   <time name="total">  469.93  469.87</time>
   <energy>
    <i name="e_fr_energy">   -979.68153287 </i>
    <i name="e_wo_entrp">   -979.65775430 </i>
    <i name="e_0_energy">   -979.66964358 </i>
   </energy>
  </scstep>
  <scstep>
   <time name="total">  470.31  470.25</time>
   <energy>
    <i name="e_fr_energy">   -979.81085476 </i>
    <i name="e_wo_entrp">   -979.79035520 </i>
    <i name="e_0_energy">   -979.80060498 </i>
   </energy>
  </scstep>
  <scstep>
   <time name="total">  470.29  470.22</time>
   <energy>
    <i name="e_fr_energy">   -979.89362401 </i>
    <i name="e_wo_entrp">   -979.87713367 </i>
    <i name="e_0_energy">   -979.88537884 </i>
   </energy>
  </scstep>
  <scstep>
   <time name="total">  470.11  470.05</time>
   <energy>
    <i name="e_fr_energy">   -979.94965376 </i>
    <i name="e_wo_entrp">   -979.93645264 </i>
    <i name="e_0_energy">   -979.94305320 </i>
   </energy>
  </scstep>
  <scstep>
   <time name="total">  469.97  469.91</time>
   <energy>
    <i name="e_fr_energy">   -979.98360647 </i>
    <i name="e_wo_entrp">   -979.97339711 </i>
    <i name="e_0_energy">   -979.97850179 </i>
   </energy>
  </scstep>
  <scstep>
   <time name="total">  470.01  469.94</time>
   <energy>
    <i name="e_fr_energy">   -980.00822501 </i>
    <i name="e_wo_entrp">   -980.00066793 </i>
    <i name="e_0_energy">   -980.00444647 </i>
   </energy>
  </scstep>
  <scstep>
   <time name="total">  469.96  469.91</time>
   <energy>
    <i name="e_fr_energy">   -980.02689501 </i>
    <i name="e_wo_entrp">   -980.02120746 </i>
    <i name="e_0_energy">   -980.02405123 </i>
   </energy>
  </scstep>
  <scstep>
   <time name="total">  470.10  470.04</time>
   <energy>
    <i name="e_fr_energy">   -980.03876513 </i>
    <i name="e_wo_entrp">   -980.03434645 </i>
    <i name="e_0_energy">   -980.03655579 </i>
   </energy>
  </scstep>
  <scstep>
   <time name="total">  470.00  469.95</time>
   <energy>
    <i name="e_fr_energy">   -980.04668314 </i>
    <i name="e_wo_entrp">   -980.04235195 </i>
    <i name="e_0_energy">   -980.04451754 </i>
   </energy>
  </scstep>
  <scstep>
   <time name="total">  470.04  469.98</time>
   <energy>
    <i name="e_fr_energy">   -980.05609291 </i>
    <i name="e_wo_entrp">   -980.05198083 </i>
    <i name="e_0_energy">   -980.05403687 </i>
   </energy>
  </scstep>
  <scstep>
   <time name="total">  470.08  470.02</time>
   <energy>
    <i name="e_fr_energy">   -980.05972767 </i>
    <i name="e_wo_entrp">   -980.05580661 </i>
    <i name="e_0_energy">   -980.05776714 </i>
   </energy>
  </scstep>
  <scstep>
   <time name="total">  469.71  469.65</time>
   <energy>
    <i name="e_fr_energy">   -980.06087856 </i>
    <i name="e_wo_entrp">   -980.05713251 </i>
    <i name="e_0_energy">   -980.05900554 </i>
   </energy>
  </scstep>
  <scstep>
   <time name="total">  470.13  470.06</time>
   <energy>
    <i name="e_fr_energy">   -980.06134985 </i>
    <i name="e_wo_entrp">   -980.05778589 </i>
    <i name="e_0_energy">   -980.05956787 </i>
   </energy>
  </scstep>
  <scstep>
   <time name="total">  470.08  470.00</time>
   <energy>
    <i name="e_fr_energy">   -980.06158415 </i>
    <i name="e_wo_entrp">   -980.05822889 </i>
    <i name="e_0_energy">   -980.05990652 </i>
   </energy>
  </scstep>
  <scstep>
   <time name="total">  470.21  470.15</time>
   <energy>
    <i name="e_fr_energy">   -980.06170514 </i>
    <i name="e_wo_entrp">   -980.05859384 </i>
    <i name="e_0_energy">   -980.06014949 </i>
   </energy>
  </scstep>
  <scstep>
   <time name="total">  470.08  470.02</time>
   <energy>
    <i name="e_fr_energy">   -980.06180344 </i>
    <i name="e_wo_entrp">   -980.05888128 </i>
    <i name="e_0_energy">   -980.06034236 </i>
   </energy>
  </scstep>
  <scstep>
   <time name="total">  470.03  469.97</time>
   <energy>
    <i name="e_fr_energy">   -980.06186509 </i>
    <i name="e_wo_entrp">   -980.05907154 </i>
    <i name="e_0_energy">   -980.06046832 </i>
   </energy>
  </scstep>
  <scstep>
   <time name="total">  469.95  469.89</time>
   <energy>
    <i name="e_fr_energy">   -980.06190036 </i>
    <i name="e_wo_entrp">   -980.05915802 </i>
    <i name="e_0_energy">   -980.06052919 </i>
   </energy>
  </scstep>
  <scstep>
   <time name="total">  470.28  470.23</time>
   <energy>
    <i name="e_fr_energy">   -980.06191264 </i>
    <i name="e_wo_entrp">   -980.05919272 </i>
    <i name="e_0_energy">   -980.06055268 </i>
   </energy>
  </scstep>
  <scstep>
   <time name="total">  701.09  700.99</time>
   <energy>
    <i name="alphaZ">   5529.70323211 </i>
    <i name="ewald"> -88556.18533230 </i>
    <i name="hartreedc"> -34054.69557573 </i>
    <i name="XCdc">   2784.39887190 </i>
    <i name="pawpsdc"> 122378.45702141 </i>
    <i name="pawaedc">-137872.27581409 </i>
    <i name="eentropy">     -0.00271217 </i>
    <i name="bandstr">  -9100.69939018 </i>
    <i name="atom"> 133605.80973787 </i>
    <i name="e_fr_energy">   -980.06191759 </i>
    <i name="e_wo_entrp">   -980.05920542 </i>
    <i name="e_0_energy">   -980.06056151 </i>
   </energy>
  </scstep>
  <structure>
   <crystal>
    <varray name="basis" >
     <v>       0.00000000      12.28047342       0.00000000 </v>
     <v>       9.14270205       0.00000000       0.00000000 </v>
     <v>       0.00000000      -2.76826177     -11.30069772 </v>
    </varray>
    <i name="volume">   1268.80515525 </i>
    <varray name="rec_basis" >
     <v>       0.00000000       0.08143009      -0.01994742 </v>
     <v>       0.10937686      -0.00000000       0.00000000 </v>
     <v>       0.00000000       0.00000000      -0.08849011 </v>
    </varray>
   </crystal>
   <varray name="positions" >
    <v>       0.66083139       0.00000000       0.15524547 </v>
    <v>       0.65825204       0.00000000       0.65773333 </v>
    <v>       0.66010245       0.33504531       0.15489247 </v>
    <v>       0.65971479       0.33369566       0.65687947 </v>
    <v>       0.66010245       0.66495469       0.15489247 </v>
    <v>       0.65971479       0.66630434       0.65687947 </v>
    <v>       0.83476433       0.16989279       0.34344191 </v>
    <v>       0.83951640       0.16689841       0.84449828 </v>
    <v>       0.84071308       0.50000000       0.34377078 </v>
    <v>       0.83944645       0.50000000       0.84213498 </v>
    <v>       0.83476433       0.83010721       0.34344191 </v>
    <v>       0.83951640       0.83310159       0.84449828 </v>
    <v>       0.59369434       0.16970775       0.39901489 </v>
    <v>       0.59116164       0.16677272       0.89781409 </v>
    <v>       0.59478420       0.50000000       0.39778181 </v>
    <v>       0.59186877       0.50000000       0.89695292 </v>
    <v>       0.59369434       0.83029225       0.39901489 </v>
    <v>       0.59116164       0.83322728       0.89781409 </v>
    <v>       0.90986953       0.00000000       0.10344591 </v>
    <v>       0.90642097       0.00000000       0.60520948 </v>
    <v>       0.90659440       0.33429415       0.10123668 </v>
    <v>       0.90728013       0.33374239       0.60092436 </v>
    <v>       0.90659440       0.66570585       0.10123668 </v>
    <v>       0.90728013       0.66625761       0.60092436 </v>
    <v>       0.16154293       0.17231326       0.14552121 </v>
    <v>       0.15886275       0.16878625       0.66112773 </v>
    <v>       0.15798995       0.50000000       0.15809674 </v>
    <v>       0.15907431       0.50000000       0.65368392 </v>
    <v>       0.16154293       0.82768674       0.14552121 </v>
    <v>       0.15886275       0.83121375       0.66112773 </v>
    <v>       0.35465135       0.00000000       0.34852984 </v>
    <v>       0.34119877       0.00000000       0.84499101 </v>
    <v>       0.34313270       0.33448234       0.34143791 </v>
    <v>       0.34203718       0.33403620       0.84303281 </v>
    <v>       0.34313270       0.66551766       0.34143791 </v>
    <v>       0.34203718       0.66596380       0.84303281 </v>
    <v>       0.06389199       0.00000000       0.42122382 </v>
    <v>       0.08799610       0.00000000       0.89436763 </v>
    <v>       0.09141285       0.33328592       0.39660562 </v>
    <v>       0.08863309       0.33419736       0.89438527 </v>
    <v>       0.09141285       0.66671408       0.39660562 </v>
    <v>       0.08863309       0.66580264       0.89438527 </v>
    <v>       0.41348280       0.16798758       0.10092919 </v>
    <v>       0.41063206       0.16828828       0.60548373 </v>
    <v>       0.40960158       0.50000000       0.10141923 </v>
    <v>       0.40994575       0.50000000       0.60146813 </v>
    <v>       0.41348280       0.83201242       0.10092919 </v>
    <v>       0.41063206       0.83171172       0.60548373 </v>
    <v>       0.99468742       0.16919867       0.12170716 </v>
    <v>       0.99481279       0.16676269       0.62858600 </v>
    <v>       0.99514727       0.50000000       0.12603802 </v>
    <v>       0.99594886       0.50000000       0.62559763 </v>
    <v>       0.99468742       0.83080133       0.12170716 </v>
    <v>       0.99481279       0.83323731       0.62858600 </v>
    <v>       0.51032488       0.00000000       0.37200892 </v>
    <v>       0.50390797       0.00000000       0.87282850 </v>
    <v>       0.50633408       0.33490173       0.37215352 </v>
    <v>       0.50433108       0.33369816       0.87275351 </v>
    <v>       0.50633408       0.66509827       0.37215352 </v>
    <v>       0.50433108       0.66630184       0.87275351 </v>
    <v>       0.67151736       0.16666869       0.27909513 </v>
    <v>       0.67195677       0.16659814       0.78048427 </v>
    <v>       0.67278773       0.50000000       0.27825494 </v>
    <v>       0.67255136       0.50000000       0.77981382 </v>
    <v>       0.67151736       0.83333131       0.27909513 </v>
    <v>       0.67195677       0.83340186       0.78048427 </v>
    <v>       0.82814946       0.00000000       0.22070152 </v>
    <v>       0.82622824       0.00000000       0.72148453 </v>
    <v>       0.82684801       0.33439593       0.21953477 </v>
    <v>       0.82730780       0.33309749       0.71955135 </v>
    <v>       0.82684801       0.66560407       0.21953477 </v>
    <v>       0.82730780       0.66690251       0.71955135 </v>
    <v>       0.83301981       0.00000000       0.44699996 </v>
    <v>       0.83162708       0.00000000       0.94652248 </v>
    <v>       0.82424664       0.33626427       0.44656121 </v>
    <v>       0.83002330       0.33430477       0.94470750 </v>
    <v>       0.82424664       0.66373573       0.44656121 </v>
    <v>       0.83002330       0.66569523       0.94470750 </v>
    <v>       0.66936262       0.16708235       0.05381880 </v>
    <v>       0.66879483       0.16611661       0.55541623 </v>
    <v>       0.67119035       0.50000000       0.05234982 </v>
    <v>       0.66815969       0.50000000       0.55503852 </v>
    <v>       0.66936262       0.83291765       0.05381880 </v>
    <v>       0.66879483       0.83388339       0.55541623 </v>
    <v>       0.49894328       0.00000000       0.12582628 </v>
    <v>       0.49634334       0.00000000       0.62784167 </v>
    <v>       0.49920893       0.33558519       0.12465565 </v>
    <v>       0.49804500       0.33439630       0.62966749 </v>
    <v>       0.49920893       0.66441481       0.12465565 </v>
    <v>       0.49804500       0.66560370       0.62966749 </v>
    <v>       0.99360945       0.17695262       0.38135793 </v>
    <v>       0.00203829       0.16736338       0.87191482 </v>
    <v>       0.00305074       0.50000000       0.37371470 </v>
    <v>       0.00158990       0.50000000       0.87073301 </v>
    <v>       0.99360945       0.82304738       0.38135793 </v>
    <v>       0.00203829       0.83263662       0.87191482 </v>
    <v>       0.17365580       0.00000000       0.78330575 </v>
    <v>       0.17323186       0.33805271       0.28040266 </v>
    <v>       0.17237169       0.33428067       0.77995023 </v>
    <v>       0.17323186       0.66194729       0.28040266 </v>
    <v>       0.17237169       0.66571933       0.77995023 </v>
    <v>       0.33276839       0.17448015       0.21666978 </v>
    <v>       0.32778150       0.16706341       0.72063206 </v>
    <v>       0.32810153       0.50000000       0.21772843 </v>
    <v>       0.32724168       0.50000000       0.71819616 </v>
    <v>       0.33276839       0.82551985       0.21666978 </v>
    <v>       0.32778150       0.83293659       0.72063206 </v>
    <v>       0.34119091       0.17098175       0.44756866 </v>
    <v>       0.33413305       0.16813677       0.94557312 </v>
    <v>       0.33451748       0.50000000       0.44497515 </v>
    <v>       0.33255033       0.50000000       0.94481509 </v>
    <v>       0.34119091       0.82901825       0.44756866 </v>
    <v>       0.33413305       0.83186323       0.94557312 </v>
    <v>       0.17310360       0.00000000       0.04625006 </v>
    <v>       0.16437827       0.00000000       0.56391210 </v>
    <v>       0.16747631       0.33792373       0.05036416 </v>
    <v>       0.16812183       0.33169692       0.55376465 </v>
    <v>       0.16747631       0.66207627       0.05036416 </v>
    <v>       0.16812183       0.66830308       0.55376465 </v>
    <v>       0.16541565       0.00000000       0.29077534 </v>
   </varray>
  </structure>
  <varray name="forces" >
   <v>       0.00000000       0.05422660       0.01035666 </v>
   <v>       0.00000000       0.05715327       0.00620581 </v>
   <v>       0.02490767       0.05910414       0.01207582 </v>
   <v>       0.01533346       0.05016868       0.00085168 </v>
   <v>      -0.02490767       0.05910414       0.01207582 </v>
   <v>      -0.01533346       0.05016868       0.00085168 </v>
   <v>       0.03843643      -0.06237845      -0.01272164 </v>
   <v>       0.00107525      -0.08622118      -0.00974706 </v>
   <v>       0.00000000      -0.12139171       0.00150866 </v>
   <v>       0.00000000      -0.09544937      -0.01394043 </v>
   <v>      -0.03843643      -0.06237845      -0.01272164 </v>
   <v>      -0.00107525      -0.08622118      -0.00974706 </v>
   <v>      -0.02257010      -0.04869565       0.02456929 </v>
   <v>       0.00660388      -0.01091019       0.03288378 </v>
   <v>       0.00000000      -0.07398916       0.02790283 </v>
   <v>       0.00000000      -0.01121216       0.02750464 </v>
   <v>       0.02257010      -0.04869565       0.02456929 </v>
   <v>      -0.00660388      -0.01091019       0.03288378 </v>
   <v>       0.00000000       0.03414699       0.04051600 </v>
   <v>       0.00000000      -0.01971660      -0.05723074 </v>
   <v>      -0.02554870       0.05514356       0.02400632 </v>
   <v>       0.00583611      -0.01436334      -0.03555260 </v>
   <v>       0.02554870       0.05514356       0.02400632 </v>
   <v>      -0.00583611      -0.01436334      -0.03555260 </v>
   <v>       0.26001957       0.12511488       0.41704792 </v>
   <v>      -0.02941717       0.10891485       0.01309431 </v>
   <v>       0.00000000       0.08676220       0.03670367 </v>
   <v>       0.00000000       0.09107853       0.00256446 </v>
   <v>      -0.26001957       0.12511488       0.41704792 </v>
   <v>       0.02941717       0.10891485       0.01309431 </v>
   <v>       0.00000000       0.16388458      -0.30155942 </v>
   <v>       0.00000000      -0.08823977      -0.00452690 </v>
   <v>      -0.02507919       0.00617461      -0.07998932 </v>
   <v>      -0.00750448      -0.05940896      -0.02024213 </v>
   <v>       0.02507919       0.00617461      -0.07998932 </v>
   <v>       0.00750448      -0.05940896      -0.02024213 </v>
   <v>       0.00000000      -0.06076488      -0.18749710 </v>
   <v>       0.00000000       0.06246199      -0.00997854 </v>
   <v>       0.04611656      -0.09046277      -0.06440451 </v>
   <v>       0.02179089      -0.01828470       0.00582827 </v>
   <v>      -0.04611656      -0.09046277      -0.06440451 </v>
   <v>      -0.02179089      -0.01828470       0.00582827 </v>
   <v>       0.02362432      -0.00617491      -0.01243695 </v>
   <v>       0.00692949       0.05378334       0.07215283 </v>
   <v>       0.00000000       0.03498968      -0.00503368 </v>
   <v>       0.00000000       0.05654490      -0.01727863 </v>
   <v>      -0.02362432      -0.00617491      -0.01243695 </v>
   <v>      -0.00692949       0.05378334       0.07215283 </v>
   <v>       0.03310257      -0.24115239       0.10085377 </v>
   <v>      -0.01307268      -0.19877289       0.14091647 </v>
   <v>       0.00000000      -0.19471325       0.10772416 </v>
   <v>       0.00000000      -0.19538607       0.12828250 </v>
   <v>      -0.03310257      -0.24115239       0.10085377 </v>
   <v>       0.01307268      -0.19877289       0.14091647 </v>
   <v>       0.00000000       0.05877920      -0.13272872 </v>
   <v>       0.00000000       0.18546470      -0.14401896 </v>
   <v>      -0.01042353       0.24494759      -0.13541892 </v>
   <v>      -0.00585575       0.18297745      -0.12679940 </v>
   <v>       0.01042353       0.24494759      -0.13541892 </v>
   <v>       0.00585575       0.18297745      -0.12679940 </v>
   <v>       0.01218810       0.05787506      -0.18057422 </v>
   <v>      -0.01094761      -0.03192797      -0.14012815 </v>
   <v>       0.00000000      -0.02057565      -0.12093796 </v>
   <v>       0.00000000      -0.01735137      -0.13508398 </v>
   <v>      -0.01218810       0.05787506      -0.18057422 </v>
   <v>       0.01094761      -0.03192797      -0.14012815 </v>
   <v>       0.00000000       0.02365030       0.15196819 </v>
   <v>       0.00000000       0.07058623       0.15241653 </v>
   <v>       0.00084345       0.01090271       0.12741065 </v>
   <v>       0.01330338       0.02389164       0.13474244 </v>
   <v>      -0.00084345       0.01090271       0.12741065 </v>
   <v>      -0.01330338       0.02389164       0.13474244 </v>
   <v>       0.00000000       0.38408270      -0.10434138 </v>
   <v>       0.00000000       0.42433093      -0.06593403 </v>
   <v>      -0.02265878       0.49587786      -0.06673388 </v>
   <v>      -0.01257326       0.43473416      -0.07966115 </v>
   <v>       0.02265878       0.49587786      -0.06673388 </v>
   <v>       0.01257326       0.43473416      -0.07966115 </v>
   <v>      -0.01020423      -0.44031583       0.07654582 </v>
   <v>       0.01992595      -0.41877667       0.09508504 </v>
   <v>       0.00000000      -0.46634615       0.06179741 </v>
   <v>       0.00000000      -0.40881345       0.08553465 </v>
   <v>       0.01020423      -0.44031583       0.07654582 </v>
   <v>      -0.01992595      -0.41877667       0.09508504 </v>
   <v>       0.00000000      -0.17246173       0.13367943 </v>
   <v>       0.00000000      -0.14442332       0.08301364 </v>
   <v>      -0.03086753      -0.18072230       0.11542183 </v>
   <v>      -0.00414773      -0.17542209       0.12642448 </v>
   <v>       0.03086753      -0.18072230       0.11542183 </v>
   <v>       0.00414773      -0.17542209       0.12642448 </v>
   <v>      -0.13337172       0.14381485      -0.12666108 </v>
   <v>      -0.00187492       0.20402151      -0.11629403 </v>
   <v>       0.00000000       0.18551594      -0.10394972 </v>
   <v>       0.00000000       0.19429709      -0.11681712 </v>
   <v>       0.13337172       0.14381485      -0.12666108 </v>
   <v>       0.00187492       0.20402151      -0.11629403 </v>
   <v>       0.00000000      -0.08420810      -0.12212464 </v>
   <v>      -0.05057400      -0.08628417      -0.10563544 </v>
   <v>      -0.05720290      -0.07840137      -0.08343796 </v>
   <v>       0.05057400      -0.08628417      -0.10563544 </v>
   <v>       0.05720290      -0.07840137      -0.08343796 </v>
   <v>       0.03525901       0.02532696       0.17409688 </v>
   <v>       0.02853471       0.04755022       0.10140852 </v>
   <v>       0.00000000       0.05784532       0.09470772 </v>
   <v>       0.00000000       0.03128711       0.11711497 </v>
   <v>      -0.03525901       0.02532696       0.17409688 </v>
   <v>      -0.02853471       0.04755022       0.10140852 </v>
   <v>       0.03956098       0.41441727      -0.12361907 </v>
   <v>      -0.00504447       0.44248287      -0.07666243 </v>
   <v>       0.00000000       0.40723737      -0.05564332 </v>
   <v>       0.00000000       0.44804464      -0.06455121 </v>
   <v>      -0.03956098       0.41441727      -0.12361907 </v>
   <v>       0.00504447       0.44248287      -0.07666243 </v>
   <v>       0.00000000      -0.49726159       0.11430783 </v>
   <v>       0.00000000      -0.60384817       0.03469607 </v>
   <v>      -0.13509046      -0.45038977       0.01530733 </v>
   <v>       0.04784246      -0.44089201       0.07962236 </v>
   <v>       0.13509046      -0.45038977       0.01530733 </v>
   <v>      -0.04784246      -0.44089201       0.07962236 </v>
   <v>       0.00000000       0.06924908      -0.24258109 </v>
  </varray>
  <varray name="stress" >
   <v>     -40.44214357       0.00000000       0.00000000 </v>
   <v>       0.00000000     -28.70300509       4.81752854 </v>
   <v>       0.00000000       4.81752935     -25.39186065 </v>
  </varray>
  <energy>
   <i name="e_fr_energy">   -980.06191759 </i>
   <i name="e_wo_entrp">   -980.05920542 </i>
   <i name="e_0_energy">   -980.06056151 </i>
  </energy>
  <time name="totalsc">21293.2521290.72</time>
  <eigenvalues>
   <array>
    <dimension dim="1">band</dimension>
    <dimension dim="2">kpoint</dimension>
    <dimension dim="3">spin</dimension>
    <field>eigene</field>
    <field>occ</field>
    <set>
     <set comment="spin 1">
      <set comment="kpoint 1">
       <r>  -19.0033    1.0000 </r>
       <r>  -18.7429    1.0000 </r>
       <r>  -18.6447    1.0000 </r>
       <r>  -18.5324    1.0000 </r>
       <r>  -18.4782    1.0000 </r>
       <r>  -18.3359    1.0000 </r>
       <r>  -18.3225    1.0000 </r>
       <r>  -18.2515    1.0000 </r>
       <r>  -18.2109    1.0000 </r>
       <r>  -18.1666    1.0000 </r>
       <r>  -18.1133    1.0000 </r>
       <r>  -18.0541    1.0000 </r>
       <r>  -18.0507    1.0000 </r>
       <r>  -18.0384    1.0000 </r>
       <r>  -18.0202    1.0000 </r>
       <r>  -17.9652    1.0000 </r>
       <r>  -17.9556    1.0000 </r>
       <r>  -17.9531    1.0000 </r>
       <r>  -17.8822    1.0000 </r>
       <r>  -17.8791    1.0000 </r>
       <r>  -17.8588    1.0000 </r>
       <r>  -17.8174    1.0000 </r>
       <r>  -17.8119    1.0000 </r>
       <r>  -17.7817    1.0000 </r>
       <r>  -17.7628    1.0000 </r>
       <r>  -17.7463    1.0000 </r>
       <r>  -17.7260    1.0000 </r>
       <r>  -17.6982    1.0000 </r>
       <r>  -17.6873    1.0000 </r>
       <r>  -17.6729    1.0000 </r>
       <r>  -17.6591    1.0000 </r>
       <r>  -17.6526    1.0000 </r>
       <r>  -17.6259    1.0000 </r>
       <r>  -17.6251    1.0000 </r>
       <r>  -17.5937    1.0000 </r>
       <r>  -17.5769    1.0000 </r>
       <r>  -17.5670    1.0000 </r>
       <r>  -17.5591    1.0000 </r>
       <r>  -17.5253    1.0000 </r>
       <r>  -17.5109    1.0000 </r>
       <r>  -17.5030    1.0000 </r>
       <r>  -17.4990    1.0000 </r>
       <r>  -17.4881    1.0000 </r>
       <r>  -17.4683    1.0000 </r>
       <r>  -17.4657    1.0000 </r>
       <r>  -17.4457    1.0000 </r>
       <r>  -17.4401    1.0000 </r>
       <r>  -17.4187    1.0000 </r>
       <r>  -17.3836    1.0000 </r>
       <r>  -17.3629    1.0000 </r>
       <r>  -17.3390    1.0000 </r>
       <r>  -17.3243    1.0000 </r>
       <r>  -17.3163    1.0000 </r>
       <r>  -17.2813    1.0000 </r>
       <r>  -17.2430    1.0000 </r>
       <r>  -17.2375    1.0000 </r>
       <r>  -17.2351    1.0000 </r>
       <r>  -17.2293    1.0000 </r>
       <r>  -17.2014    1.0000 </r>
       <r>  -17.1927    1.0000 </r>
       <r>  -17.1858    1.0000 </r>
       <r>  -17.1847    1.0000 </r>
       <r>  -17.1775    1.0000 </r>
       <r>  -17.1728    1.0000 </r>
       <r>  -17.1681    1.0000 </r>
       <r>  -17.1445    1.0000 </r>
       <r>  -17.1366    1.0000 </r>
       <r>  -17.1185    1.0000 </r>
       <r>  -17.1053    1.0000 </r>
       <r>  -17.0736    1.0000 </r>
       <r>  -17.0524    1.0000 </r>
       <r>  -13.3924    1.0000 </r>
       <r>  -13.3848    1.0000 </r>
       <r>  -13.3752    1.0000 </r>
       <r>  -13.3636    1.0000 </r>
       <r>  -13.3625    1.0000 </r>
       <r>  -13.3570    1.0000 </r>
       <r>  -13.3449    1.0000 </r>
       <r>  -13.3378    1.0000 </r>
       <r>  -13.3373    1.0000 </r>
       <r>  -13.3152    1.0000 </r>
       <r>  -13.3115    1.0000 </r>
       <r>  -13.3084    1.0000 </r>
       <r>  -13.3033    1.0000 </r>
       <r>  -13.2925    1.0000 </r>
       <r>  -13.2850    1.0000 </r>
       <r>  -13.2805    1.0000 </r>
       <r>  -13.2778    1.0000 </r>
       <r>  -13.2745    1.0000 </r>
       <r>  -13.2728    1.0000 </r>
       <r>  -13.2686    1.0000 </r>
       <r>  -13.2656    1.0000 </r>
       <r>  -13.2645    1.0000 </r>
       <r>  -13.2623    1.0000 </r>
       <r>  -13.2603    1.0000 </r>
       <r>  -13.2543    1.0000 </r>
       <r>  -13.2519    1.0000 </r>
       <r>  -13.2482    1.0000 </r>
       <r>  -13.2455    1.0000 </r>
       <r>  -13.2439    1.0000 </r>
       <r>  -13.2418    1.0000 </r>
       <r>  -13.2346    1.0000 </r>
       <r>  -13.2335    1.0000 </r>
       <r>  -13.2322    1.0000 </r>
       <r>  -13.2272    1.0000 </r>
       <r>  -13.2261    1.0000 </r>
       <r>  -13.2236    1.0000 </r>
       <r>  -13.2208    1.0000 </r>
       <r>  -13.2191    1.0000 </r>
       <r>  -13.2163    1.0000 </r>
       <r>  -13.2159    1.0000 </r>
       <r>  -13.2078    1.0000 </r>
       <r>  -13.2075    1.0000 </r>
       <r>  -13.2053    1.0000 </r>
       <r>  -13.2042    1.0000 </r>
       <r>  -13.1955    1.0000 </r>
       <r>  -13.1955    1.0000 </r>
       <r>  -13.1936    1.0000 </r>
       <r>  -13.1920    1.0000 </r>
       <r>  -13.1907    1.0000 </r>
       <r>  -13.1863    1.0000 </r>
       <r>  -13.1834    1.0000 </r>
       <r>  -13.1810    1.0000 </r>
       <r>  -13.1805    1.0000 </r>
       <r>  -13.1782    1.0000 </r>
       <r>  -13.1750    1.0000 </r>
       <r>  -13.1744    1.0000 </r>
       <r>  -13.1738    1.0000 </r>
       <r>  -13.1685    1.0000 </r>
       <r>  -13.1655    1.0000 </r>
       <r>  -13.1646    1.0000 </r>
       <r>  -13.1628    1.0000 </r>
       <r>  -13.1592    1.0000 </r>
       <r>  -13.1514    1.0000 </r>
       <r>  -13.1510    1.0000 </r>
       <r>  -13.1473    1.0000 </r>
       <r>  -13.1378    1.0000 </r>
       <r>  -13.1343    1.0000 </r>
       <r>  -13.1339    1.0000 </r>
       <r>  -13.1290    1.0000 </r>
       <r>  -13.1281    1.0000 </r>
       <r>  -13.1247    1.0000 </r>
       <r>  -13.1230    1.0000 </r>
       <r>  -13.1209    1.0000 </r>
       <r>  -13.1170    1.0000 </r>
       <r>  -13.1110    1.0000 </r>
       <r>  -13.1094    1.0000 </r>
       <r>  -13.1051    1.0000 </r>
       <r>  -13.1005    1.0000 </r>
       <r>  -13.0988    1.0000 </r>
       <r>  -13.0962    1.0000 </r>
       <r>  -13.0939    1.0000 </r>
       <r>  -13.0909    1.0000 </r>
       <r>  -13.0867    1.0000 </r>
       <r>  -13.0859    1.0000 </r>
       <r>  -13.0808    1.0000 </r>
       <r>  -13.0746    1.0000 </r>
       <r>  -13.0716    1.0000 </r>
       <r>  -13.0697    1.0000 </r>
       <r>  -13.0652    1.0000 </r>
       <r>  -13.0633    1.0000 </r>
       <r>  -13.0629    1.0000 </r>
       <r>  -13.0607    1.0000 </r>
       <r>  -13.0600    1.0000 </r>
       <r>  -13.0564    1.0000 </r>
       <r>  -13.0546    1.0000 </r>
       <r>  -13.0536    1.0000 </r>
       <r>  -13.0506    1.0000 </r>
       <r>  -13.0493    1.0000 </r>
       <r>  -13.0484    1.0000 </r>
       <r>  -13.0442    1.0000 </r>
       <r>  -13.0432    1.0000 </r>
       <r>  -13.0415    1.0000 </r>
       <r>  -13.0351    1.0000 </r>
       <r>  -13.0331    1.0000 </r>
       <r>  -13.0294    1.0000 </r>
       <r>  -13.0285    1.0000 </r>
       <r>  -13.0257    1.0000 </r>
       <r>  -13.0246    1.0000 </r>
       <r>  -13.0224    1.0000 </r>
       <r>  -13.0176    1.0000 </r>
       <r>  -13.0174    1.0000 </r>
       <r>  -13.0093    1.0000 </r>
       <r>  -13.0090    1.0000 </r>
       <r>  -13.0075    1.0000 </r>
       <r>  -13.0075    1.0000 </r>
       <r>  -13.0044    1.0000 </r>
       <r>  -13.0041    1.0000 </r>
       <r>  -13.0029    1.0000 </r>
       <r>  -13.0010    1.0000 </r>
       <r>  -12.9973    1.0000 </r>
       <r>  -12.9931    1.0000 </r>
       <r>  -12.9920    1.0000 </r>
       <r>  -12.9885    1.0000 </r>
       <r>  -12.9820    1.0000 </r>
       <r>  -12.9817    1.0000 </r>
       <r>  -12.9778    1.0000 </r>
       <r>  -12.9698    1.0000 </r>
       <r>  -12.9655    1.0000 </r>
       <r>  -12.9652    1.0000 </r>
       <r>  -12.9603    1.0000 </r>
       <r>  -12.9580    1.0000 </r>
       <r>  -12.9557    1.0000 </r>
       <r>  -12.9552    1.0000 </r>
       <r>  -12.9525    1.0000 </r>
       <r>  -12.9487    1.0000 </r>
       <r>  -12.9435    1.0000 </r>
[...]
       <r>   -12.5382   120.7452   556.8292 </r>
       <r>   -12.4045   116.9197   572.4587 </r>
       <r>   -12.2708    93.5475   584.9639 </r>
       <r>   -12.1371   108.5885   599.4797 </r>
       <r>   -12.0035   118.7235   615.3504 </r>
       <r>   -11.8698    47.5687   621.7093 </r>
       <r>   -11.7361     2.1747   622.0000 </r>
       <r>   -11.6024     0.0003   622.0000 </r>
       <r>   -11.4688     0.0000   622.0000 </r>
       <r>   -11.3351     0.0000   622.0000 </r>
       <r>   -11.2014     0.0000   622.0000 </r>
       <r>   -11.0677     0.0000   622.0000 </r>
       <r>   -10.9340     0.0000   622.0000 </r>
       <r>   -10.8004     0.0000   622.0000 </r>
       <r>   -10.6667     0.0000   622.0000 </r>
       <r>   -10.5330     0.0000   622.0000 </r>
       <r>   -10.3993     0.0000   622.0000 </r>
       <r>   -10.2657     0.0000   622.0000 </r>
       <r>   -10.1320     0.0000   622.0000 </r>
       <r>    -9.9983     0.0000   622.0000 </r>
       <r>    -9.8646     0.0000   622.0000 </r>
       <r>    -9.7309     0.0000   622.0000 </r>
       <r>    -9.5973     0.0000   622.0000 </r>
       <r>    -9.4636     0.0000   622.0000 </r>
       <r>    -9.3299     0.0000   622.0000 </r>
       <r>    -9.1962     0.0000   622.0000 </r>
       <r>    -9.0626     0.0000   622.0000 </r>
       <r>    -8.9289     0.0000   622.0000 </r>
       <r>    -8.7952     0.0000   622.0000 </r>
       <r>    -8.6615     0.0000   622.0000 </r>
       <r>    -8.5278     0.0000   622.0000 </r>
       <r>    -8.3942     0.0000   622.0000 </r>
       <r>    -8.2605     0.0000   622.0000 </r>
       <r>    -8.1268     0.0000   622.0000 </r>
       <r>    -7.9931     0.0000   622.0000 </r>
       <r>    -7.8595     0.0000   622.0000 </r>
       <r>    -7.7258     0.4941   622.0660 </r>
       <r>    -7.5921    14.0456   623.9436 </r>
       <r>    -7.4584     0.4217   624.0000 </r>
       <r>    -7.3248     0.0000   624.0000 </r>
       <r>    -7.1911     0.0000   624.0000 </r>
       <r>    -7.0574     0.0000   624.0000 </r>
       <r>    -6.9237     0.0000   624.0000 </r>
       <r>    -6.7900     0.0000   624.0000 </r>
       <r>    -6.6564     0.0000   624.0000 </r>
       <r>    -6.5227     0.0000   624.0000 </r>
       <r>    -6.3890     0.0000   624.0000 </r>
       <r>    -6.2553     0.0000   624.0000 </r>
       <r>    -6.1217     0.0000   624.0000 </r>
       <r>    -5.9880     0.0000   624.0000 </r>
       <r>    -5.8543     0.0000   624.0000 </r>
       <r>    -5.7206     0.0000   624.0000 </r>
       <r>    -5.5869     0.0000   624.0000 </r>
       <r>    -5.4533     0.0001   624.0000 </r>
       <r>    -5.3196     1.9537   624.2612 </r>
       <r>    -5.1859     7.8436   625.3097 </r>
       <r>    -5.0522    19.2049   627.8770 </r>
       <r>    -4.9186    24.7456   631.1849 </r>
       <r>    -4.7849    33.1724   635.6193 </r>
       <r>    -4.6512    27.6164   639.3110 </r>
       <r>    -4.5175    49.1505   645.8813 </r>
       <r>    -4.3838    42.3267   651.5394 </r>
       <r>    -4.2502    58.7974   659.3993 </r>
       <r>    -4.1165    49.3829   666.0007 </r>
       <r>    -3.9828    40.4094   671.4025 </r>
       <r>    -3.8491    51.4384   678.2787 </r>
       <r>    -3.7155    40.9223   683.7491 </r>
       <r>    -3.5818    29.9773   687.7563 </r>
       <r>    -3.4481    29.3573   691.6808 </r>
       <r>    -3.3144    32.2112   695.9867 </r>
       <r>    -3.1807    38.1030   701.0802 </r>
       <r>    -3.0471    36.3274   705.9363 </r>
       <r>    -2.9134    34.8543   710.5956 </r>
       <r>    -2.7797    29.1327   714.4900 </r>
       <r>    -2.6460    34.9182   719.1577 </r>
       <r>    -2.5124    42.8588   724.8870 </r>
       <r>    -2.3787    40.8129   730.3428 </r>
       <r>    -2.2450    50.0854   737.0381 </r>
       <r>    -2.1113    31.2361   741.2136 </r>
       <r>    -1.9777    51.2113   748.0594 </r>
       <r>    -1.8440    68.6465   757.2359 </r>
       <r>    -1.7103    69.5150   766.5285 </r>
       <r>    -1.5766    47.5865   772.8897 </r>
       <r>    -1.4429    65.4011   781.6324 </r>
       <r>    -1.3093    62.9702   790.0501 </r>
       <r>    -1.1756    45.6986   796.1590 </r>
       <r>    -1.0419    53.5572   803.3183 </r>
       <r>    -0.9082    78.8138   813.8540 </r>
       <r>    -0.7746    62.8312   822.2531 </r>
       <r>    -0.6409    77.3411   832.5919 </r>
       <r>    -0.5072    67.7326   841.6462 </r>
       <r>    -0.3735    59.5667   849.6089 </r>
       <r>    -0.2398    70.5653   859.0419 </r>
       <r>    -0.1062    71.1214   868.5492 </r>
       <r>     0.0275    82.6768   879.6013 </r>
       <r>     0.1612    72.5560   889.3004 </r>
       <r>     0.2949    66.7774   898.2270 </r>
       <r>     0.4285    65.3353   906.9609 </r>
       <r>     0.5622    94.1596   919.5479 </r>
       <r>     0.6959    88.7773   931.4154 </r>
       <r>     0.8296    92.4103   943.7686 </r>
       <r>     0.9633    85.3416   955.1768 </r>
       <r>     1.0969   114.8942   970.5356 </r>
       <r>     1.2306   114.4196   985.8309 </r>
       <r>     1.3643   122.0521  1002.1465 </r>
       <r>     1.4980   127.2756  1019.1604 </r>
       <r>     1.6316    94.5893  1031.8049 </r>
       <r>     1.7653    59.6929  1039.7845 </r>
       <r>     1.8990    51.6075  1046.6832 </r>
       <r>     2.0327    24.5323  1049.9627 </r>
       <r>     2.1664     0.2794  1050.0000 </r>
       <r>     2.3000     0.0000  1050.0000 </r>
       <r>     2.4337     0.0000  1050.0000 </r>
       <r>     2.5674     0.0000  1050.0000 </r>
       <r>     2.7011     0.0000  1050.0000 </r>
       <r>     2.8347     0.0070  1050.0009 </r>
       <r>     2.9684     4.5751  1050.6125 </r>
       <r>     3.1021     9.4796  1051.8797 </r>
       <r>     3.2358     0.8997  1052.0000 </r>
       <r>     3.3694     0.0000  1052.0000 </r>
       <r>     3.5031     0.0000  1052.0000 </r>
       <r>     3.6368     1.9411  1052.2595 </r>
       <r>     3.7705    12.0893  1053.8756 </r>
       <r>     3.9042     0.9309  1054.0000 </r>
       <r>     4.0378     0.0000  1054.0000 </r>
       <r>     4.1715     0.0014  1054.0002 </r>
       <r>     4.3052     4.3198  1054.5777 </r>
       <r>     4.4389     5.7981  1055.3527 </r>
       <r>     4.5725     4.8392  1055.9996 </r>
       <r>     4.7062     0.0029  1056.0000 </r>
       <r>     4.8399     0.0000  1056.0000 </r>
       <r>     4.9736     0.0000  1056.0000 </r>
       <r>     5.1073     0.0000  1056.0000 </r>
       <r>     5.2409     0.0000  1056.0000 </r>
       <r>     5.3746     0.0000  1056.0000 </r>
       <r>     5.5083     0.0000  1056.0000 </r>
       <r>     5.6420     0.0000  1056.0000 </r>
       <r>     5.7756     0.0000  1056.0000 </r>
       <r>     5.9093     0.0000  1056.0000 </r>
       <r>     6.0430     0.0000  1056.0000 </r>
       <r>     6.1767     0.0000  1056.0000 </r>
       <r>     6.3104     0.0000  1056.0000 </r>
       <r>     6.4440     0.0000  1056.0000 </r>
       <r>     6.5777     0.0000  1056.0000 </r>
       <r>     6.7114     0.0000  1056.0000 </r>
       <r>     6.8451     0.0000  1056.0000 </r>
       <r>     6.9787     0.0079  1056.0011 </r>
       <r>     7.1124     1.6278  1056.2187 </r>
       <r>     7.2461     0.2344  1056.2500 </r>
       <r>     7.3798     0.0000  1056.2500 </r>
       <r>     7.5134     0.0000  1056.2500 </r>
       <r>     7.6471     0.0000  1056.2500 </r>
       <r>     7.7808     0.0256  1056.2534 </r>
       <r>     7.9145     3.3774  1056.7049 </r>
       <r>     8.0482     3.7400  1057.2049 </r>
       <r>     8.1818     0.7612  1057.3066 </r>
       <r>     8.3155     3.0077  1057.7087 </r>
       <r>     8.4492     4.0155  1058.2455 </r>
       <r>     8.5829     0.0339  1058.2500 </r>
       <r>     8.7165     0.1740  1058.2733 </r>
       <r>     8.8502     7.8084  1059.3171 </r>
       <r>     8.9839     6.2179  1060.1483 </r>
       <r>     9.1176     5.0850  1060.8280 </r>
       <r>     9.2513     5.4664  1061.5587 </r>
       <r>     9.3849     3.6171  1062.0423 </r>
       <r>     9.5186     5.2637  1062.7459 </r>
       <r>     9.6523    11.5874  1064.2949 </r>
       <r>     9.7860     5.3832  1065.0145 </r>
       <r>     9.9196     3.8855  1065.5339 </r>
       <r>    10.0533    15.2937  1067.5783 </r>
       <r>    10.1870    16.5188  1069.7865 </r>
       <r>    10.3207    23.8532  1072.9752 </r>
       <r>    10.4544    10.0302  1074.3160 </r>
       <r>    10.5880    13.3127  1076.0956 </r>
       <r>    10.7217    22.7466  1079.1363 </r>
       <r>    10.8554    34.4289  1083.7386 </r>
       <r>    10.9891    33.5993  1088.2301 </r>
       <r>    11.1227    38.1618  1093.3315 </r>
       <r>    11.2564    41.7129  1098.9076 </r>
       <r>    11.3901    27.5593  1102.5916 </r>
       <r>    11.5238    30.7923  1106.7079 </r>
       <r>    11.6575    31.6331  1110.9365 </r>
       <r>    11.7911    27.4452  1114.6053 </r>
       <r>    11.9248    35.7693  1119.3869 </r>
       <r>    12.0585    36.5643  1124.2747 </r>
       <r>    12.1922    41.0795  1129.7661 </r>
       <r>    12.3258    33.5740  1134.2542 </r>
       <r>    12.4595    24.6608  1137.5508 </r>
       <r>    12.5932    35.3238  1142.2728 </r>
       <r>    12.7269    44.8537  1148.2687 </r>
       <r>    12.8605    40.6644  1153.7046 </r>
       <r>    12.9942    31.6341  1157.9334 </r>
       <r>    13.1279    29.9340  1161.9349 </r>
       <r>    13.2616    26.1826  1165.4349 </r>
       <r>    13.3953    31.8578  1169.6936 </r>
       <r>    13.5289    39.3368  1174.9520 </r>
       <r>    13.6626    41.4480  1180.4927 </r>
       <r>    13.7963    38.3662  1185.6214 </r>
       <r>    13.9300    26.8738  1189.2138 </r>
       <r>    14.0636    36.4819  1194.0906 </r>
       <r>    14.1973    31.0978  1198.2477 </r>
       <r>    14.3310    31.2835  1202.4296 </r>
       <r>    14.4647    25.1427  1205.7906 </r>
       <r>    14.5984    26.6452  1209.3525 </r>
       <r>    14.7320    29.0210  1213.2319 </r>
       <r>    14.8657    30.5382  1217.3142 </r>
       <r>    14.9994    21.5968  1220.2012 </r>
       <r>    15.1331    26.4881  1223.7421 </r>
       <r>    15.2667    27.9726  1227.4814 </r>
       <r>    15.4004    24.9385  1230.8151 </r>
       <r>    15.5341    28.0088  1234.5592 </r>
       <r>    15.6678    24.3255  1237.8110 </r>
       <r>    15.8015    23.8009  1240.9926 </r>
       <r>    15.9351    22.4082  1243.9881 </r>
       <r>    16.0688    18.5689  1246.4703 </r>
       <r>    16.2025    16.5433  1248.6818 </r>
       <r>    16.3362    20.0870  1251.3670 </r>
       <r>    16.4698    19.8184  1254.0163 </r>
       <r>    16.6035    17.8415  1256.4013 </r>
       <r>    16.7372    21.2032  1259.2356 </r>
       <r>    16.8709    15.5364  1261.3125 </r>
       <r>    17.0046    14.1806  1263.2081 </r>
       <r>    17.1382     8.2785  1264.3148 </r>
       <r>    17.2719     5.8516  1265.0970 </r>
       <r>    17.4056     3.1144  1265.5133 </r>
       <r>    17.5393     3.6126  1265.9963 </r>
       <r>    17.6729     0.0279  1266.0000 </r>
       <r>    17.8066     0.0000  1266.0000 </r>
       <r>    17.9403     0.0000  1266.0000 </r>
       <r>    18.0740     0.0000  1266.0000 </r>
       <r>    18.2076     0.0000  1266.0000 </r>
       <r>    18.3413     0.0000  1266.0000 </r>
       <r>    18.4750     0.0000  1266.0000 </r>
       <r>    18.6087     0.0000  1266.0000 </r>
       <r>    18.7424     0.0000  1266.0000 </r>
       <r>    18.8760     0.0000  1266.0000 </r>
       <r>    19.0097     0.0000  1266.0000 </r>
       <r>    19.1434     0.0000  1266.0000 </r>
       <r>    19.2771     0.0000  1266.0000 </r>
      </set>
     </set>
    </array>
   </total>
  </dos>
 </calculation>
 <structure name="finalpos" >
  <crystal>
   <varray name="basis" >
    <v>       0.00000000      12.28047342       0.00000000 </v>
    <v>       9.14270205       0.00000000       0.00000000 </v>
    <v>       0.00000000      -2.76826177     -11.30069772 </v>
   </varray>
   <i name="volume">   1268.80515525 </i>
   <varray name="rec_basis" >
    <v>       0.00000000       0.08143009      -0.01994742 </v>
    <v>       0.10937686      -0.00000000       0.00000000 </v>
    <v>       0.00000000       0.00000000      -0.08849011 </v>
   </varray>
  </crystal>
  <varray name="positions" >
   <v>       0.66083139       0.00000000       0.15524547 </v>
   <v>       0.65825204       0.00000000       0.65773333 </v>
   <v>       0.66010245       0.33504531       0.15489247 </v>
   <v>       0.65971479       0.33369566       0.65687947 </v>
   <v>       0.66010245       0.66495469       0.15489247 </v>
   <v>       0.65971479       0.66630434       0.65687947 </v>
   <v>       0.83476433       0.16989279       0.34344191 </v>
   <v>       0.83951640       0.16689841       0.84449828 </v>
   <v>       0.84071308       0.50000000       0.34377078 </v>
   <v>       0.83944645       0.50000000       0.84213498 </v>
   <v>       0.83476433       0.83010721       0.34344191 </v>
   <v>       0.83951640       0.83310159       0.84449828 </v>
   <v>       0.59369434       0.16970775       0.39901489 </v>
   <v>       0.59116164       0.16677272       0.89781409 </v>
   <v>       0.59478420       0.50000000       0.39778181 </v>
   <v>       0.59186877       0.50000000       0.89695292 </v>
   <v>       0.59369434       0.83029225       0.39901489 </v>
   <v>       0.59116164       0.83322728       0.89781409 </v>
   <v>       0.90986953       0.00000000       0.10344591 </v>
   <v>       0.90642097       0.00000000       0.60520948 </v>
   <v>       0.90659440       0.33429415       0.10123668 </v>
   <v>       0.90728013       0.33374239       0.60092436 </v>
   <v>       0.90659440       0.66570585       0.10123668 </v>
   <v>       0.90728013       0.66625761       0.60092436 </v>
   <v>       0.16154293       0.17231326       0.14552121 </v>
   <v>       0.15886275       0.16878625       0.66112773 </v>
   <v>       0.15798995       0.50000000       0.15809674 </v>
   <v>       0.15907431       0.50000000       0.65368392 </v>
   <v>       0.16154293       0.82768674       0.14552121 </v>
   <v>       0.15886275       0.83121375       0.66112773 </v>
   <v>       0.35465135       0.00000000       0.34852984 </v>
   <v>       0.34119877       0.00000000       0.84499101 </v>
   <v>       0.34313270       0.33448234       0.34143791 </v>
   <v>       0.34203718       0.33403620       0.84303281 </v>
   <v>       0.34313270       0.66551766       0.34143791 </v>
   <v>       0.34203718       0.66596380       0.84303281 </v>
   <v>       0.06389199       0.00000000       0.42122382 </v>
   <v>       0.08799610       0.00000000       0.89436763 </v>
   <v>       0.09141285       0.33328592       0.39660562 </v>
   <v>       0.08863309       0.33419736       0.89438527 </v>
   <v>       0.09141285       0.66671408       0.39660562 </v>
   <v>       0.08863309       0.66580264       0.89438527 </v>
   <v>       0.41348280       0.16798758       0.10092919 </v>
   <v>       0.41063206       0.16828828       0.60548373 </v>
   <v>       0.40960158       0.50000000       0.10141923 </v>
   <v>       0.40994575       0.50000000       0.60146813 </v>
   <v>       0.41348280       0.83201242       0.10092919 </v>
   <v>       0.41063206       0.83171172       0.60548373 </v>
   <v>       0.99468742       0.16919867       0.12170716 </v>
   <v>       0.99481279       0.16676269       0.62858600 </v>
   <v>       0.99514727       0.50000000       0.12603802 </v>
   <v>       0.99594886       0.50000000       0.62559763 </v>
   <v>       0.99468742       0.83080133       0.12170716 </v>
   <v>       0.99481279       0.83323731       0.62858600 </v>
   <v>       0.51032488       0.00000000       0.37200892 </v>
   <v>       0.50390797       0.00000000       0.87282850 </v>
   <v>       0.50633408       0.33490173       0.37215352 </v>
   <v>       0.50433108       0.33369816       0.87275351 </v>
   <v>       0.50633408       0.66509827       0.37215352 </v>
   <v>       0.50433108       0.66630184       0.87275351 </v>
   <v>       0.67151736       0.16666869       0.27909513 </v>
   <v>       0.67195677       0.16659814       0.78048427 </v>
   <v>       0.67278773       0.50000000       0.27825494 </v>
   <v>       0.67255136       0.50000000       0.77981382 </v>
   <v>       0.67151736       0.83333131       0.27909513 </v>
   <v>       0.67195677       0.83340186       0.78048427 </v>
   <v>       0.82814946       0.00000000       0.22070152 </v>
   <v>       0.82622824       0.00000000       0.72148453 </v>
   <v>       0.82684801       0.33439593       0.21953477 </v>
   <v>       0.82730780       0.33309749       0.71955135 </v>
   <v>       0.82684801       0.66560407       0.21953477 </v>
   <v>       0.82730780       0.66690251       0.71955135 </v>
   <v>       0.83301981       0.00000000       0.44699996 </v>
   <v>       0.83162708       0.00000000       0.94652248 </v>
   <v>       0.82424664       0.33626427       0.44656121 </v>
   <v>       0.83002330       0.33430477       0.94470750 </v>
   <v>       0.82424664       0.66373573       0.44656121 </v>
   <v>       0.83002330       0.66569523       0.94470750 </v>
   <v>       0.66936262       0.16708235       0.05381880 </v>
   <v>       0.66879483       0.16611661       0.55541623 </v>
   <v>       0.67119035       0.50000000       0.05234982 </v>
   <v>       0.66815969       0.50000000       0.55503852 </v>
   <v>       0.66936262       0.83291765       0.05381880 </v>
   <v>       0.66879483       0.83388339       0.55541623 </v>
   <v>       0.49894328       0.00000000       0.12582628 </v>
   <v>       0.49634334       0.00000000       0.62784167 </v>
   <v>       0.49920893       0.33558519       0.12465565 </v>
   <v>       0.49804500       0.33439630       0.62966749 </v>
   <v>       0.49920893       0.66441481       0.12465565 </v>
   <v>       0.49804500       0.66560370       0.62966749 </v>
   <v>       0.99360945       0.17695262       0.38135793 </v>
   <v>       0.00203829       0.16736338       0.87191482 </v>
   <v>       0.00305074       0.50000000       0.37371470 </v>
   <v>       0.00158990       0.50000000       0.87073301 </v>
   <v>       0.99360945       0.82304738       0.38135793 </v>
   <v>       0.00203829       0.83263662       0.87191482 </v>
   <v>       0.17365580       0.00000000       0.78330575 </v>
   <v>       0.17323186       0.33805271       0.28040266 </v>
   <v>       0.17237169       0.33428067       0.77995023 </v>
   <v>       0.17323186       0.66194729       0.28040266 </v>
   <v>       0.17237169       0.66571933       0.77995023 </v>
   <v>       0.33276839       0.17448015       0.21666978 </v>
   <v>       0.32778150       0.16706341       0.72063206 </v>
   <v>       0.32810153       0.50000000       0.21772843 </v>
   <v>       0.32724168       0.50000000       0.71819616 </v>
   <v>       0.33276839       0.82551985       0.21666978 </v>
   <v>       0.32778150       0.83293659       0.72063206 </v>
   <v>       0.34119091       0.17098175       0.44756866 </v>
   <v>       0.33413305       0.16813677       0.94557312 </v>
   <v>       0.33451748       0.50000000       0.44497515 </v>
   <v>       0.33255033       0.50000000       0.94481509 </v>
   <v>       0.34119091       0.82901825       0.44756866 </v>
   <v>       0.33413305       0.83186323       0.94557312 </v>
   <v>       0.17310360       0.00000000       0.04625006 </v>
   <v>       0.16437827       0.00000000       0.56391210 </v>
   <v>       0.16747631       0.33792373       0.05036416 </v>
   <v>       0.16812183       0.33169692       0.55376465 </v>
   <v>       0.16747631       0.66207627       0.05036416 </v>
   <v>       0.16812183       0.66830308       0.55376465 </v>
   <v>       0.16541565       0.00000000       0.29077534 </v>
  </varray>
 </structure>
</modeling>
