 running    4 mpi-ranks, on    1 nodes
 distrk:  each k-point on    1 cores,    4 groups
 distr:  one band on    1 cores,    1 groups
 OpenACC runtime initialized ...    4 GPUs detected
 vasp.6.4.2 20Jul23 (build Nov 12 2023 22:16:35) complex                         
 POSCAR found type information on POSCAR GaO P 
 POSCAR found :  3 types and     119 ions
 scaLAPACK will be used selectively (only on CPU)
 LDA part: xc-table for Pade appr. of Perdew
 POSCAR, INCAR and KPOINTS ok, starting setup
 FFT: planning ... GRIDC
 FFT: planning ... GRID_SOFT
 FFT: planning ... GRID
 WAVECAR not read
 initial charge from wavefunction
 entering main loop
       N       E                     dE             d eps       ncg     rms          ort
DAV:   1    -0.182594327281E+05   -0.18259E+05   -0.54228E+05  5000   0.749E+03
DAV:   2    -0.627105807806E+05   -0.44451E+05   -0.42951E+05  5000   0.123E+03
DAV:   3    -0.677940159516E+05   -0.50834E+04   -0.46017E+04  5000   0.376E+02
DAV:   4    -0.685701063407E+05   -0.77609E+03   -0.69277E+03  5000   0.120E+02
DAV:   5    -0.389825744285E+05    0.29588E+05   -0.68589E+02  5000   0.567E+01
 gam= 0.000 g(H,U,f)=  0.833E+05 0.276E+05 0.383E+02 ort(H,U,f) = 0.000E+00 0.000E+00 0.000E+00
SDA:   6     0.350457431781E+05    0.74028E+05   -0.68589E+02  5000   0.111E+06 0.000E+00
 gam= 0.000 trial= 0.400  step= 0.442 mean= 0.400
 gam= 0.626 g(H,U,f)=  0.446E+05 0.180E+05 0.688E+04 ort(H,U,f) =-0.929E+04-0.977E+04-0.691E+04
CGA:   7     0.121560550876E+05   -0.22890E+05   -0.24510E+05  5000   0.694E+05-0.260E+05
 gam= 0.626 trial= 0.402  step= 0.262 mean= 0.402
 gam= 0.304 g(H,U,f)=  0.150E+05 0.577E+04 0.355E+03 ort(H,U,f) =-0.140E+04 0.496E+04 0.520E+02
CGA:   8     0.505855553765E+04   -0.70975E+04   -0.69794E+04  5000   0.211E+05 0.361E+04
 gam= 0.304 trial= 0.395  step= 0.219 mean= 0.395
 gam= 0.938 g(H,U,f)=  0.127E+05 0.657E+04 0.530E+03 ort(H,U,f) = 0.293E+04-0.277E+04-0.256E+03
CGA:   9     0.356978159593E+04   -0.14888E+04   -0.24292E+04  5000   0.198E+05-0.101E+03
 gam= 0.938 trial= 0.386  step= 0.245 mean= 0.386
 gam= 0.290 g(H,U,f)=  0.505E+04 0.677E+03 0.839E+01 ort(H,U,f) = 0.411E+03 0.613E+03 0.213E+01
CGA:  10     0.163371014789E+04   -0.19361E+04   -0.24102E+04  5000   0.574E+04 0.103E+04
 gam= 0.290 trial= 0.379  step= 0.385 mean= 0.379
 gam= 0.463 g(H,U,f)=  0.206E+04 0.576E+03 0.229E+02 ort(H,U,f) = 0.617E+03 0.130E+03-0.623E+01
CGA:  11     0.468963629140E+03   -0.11647E+04   -0.11607E+04  5000   0.265E+04 0.741E+03
 gam= 0.463 trial= 0.380  step= 0.429 mean= 0.380
 gam= 0.408 g(H,U,f)=  0.909E+03 0.170E+03 0.278E+01 ort(H,U,f) = 0.157E+03 0.215E+03-0.344E+00
CGA:  12    -0.190625019064E+03   -0.65959E+03   -0.64265E+03  5000   0.108E+04 0.371E+03
 gam= 0.408 trial= 0.382  step= 0.627 mean= 0.382
 gam= 0.530 g(H,U,f)=  0.479E+03 0.937E+02 0.357E+00 ort(H,U,f) =-0.155E+03 0.219E+03 0.386E+00
CGA:  13    -0.589744988121E+03   -0.39912E+03   -0.38668E+03  5000   0.574E+03 0.645E+02
 gam= 0.530 trial= 0.394  step= 0.667 mean= 0.394
 gam= 0.565 g(H,U,f)=  0.292E+03 0.316E+02 0.632E+00 ort(H,U,f) =-0.129E+03 0.527E+02 0.127E+01
CGA:  14    -0.782265085336E+03   -0.19252E+03   -0.20278E+03  5000   0.324E+03-0.752E+02
 gam= 0.565 trial= 0.408  step= 0.460 mean= 0.408
 gam= 0.523 g(H,U,f)=  0.139E+03 0.289E+02 0.134E+01 ort(H,U,f) = 0.225E+02-0.362E+02 0.222E+00
CGA:  15    -0.846562537117E+03   -0.64297E+02   -0.64793E+02  5000   0.170E+03-0.135E+02
 gam= 0.523 trial= 0.411  step= 0.432 mean= 0.411
 gam= 0.530 g(H,U,f)=  0.658E+02 0.240E+02 0.306E-01 ort(H,U,f) = 0.106E+02-0.116E+02 0.120E+00
CGA:  16    -0.881641219377E+03   -0.35079E+02   -0.35089E+02  5000   0.898E+02-0.897E+00
 gam= 0.530 trial= 0.412  step= 0.510 mean= 0.412
 gam= 0.607 g(H,U,f)=  0.408E+02 0.138E+02 0.686E-03 ort(H,U,f) =-0.981E+01 0.612E+01 0.746E-03
CGA:  17    -0.904074010030E+03   -0.22433E+02   -0.22770E+02  5000   0.545E+02-0.369E+01
 gam= 0.607 trial= 0.416  step= 0.502 mean= 0.416
 gam= 0.647 g(H,U,f)=  0.271E+02 0.816E+01 0.113E-02 ort(H,U,f) =-0.865E+01 0.921E+01 0.132E-02
CGA:  18    -0.917230994370E+03   -0.13157E+02   -0.13127E+02  5000   0.353E+02 0.564E+00
 gam= 0.647 trial= 0.421  step= 0.516 mean= 0.421
 gam= 0.622 g(H,U,f)=  0.175E+02 0.440E+01 0.751E-02 ort(H,U,f) =-0.648E+01 0.652E+01 0.109E-02
CGA:  19    -0.926420933748E+03   -0.91899E+01   -0.91937E+01  5000   0.219E+02 0.417E-01
 gam= 0.622 trial= 0.426  step= 0.498 mean= 0.426
 gam= 0.584 g(H,U,f)=  0.105E+02 0.231E+01 0.114E-01 ort(H,U,f) =-0.296E+01 0.315E+01 0.138E-01
CGA:  20    -0.931887914825E+03   -0.54670E+01   -0.54619E+01  5000   0.128E+02 0.200E+00
 gam= 0.584 trial= 0.429  step= 0.500 mean= 0.429
 gam= 0.533 g(H,U,f)=  0.582E+01 0.100E+01 0.728E-04 ort(H,U,f) =-0.636E+00 0.874E+00 0.164E-02
CGA:  21    -0.935128964969E+03   -0.32411E+01   -0.32317E+01  5000   0.683E+01 0.240E+00
 gam= 0.533 trial= 0.433  step= 0.494 mean= 0.433
 gam= 0.562 g(H,U,f)=  0.315E+01 0.681E+00 0.128E-02 ort(H,U,f) = 0.211E-01 0.103E+00-0.320E-02
CGA:  22    -0.936851479603E+03   -0.17225E+01   -0.17182E+01  5000   0.384E+01 0.121E+00
 gam= 0.562 trial= 0.436  step= 0.510 mean= 0.436
 gam= 0.627 g(H,U,f)=  0.193E+01 0.476E+00 0.621E-03 ort(H,U,f) =-0.117E+00 0.164E+00-0.905E-04
CGA:  23    -0.937848441993E+03   -0.99696E+00   -0.99511E+00  5000   0.241E+01 0.460E-01
 gam= 0.627 trial= 0.439  step= 0.452 mean= 0.439
 gam= 0.533 g(H,U,f)=  0.976E+00 0.307E+00 0.343E-03 ort(H,U,f) =-0.221E+00 0.234E+00 0.197E-03
CGA:  24    -0.938398924812E+03   -0.55048E+00   -0.55041E+00  5000   0.128E+01 0.135E-01
 gam= 0.533 trial= 0.440  step= 0.490 mean= 0.440
 gam= 0.627 g(H,U,f)=  0.620E+00 0.184E+00 0.205E-03 ort(H,U,f) =-0.215E+00 0.218E+00 0.182E-03
CGA:  25    -0.938714817318E+03   -0.31589E+00   -0.31583E+00  5000   0.805E+00 0.342E-02
 gam= 0.627 trial= 0.443  step= 0.532 mean= 0.443
 gam= 0.577 g(H,U,f)=  0.380E+00 0.844E-01 0.122E-04 ort(H,U,f) =-0.128E+00 0.129E+00 0.404E-04
CGA:  26    -0.938929493570E+03   -0.21468E+00   -0.21464E+00  5000   0.464E+00 0.111E-02
 gam= 0.577 trial= 0.447  step= 0.526 mean= 0.447
 gam= 0.547 g(H,U,f)=  0.212E+00 0.419E-01 0.915E-04 ort(H,U,f) =-0.430E-01 0.438E-01 0.437E-05
CGA:  27    -0.939051704591E+03   -0.12221E+00   -0.12218E+00  5000   0.254E+00 0.776E-03
 gam= 0.547 trial= 0.451  step= 0.554 mean= 0.451
 gam= 0.648 g(H,U,f)=  0.138E+00 0.259E-01 0.309E-04 ort(H,U,f) =-0.932E-02 0.949E-02 0.483E-04
CGA:  28    -0.939122156149E+03   -0.70452E-01   -0.70440E-01  5000   0.164E+00 0.220E-03
 gam= 0.648 trial= 0.456  step= 0.501 mean= 0.456
 gam= 0.568 g(H,U,f)=  0.750E-01 0.184E-01 0.297E-05 ort(H,U,f) =-0.146E-02 0.145E-02-0.135E-04
CGA:  29    -0.939163379678E+03   -0.41224E-01   -0.41225E-01  5000   0.934E-01-0.157E-04
 gam= 0.568 trial= 0.458  step= 0.466 mean= 0.458
 gam= 0.576 g(H,U,f)=  0.404E-01 0.134E-01 0.809E-05 ort(H,U,f) =-0.531E-02 0.537E-02-0.142E-04
CGA:  30    -0.939185154736E+03   -0.21775E-01   -0.21775E-01  5000   0.538E-01 0.512E-04
 gam= 0.576 trial= 0.459  step= 0.504 mean= 0.459
 gam= 0.611 g(H,U,f)=  0.245E-01 0.836E-02 0.370E-05 ort(H,U,f) =-0.718E-02 0.733E-02 0.250E-05
CGA:  31    -0.939198732617E+03   -0.13578E-01   -0.13574E-01  5000   0.329E-01 0.150E-03
 gam= 0.611 trial= 0.461  step= 0.531 mean= 0.461
 gam= 0.594 g(H,U,f)=  0.153E-01 0.422E-02 0.223E-05 ort(H,U,f) =-0.532E-02 0.547E-02 0.434E-05
CGA:  32    -0.939207492123E+03   -0.87595E-02   -0.87539E-02  5000   0.195E-01 0.151E-03
 gam= 0.594 trial= 0.465  step= 0.553 mean= 0.465
 gam= 0.621 g(H,U,f)=  0.102E-01 0.195E-02 0.219E-06 ort(H,U,f) =-0.234E-02 0.240E-02 0.150E-05
CGA:  33    -0.939212921278E+03   -0.54292E-02   -0.54262E-02  5000   0.121E-01 0.645E-04
 gam= 0.621 trial= 0.469  step= 0.542 mean= 0.469
 gam= 0.620 g(H,U,f)=  0.647E-02 0.105E-02 0.984E-06 ort(H,U,f) =-0.478E-03 0.470E-03-0.972E-06
CGA:  34    -0.939216220354E+03   -0.32991E-02   -0.32995E-02  5000   0.752E-02-0.945E-05
 gam= 0.620 trial= 0.473  step= 0.495 mean= 0.473
 gam= 0.577 g(H,U,f)=  0.358E-02 0.758E-03 0.107E-05 ort(H,U,f) = 0.295E-04-0.481E-04 0.206E-06
CGA:  35    -0.939218081346E+03   -0.18610E-02   -0.18612E-02  5000   0.434E-02-0.184E-04
 gam= 0.577 trial= 0.474  step= 0.479 mean= 0.474
 gam= 0.588 g(H,U,f)=  0.196E-02 0.593E-03 0.232E-06 ort(H,U,f) =-0.135E-03 0.132E-03 0.423E-06
CGA:  36    -0.939219118517E+03   -0.10372E-02   -0.10372E-02  5000   0.255E-02-0.283E-05
 gam= 0.588 trial= 0.474  step= 0.505 mean= 0.474
 gam= 0.000 g(H,U,f)=  0.114E-02 0.399E-03 0.968E-07 ort(H,U,f) =-0.297E-03 0.298E-03 0.423E-07
SDA:  37    -0.939219762489E+03   -0.64397E-03   -0.64396E-03  5000   0.154E-02 0.924E-06
 gam= 0.000 trial= 0.476  step= 0.882 mean= 0.476
 gam= 0.499 g(H,U,f)=  0.600E-03 0.168E-03 0.358E-06 ort(H,U,f) =-0.234E-03 0.222E-03 0.127E-06
CGA:  38    -0.939220438440E+03   -0.67595E-03   -0.67839E-03  5000   0.768E-03-0.120E-04
 gam= 0.499 trial= 0.496  step= 0.646 mean= 0.496
 gam= 0.510 g(H,U,f)=  0.341E-03 0.509E-04 0.438E-07 ort(H,U,f) =-0.156E-03 0.154E-03 0.149E-06
CGA:  39    -0.939220684486E+03   -0.24605E-03   -0.24620E-03  5000   0.392E-03-0.203E-05
 gam= 0.510 trial= 0.503  step= 0.490 mean= 0.503
 gam= 0.330 g(H,U,f)=  0.116E-03 0.131E-04 0.371E-08 ort(H,U,f) =-0.640E-04 0.615E-04-0.124E-07
CGA:  40    -0.939220780150E+03   -0.95664E-04   -0.95646E-04  5000   0.129E-03-0.252E-05
 gam= 0.330 trial= 0.503  step= 0.522 mean= 0.503
 gam= 0.383 g(H,U,f)=  0.466E-04 0.297E-05 0.112E-08 ort(H,U,f) =-0.190E-04 0.149E-04 0.553E-08
CGA:  41    -0.939220813648E+03   -0.33498E-04   -0.33537E-04  5000   0.496E-04-0.413E-05
 gam= 0.383 trial= 0.504  step= 0.529 mean= 0.504
 gam= 0.274 g(H,U,f)=  0.132E-04 0.432E-06 0.567E-08 ort(H,U,f) =-0.430E-05 0.249E-05 0.556E-08
CGA:  42    -0.939220826337E+03   -0.12689E-04   -0.12713E-04  5000   0.136E-04-0.181E-05
 gam= 0.274 trial= 0.505  step= 0.494 mean= 0.505
 gam= 0.398 g(H,U,f)=  0.525E-05 0.161E-06 0.162E-08 ort(H,U,f) =-0.852E-06 0.362E-06 0.371E-08
CGA:  43    -0.939220829578E+03   -0.32413E-05   -0.32397E-05  5000   0.542E-05-0.485E-06
 gam= 0.398 trial= 0.504  step= 0.536 mean= 0.504
 final diagonalization
   1 F= -.93922083E+03 E0= -.93921694E+03  d E =-.777442E-02
 writing wavefunctions
Warning: ieee_invalid is signaling
Warning: ieee_divide_by_zero is signaling
Warning: ieee_underflow is signaling
Warning: ieee_inexact is signaling
FORTRAN STOP
Warning: ieee_invalid is signaling
Warning: ieee_divide_by_zero is signaling
Warning: ieee_underflow is signaling
Warning: ieee_inexact is signaling
FORTRAN STOP
Warning: ieee_invalid is signaling
Warning: ieee_divide_by_zero is signaling
Warning: ieee_underflow is signaling
Warning: ieee_inexact is signaling
FORTRAN STOP
Warning: ieee_invalid is signaling
Warning: ieee_divide_by_zero is signaling
Warning: ieee_underflow is signaling
Warning: ieee_inexact is signaling
FORTRAN STOP
