 running    4 mpi-ranks, on    1 nodes
 distrk:  each k-point on    1 cores,    4 groups
 distr:  one band on    1 cores,    1 groups
 OpenACC runtime initialized ...    4 GPUs detected
 vasp.6.4.2 20Jul23 (build Nov 12 2023 22:16:35) complex                         
 POSCAR found type information on POSCAR GaO P 
 POSCAR found :  3 types and     119 ions
 scaLAPACK will be used selectively (only on CPU)
 LDA part: xc-table for Pade appr. of Perdew
 POSCAR, INCAR and KPOINTS ok, starting setup
 FFT: planning ... GRIDC
 FFT: planning ... GRID_SOFT
 FFT: planning ... GRID
 WAVECAR not read
 initial charge from wavefunction
 entering main loop
       N       E                     dE             d eps       ncg     rms          ort
DAV:   1    -0.182001161926E+05   -0.18200E+05   -0.54809E+05  5064   0.755E+03
DAV:   2    -0.648081080358E+05   -0.46608E+05   -0.44679E+05  5064   0.129E+03
DAV:   3    -0.713414502465E+05   -0.65333E+04   -0.59998E+04  5064   0.413E+02
DAV:   4    -0.723488297318E+05   -0.10074E+04   -0.93596E+03  5064   0.142E+02
DAV:   5    -0.427577429373E+05    0.29591E+05   -0.73423E+02  5064   0.612E+01
 gam= 0.000 g(H,U,f)=  0.939E+05 0.108E+05 0.635E+02 ort(H,U,f) = 0.000E+00 0.000E+00 0.000E+00
SDA:   6     0.472250004183E+05    0.89983E+05   -0.73423E+02  5064   0.105E+06 0.000E+00
 gam= 0.000 trial= 0.400  step= 1.767 mean= 0.400
 gam= 2.772 g(H,U,f)=  0.276E+06 0.146E+05 0.203E+02 ort(H,U,f) =-0.194E+05-0.580E+04-0.641E+01
CGA:   7     0.479476485130E+05    0.72265E+03   -0.92510E+05  5064   0.290E+06-0.253E+05
 gam= 2.772 trial= 0.468  step= 0.260 mean= 0.468
 gam= 1.644 g(H,U,f)=  0.465E+06 0.120E+05 0.220E+03 ort(H,U,f) = 0.362E+05-0.786E+04-0.176E+04
CGA:   8     0.461689089120E+05   -0.17787E+04   -0.28592E+05  5064   0.477E+06 0.266E+05
 gam= 1.644 trial= 0.458  step= 0.237 mean= 0.458
 gam= 0.596 g(H,U,f)=  0.280E+06 0.447E+04 0.204E+02 ort(H,U,f) =-0.105E+05-0.632E+04 0.192E+03
CGA:   9     0.434143657937E+05   -0.27545E+04   -0.61790E+05  5064   0.284E+06-0.167E+05
 gam= 0.596 trial= 0.447  step= 0.241 mean= 0.447
 gam= 1.503 g(H,U,f)=  0.423E+06 0.429E+04 0.298E+02 ort(H,U,f) = 0.432E+05 0.340E+03 0.604E+02
CGA:  10     0.418633355940E+05   -0.15510E+04   -0.32997E+05  5064   0.427E+06 0.436E+05
 gam= 1.503 trial= 0.437  step= 0.222 mean= 0.437
 gam= 1.289 g(H,U,f)=  0.545E+06 0.562E+04 0.255E+01 ort(H,U,f) =-0.207E+05 0.343E+04 0.241E+02
CGA:  11     0.484610150481E+05    0.65977E+04   -0.54754E+05  5064   0.551E+06-0.173E+05
 gam= 1.289 trial= 0.426  step= 0.209 mean= 0.426
 gam= 1.767 g(H,U,f)=  0.958E+06 0.149E+05 0.569E+02 ort(H,U,f) =-0.115E+05 0.136E+05 0.514E+01
CGA:  12     0.643372576964E+05    0.15876E+05   -0.55149E+05  5064   0.973E+06 0.204E+04
 gam= 1.767 trial= 0.415  step= 0.207 mean= 0.415
 gam= 0.933 g(H,U,f)=  0.891E+06 0.170E+05 0.114E+02 ort(H,U,f) =-0.259E+04 0.406E+05 0.223E+03
CGA:  13     0.710244186572E+05    0.66872E+04   -0.10131E+06  5064   0.908E+06 0.383E+05
 gam= 0.933 trial= 0.405  step= 0.200 mean= 0.405
 gam= 1.095 g(H,U,f)=  0.982E+06 0.112E+05 0.181E+02 ort(H,U,f) =-0.519E+04 0.292E+05 0.774E+02
CGA:  14     0.790816771877E+05    0.80573E+04   -0.94341E+05  5064   0.994E+06 0.241E+05
 gam= 1.095 trial= 0.394  step= 0.192 mean= 0.394
 gam= 1.050 g(H,U,f)=  0.103E+07 0.869E+04 0.359E+02 ort(H,U,f) =-0.681E+04-0.426E+04-0.202E+03
CGA:  15     0.908108261742E+05    0.11729E+05   -0.97796E+05  5064   0.104E+07-0.113E+05
 gam= 1.050 trial= 0.384  step= 0.186 mean= 0.384
 gam= 1.046 g(H,U,f)=  0.108E+07 0.941E+04 0.158E+01 ort(H,U,f) =-0.771E+04-0.529E+04-0.110E+02
CGA:  16     0.104420163450E+06    0.13609E+05   -0.96035E+05  5064   0.109E+07-0.130E+05
 gam= 1.046 trial= 0.374  step= 0.182 mean= 0.374
 gam= 0.939 g(H,U,f)=  0.102E+07 0.853E+04 0.473E-06 ort(H,U,f) =-0.736E+04-0.805E+03 0.141E-06
CGA:  17     0.116978884009E+06    0.12559E+05   -0.98073E+05  5064   0.102E+07-0.816E+04
 gam= 0.939 trial= 0.365  step= 0.178 mean= 0.365
 gam= 0.994 g(H,U,f)=  0.101E+07 0.875E+04 0.136E+02 ort(H,U,f) =-0.885E+04 0.351E+04 0.518E+01
CGA:  18     0.127363278631E+06    0.10384E+05   -0.90711E+05  5064   0.102E+07-0.534E+04
 gam= 0.994 trial= 0.355  step= 0.174 mean= 0.355
 gam= 0.867 g(H,U,f)=  0.873E+06 0.977E+04 0.426E-29 ort(H,U,f) =-0.817E+04 0.971E+04-0.749E-29
CGA:  19     0.137399583358E+06    0.10036E+05   -0.88292E+05  5064   0.883E+06 0.154E+04
 gam= 0.867 trial= 0.346  step= 0.172 mean= 0.346
 gam= 0.992 g(H,U,f)=  0.865E+06 0.102E+05 0.416E+03 ort(H,U,f) =-0.109E+05 0.156E+05 0.316E+03
CGA:  20     0.144520808376E+06    0.71212E+04   -0.75856E+05  5064   0.876E+06 0.499E+04
 gam= 0.992 trial= 0.338  step= 0.167 mean= 0.338
 gam= 0.793 g(H,U,f)=  0.688E+06 0.731E+04 0.341E+01 ort(H,U,f) =-0.900E+04 0.143E+05 0.518E+01
CGA:  21     0.152597205975E+06    0.80764E+04   -0.73350E+05  5064   0.695E+06 0.527E+04
 gam= 0.793 trial= 0.329  step= 0.165 mean= 0.329
 gam= 1.063 g(H,U,f)=  0.732E+06 0.678E+04 0.444E+02 ort(H,U,f) =-0.145E+05 0.165E+05-0.836E+02
CGA:  22     0.158757452064E+06    0.61602E+04   -0.57546E+05  5064   0.738E+06 0.189E+04
 gam= 1.063 trial= 0.321  step= 0.158 mean= 0.321
 gam= 0.677 g(H,U,f)=  0.494E+06 0.600E+04 0.383E+00 ort(H,U,f) =-0.763E+04 0.243E+05 0.537E+01
CGA:  23     0.166458576195E+06    0.77011E+04   -0.58643E+05  5064   0.500E+06 0.167E+05
 gam= 0.677 trial= 0.313  step= 0.159 mean= 0.313
 gam= 1.188 g(H,U,f)=  0.589E+06 0.500E+04 0.147E+01 ort(H,U,f) =-0.707E+04 0.139E+05-0.297E+02
CGA:  24     0.171132858745E+06    0.46743E+04   -0.40649E+05  5064   0.594E+06 0.683E+04
 gam= 1.188 trial= 0.305  step= 0.144 mean= 0.305
 gam= 0.606 g(H,U,f)=  0.355E+06 0.462E+04 0.119E+02 ort(H,U,f) =-0.767E+03-0.335E+03 0.740E+02
CGA:  25     0.181728873315E+06    0.10596E+05   -0.43315E+05  5064   0.360E+06-0.103E+04
 gam= 0.606 trial= 0.297  step= 0.150 mean= 0.297
 gam= 1.627 g(H,U,f)=  0.577E+06 0.857E+04 0.180E+01 ort(H,U,f) = 0.129E+06-0.195E+03 0.126E+02
CGA:  26     0.180871868287E+06   -0.85701E+03   -0.27002E+05  5064   0.586E+06 0.128E+06
 gam= 1.627 trial= 0.290  step= 0.136 mean= 0.290
 gam= 1.058 g(H,U,f)=  0.607E+06 0.132E+05 0.279E+00 ort(H,U,f) =-0.253E+05-0.327E+05 0.346E+01
CGA:  27     0.193374400256E+06    0.12503E+05   -0.54133E+05  5064   0.620E+06-0.581E+05
 gam= 1.058 trial= 0.282  step= 0.117 mean= 0.282
 gam= 0.366 g(H,U,f)=  0.205E+06 0.212E+05 0.315E+03 ort(H,U,f) = 0.766E+04-0.604E+05-0.191E+03
CGA:  28     0.214949612985E+06    0.21575E+05   -0.32707E+05  5064   0.227E+06-0.530E+05
 gam= 0.366 trial= 0.274  step= 0.169 mean= 0.274
 gam= 0.000 g(H,U,f)=  0.342E+06 0.311E+05 0.113E+03 ort(H,U,f) =-0.148E+06 0.441E+04-0.925E+01
CGA:  29     0.135270771368E+06   -0.79679E+05   -0.17583E+05  5064   0.373E+06-0.144E+06
 gam= 0.000 trial= 0.269  step= 0.339 mean= 0.269
 gam= 0.248 g(H,U,f)=  0.846E+05 0.769E+04 0.274E+01 ort(H,U,f) = 0.351E+05 0.103E+05-0.135E+01
CGA:  30     0.694376263914E+05   -0.65833E+05   -0.63178E+05  5064   0.923E+05 0.455E+05
 gam= 0.248 trial= 0.272  step= 0.540 mean= 0.272
 gam= 0.270 g(H,U,f)=  0.220E+05 0.299E+04 0.613E-01 ort(H,U,f) = 0.144E+05 0.911E+03-0.315E+00
CGA:  31     0.402393343929E+05   -0.29198E+05   -0.27956E+05  5064   0.250E+05 0.153E+05
 gam= 0.270 trial= 0.285  step= 0.983 mean= 0.285
 gam= 0.469 g(H,U,f)=  0.860E+04 0.308E+04 0.203E+02 ort(H,U,f) = 0.223E+04 0.158E+04-0.111E+02
CGA:  32     0.260197072489E+05   -0.14220E+05   -0.14304E+05  5064   0.117E+05 0.380E+04
 gam= 0.469 trial= 0.320  step= 1.842 mean= 0.320
 gam= 0.469 trial= 2.082  step= 2.082 mean= 0.505
 gam= 1.637 g(H,U,f)=  0.140E+05 0.512E+04 0.273E-01 ort(H,U,f) = 0.241E+03-0.136E+04-0.193E+00
CGA:  33     0.236901051742E+05   -0.23296E+04    0.71006E+03  5064   0.192E+05-0.112E+04
 gam= 1.637 trial= 0.584  step= 0.766 mean= 0.584
 gam= 0.257 g(H,U,f)=  0.392E+04 0.101E+04 0.643E-01 ort(H,U,f) = 0.414E+04-0.636E+03-0.885E-01
CGA:  34     0.165724940275E+05   -0.71176E+04   -0.66396E+04  5064   0.493E+04 0.351E+04
 gam= 0.257 trial= 0.593  step= 1.309 mean= 0.593
 gam= 0.673 g(H,U,f)=  0.268E+04 0.639E+03 0.144E+01 ort(H,U,f) = 0.617E+03-0.208E+03 0.227E+01
CGA:  35     0.125863454724E+05   -0.39861E+04   -0.38179E+04  5064   0.332E+04 0.411E+03
 gam= 0.673 trial= 0.629  step= 3.061 mean= 0.629
 gam= 4.300 g(H,U,f)=  0.448E+04 0.978E+04 0.122E+02 ort(H,U,f) = 0.433E+03 0.105E+04 0.905E+00
CGA:  36     0.158661976299E+05    0.32799E+04   -0.55045E+04  5064   0.143E+05 0.148E+04
 gam= 4.300 trial= 0.751  step= 0.533 mean= 0.751
 gam= 0.206 g(H,U,f)=  0.154E+04 0.139E+04 0.288E+00 ort(H,U,f) = 0.910E+03 0.106E+04 0.592E-01
CGA:  37     0.115070495867E+05   -0.43591E+04   -0.55103E+04  5064   0.294E+04 0.197E+04
 gam= 0.206 trial= 0.740  step= 1.534 mean= 0.740
 gam= 1.030 g(H,U,f)=  0.207E+04 0.953E+03 0.407E+01 ort(H,U,f) =-0.360E+03-0.442E+03 0.391E+01
CGA:  38     0.936985383397E+04   -0.21372E+04   -0.25637E+04  5064   0.303E+04-0.799E+03
 gam= 1.030 trial= 0.780  step= 5.951 mean= 0.780
 gam= 1.030 trial= 5.067  step= 5.067 mean= 1.230
 gam= 0.962 g(H,U,f)=  0.242E+04 0.485E+03 0.372E-03 ort(H,U,f) =-0.602E+03 0.637E+02-0.221E-02
CGA:  39     0.959774710310E+04    0.22789E+03   -0.26114E+03  5064   0.291E+04-0.539E+03
 gam= 0.962 trial= 1.422  step= 1.963 mean= 1.422
 gam= 0.364 g(H,U,f)=  0.869E+03 0.191E+03 0.150E-01 ort(H,U,f) = 0.959E+02 0.323E+03 0.859E-02
CGA:  40     0.708688343852E+04   -0.25109E+04   -0.23474E+04  5064   0.106E+04 0.419E+03
 gam= 0.364 trial= 1.449  step=21.689 mean= 1.449
 gam= 0.364 trial= 9.418  step= 9.418 mean= 2.286
 gam= 2.588 g(H,U,f)=  0.226E+04 0.482E+03 0.837E-02 ort(H,U,f) =-0.289E+03 0.284E+02 0.155E-01
CGA:  41     0.123958468436E+05    0.53090E+04   -0.18891E+03  5064   0.274E+04-0.261E+03
 gam= 2.588 trial= 2.643  step= 2.622 mean= 2.643
 gam= 0.523 g(H,U,f)=  0.124E+04 0.198E+03 0.107E-01 ort(H,U,f) =-0.322E+03 0.321E+03-0.465E-02
CGA:  42     0.968369860992E+04   -0.27121E+04   -0.27135E+04  5064   0.143E+04-0.108E+01
 gam= 0.523 trial= 2.642  step= 1.969 mean= 2.642
 gam= 0.000 g(H,U,f)=  0.153E+04 0.153E+04 0.143E+01 ort(H,U,f) = 0.180E+03-0.182E+04-0.149E+01
CGA:  43     0.703971926990E+04   -0.26440E+04   -0.14115E+04  5064   0.307E+04-0.164E+04
 gam= 0.000 trial= 2.608  step= 0.326 mean= 2.608
 gam= 0.000 g(H,U,f)=  0.116E+04 0.116E+04 0.158E+00 ort(H,U,f) = 0.126E+04 0.160E+04 0.205E+00
CGA:  44     0.628334326922E+04   -0.75638E+03   -0.50020E+03  5064   0.232E+04 0.286E+04
 gam= 0.000 trial= 2.494  step= 0.262 mean= 2.494
 gam= 0.000 g(H,U,f)=  0.918E+03 0.937E+03 0.619E+01 ort(H,U,f) = 0.973E+03 0.120E+04 0.880E+01
CGA:  45     0.578776987876E+04   -0.49557E+03   -0.30388E+03  5064   0.186E+04 0.218E+04
 gam= 0.000 trial= 2.382  step= 0.320 mean= 2.382
 gam= 0.000 g(H,U,f)=  0.692E+03 0.687E+03 0.917E+00 ort(H,U,f) = 0.751E+03 0.944E+03 0.148E+01
CGA:  46     0.525012710143E+04   -0.53764E+03   -0.29736E+03  5064   0.138E+04 0.170E+04
 gam= 0.000 trial= 2.279  step= 0.842 mean= 2.279
 gam= 0.000 g(H,U,f)=  0.390E+03 0.462E+03 0.863E-01 ort(H,U,f) = 0.418E+03 0.676E+03 0.143E-01
CGA:  47     0.418980618192E+04   -0.10603E+04   -0.58075E+03  5064   0.852E+03 0.109E+04
 gam= 0.000 trial= 2.207  step=-2.014 mean= 2.207
 BOPT < 0, no correction made
 gam= 0.000 g(H,U,f)=  0.460E+03 0.348E+04 0.806E+02 ort(H,U,f) = 0.221E+03 0.218E+04 0.214E+02
CGA:  48     0.127853814166E+04   -0.29113E+04    0.85795E+03  5064   0.402E+04 0.242E+04
 gam= 0.000 trial= 2.207  step= 0.347 mean= 2.207
 gam= 0.143 g(H,U,f)=  0.279E+03 0.292E+03 0.169E+01 ort(H,U,f) = 0.282E+03 0.373E+03 0.922E+00
CGA:  49     0.628939687291E+03   -0.64960E+03   -0.69683E+03  5064   0.573E+03 0.656E+03
 gam= 0.143 trial= 2.114  step= 1.732 mean= 2.114
 gam= 1.157 g(H,U,f)=  0.175E+03 0.481E+03 0.657E+01 ort(H,U,f) = 0.191E+03-0.109E+03-0.161E+01
CGA:  50    -0.658677377779E+02   -0.69481E+03   -0.57721E+03  5064   0.663E+03 0.805E+02
 gam= 1.157 trial= 2.095  step= 0.295 mean= 2.095
 gam= 0.000 g(H,U,f)=  0.146E+03 0.195E+03 0.147E+01 ort(H,U,f) = 0.349E+03 0.876E+02 0.882E+00
CGA:  51    -0.231469597186E+03   -0.16560E+03   -0.11137E+03  5064   0.342E+03 0.437E+03
 gam= 0.000 trial= 2.005  step= 1.038 mean= 2.005
 gam= 0.397 g(H,U,f)=  0.115E+03 0.203E+02 0.357E+00 ort(H,U,f) = 0.111E+03-0.206E+02-0.856E+00
CGA:  52    -0.425910727625E+03   -0.19444E+03   -0.17755E+03  5064   0.136E+03 0.891E+02
 gam= 0.397 trial= 1.957  step= 3.267 mean= 1.957
 gam= 0.000 g(H,U,f)=  0.454E+02 0.441E+03 0.238E+02 ort(H,U,f) = 0.217E+02-0.906E+02-0.342E+01
CGA:  53    -0.663495779116E+03   -0.23759E+03   -0.27961E+03  5064   0.511E+03-0.723E+02
 gam= 0.000 trial= 2.022  step= 0.726 mean= 2.022
 gam= 0.073 g(H,U,f)=  0.219E+02 0.150E+02 0.409E+00 ort(H,U,f) = 0.211E+02 0.677E+00-0.192E+01
CGA:  54    -0.762544337920E+03   -0.99049E+02   -0.18533E+03  5064   0.373E+02 0.199E+02
 gam= 0.073 trial= 1.958  step= 1.716 mean= 1.958
 gam= 0.612 g(H,U,f)=  0.118E+02 0.109E+02 0.155E+00 ort(H,U,f) = 0.114E+02-0.111E+02-0.111E+00
CGA:  55    -0.796023708679E+03   -0.33479E+02   -0.33205E+02  5064   0.228E+02 0.226E+00
 gam= 0.612 trial= 1.945  step= 2.495 mean= 1.945
 gam= 0.562 g(H,U,f)=  0.587E+01 0.680E+01 0.142E+00 ort(H,U,f) = 0.364E+01-0.356E+01-0.152E-01
CGA:  56    -0.824667867898E+03   -0.28644E+02   -0.28619E+02  5064   0.128E+02 0.581E-01
 gam= 0.562 trial= 1.973  step= 1.492 mean= 1.973
 gam= 0.469 g(H,U,f)=  0.270E+01 0.311E+01 0.199E+00 ort(H,U,f) = 0.190E+01-0.181E+01-0.159E+00
CGA:  57    -0.834122238412E+03   -0.94544E+01   -0.95856E+01  5064   0.601E+01-0.660E-01
 gam= 0.469 trial= 1.949  step= 1.318 mean= 1.949
 gam= 0.471 g(H,U,f)=  0.149E+01 0.131E+01 0.362E-01 ort(H,U,f) = 0.762E+00-0.845E+00-0.421E-01
CGA:  58    -0.838074490645E+03   -0.39523E+01   -0.39396E+01  5064   0.283E+01-0.125E+00
 gam= 0.471 trial= 1.917  step= 1.508 mean= 1.917
 gam= 0.345 g(H,U,f)=  0.618E+00 0.359E+00 0.148E-02 ort(H,U,f) = 0.341E+00-0.332E+00-0.129E-02
CGA:  59    -0.840168636466E+03   -0.20941E+01   -0.20914E+01  5064   0.978E+00 0.764E-02
 gam= 0.345 trial= 1.897  step= 1.642 mean= 1.897
 gam= 0.554 g(H,U,f)=  0.233E+00 0.291E+00 0.183E-01 ort(H,U,f) = 0.174E+00-0.166E+00-0.785E-02
CGA:  60    -0.840973957838E+03   -0.80532E+00   -0.80475E+00  5064   0.542E+00-0.523E-03
 gam= 0.554 trial= 1.884  step= 1.227 mean= 1.884
 gam= 0.478 g(H,U,f)=  0.126E+00 0.128E+00 0.414E-02 ort(H,U,f) = 0.816E-01-0.694E-01-0.325E-02
CGA:  61    -0.841302297839E+03   -0.32834E+00   -0.33243E+00  5064   0.259E+00 0.901E-02
 gam= 0.478 trial= 1.851  step= 1.325 mean= 1.851
 gam= 0.456 g(H,U,f)=  0.640E-01 0.521E-01 0.196E-02 ort(H,U,f) = 0.334E-01-0.316E-01-0.221E-02
CGA:  62    -0.841477412407E+03   -0.17511E+00   -0.17430E+00  5064   0.118E+00-0.383E-03
 gam= 0.456 trial= 1.825  step= 1.380 mean= 1.825
 gam= 0.399 g(H,U,f)=  0.276E-01 0.194E-01 0.386E-04 ort(H,U,f) = 0.150E-01-0.151E-01 0.836E-04
CGA:  63    -0.841558788192E+03   -0.81376E-01   -0.81350E-01  5064   0.471E-01-0.906E-05
 gam= 0.399 trial= 1.803  step= 1.257 mean= 1.803
 gam= 0.473 g(H,U,f)=  0.104E-01 0.109E-01 0.913E-03 ort(H,U,f) = 0.741E-02-0.704E-02-0.331E-03
CGA:  64    -0.841588376771E+03   -0.29589E-01   -0.29585E-01  5064   0.223E-01 0.401E-04
 gam= 0.473 trial= 1.775  step= 1.178 mean= 1.775
 gam= 0.441 g(H,U,f)=  0.513E-02 0.439E-02 0.314E-03 ort(H,U,f) = 0.279E-02-0.236E-02-0.442E-03
CGA:  65    -0.841601528969E+03   -0.13152E-01   -0.13139E-01  5064   0.983E-02-0.772E-05
 gam= 0.441 trial= 1.746  step= 1.475 mean= 1.746
 gam= 0.369 g(H,U,f)=  0.201E-02 0.161E-02 0.362E-05 ort(H,U,f) = 0.950E-03-0.979E-03 0.951E-05
CGA:  66    -0.841608782589E+03   -0.72536E-02   -0.72500E-02  5064   0.363E-02-0.192E-04
 gam= 0.369 trial= 1.732  step= 1.325 mean= 1.732
 gam= 0.467 g(H,U,f)=  0.857E-03 0.758E-03 0.802E-04 ort(H,U,f) = 0.624E-03-0.592E-03-0.350E-04
CGA:  67    -0.841611184424E+03   -0.24018E-02   -0.24012E-02  5064   0.170E-02-0.248E-05
 gam= 0.467 trial= 1.712  step= 1.226 mean= 1.712
 gam= 0.540 g(H,U,f)=  0.473E-03 0.412E-03 0.299E-04 ort(H,U,f) = 0.328E-03-0.286E-03-0.390E-04
CGA:  68    -0.841612222172E+03   -0.10377E-02   -0.10382E-02  5064   0.915E-03 0.290E-05
 gam= 0.540 trial= 1.687  step= 1.465 mean= 1.687
 gam= 0.447 g(H,U,f)=  0.222E-03 0.186E-03 0.517E-06 ort(H,U,f) = 0.838E-04-0.812E-04 0.107E-05
CGA:  69    -0.841612892755E+03   -0.67058E-03   -0.67091E-03  5064   0.409E-03 0.360E-05
 gam= 0.447 trial= 1.676  step= 1.247 mean= 1.676
 gam= 0.396 g(H,U,f)=  0.960E-04 0.594E-04 0.653E-05 ort(H,U,f) = 0.435E-04-0.401E-04-0.353E-05
CGA:  70    -0.841613148965E+03   -0.25621E-03   -0.25612E-03  5064   0.162E-03-0.110E-06
 gam= 0.396 trial= 1.655  step= 1.215 mean= 1.655
 gam= 0.580 g(H,U,f)=  0.477E-04 0.427E-04 0.353E-05 ort(H,U,f) = 0.370E-04-0.342E-04-0.379E-05
CGA:  71    -0.841613247543E+03   -0.98578E-04   -0.98348E-04  5064   0.939E-04-0.926E-06
 gam= 0.580 trial= 1.633  step= 1.522 mean= 1.633
 gam= 0.410 g(H,U,f)=  0.225E-04 0.159E-04 0.224E-07 ort(H,U,f) = 0.101E-04-0.106E-04 0.990E-07
CGA:  72    -0.841613318627E+03   -0.71084E-04   -0.71057E-04  5064   0.385E-04-0.440E-06
 gam= 0.410 trial= 1.627  step= 1.595 mean= 1.627
 gam= 0.507 g(H,U,f)=  0.105E-04 0.814E-05 0.905E-06 ort(H,U,f) = 0.503E-05-0.423E-05-0.412E-06
CGA:  73    -0.841613349143E+03   -0.30516E-04   -0.30522E-04  5064   0.195E-04 0.390E-06
 gam= 0.507 trial= 1.626  step= 1.217 mean= 1.626
 gam= 0.588 g(H,U,f)=  0.621E-05 0.487E-05 0.395E-06 ort(H,U,f) = 0.408E-05-0.339E-05-0.456E-06
CGA:  74    -0.841613361089E+03   -0.11945E-04   -0.11991E-04  5064   0.115E-04 0.232E-06
 gam= 0.588 trial= 1.605  step= 1.429 mean= 1.605
 gam= 0.425 g(H,U,f)=  0.324E-05 0.162E-05 0.955E-08 ort(H,U,f) = 0.147E-05-0.139E-05 0.130E-07
CGA:  75    -0.841613369376E+03   -0.82871E-05   -0.82949E-05  5064   0.487E-05 0.952E-07
 gam= 0.425 trial= 1.596  step= 1.621 mean= 1.596
 final diagonalization
   1 F= -.84161337E+03 E0= -.84160891E+03  d E =-.892570E-02
 writing wavefunctions
Warning: ieee_invalid is signaling
Warning: ieee_divide_by_zero is signaling
Warning: ieee_underflow is signaling
Warning: ieee_inexact is signaling
FORTRAN STOP
Warning: ieee_invalid is signaling
Warning: ieee_divide_by_zero is signaling
Warning: ieee_underflow is signaling
Warning: ieee_inexact is signaling
FORTRAN STOP
Warning: ieee_invalid is signaling
Warning: ieee_divide_by_zero is signaling
Warning: ieee_underflow is signaling
Warning: ieee_inexact is signaling
FORTRAN STOP
Warning: ieee_invalid is signaling
Warning: ieee_divide_by_zero is signaling
Warning: ieee_underflow is signaling
Warning: ieee_inexact is signaling
FORTRAN STOP
