       N       E                     dE             d eps       ncg     rms          ort
DAV:   1    -0.182594327281E+05   -0.18259E+05   -0.54228E+05  5000   0.749E+03
DAV:   2    -0.627105807806E+05   -0.44451E+05   -0.42951E+05  5000   0.123E+03
DAV:   3    -0.677940159516E+05   -0.50834E+04   -0.46017E+04  5000   0.376E+02
DAV:   4    -0.685701063407E+05   -0.77609E+03   -0.69277E+03  5000   0.120E+02
DAV:   5    -0.389825744285E+05    0.29588E+05   -0.68589E+02  5000   0.567E+01
SDA:   6     0.350457431781E+05    0.74028E+05   -0.68589E+02  5000   0.111E+06 0.000E+00
CGA:   7     0.121560550876E+05   -0.22890E+05   -0.24510E+05  5000   0.694E+05-0.260E+05
CGA:   8     0.505855553765E+04   -0.70975E+04   -0.69794E+04  5000   0.211E+05 0.361E+04
CGA:   9     0.356978159593E+04   -0.14888E+04   -0.24292E+04  5000   0.198E+05-0.101E+03
CGA:  10     0.163371014789E+04   -0.19361E+04   -0.24102E+04  5000   0.574E+04 0.103E+04
CGA:  11     0.468963629140E+03   -0.11647E+04   -0.11607E+04  5000   0.265E+04 0.741E+03
CGA:  12    -0.190625019064E+03   -0.65959E+03   -0.64265E+03  5000   0.108E+04 0.371E+03
CGA:  13    -0.589744988121E+03   -0.39912E+03   -0.38668E+03  5000   0.574E+03 0.645E+02
CGA:  14    -0.782265085336E+03   -0.19252E+03   -0.20278E+03  5000   0.324E+03-0.752E+02
CGA:  15    -0.846562537117E+03   -0.64297E+02   -0.64793E+02  5000   0.170E+03-0.135E+02
CGA:  16    -0.881641219377E+03   -0.35079E+02   -0.35089E+02  5000   0.898E+02-0.897E+00
CGA:  17    -0.904074010030E+03   -0.22433E+02   -0.22770E+02  5000   0.545E+02-0.369E+01
CGA:  18    -0.917230994370E+03   -0.13157E+02   -0.13127E+02  5000   0.353E+02 0.564E+00
CGA:  19    -0.926420933748E+03   -0.91899E+01   -0.91937E+01  5000   0.219E+02 0.417E-01
CGA:  20    -0.931887914825E+03   -0.54670E+01   -0.54619E+01  5000   0.128E+02 0.200E+00
CGA:  21    -0.935128964969E+03   -0.32411E+01   -0.32317E+01  5000   0.683E+01 0.240E+00
CGA:  22    -0.936851479603E+03   -0.17225E+01   -0.17182E+01  5000   0.384E+01 0.121E+00
CGA:  23    -0.937848441993E+03   -0.99696E+00   -0.99511E+00  5000   0.241E+01 0.460E-01
CGA:  24    -0.938398924812E+03   -0.55048E+00   -0.55041E+00  5000   0.128E+01 0.135E-01
CGA:  25    -0.938714817318E+03   -0.31589E+00   -0.31583E+00  5000   0.805E+00 0.342E-02
CGA:  26    -0.938929493570E+03   -0.21468E+00   -0.21464E+00  5000   0.464E+00 0.111E-02
CGA:  27    -0.939051704591E+03   -0.12221E+00   -0.12218E+00  5000   0.254E+00 0.776E-03
CGA:  28    -0.939122156149E+03   -0.70452E-01   -0.70440E-01  5000   0.164E+00 0.220E-03
CGA:  29    -0.939163379678E+03   -0.41224E-01   -0.41225E-01  5000   0.934E-01-0.157E-04
CGA:  30    -0.939185154736E+03   -0.21775E-01   -0.21775E-01  5000   0.538E-01 0.512E-04
CGA:  31    -0.939198732617E+03   -0.13578E-01   -0.13574E-01  5000   0.329E-01 0.150E-03
CGA:  32    -0.939207492123E+03   -0.87595E-02   -0.87539E-02  5000   0.195E-01 0.151E-03
CGA:  33    -0.939212921278E+03   -0.54292E-02   -0.54262E-02  5000   0.121E-01 0.645E-04
CGA:  34    -0.939216220354E+03   -0.32991E-02   -0.32995E-02  5000   0.752E-02-0.945E-05
CGA:  35    -0.939218081346E+03   -0.18610E-02   -0.18612E-02  5000   0.434E-02-0.184E-04
CGA:  36    -0.939219118517E+03   -0.10372E-02   -0.10372E-02  5000   0.255E-02-0.283E-05
SDA:  37    -0.939219762489E+03   -0.64397E-03   -0.64396E-03  5000   0.154E-02 0.924E-06
CGA:  38    -0.939220438440E+03   -0.67595E-03   -0.67839E-03  5000   0.768E-03-0.120E-04
CGA:  39    -0.939220684486E+03   -0.24605E-03   -0.24620E-03  5000   0.392E-03-0.203E-05
CGA:  40    -0.939220780150E+03   -0.95664E-04   -0.95646E-04  5000   0.129E-03-0.252E-05
CGA:  41    -0.939220813648E+03   -0.33498E-04   -0.33537E-04  5000   0.496E-04-0.413E-05
CGA:  42    -0.939220826337E+03   -0.12689E-04   -0.12713E-04  5000   0.136E-04-0.181E-05
CGA:  43    -0.939220829578E+03   -0.32413E-05   -0.32397E-05  5000   0.542E-05-0.485E-06
   1 F= -.93922083E+03 E0= -.93921694E+03  d E =-.777442E-02
