 vasp.6.4.2 20Jul23 (build Nov 12 2023 22:16:35) complex                         
 executed on              LinuxNV date 2025.03.29  23:25:29
 running    4 mpi-ranks, on    1 nodes
 distrk:  each k-point on    1 cores,    4 groups
 distr:  one band on NCORE=   1 cores,    1 groups
 OpenACC runtime initialized ...    4 GPUs detected


--------------------------------------------------------------------------------------------------------


 INCAR:
   PREC = Normal
   ENCUT = 450
   NELM = 500
   IBRION = -1
   ISPIN = 1
   NSW = 0
   ISIF = 2
   EDIFF = 1E-5
   EDIFFG = -5E-3
   ISTART = 0
   ICHARG = 0
   ISMEAR = 0
   SIGMA = 0.05
   LWAVE = .T.
   LCHARG = .T.
   LREAL = Auto
   LPLANE = .TRUE.
   NPAR = 1
   KPAR = 4
   NCORE = 1
   ALGO = All
   LHFCALC = .TRUE.
   HSE06 = .TRUE.
   HFSCREEN = 0.2
   TIME = 0.4
   AEXX = 0.32
   LMAXFOCK = 4
   PRECFOCK = Fast
   NELECT = 1043

 POTCAR:    PAW_PBE Ga_d 06Jul2010                
 POTCAR:     PAW_PBE O 08Apr2002                  
 POTCAR:    PAW_PBE P 06Sep2000                   
 POTCAR:    PAW_PBE Ga_d 06Jul2010                
   SHA256 =  a60ddf36e14f00ea098d9e3914b3745f1b7105e68786148f49ae384e44b4226c Ga_d/POTCAR           
   COPYR  = (c) Copyright 06Jul2010 Georg Kresse                                                    
   COPYR  = This file is part of the software VASP. Any use, copying, and all other rights are regul
   COPYR  = If you do not have a valid VASP license, you may not use, copy or distribute this file. 
   VRHFIN =Ga: s2p1                                                                                 
   LEXCH  = PE                                                                                      
   EATOM  =  2148.8298 eV,  157.9345 Ry                                                             
                                                                                                    
   TITEL  = PAW_PBE Ga_d 06Jul2010                                                                  
   LULTRA =        F    use ultrasoft PP ?                                                          
   IUNSCR =        1    unscreen: 0-lin 1-nonlin 2-no                                               
   RPACOR =    1.700    partial core radius                                                         
   POMASS =   69.723; ZVAL   =   13.000    mass and valenz                                          
   RCORE  =    2.300    outmost cutoff radius                                                       
   RWIGS  =    2.300; RWIGS  =    1.217    wigner-seitz radius (au A)                               
   ENMAX  =  282.691; ENMIN  =  212.018 eV                                                          
   ICORE  =        3    local potential                                                             
   LCOR   =        T    correct aug charges                                                         
   LPAW   =        T    paw PP                                                                      
   EAUG   =  490.690                                                                                
   DEXC   =    0.000                                                                                
   RMAX   =    2.341    core radius for proj-oper                                                   
   RAUG   =    1.300    factor for augmentation sphere                                              
   RDEP   =    2.413    radius for radial grids                                                     
   RDEPT  =    1.856    core radius for aug-charge                                                  
                                                                                                    
   Atomic configuration                                                                             
    9 entries                                                                                       
     n  l   j            E        occ.                                                              
     1  0  0.50    -10228.7831   2.0000                                                             
     2  0  0.50     -1262.1604   2.0000                                                             
     2  1  1.50     -1098.6333   6.0000                                                             
     3  0  0.50      -148.1110   2.0000                                                             
     3  1  1.50       -98.8436   6.0000                                                             
     3  2  2.50       -19.1549  10.0000                                                             
     4  0  0.50        -8.9483   2.0000                                                             
     4  1  0.50        -2.5791   1.0000                                                             
     4  3  2.50        -2.7416   0.0000                                                             
   Description                                                                                      
     l       E           TYP  RCUT    TYP  RCUT                                                     
     2    -19.1549037     23  2.300                                                                 
     2     -5.4423304     23  2.300                                                                 
     0     -8.9483111     23  2.300                                                                 
     0     68.0291300     23  2.300                                                                 
     1     -2.5790802     23  2.100                                                                 
     1     81.6349560     23  2.300                                                                 
     3      6.8029130     23  2.300                                                                 
  local pseudopotential read in
  partial core-charges read in
  partial kinetic energy density read in
  atomic valenz-charges read in
  non local Contribution for L=            2  read in
    real space projection operators read in
  non local Contribution for L=            2  read in
    real space projection operators read in
  non local Contribution for L=            0  read in
    real space projection operators read in
  non local Contribution for L=            0  read in
    real space projection operators read in
  non local Contribution for L=            1  read in
    real space projection operators read in
  non local Contribution for L=            1  read in
    real space projection operators read in
    PAW grid and wavefunctions read in
 
   number of l-projection  operators is LMAX  =            6
   number of lm-projection operators is LMMAX =           18
 
 POTCAR:     PAW_PBE O 08Apr2002                  
   SHA256 =  818f92134a0a090dccd8ba1447fa70422a3b330e708bb4f08108d8ae51209ddf O/POTCAR              
   COPYR  = (c) Copyright 08Apr2002 Georg Kresse                                                    
   COPYR  = This file is part of the software VASP. Any use, copying, and all other rights are regul
   COPYR  = If you do not have a valid VASP license, you may not use, copy or distribute this file. 
   VRHFIN =O: s2p4                                                                                  
   LEXCH  = PE                                                                                      
   EATOM  =   432.3788 eV,   31.7789 Ry                                                             
                                                                                                    
   TITEL  = PAW_PBE O 08Apr2002                                                                     
   LULTRA =        F    use ultrasoft PP ?                                                          
   IUNSCR =        1    unscreen: 0-lin 1-nonlin 2-no                                               
   RPACOR =    1.200    partial core radius                                                         
   POMASS =   16.000; ZVAL   =    6.000    mass and valenz                                          
   RCORE  =    1.520    outmost cutoff radius                                                       
   RWIGS  =    1.550; RWIGS  =    0.820    wigner-seitz radius (au A)                               
   ENMAX  =  400.000; ENMIN  =  300.000 eV                                                          
   ICORE  =        2    local potential                                                             
   LCOR   =        T    correct aug charges                                                         
   LPAW   =        T    paw PP                                                                      
   EAUG   =  605.392                                                                                
   DEXC   =    0.000                                                                                
   RMAX   =    1.553    core radius for proj-oper                                                   
   RAUG   =    1.300    factor for augmentation sphere                                              
   RDEP   =    1.550    radius for radial grids                                                     
   RDEPT  =    1.329    core radius for aug-charge                                                  
                                                                                                    
   Atomic configuration                                                                             
    4 entries                                                                                       
     n  l   j            E        occ.                                                              
     1  0  0.50      -514.6923   2.0000                                                             
     2  0  0.50       -23.9615   2.0000                                                             
     2  1  0.50        -9.0305   4.0000                                                             
     3  2  1.50        -9.5241   0.0000                                                             
   Description                                                                                      
     l       E           TYP  RCUT    TYP  RCUT                                                     
     0    -23.9615318     23  1.200                                                                 
     0     -9.5240782     23  1.200                                                                 
     1     -9.0304911     23  1.520                                                                 
     1      8.1634956     23  1.520                                                                 
     2     -9.5240782      7  1.500                                                                 
  local pseudopotential read in
  partial core-charges read in
  partial kinetic energy density read in
  kinetic energy density of atom read in
  atomic valenz-charges read in
  non local Contribution for L=            0  read in
    real space projection operators read in
  non local Contribution for L=            0  read in
    real space projection operators read in
  non local Contribution for L=            1  read in
    real space projection operators read in
  non local Contribution for L=            1  read in
    real space projection operators read in
    PAW grid and wavefunctions read in
 
   number of l-projection  operators is LMAX  =            4
   number of lm-projection operators is LMMAX =            8
 
 POTCAR:    PAW_PBE P 06Sep2000                   
   SHA256 =  df60c54a93efe35c9e85ae94c010c75e9f6960a95d5595d7cdba4096d109af88 P/POTCAR              
   COPYR  = (c) Copyright 06Sep2000 Georg Kresse                                                    
   COPYR  = This file is part of the software VASP. Any use, copying, and all other rights are regul
   COPYR  = If you do not have a valid VASP license, you may not use, copy or distribute this file. 
   VRHFIN =P : s2p3                                                                                 
   LEXCH  = PE                                                                                      
   EATOM  =   176.0430 eV,   12.9388 Ry                                                             
                                                                                                    
   TITEL  = PAW_PBE P 06Sep2000                                                                     
   LULTRA =        F    use ultrasoft PP ?                                                          
   IUNSCR =        1    unscreen: 0-lin 1-nonlin 2-no                                               
   RPACOR =    1.500    partial core radius                                                         
   POMASS =   30.974; ZVAL   =    5.000    mass and valenz                                          
   RCORE  =    1.900    outmost cutoff radius                                                       
   RWIGS  =    2.330; RWIGS  =    1.233    wigner-seitz radius (au A)                               
   ENMAX  =  255.040; ENMIN  =  191.280 eV                                                          
   ICORE  =        2    local potential                                                             
   LCOR   =        T    correct aug charges                                                         
   LPAW   =        T    paw PP                                                                      
   EAUG   =  342.924                                                                                
   DEXC   =    0.000                                                                                
   RMAX   =    1.935    core radius for proj-oper                                                   
   RAUG   =    1.300    factor for augmentation sphere                                              
   RDEP   =    1.931    radius for radial grids                                                     
   RDEPT  =    1.794    core radius for aug-charge                                                  
                                                                                                    
   Atomic configuration                                                                             
    6 entries                                                                                       
     n  l   j            E        occ.                                                              
     1  0  0.50     -2084.0982   2.0000                                                             
     2  0  0.50      -173.9859   2.0000                                                             
     2  1  1.50      -124.4865   6.0000                                                             
     3  0  0.50       -13.9692   2.0000                                                             
     3  1  0.50        -5.5067   3.0000                                                             
     3  2  1.50        -5.4423   0.0000                                                             
   Description                                                                                      
     l       E           TYP  RCUT    TYP  RCUT                                                     
     0    -13.9691527     23  1.900                                                                 
     0    -11.7794650     23  1.900                                                                 
     1     -5.5066937     23  1.900                                                                 
     1     -0.2556953     23  1.900                                                                 
     2     -5.4423304     23  1.900                                                                 
  local pseudopotential read in
  partial core-charges read in
  partial kinetic energy density read in
  atomic valenz-charges read in
  non local Contribution for L=            0  read in
    real space projection operators read in
  non local Contribution for L=            0  read in
    real space projection operators read in
  non local Contribution for L=            1  read in
    real space projection operators read in
  non local Contribution for L=            1  read in
    real space projection operators read in
    PAW grid and wavefunctions read in
 
   number of l-projection  operators is LMAX  =            4
   number of lm-projection operators is LMMAX =            8
 
 Optimization of the real space projectors (new method)

 maximal supplied QI-value         = 16.25
 optimisation between [QCUT,QGAM] = [ 10.73, 21.61] = [ 32.22,130.83] Ry 
 Optimized for a Real-space Cutoff    1.42 Angstroem

   l    n(q)    QCUT    max X(q) W(low)/X(q) W(high)/X(q)  e(spline) 
   2      8    10.726     7.143    0.22E-03    0.16E-03    0.73E-07
   2      8    10.726     5.586    0.40E-03    0.26E-03    0.10E-06
   0      9    10.726    12.382    0.25E-04    0.21E-05    0.37E-07
   0      9    10.726     6.622    0.42E-04    0.48E-05    0.77E-07
   1      9    10.726     7.935    0.27E-03    0.13E-04    0.16E-06
   1      9    10.726     2.425    0.23E-03    0.15E-04    0.14E-06
 Optimization of the real space projectors (new method)

 maximal supplied QI-value         = 24.76
 optimisation between [QCUT,QGAM] = [ 10.64, 21.54] = [ 31.73,129.89] Ry 
 Optimized for a Real-space Cutoff    1.23 Angstroem

   l    n(q)    QCUT    max X(q) W(low)/X(q) W(high)/X(q)  e(spline) 
   0      8    10.645    20.381    0.38E-03    0.60E-03    0.15E-06
   0      8    10.645    15.268    0.40E-03    0.65E-03    0.17E-06
   1      7    10.645     5.964    0.30E-03    0.63E-03    0.18E-06
   1      7    10.645     5.382    0.24E-03    0.53E-03    0.16E-06
 Optimization of the real space projectors (new method)

 maximal supplied QI-value         = 19.84
 optimisation between [QCUT,QGAM] = [ 10.71, 21.63] = [ 32.15,130.99] Ry 
 Optimized for a Real-space Cutoff    1.19 Angstroem

   l    n(q)    QCUT    max X(q) W(low)/X(q) W(high)/X(q)  e(spline) 
   0      8    10.715   160.924    0.37E-03    0.37E-04    0.63E-07
   0      8    10.715   130.086    0.37E-03    0.36E-04    0.63E-07
   1      7    10.715    74.434    0.19E-03    0.56E-03    0.65E-07
   1      7    10.715    49.120    0.19E-03    0.55E-03    0.63E-07
  PAW_PBE Ga_d 06Jul2010                :
 energy of atom  1       EATOM=-2148.8298
 kinetic energy error for atom=    0.0038 (will be added to EATOM!!)
   PAW_PBE O 08Apr2002                  :
 energy of atom  2       EATOM= -432.3788
 kinetic energy error for atom=    0.0389 (will be added to EATOM!!)
  PAW_PBE P 06Sep2000                   :
 energy of atom  3       EATOM= -176.0430
 kinetic energy error for atom=    0.0019 (will be added to EATOM!!)
 
 
 POSCAR: Ga48 O72
  positions in direct lattice
  velocities in cartesian coordinates
 exchange correlation table for  LEXCH =        8
   RHO(1)=    0.500       N(1)  =     2000
   RHO(2)=  100.500       N(2)  =     4000
 


--------------------------------------------------------------------------------------------------------


 ion  position               nearest neighbor table
   1  0.658  0.998  0.155-  84 1.95  78 1.95  82 1.96  66 2.03  64 2.08  60 2.08
   2  0.662  0.999  0.656-  85 1.93  83 1.96  79 1.96  67 2.02  61 2.08  65 2.08
   3  0.658  0.330  0.156-  86 1.95  78 1.95  80 1.96  68 2.05  60 2.07  62 2.08
   4  0.660  0.332  0.658-  87 1.93  79 1.96  81 1.96  69 2.02  61 2.07  63 2.07
   5  0.658  0.665  0.156-  88 1.95  82 1.95  80 1.95  70 2.02  62 2.08  64 2.08
   6  0.662  0.665  0.656-  89 1.95  83 1.95  81 1.96  71 2.01  63 2.07  65 2.09
   7  0.844  0.164  0.341-  72 1.94  90 1.97  74 1.97  60 2.05  66 2.06  68 2.06
   8  0.842  0.162  0.845-  75 1.94  73 1.94  91 1.95  61 2.03  67 2.05  69 2.11
   9  0.840  0.501  0.341-  92 1.95  74 1.95  76 1.97  62 2.01  70 2.04  68 2.09
  10  0.842  0.497  0.844-  77 1.94  93 1.95  75 1.95  63 2.02  69 2.06  71 2.10
  11  0.842  0.834  0.343-  94 1.91  76 1.95  72 1.98  64 2.04  66 2.06  70 2.10
  12  0.842  0.830  0.846-  95 1.93  73 1.95  77 1.95  65 2.02  71 2.06  67 2.13
  13  0.593  0.164  0.397-  79 1.85  54 1.85  56 1.85  60 1.87
  14  0.591  0.164  0.897-  78 1.84  57 1.85  55 1.85  61 1.88
  15  0.592  0.497  0.398-  58 1.85  81 1.85  56 1.85  62 1.87
  16  0.593  0.502  0.898-  80 1.84  57 1.84  59 1.85  63 1.87
  17  0.591  0.831  0.397-  83 1.85  54 1.85  58 1.85  64 1.87
  18  0.589  0.832  0.896-  55 1.84  82 1.85  59 1.86  65 1.88
  19  0.911  0.996  0.104-  52 1.84  48 1.85  73 1.85  66 1.87
  20  0.909  0.009  0.602-  72 1.83  53 1.84  67 1.86  49 1.93
  21  0.909  0.331  0.102-  75 1.84  48 1.85  50 1.85  68 1.87
  22  0.900  0.351  0.599-  74 1.82  51 1.84  69 1.85  49 1.90
  23  0.909  0.663  0.103-  77 1.84  52 1.84  50 1.85  70 1.87
  24  0.909  0.680  0.602-  76 1.85  53 1.85  51 1.85  71 1.88
  25  0.159  0.160  0.159-  48 1.94 114 1.95 115 1.98 102 2.02  96 2.07  98 2.08
  26  0.160  0.497  0.155- 117 1.94  50 1.95 115 1.96 104 2.02 100 2.08  98 2.09
  27  0.156  0.520  0.657- 118 1.88 101 1.92  51 1.94 116 2.01 105 2.03  99 2.22
  28  0.160  0.830  0.159-  52 1.94 114 1.95 117 1.97 106 2.03 100 2.06  96 2.08
  29  0.161  0.867  0.628-  53 2.00 118 2.02 107 2.03  97 2.05  36 2.55
  30  0.340  0.997  0.343- 112 1.95  54 1.95 108 1.98  96 2.01 102 2.07 106 2.08
  31  0.337  0.001  0.837-  97 1.96  55 1.97 109 1.98 113 1.98 103 2.03 107 2.09
  32  0.342  0.329  0.344-  56 1.94 110 1.96 108 1.98  98 2.03 102 2.06 104 2.08
  33  0.347  0.329  0.839-  57 1.92 111 1.95 109 1.96 103 1.97 105 2.07  99 2.23
  34  0.341  0.663  0.342-  58 1.95 112 1.96 110 1.97 100 2.02 106 2.07 104 2.08
  35  0.337  0.667  0.841- 113 1.93 101 1.96  59 1.96 111 1.98 105 2.12 107 2.15
  36  0.108  0.986  0.424-  94 1.94  90 1.94  96 1.98  29 2.55
  37  0.094  0.989  0.896-  97 1.84  95 1.85 114 1.85  91 1.87
  38  0.085  0.326  0.390-  90 1.83  92 1.84  98 1.85 116 1.92
  39  0.090  0.323  0.898-  91 1.84 115 1.84  93 1.85  99 1.96
  40  0.087  0.665  0.393-  94 1.84 118 1.84  92 1.85 100 1.87
  41  0.092  0.660  0.898- 117 1.84 101 1.85  95 1.85  93 1.86
  42  0.406  0.164  0.100- 109 1.85  84 1.85  86 1.85 102 1.88
  43  0.413  0.165  0.604- 103 1.84  85 1.85  87 1.85 108 1.85
  44  0.407  0.496  0.099-  86 1.85  88 1.85 111 1.85 104 1.88
  45  0.410  0.499  0.602- 110 1.84  89 1.85  87 1.85 105 1.88
  46  0.408  0.831  0.100- 113 1.84  84 1.85  88 1.85 106 1.88
  47  0.414  0.831  0.601- 112 1.84  89 1.84  85 1.84 107 1.87
  48  0.997  0.164  0.129-  21 1.85  19 1.85  25 1.94
  49  0.997  0.186  0.627- 119 1.72  22 1.90  20 1.93
  50  0.998  0.497  0.127-  21 1.85  23 1.85  26 1.95
  51  0.994  0.511  0.627-  22 1.84  24 1.85  27 1.94
  52  0.997  0.829  0.125-  19 1.84  23 1.84  28 1.94
  53  0.999  0.845  0.626-  20 1.84  24 1.85  29 2.00
  54  0.504  0.998  0.373-  13 1.85  17 1.85  30 1.95
  55  0.502  0.999  0.872-  18 1.84  14 1.85  31 1.97
  56  0.504  0.330  0.374-  15 1.85  13 1.85  32 1.94
  57  0.508  0.334  0.874-  16 1.84  14 1.85  33 1.92
  58  0.504  0.663  0.373-  15 1.85  17 1.85  34 1.95
  59  0.501  0.665  0.869-  16 1.85  18 1.86  35 1.96
  60  0.673  0.165  0.280-  13 1.87   7 2.05   3 2.07   1 2.08
  61  0.674  0.165  0.780-  14 1.88   8 2.03   4 2.07   2 2.08
  62  0.672  0.498  0.279-  15 1.87   9 2.01   5 2.08   3 2.08
  63  0.674  0.500  0.780-  16 1.87  10 2.02   6 2.07   4 2.07
  64  0.672  0.832  0.280-  17 1.87  11 2.04   1 2.08   5 2.08
  65  0.674  0.832  0.781-  18 1.88  12 2.02   2 2.08   6 2.09
  66  0.827  0.998  0.219-  19 1.87   1 2.03   7 2.06  11 2.06
  67  0.830  0.002  0.720-  20 1.86   2 2.02   8 2.05  12 2.13
  68  0.829  0.330  0.220-  21 1.87   3 2.05   7 2.06   9 2.09
  69  0.828  0.333  0.721-  22 1.85   4 2.02  10 2.06   8 2.11
  70  0.827  0.664  0.218-  23 1.87   5 2.02   9 2.04  11 2.10
  71  0.829  0.668  0.720-  24 1.88   6 2.01  12 2.06  10 2.10
  72  0.832  0.002  0.447-  20 1.83   7 1.94  11 1.98
  73  0.833  0.997  0.947-  19 1.85   8 1.94  12 1.95
  74  0.832  0.333  0.443-  22 1.82   9 1.95   7 1.97
  75  0.833  0.330  0.945-  21 1.84   8 1.94  10 1.95
  76  0.832  0.668  0.445-  24 1.85  11 1.95   9 1.97
  77  0.832  0.662  0.946-  23 1.84  10 1.94  12 1.95
  78  0.668  0.164  0.053-  14 1.84   3 1.95   1 1.95
  79  0.671  0.166  0.554-  13 1.85   2 1.96   4 1.96
  80  0.669  0.498  0.054-  16 1.84   5 1.95   3 1.96
  81  0.673  0.497  0.554-  15 1.85   6 1.96   4 1.96
  82  0.666  0.831  0.053-  18 1.85   5 1.95   1 1.96
  83  0.670  0.831  0.554-  17 1.85   6 1.95   2 1.96
  84  0.495  0.998  0.126-  42 1.85  46 1.85   1 1.95
  85  0.500  0.998  0.626-  47 1.84  43 1.85   2 1.93
  86  0.496  0.330  0.126-  44 1.85  42 1.85   3 1.95
  87  0.499  0.334  0.626-  45 1.85  43 1.85   4 1.93
  88  0.495  0.663  0.125-  44 1.85  46 1.85   5 1.95
  89  0.499  0.663  0.627-  47 1.84  45 1.85   6 1.95
  90  0.009  0.153  0.381-  38 1.83  36 1.94   7 1.97
  91  0.005  0.157  0.871-  39 1.84  37 1.87   8 1.95
  92  0.002  0.495  0.372-  38 1.84  40 1.85   9 1.95
  93  0.005  0.492  0.872-  39 1.85  41 1.86  10 1.95
  94  0.001  0.831  0.365-  40 1.84  11 1.91  36 1.94
  95  0.003  0.825  0.873-  41 1.85  37 1.85  12 1.93
  96  0.173  0.995  0.284-  36 1.98  30 2.01  25 2.07  28 2.08
  97  0.174  0.985  0.780-  37 1.84  31 1.96  29 2.05
  98  0.173  0.330  0.281-  38 1.85  32 2.03  25 2.08  26 2.09
  99  0.162  0.318  0.765- 119 1.73  39 1.96  27 2.22  33 2.23
 100  0.173  0.662  0.280-  40 1.87  34 2.02  28 2.06  26 2.08
 101  0.174  0.659  0.783-  41 1.85  27 1.92  35 1.96
 102  0.328  0.164  0.221-  42 1.88  25 2.02  32 2.06  30 2.07
 103  0.339  0.170  0.724-  43 1.84  33 1.97  31 2.03 119 2.41
 104  0.328  0.495  0.219-  44 1.88  26 2.02  34 2.08  32 2.08
 105  0.324  0.496  0.715-  45 1.88  27 2.03  33 2.07  35 2.12
 106  0.329  0.829  0.219-  46 1.88  28 2.03  34 2.07  30 2.08
 107  0.325  0.836  0.711-  47 1.87  29 2.03  31 2.09  35 2.15
 108  0.329  0.164  0.449-  43 1.85  32 1.98  30 1.98
 109  0.328  0.168  0.943-  42 1.85  33 1.96  31 1.98
 110  0.331  0.496  0.446-  45 1.84  32 1.96  34 1.97
 111  0.330  0.493  0.941-  44 1.85  33 1.95  35 1.98
 112  0.335  0.830  0.446-  47 1.84  30 1.95  34 1.96
 113  0.334  0.832  0.943-  46 1.84  35 1.93  31 1.98
 114  0.168  0.995  0.055-  37 1.85  25 1.95  28 1.95
 115  0.169  0.327  0.054-  39 1.84  26 1.96  25 1.98
 116  0.151  0.339  0.557- 119 1.68  38 1.92  27 2.01
 117  0.170  0.663  0.054-  41 1.84  26 1.94  28 1.97
 118  0.166  0.671  0.549-  40 1.84  27 1.88  29 2.02
 119  0.140  0.198  0.647- 116 1.68  49 1.72  99 1.73 103 2.41
 
  LATTYP: Found a simple monoclinic cell.
 ALAT       =    11.6348202465
 B/A-ratio  =     0.7858051831
 C/A-ratio  =     1.0554931797
 COS(beta)  =    -0.2379290539
  
  Lattice vectors:
  
 A1 = (   0.0000000000,  -2.7682617730, -11.3006977184)
 A2 = (  -9.1427020537,   0.0000000000,   0.0000000000)
 A3 = (   0.0000000000,  12.2804734172,   0.0000000000)


Analysis of symmetry for initial positions (statically):
=====================================================================
 Subroutine PRICEL returns:
 Original cell was already a primitive cell.
 

 Routine SETGRP: Setting up the symmetry group for a 
 simple monoclinic supercell.


 Subroutine GETGRP returns: Found  1 space group operations
 (whereof  1 operations were pure point group operations)
 out of a pool of  4 trial point group operations.


The static configuration has the point symmetry C_1 .


Analysis of symmetry for dynamics (positions and initial velocities):
=====================================================================
 Subroutine PRICEL returns:
 Original cell was already a primitive cell.
 

 Routine SETGRP: Setting up the symmetry group for a 
 simple monoclinic supercell.


 Subroutine GETGRP returns: Found  1 space group operations
 (whereof  1 operations were pure point group operations)
 out of a pool of  4 trial point group operations.


The dynamic configuration has the point symmetry C_1 .


 Subroutine INISYM returns: Found  1 space group operations
 (whereof  1 operations are pure point group operations),
 and found     1 'primitive' translations


----------------------------------------------------------------------------------------

                                     Primitive cell                                     

  volume of cell :    1268.8052

  direct lattice vectors                    reciprocal lattice vectors
     0.000000000 12.280473417  0.000000000     0.000000000  0.081430085 -0.019947423
     9.142702054  0.000000000  0.000000000     0.109376855 -0.000000000  0.000000000
     0.000000000 -2.768261773-11.300697718     0.000000000  0.000000000 -0.088490111

  length of vectors
    12.280473417  9.142702054 11.634820246     0.083837691  0.109376855  0.088490111

  position of ions in fractional coordinates (direct lattice)
     0.657956651  0.998148764  0.155407883
     0.661881501  0.998532332  0.656305536
     0.658390795  0.330391903  0.155778279
     0.659862497  0.331695158  0.657562495
     0.657948794  0.664865961  0.155746852
     0.661938832  0.664821882  0.656453757
     0.843783682  0.163759914  0.341446175
     0.842049195  0.162348951  0.845324814
     0.839531898  0.500741668  0.341063265
     0.842443203  0.497457731  0.843892931
     0.841927995  0.833851409  0.342586571
     0.841567814  0.830058315  0.845622215
     0.592715717  0.164073162  0.397328295
     0.591168841  0.163930805  0.896747461
     0.591996036  0.496955136  0.398067956
     0.592921616  0.501564863  0.897532882
     0.591012600  0.831211114  0.397107130
     0.588965598  0.832295782  0.896057187
     0.910997879  0.996315457  0.104447699
     0.909126725  0.008629478  0.602127621
     0.909331073  0.330599683  0.101836563
     0.899776318  0.350820155  0.599098216
     0.909266421  0.663180178  0.102526594
     0.909269694  0.679859037  0.601533893
     0.159299910  0.159947684  0.159107659
     0.160290732  0.496519295  0.155216382
     0.155631053  0.520096446  0.656606174
     0.159693185  0.830293892  0.158978473
     0.160897998  0.866924909  0.627846378
     0.340315083  0.996997553  0.342848126
     0.336604503  0.001286626  0.837374581
     0.341626095  0.329276897  0.343862962
     0.346696318  0.329461239  0.839182463
     0.341276486  0.662864361  0.342251362
     0.337293257  0.666576135  0.840723185
     0.107525055  0.986014002  0.423685937
     0.094366070  0.988747349  0.896327235
     0.085348698  0.325808067  0.390083556
     0.090496588  0.323066310  0.898152190
     0.087442010  0.664958604  0.393027267
     0.092086657  0.660166631  0.897959517
     0.406377187  0.164241611  0.099743683
     0.413007608  0.164921272  0.603927855
     0.407149290  0.496059633  0.098774586
     0.409532826  0.498512669  0.601552641
     0.408102090  0.830792734  0.100055257
     0.413940458  0.830809379  0.601267077
     0.997027499  0.164243123  0.129034399
     0.996598508  0.185745157  0.627481873
     0.997524589  0.496771004  0.126940206
     0.993552794  0.510524218  0.626837198
     0.997003411  0.829030892  0.124614016
     0.998519644  0.844767032  0.625876874
     0.503698706  0.998485254  0.373443615
     0.502030243  0.998807796  0.872068716
     0.504066569  0.330312954  0.374187496
     0.507673414  0.333850040  0.873627383
     0.504276360  0.663336416  0.373334382
     0.501122186  0.664998035  0.868778957
     0.673175143  0.165023435  0.279625465
     0.673716214  0.164739673  0.780307494
     0.671953728  0.497666341  0.279499088
     0.674167921  0.499555133  0.780110830
     0.672401286  0.831931358  0.279741099
     0.673655493  0.832487314  0.780570113
     0.826655205  0.998187957  0.218882527
     0.829803471  0.001572718  0.719744789
     0.828798465  0.329831861  0.219525317
     0.827791643  0.332853606  0.720862252
     0.826517331  0.663709322  0.218326081
     0.829127545  0.667754908  0.719856655
     0.831924799  0.002341267  0.446544445
     0.832781136  0.996624673  0.947343708
     0.832058528  0.333111819  0.442651656
     0.833286458  0.329858924  0.945458801
     0.831981860  0.667956357  0.445052626
     0.831817639  0.661962986  0.946090331
     0.668231212  0.164410914  0.053408452
     0.670506761  0.166024092  0.554124527
     0.668711020  0.498144744  0.054288227
     0.672610989  0.497351580  0.554023590
     0.666351332  0.830906368  0.052910737
     0.669879934  0.831497142  0.553651927
     0.495193544  0.998401207  0.126361620
     0.500236377  0.998003789  0.625694832
     0.495646715  0.330004190  0.126042289
     0.498677841  0.333553108  0.625568448
     0.495099023  0.662869985  0.124917435
     0.499224877  0.662944886  0.626698183
     0.008666052  0.153363698  0.380678259
     0.004707260  0.156522835  0.871113053
     0.002452173  0.495429874  0.371507811
     0.005349067  0.491705832  0.871903990
     0.001206219  0.831356460  0.364989378
     0.002787649  0.825435541  0.873188003
     0.172993276  0.995433951  0.284221389
     0.173638921  0.984990028  0.780306951
     0.172890842  0.329938639  0.280607253
     0.161929955  0.318376375  0.764746667
     0.173126310  0.662155589  0.279770282
     0.173840893  0.658702757  0.783485339
     0.327998761  0.163813604  0.220666668
     0.338565783  0.169923423  0.723822575
     0.328132653  0.495274031  0.218916757
     0.323783508  0.495873075  0.715070113
     0.328637041  0.829283957  0.219240098
     0.324782369  0.835943905  0.710516245
     0.329391233  0.163504623  0.448927274
     0.327823932  0.167575202  0.943246565
     0.330683226  0.496081088  0.445694229
     0.330178486  0.493077309  0.941061645
     0.335142933  0.829816694  0.445599635
     0.333979406  0.832230883  0.942916670
     0.168387271  0.995484049  0.054903535
     0.168584120  0.327408304  0.053912817
     0.150509934  0.339283928  0.557011226
     0.169827390  0.663302514  0.054374775
     0.165506964  0.671040115  0.549427909
     0.139750129  0.198399336  0.646542246

  ion indices of the primitive-cell ions
   primitive index   ion index
                 1           1
                 2           2
                 3           3
                 4           4
                 5           5
                 6           6
                 7           7
                 8           8
                 9           9
                10          10
                11          11
                12          12
                13          13
                14          14
                15          15
                16          16
                17          17
                18          18
                19          19
                20          20
                21          21
                22          22
                23          23
                24          24
                25          25
                26          26
                27          27
                28          28
                29          29
                30          30
                31          31
                32          32
                33          33
                34          34
                35          35
                36          36
                37          37
                38          38
                39          39
                40          40
                41          41
                42          42
                43          43
                44          44
                45          45
                46          46
                47          47
                48          48
                49          49
                50          50
                51          51
                52          52
                53          53
                54          54
                55          55
                56          56
                57          57
                58          58
                59          59
                60          60
                61          61
                62          62
                63          63
                64          64
                65          65
                66          66
                67          67
                68          68
                69          69
                70          70
                71          71
                72          72
                73          73
                74          74
                75          75
                76          76
                77          77
                78          78
                79          79
                80          80
                81          81
                82          82
                83          83
                84          84
                85          85
                86          86
                87          87
                88          88
                89          89
                90          90
                91          91
                92          92
                93          93
                94          94
                95          95
                96          96
                97          97
                98          98
                99          99
               100         100
               101         101
               102         102
               103         103
               104         104
               105         105
               106         106
               107         107
               108         108
               109         109
               110         110
               111         111
               112         112
               113         113
               114         114
               115         115
               116         116
               117         117
               118         118
               119         119

----------------------------------------------------------------------------------------

 
 
 KPOINTS: Automatic mesh                          

Automatic generation of k-mesh.
 Grid dimensions read from file:
 generate k-points for:    2    2    2

 Generating k-lattice:

  Cartesian coordinates                     Fractional coordinates (reciprocal lattice)
     0.000000000  0.040715043 -0.009973711     0.500000000  0.000000000  0.000000000
     0.054688428 -0.000000000  0.000000000     0.000000000  0.500000000  0.000000000
     0.000000000  0.000000000 -0.044245056     0.000000000  0.000000000  0.500000000

  Length of vectors
     0.041918846  0.054688428  0.044245056

  Shift w.r.t. Gamma in fractional coordinates (k-lattice)
     0.000000000  0.000000000  0.000000000

 
 Subroutine IBZKPT returns following result:
 ===========================================
 
 Found      8 irreducible k-points:
 
 Following reciprocal coordinates:
            Coordinates               Weight
  0.000000  0.000000  0.000000      1.000000
  0.500000  0.000000  0.000000      1.000000
  0.000000  0.500000  0.000000      1.000000
  0.500000  0.500000  0.000000      1.000000
  0.000000  0.000000  0.500000      1.000000
  0.500000  0.000000  0.500000      1.000000
  0.000000  0.500000  0.500000      1.000000
  0.500000  0.500000  0.500000      1.000000
 
 Following cartesian coordinates:
            Coordinates               Weight
  0.000000  0.000000 -0.000000      1.000000
  0.000000  0.040715 -0.009974      1.000000
  0.054688  0.000000 -0.000000      1.000000
  0.054688  0.040715 -0.009974      1.000000
  0.000000  0.000000 -0.044245      1.000000
  0.000000  0.040715 -0.054219      1.000000
  0.054688  0.000000 -0.044245      1.000000
  0.054688  0.040715 -0.054219      1.000000
 
 
 Subroutine IBZKPT_HF returns following result:
 ==============================================
 
 Found      8 k-points in 1st BZ
 the following      8 k-points will be used (e.g. in the exchange kernel)
 Following reciprocal coordinates:   # in IRBZ
  0.000000  0.000000  0.000000    0.12500000   1 t-inv F
  0.500000  0.000000  0.000000    0.12500000   2 t-inv F
  0.000000  0.500000  0.000000    0.12500000   3 t-inv F
  0.500000  0.500000  0.000000    0.12500000   4 t-inv F
  0.000000  0.000000  0.500000    0.12500000   5 t-inv F
  0.500000  0.000000  0.500000    0.12500000   6 t-inv F
  0.000000  0.500000  0.500000    0.12500000   7 t-inv F
  0.500000  0.500000  0.500000    0.12500000   8 t-inv F


--------------------------------------------------------------------------------------------------------




 Dimension of arrays:
   k-points           NKPTS =      8   k-points in BZ     NKDIM =      8   number of bands    NBANDS=    625
   number of dos      NEDOS =    301   number of ions     NIONS =    119
   non local maximal  LDIM  =      6   non local SUM 2l+1 LMDIM =     18
   total plane-waves  NPLWV = 184320
   max r-space proj   IRMAX =   1800   max aug-charges    IRDMAX=   5704
   dimension x,y,z NGX =    64 NGY =   48 NGZ =   60
   dimension x,y,z NGXF=   128 NGYF=   96 NGZF=  120
   support grid    NGXF=   128 NGYF=   96 NGZF=  120
   ions per type =              47  71   1
   NGX,Y,Z   is equivalent  to a cutoff of   8.66,  8.73,  8.57 a.u.
   NGXF,Y,Z  is equivalent  to a cutoff of  17.33, 17.46, 17.15 a.u.

 SYSTEM =  unknown system                          
 POSCAR =  Ga48 O72                                

 Startparameter for this run:
   NWRITE =      2    write-flag & timer
   PREC   = normal    normal or accurate (medium, high low for compatibility)
   ISTART =      0    job   : 0-new  1-cont  2-samecut
   ICHARG =      0    charge: 1-file 2-atom 10-const
   ISPIN  =      1    spin polarized calculation?
   LNONCOLLINEAR =      F non collinear calculations
   LSORBIT =      F    spin-orbit coupling
   INIWAV =      1    electr: 0-lowe 1-rand  2-diag
   LASPH  =      F    aspherical Exc in radial PAW
 Electronic Relaxation 1
   ENCUT  =  450.0 eV  33.07 Ry    5.75 a.u.  21.24 15.81 20.12*2*pi/ulx,y,z
   ENINI  =  450.0     initial cutoff
   ENAUG  =  605.4 eV  augmentation charge cutoff
   NELM   =    500;   NELMIN=  2; NELMDL= -5     # of ELM steps 
   EDIFF  = 0.1E-04   stopping-criterion for ELM
   LREAL  =      T    real-space projection
   NLSPLINE    = F    spline interpolate recip. space projectors
   LCOMPAT=      F    compatible to vasp.4.4
   GGA_COMPAT  = T    GGA compatible to vasp.4.4-vasp.4.6
   LMAXPAW     = -100 max onsite density
   LMAXMIX     =    2 max onsite mixed and CHGCAR
   VOSKOWN=      0    Vosko Wilk Nusair interpolation
   ROPT   =   -0.00050  -0.00050  -0.00050
 Ionic relaxation
   EDIFFG = -.5E-02   stopping-criterion for IOM
   NSW    =      0    number of steps for IOM
   NBLOCK =      1;   KBLOCK =      1    inner block; outer block 
   IBRION =     -1    ionic relax: 0-MD 1-quasi-New 2-CG
   NFREE  =      0    steps in history (QN), initial steepest desc. (CG)
   ISIF   =      2    stress and relaxation
   IWAVPR =     10    prediction:  0-non 1-charg 2-wave 3-comb
   ISYM   =      3    0-nonsym 1-usesym 2-fastsym
   LCORR  =      T    Harris-Foulkes like correction to forces

   POTIM  = 0.5000    time-step for ionic-motion
   TEIN   =    0.0    initial temperature
   TEBEG  =    0.0;   TEEND  =   0.0 temperature during run
   SMASS  =  -3.00    Nose mass-parameter (am)
   estimated Nose-frequenzy (Omega)   =  0.10E-29 period in steps = 0.13E+47 mass=  -0.345E-26a.u.
   SCALEE = 1.0000    scale energy and forces
   NPACO  =    256;   APACO  = 10.0  distance and # of slots for P.C.
   PSTRESS=    0.0 pullay stress

  Mass of Ions in am
   POMASS =  69.72 16.00 30.97
  Ionic Valenz
   ZVAL   =  13.00  6.00  5.00
  Atomic Wigner-Seitz radii
   RWIGS  =  -1.00 -1.00 -1.00
  virtual crystal weights 
   VCA    =   1.00  1.00  1.00
   NELECT =    1043.0000    total number of electrons
   NUPDOWN=      -1.0000    fix difference up-down

 DOS related values:
   EMIN   =  10.00;   EMAX   =-10.00  energy-range for DOS
   EFERMI =   0.00;   METHOD = LEGACY      
   ISMEAR =     0;   SIGMA  =   0.05  broadening in eV -4-tet -1-fermi 0-gaus

 Electronic relaxation 2 (details)
   IALGO  =     58    algorithm
   LDIAG  =      T    sub-space diagonalisation (order eigenvalues)
   LSUBROT=      F    optimize rotation matrix (better conditioning)
   TURBO    =      0    0=normal 1=particle mesh
   IRESTART =      0    0=no restart 2=restart with 2 vectors
   NREBOOT  =      0    no. of reboots
   NMIN     =      0    reboot dimension
   EREF     =   0.00    reference energy to select bands
   IMIX   =      4    mixing-type and parameters
     AMIX     =   0.40;   BMIX     =  1.00
     AMIX_MAG =   1.60;   BMIX_MAG =  1.00
     AMIN     =   0.10
     WC   =   100.;   INIMIX=   1;  MIXPRE=   1;  MAXMIX= -45

 Intra band minimization:
   WEIMIN = 0.0000     energy-eigenvalue tresh-hold
   EBREAK =  0.40E-08  absolut break condition
   DEPER  =   0.30     relativ break condition  

   TIME   =   0.40     timestep for ELM

  volume/ion in A,a.u.               =      10.66        71.95
  Fermi-wavevector in a.u.,A,eV,Ry     =   1.533574  2.898034 31.998834  2.351848
  Thomas-Fermi vector in A             =   2.640622
 
 Write flags
   LWAVE        =      T    write WAVECAR
   LDOWNSAMPLE  =      F    k-point downsampling of WAVECAR
   LCHARG       =      T    write CHGCAR
   LVTOT        =      F    write LOCPOT, total local potential
   LVHAR        =      F    write LOCPOT, Hartree potential only
   LELF         =      F    write electronic localiz. function (ELF)
   LORBIT       =      0    0 simple, 1 ext, 2 COOP (PROOUT), +10 PAW based schemes


 Dipole corrections
   LMONO  =      F    monopole corrections only (constant potential shift)
   LDIPOL =      F    correct potential (dipole corrections)
   IDIPOL =      0    1-x, 2-y, 3-z, 4-all directions 
   EPSILON=  1.0000000 bulk dielectric constant

 Exchange correlation treatment:
   GGA     =    --    GGA type
   LEXCH   =     8    internal setting for exchange type
   LIBXC   =     F    Libxc                    
   VOSKOWN =     0    Vosko Wilk Nusair interpolation
   EXXOEP  =     0    0=HF, 1=EXX-LHF (local Hartree Fock) 2=EXX OEP
   LHFCALC =     T    Hartree Fock is set to
   LSYMGRAD=     F    symmetrize gradient (conserves proper symmetry)
   PRECFOCK=fast      Normal, Fast or Accurate (Low or Medium for compatibility)
   LRHFCALC=     F    long range Hartree Fock
   LRSCOR  =     F    long range correlation only (use DFT for short range part)
   LTHOMAS =     F    Thomas Fermi screening in HF
   LMODELHF=     F    short range full HF, long range fraction AEXX
   FOCKCORR=     1    mode to apply convergence corrections
   LFOCKACE=     T    use Adeptively-Compressed-Exchange operator
   ENCUT4O =  -1.0   cutoff for four orbital integrals eV
   LMAXFOCK=     4    L truncation for augmentation on plane wave grid
   LMAXFOCKAE=  -1    L truncation for all-electron charge restoration on plane wave grid
   NMAXFOCKAE=   1    number of basis functions for all-electron charge restoration
   LFOCKAEDFT=     F  apply the AE augmentation even for DFT
   NKREDX  =     1    reduce k-point grid by
   NKREDY  =     1    reduce k-point grid by
   NKREDZ  =     1    reduce k-point grid by
   SHIFTRED=     F    shift reduced grid of Gamma
   HFKIDENT=     F    idential grid for each k-point
   ODDONLY =     F    use only odd q-grid points
   EVENONLY=     F    use only even q-grid points
   HFALPHA =   -1.0000 decay constant for conv. correction
   MCALPHA =    0.0000 extent of test-charge in conv. correction in multipole expansion
   AEXX    =    0.3200 exact exchange contribution
   HFSCREEN=    0.2000 screening length (either q_TF or 0.3 A-1)
   HFSCREENC=   0.2000 screening length for correlation (either q_TF or 0.3 A-1)
   HFRCUT  =    0.0000 spherical cutoff for potential kernel
   ALDAX   =    0.6800 LDA exchange part
   AGGAX   =    0.6800 GGA exchange part
   ALDAC   =    1.0000 LDA correlation
   AGGAC   =    1.0000 GGA correlation
   ENCUTFOCK=  -1.0 apply spherical cutoff to Coloumb kernel
   NBANDSGWLOW=     1    first orbital included in HF term
   NBLOCK_FOCK=    64    blocking factor in FOCK_ACC

 Linear response parameters
   LEPSILON=     F    determine dielectric tensor
   LRPA    =     F    only Hartree local field effects (RPA)
   LNABLA  =     F    use nabla operator in PAW spheres
   LVEL    =     F    velocity operator in full k-point grid
   CSHIFT  =0.1000    complex shift for real part using Kramers Kronig
   OMEGAMAX=  -1.0    maximum frequency
   DEG_THRESHOLD= 0.2000000E-02 threshold for treating states as degnerate
   RTIME   =   -0.100 relaxation time in fs
  (WPLASMAI=    0.000 imaginary part of plasma frequency in eV, 0.658/RTIME)
   DFIELD  = 0.0000000 0.0000000 0.0000000 field for delta impulse in time
 
  Optional k-point grid parameters
   LKPOINTS_OPT  =     F    use optional k-point grid
   KPOINTS_OPT_MODE=     1    mode for optional k-point grid
 
 Orbital magnetization related:
   ORBITALMAG=     F  switch on orbital magnetization
   LCHIMAG   =     F  perturbation theory with respect to B field
   DQ        =  0.001000  dq finite difference perturbation B field
   LLRAUG    =     F  two centre corrections for induced B field
   LBONE     =     F  B-component reconstruction in AE one-centre
   LVGVCALC  =     T  calculate vGv susceptibility
   LVGVAPPL  =     F  apply vGv susceptibility instead of pGv for G=0

 Random number generation:
   RANDOM_GENERATOR = DEFAULT
   PCG_SEED         = not used


--------------------------------------------------------------------------------------------------------


 Static calculation
 charge density and potential will be updated during run
 non-spin polarized calculation
 Conjugate gradient for all bands (Freysoldt, et al. PRB 79, 241103 (2009))
 preconditioned conjugated gradient                                        
 perform sub-space diagonalisation
    before iterative eigenvector-optimisation
 modified Broyden-mixing scheme, WC =      100.0
 initial mixing is a Kerker type mixing with AMIX =  0.4000 and BMIX =      1.0000
 Hartree-type preconditioning will be used
 using additional bands           103
 real space projection scheme for non local part
 use partial core corrections
 no Harris-corrections to forces 
 use gradient corrections 
 use of overlap-Matrix (Vanderbilt PP)
 Gauss-broadening in eV      SIGMA  =   0.05


--------------------------------------------------------------------------------------------------------


  energy-cutoff  :      450.00
  volume of cell :     1268.81
      direct lattice vectors                 reciprocal lattice vectors
     0.000000000 12.280473417  0.000000000     0.000000000  0.081430085 -0.019947423
     9.142702054  0.000000000  0.000000000     0.109376855 -0.000000000  0.000000000
     0.000000000 -2.768261773-11.300697718     0.000000000  0.000000000 -0.088490111

  length of vectors
    12.280473417  9.142702054 11.634820246     0.083837691  0.109376855  0.088490111


 
 k-points in units of 2pi/SCALE and weight: Automatic mesh                          
   0.00000000  0.00000000 -0.00000000       0.125
   0.00000000  0.04071504 -0.00997371       0.125
   0.05468843  0.00000000 -0.00000000       0.125
   0.05468843  0.04071504 -0.00997371       0.125
   0.00000000  0.00000000 -0.04424506       0.125
   0.00000000  0.04071504 -0.05421877       0.125
   0.05468843  0.00000000 -0.04424506       0.125
   0.05468843  0.04071504 -0.05421877       0.125
 
 k-points in reciprocal lattice and weights: Automatic mesh                          
   0.00000000  0.00000000  0.00000000       0.125
   0.50000000  0.00000000  0.00000000       0.125
   0.00000000  0.50000000  0.00000000       0.125
   0.50000000  0.50000000  0.00000000       0.125
   0.00000000  0.00000000  0.50000000       0.125
   0.50000000  0.00000000  0.50000000       0.125
   0.00000000  0.50000000  0.50000000       0.125
   0.50000000  0.50000000  0.50000000       0.125
 
 position of ions in fractional coordinates (direct lattice) 
   0.65795665  0.99814876  0.15540788
   0.66188150  0.99853233  0.65630554
   0.65839079  0.33039190  0.15577828
   0.65986250  0.33169516  0.65756249
   0.65794879  0.66486596  0.15574685
   0.66193883  0.66482188  0.65645376
   0.84378368  0.16375991  0.34144617
   0.84204920  0.16234895  0.84532481
   0.83953190  0.50074167  0.34106327
   0.84244320  0.49745773  0.84389293
   0.84192800  0.83385141  0.34258657
   0.84156781  0.83005832  0.84562221
   0.59271572  0.16407316  0.39732829
   0.59116884  0.16393081  0.89674746
   0.59199604  0.49695514  0.39806796
   0.59292162  0.50156486  0.89753288
   0.59101260  0.83121111  0.39710713
   0.58896560  0.83229578  0.89605719
   0.91099788  0.99631546  0.10444770
   0.90912673  0.00862948  0.60212762
   0.90933107  0.33059968  0.10183656
   0.89977632  0.35082015  0.59909822
   0.90926642  0.66318018  0.10252659
   0.90926969  0.67985904  0.60153389
   0.15929991  0.15994768  0.15910766
   0.16029073  0.49651930  0.15521638
   0.15563105  0.52009645  0.65660617
   0.15969319  0.83029389  0.15897847
   0.16089800  0.86692491  0.62784638
   0.34031508  0.99699755  0.34284813
   0.33660450  0.00128663  0.83737458
   0.34162609  0.32927690  0.34386296
   0.34669632  0.32946124  0.83918246
   0.34127649  0.66286436  0.34225136
   0.33729326  0.66657614  0.84072319
   0.10752505  0.98601400  0.42368594
   0.09436607  0.98874735  0.89632724
   0.08534870  0.32580807  0.39008356
   0.09049659  0.32306631  0.89815219
   0.08744201  0.66495860  0.39302727
   0.09208666  0.66016663  0.89795952
   0.40637719  0.16424161  0.09974368
   0.41300761  0.16492127  0.60392785
   0.40714929  0.49605963  0.09877459
   0.40953283  0.49851267  0.60155264
   0.40810209  0.83079273  0.10005526
   0.41394046  0.83080938  0.60126708
   0.99702750  0.16424312  0.12903440
   0.99659851  0.18574516  0.62748187
   0.99752459  0.49677100  0.12694021
   0.99355279  0.51052422  0.62683720
   0.99700341  0.82903089  0.12461402
   0.99851964  0.84476703  0.62587687
   0.50369871  0.99848525  0.37344362
   0.50203024  0.99880780  0.87206872
   0.50406657  0.33031295  0.37418750
   0.50767341  0.33385004  0.87362738
   0.50427636  0.66333642  0.37333438
   0.50112219  0.66499803  0.86877896
   0.67317514  0.16502343  0.27962546
   0.67371621  0.16473967  0.78030749
   0.67195373  0.49766634  0.27949909
   0.67416792  0.49955513  0.78011083
   0.67240129  0.83193136  0.27974110
   0.67365549  0.83248731  0.78057011
   0.82665521  0.99818796  0.21888253
   0.82980347  0.00157272  0.71974479
   0.82879847  0.32983186  0.21952532
   0.82779164  0.33285361  0.72086225
   0.82651733  0.66370932  0.21832608
   0.82912754  0.66775491  0.71985666
   0.83192480  0.00234127  0.44654445
   0.83278114  0.99662467  0.94734371
   0.83205853  0.33311182  0.44265166
   0.83328646  0.32985892  0.94545880
   0.83198186  0.66795636  0.44505263
   0.83181764  0.66196299  0.94609033
   0.66823121  0.16441091  0.05340845
   0.67050676  0.16602409  0.55412453
   0.66871102  0.49814474  0.05428823
   0.67261099  0.49735158  0.55402359
   0.66635133  0.83090637  0.05291074
   0.66987993  0.83149714  0.55365193
   0.49519354  0.99840121  0.12636162
   0.50023638  0.99800379  0.62569483
   0.49564672  0.33000419  0.12604229
   0.49867784  0.33355311  0.62556845
   0.49509902  0.66286998  0.12491744
   0.49922488  0.66294489  0.62669818
   0.00866605  0.15336370  0.38067826
   0.00470726  0.15652283  0.87111305
   0.00245217  0.49542987  0.37150781
   0.00534907  0.49170583  0.87190399
   0.00120622  0.83135646  0.36498938
   0.00278765  0.82543554  0.87318800
   0.17299328  0.99543395  0.28422139
   0.17363892  0.98499003  0.78030695
   0.17289084  0.32993864  0.28060725
   0.16192995  0.31837638  0.76474667
   0.17312631  0.66215559  0.27977028
   0.17384089  0.65870276  0.78348534
   0.32799876  0.16381360  0.22066667
   0.33856578  0.16992342  0.72382258
   0.32813265  0.49527403  0.21891676
   0.32378351  0.49587307  0.71507011
   0.32863704  0.82928396  0.21924010
   0.32478237  0.83594390  0.71051625
   0.32939123  0.16350462  0.44892727
   0.32782393  0.16757520  0.94324656
   0.33068323  0.49608109  0.44569423
   0.33017849  0.49307731  0.94106165
   0.33514293  0.82981669  0.44559963
   0.33397941  0.83223088  0.94291667
   0.16838727  0.99548405  0.05490354
   0.16858412  0.32740830  0.05391282
   0.15050993  0.33928393  0.55701123
   0.16982739  0.66330251  0.05437477
   0.16550696  0.67104012  0.54942791
   0.13975013  0.19839934  0.64654225
 
 position of ions in cartesian coordinates  (Angst):
   9.12577676  7.64980946 -1.75621750
   9.12928360  6.31139265 -7.41671047
   3.02067473  7.65411560 -1.76040324
   3.03259000  6.28311874 -7.43091499
   6.07867138  7.64877462 -1.76004809
   6.07826839  6.31168639 -7.41838547
   1.49720810  9.41685068 -3.85858001
   1.48430809  8.00068239 -9.55276020
   4.57813188  9.36569675 -3.85425286
   4.54810782  8.00948482 -9.53657892
   7.62365499  9.39090506 -3.87146728
   7.58897586  7.99394752 -9.55612103
   1.50007204  6.17892088 -4.49008695
   1.49877051  4.77740152-10.13387199
   4.54351275  6.16803528 -4.49844564
   4.58565811  4.79675217-10.14274779
   7.59951556  6.15861804 -4.48758764
   7.60943235  4.75225551-10.12607141
   9.10901538 10.89834667 -1.18033187
   0.07889674  9.49765970 -6.80446223
   3.02257440 10.88510581 -1.15082422
   3.20744415  9.39121846 -6.77022784
   6.06325878 10.88240166 -1.15862205
   6.21574862  9.50105902 -6.79775269
   1.46235402  1.51582666 -1.79802755
   4.53952798  1.53876649 -1.75405342
   4.75508684  0.09356524 -7.42010789
   7.59112967  1.52101389 -1.79656767
   7.92603615  0.23786046 -7.09510213
   9.11525157  3.23013696 -3.87442303
   0.01176324  1.81559061 -9.46291702
   3.01048056  3.24342748 -3.88589139
   3.01216595  1.93451819 -9.48334734
   6.06037135  3.24359545 -3.86767918
   6.09430700  1.81477902 -9.50075858
   9.01483224  0.14758500 -4.78794670
   9.03982242 -1.32240841-10.12912314
   2.97876608 -0.03173098 -4.40821635
   2.95369902 -1.37497943-10.14974641
   6.07951839 -0.01417308 -4.44148234
   6.03570681 -1.35491925-10.14756906
   1.50161211  4.71438762 -1.12717322
   1.50782605  3.40009856 -6.82480613
   4.53532543  4.72655212 -1.11622174
   4.55775280  3.36400180 -6.79796456
   7.59569044  4.73470772 -1.13069421
   7.59584262  3.41892013 -6.79473748
   1.50162594 11.88676870 -1.45817874
   1.69821263 10.50166740 -7.09098297
   4.54182928 11.89867049 -1.43451289
   4.66757081 10.46604922 -7.08369769
   7.57958244 11.89870966 -1.40822533
   7.72345328 10.52970292 -7.07284537
   9.12885319  5.15186889 -4.22017341
   9.13180209  3.75105457 -9.85498495
   3.01995292  5.15432716 -4.22857978
   3.05229145  3.81604058 -9.87259897
   6.06468721  5.15926514 -4.21893900
   6.07987890  3.74901010 -9.81780838
   1.50876010  7.49283297 -3.15996285
   1.50616574  6.11345865 -8.81801912
   4.55001508  7.47818325 -3.15853471
   4.56728374  6.11955024 -8.81579668
   7.60610053  7.48300953 -3.16126960
   7.61118347  6.11198596 -8.82098690
   9.12613508  9.54579314 -2.47352528
   0.01437890  8.19793749 -8.13361829
   3.01555443  9.57033398 -2.48078925
   3.04318134  8.17013785 -8.14624640
   6.06809658  9.54564037 -2.46723705
   6.10508417  8.18932711 -8.13488246
   0.02140551  8.98027846 -5.04626379
   9.11184245  7.60445123-10.70564488
   3.04554211  8.99269698 -5.00227256
   3.01580186  7.61587474-10.68434412
   6.10692595  8.98510894 -5.02940519
   6.05213035  7.59608870-10.69148085
   1.50316000  8.05834705 -0.60355277
   1.51790880  6.70017871 -6.26199377
   4.55438897  8.06180388 -0.61349484
   4.54713732  6.72629904 -6.26085312
   7.59672936  8.03663904 -0.59792825
   7.60213063  6.69378925 -6.25665307
   9.12808477  5.73140911 -1.42797447
   9.12445129  4.41105244 -7.07078816
   3.01712999  5.73785826 -1.42436581
   3.04957668  4.39226275 -7.06935993
   6.06042277  5.73424622 -1.41165418
   6.06110757  4.39585321 -7.08212673
   1.40215860 -0.94739385 -4.30192994
   1.43104164 -2.35366158 -9.84418529
   4.52956772 -0.99831702 -4.19829747
   4.49551992 -2.34796941 -9.85312343
   7.60084442 -0.99557320 -4.12463463
   7.54671122 -2.38297932 -9.86763367
   9.10095603  1.33764012 -3.21190000
   9.00547035 -0.02772576 -8.81801299
   3.01653067  1.34638705 -3.17105774
   2.91082034 -0.12844246 -8.64217092
   6.05389126  1.35159566 -3.16159939
   6.02232305 -0.03404404 -8.85393098
   1.49769897  3.41711696 -2.49368731
   1.55355923  2.15401774 -8.17970012
   4.52814290  3.42360544 -2.47391210
   4.53361978  1.99671350 -8.08079120
   7.58189613  3.42890447 -2.47756607
   7.64278606  2.02158629 -8.02932931
   1.49487405  2.80233207 -5.07319142
   1.53209015  1.41467967-10.65934430
   4.53552158  2.82714827 -5.03665576
   4.50805892  1.44964314-10.63465319
   7.58676679  2.88217744 -5.03558677
   7.60883900  1.49118504-10.65561626
   9.10141406  1.91588805 -0.62044825
   2.99339657  1.92104802 -0.60925245
   3.10197186  0.30638036 -6.29461549
   6.06437726  1.93503714 -0.61447289
   6.13511984  0.51154359 -6.20891872
   1.81390602 -0.07360044 -7.30637849
 


--------------------------------------------------------------------------------------------------------


 k-point   1 :   0.0000 0.0000 0.0000  plane waves:   27533
 k-point   2 :   0.5000 0.0000 0.0000  plane waves:   27522
 k-point   3 :   0.0000 0.5000 0.0000  plane waves:   27488
 k-point   4 :   0.5000 0.5000 0.0000  plane waves:   27488
 k-point   5 :   0.0000 0.0000 0.5000  plane waves:   27482
 k-point   6 :   0.5000 0.0000 0.5000  plane waves:   27476
 k-point   7 :   0.0000 0.5000 0.5000  plane waves:   27468
 k-point   8 :   0.5000 0.5000 0.5000  plane waves:   27564

 maximum and minimum number of plane-waves per node :     27564    27468

 maximum number of plane-waves:     27564
 maximum index in each direction: 
   IXMAX=   21   IYMAX=   15   IZMAX=   20
   IXMIN=  -21   IYMIN=  -16   IZMIN=  -20


 serial   3D FFT for wavefunctions
 parallel 3D FFT for charge:
    minimum data exchange during FFTs selected (reduces bandwidth)


 FFT grid for exact exchange (Hartree Fock) 
  NGX = 48; NGY = 36; NGZ = 48

 
 Radii for the augmentation spheres in the non-local exchange
 for species   1 augmentation radius   1.392 (default was   1.031)
       energy cutoff for augmentation   1800.0
 for species   2 augmentation radius   0.974 (default was   0.722)
       energy cutoff for augmentation   1800.0
 for species   3 augmentation radius   1.294 (default was   0.959)
       energy cutoff for augmentation   1800.0
 Maximum index for augmentation-charges in exchange           748
  SETUP_FOCK is finished

 total amount of memory used by VASP MPI-rank0  7175111. kBytes
=======================================================================

   base      :      30000. kBytes
   nonlr-proj:      32442. kBytes
   fftplans  :      51012. kBytes
   grid      :     102973. kBytes
   one-center:       1850. kBytes
   HF        :        194. kBytes
   wavefun   :    6956640. kBytes
 
     INWAV:  cpu time      0.0001: real time      0.0001
 Broyden mixing: mesh for mixing (old mesh)
   NGX = 43   NGY = 31   NGZ = 41
  (NGX  =128   NGY  = 96   NGZ  =120)
  gives a total of  54653 points

 charge density for first step will be calculated from the start-wavefunctions


--------------------------------------------------------------------------------------------------------


 Maximum index for non-local projection operator          1713
 Maximum index for augmentation-charges          5360 (set IRDMAX)


--------------------------------------------------------------------------------------------------------


 initial charge from wavefunction
 First call to EWALD:  gamma=   0.164
 Maximum number of real-space cells 3x 3x 3
 Maximum number of reciprocal cells 3x 2x 3

    FEWALD:  cpu time      0.0722: real time      0.0722


--------------------------------------- Ionic step        1  -------------------------------------------




--------------------------------------- Iteration      1(   1)  ---------------------------------------


    POTLOK:  cpu time      0.0322: real time      0.0322
    SETDIJ:  cpu time      0.1476: real time      0.1476
    TRIAL :  cpu time      2.9253: real time      2.9364
    CORREC:  cpu time      0.0015: real time      0.0015
    --------------------------------------------
      LOOP:  cpu time      3.9839: real time      3.9947

 eigenvalue-minimisations  : 10456
 total energy-change (2. order) :-0.1825943E+05  (-0.5422810E+05)
 number of electron    1042.9999955 magnetization 
 augmentation part      118.5319876 magnetization 

 Free energy of the ion-electron system (eV)
  ---------------------------------------------------
  alpha Z        PSCENC =      5376.25786726
  Ewald energy   TEWEN  =    -86759.99124138
  -Hartree energ DENC   =     -2076.83746431
  -exchange      EXHF   =         0.00000000
  -V(xc)+E(xc)   XCENC  =      2756.15726879
  PAW double counting   =    330839.34523869  -359591.13732176
  entropy T*S    EENTRO =        -0.01218263
  eigenvalues    EBANDS =    -40303.45385395
  atomic energy  EATOM  =    131500.23896116
  ---------------------------------------------------
  free energy    TOTEN  =    -18259.43272813 eV

  energy without entropy =   -18259.42054550  energy(sigma->0) =   -18259.42663682
  exchange ACFDT corr.  =         0.00000000  see jH, gK, PRB 81, 115126


--------------------------------------------------------------------------------------------------------




--------------------------------------- Iteration      1(   2)  ---------------------------------------


    TRIAL :  cpu time      3.1532: real time      3.1526
    CORREC:  cpu time      0.0015: real time      0.0015
    --------------------------------------------
      LOOP:  cpu time      3.1550: real time      3.1552

 eigenvalue-minimisations  : 13256
 total energy-change (2. order) :-0.4445115E+05  (-0.4295128E+05)
 number of electron    1042.9999955 magnetization 
 augmentation part      118.5319876 magnetization 

 Free energy of the ion-electron system (eV)
  ---------------------------------------------------
  alpha Z        PSCENC =      5376.25786726
  Ewald energy   TEWEN  =    -86759.99124138
  -Hartree energ DENC   =     -2076.83746431
  -exchange      EXHF   =         0.00000000
  -V(xc)+E(xc)   XCENC  =      2756.15726879
  PAW double counting   =    330839.34523869  -359591.13732176
  entropy T*S    EENTRO =        -0.02345917
  eigenvalues    EBANDS =    -84754.59062989
  atomic energy  EATOM  =    131500.23896116
  ---------------------------------------------------
  free energy    TOTEN  =    -62710.58078062 eV

  energy without entropy =   -62710.55732144  energy(sigma->0) =   -62710.56905103
  exchange ACFDT corr.  =         0.00000000  see jH, gK, PRB 81, 115126


--------------------------------------------------------------------------------------------------------




--------------------------------------- Iteration      1(   3)  ---------------------------------------


    TRIAL :  cpu time      3.3412: real time      3.3407
    CORREC:  cpu time      0.0016: real time      0.0016
    --------------------------------------------
      LOOP:  cpu time      3.3430: real time      3.3430

 eigenvalue-minimisations  : 14318
 total energy-change (2. order) :-0.5083435E+04  (-0.4601704E+04)
 number of electron    1042.9999955 magnetization 
 augmentation part      118.5319876 magnetization 

 Free energy of the ion-electron system (eV)
  ---------------------------------------------------
  alpha Z        PSCENC =      5376.25786726
  Ewald energy   TEWEN  =    -86759.99124138
  -Hartree energ DENC   =     -2076.83746431
  -exchange      EXHF   =         0.00000000
  -V(xc)+E(xc)   XCENC  =      2756.15726879
  PAW double counting   =    330839.34523869  -359591.13732176
  entropy T*S    EENTRO =        -0.02636298
  eigenvalues    EBANDS =    -89838.02289708
  atomic energy  EATOM  =    131500.23896116
  ---------------------------------------------------
  free energy    TOTEN  =    -67794.01595161 eV

  energy without entropy =   -67793.98958863  energy(sigma->0) =   -67794.00277012
  exchange ACFDT corr.  =         0.00000000  see jH, gK, PRB 81, 115126


--------------------------------------------------------------------------------------------------------




--------------------------------------- Iteration      1(   4)  ---------------------------------------


    TRIAL :  cpu time      3.9056: real time      3.9049
    CORREC:  cpu time      0.0016: real time      0.0016
    --------------------------------------------
      LOOP:  cpu time      3.9074: real time      3.9070

 eigenvalue-minimisations  : 18344
 total energy-change (2. order) :-0.7760904E+03  (-0.6927699E+03)
 number of electron    1042.9999955 magnetization 
 augmentation part      118.5319876 magnetization 

 Free energy of the ion-electron system (eV)
  ---------------------------------------------------
  alpha Z        PSCENC =      5376.25786726
  Ewald energy   TEWEN  =    -86759.99124138
  -Hartree energ DENC   =     -2076.83746431
  -exchange      EXHF   =         0.00000000
  -V(xc)+E(xc)   XCENC  =      2756.15726879
  PAW double counting   =    330839.34523869  -359591.13732176
  entropy T*S    EENTRO =        -0.03402071
  eigenvalues    EBANDS =    -90614.10562846
  atomic energy  EATOM  =    131500.23896116
  ---------------------------------------------------
  free energy    TOTEN  =    -68570.10634073 eV

  energy without entropy =   -68570.07232002  energy(sigma->0) =   -68570.08933037
  exchange ACFDT corr.  =         0.00000000  see jH, gK, PRB 81, 115126


--------------------------------------------------------------------------------------------------------




--------------------------------------- Iteration      1(   5)  ---------------------------------------


    POTLOK:  cpu time      1.3591: real time      1.3589
    SETDIJ:  cpu time      0.4590: real time      0.4589
    TRIAL :  cpu time    228.4280: real time    228.3939
    CORREC:  cpu time      0.0015: real time      0.0015
    CHARGE:  cpu time      0.2054: real time      0.2054
    --------------------------------------------
      LOOP:  cpu time    230.4533: real time    230.4191

 eigenvalue-minimisations  : 17656
 total energy-change (2. order) : 0.2958753E+05  (-0.6858927E+02)
 number of electron    1043.0000018 magnetization 
 augmentation part      471.2698909 magnetization 

 Free energy of the ion-electron system (eV)
  ---------------------------------------------------
  alpha Z        PSCENC =      5376.25786726
  Ewald energy   TEWEN  =    -86759.99124138
  -Hartree energ DENC   =     -2076.83746431
  -exchange      EXHF   =      4733.83872875
  -V(xc)+E(xc)   XCENC  =      1905.25656562
  PAW double counting   =    332046.75022593  -334040.85859130
  entropy T*S    EENTRO =        -0.00723988
  eigenvalues    EBANDS =    -91667.22224036
  atomic energy  EATOM  =    131500.23896116
  ---------------------------------------------------
  free energy    TOTEN  =    -38982.57442852 eV

  energy without entropy =   -38982.56718864  energy(sigma->0) =   -38982.57080858
  exchange ACFDT corr.  =        -0.37328455  see jH, gK, PRB 81, 115126


--------------------------------------------------------------------------------------------------------




--------------------------------------- Iteration      1(   6)  ---------------------------------------


    POTLOK:  cpu time      1.4153: real time      1.4152
    SETDIJ:  cpu time      0.4266: real time      0.4265
    TRIAL :  cpu time    228.1265: real time    228.0956
    CORREC:  cpu time    230.6996: real time    230.6661
    CHARGE:  cpu time      0.2046: real time      0.2046
    --------------------------------------------
      LOOP:  cpu time    460.8748: real time    460.8105

 eigenvalue-minimisations  :     0
 total energy-change (2. order) : 0.7402832E+05  (-0.2451048E+05)
 number of electron    1042.9999928 magnetization 
 augmentation part      453.9967739 magnetization 

 Free energy of the ion-electron system (eV)
  ---------------------------------------------------
  alpha Z        PSCENC =      5376.25786726
  Ewald energy   TEWEN  =    -86759.99124138
  -Hartree energ DENC   =    -83642.79434817
  -exchange      EXHF   =      4819.02027875
  -V(xc)+E(xc)   XCENC  =      3737.28183136
  PAW double counting   =    151661.29011377  -176675.62824237
  entropy T*S    EENTRO =        -0.04523469
  eigenvalues    EBANDS =     85030.07519759
  atomic energy  EATOM  =    131500.23896116
  ---------------------------------------------------
  free energy    TOTEN  =     35045.74317809 eV

  energy without entropy =    35045.78841278  energy(sigma->0) =    35045.76579543
  exchange ACFDT corr.  =        -0.03759597  see jH, gK, PRB 81, 115126


--------------------------------------------------------------------------------------------------------




--------------------------------------- Iteration      1(   7)  ---------------------------------------


    POTLOK:  cpu time      1.5170: real time      1.5173
    SETDIJ:  cpu time      0.4151: real time      0.4150
    TRIAL :  cpu time    228.4295: real time    228.3941
    CORREC:  cpu time    230.7158: real time    230.6825
    CHARGE:  cpu time      0.2165: real time      0.2164
    --------------------------------------------
      LOOP:  cpu time    461.2940: real time    461.2260

 eigenvalue-minimisations  :     0
 total energy-change (2. order) :-0.2288969E+05  (-0.6979423E+04)
 number of electron    1043.0000052 magnetization 
 augmentation part      418.6136383 magnetization 

 Free energy of the ion-electron system (eV)
  ---------------------------------------------------
  alpha Z        PSCENC =      5376.25786726
  Ewald energy   TEWEN  =    -86759.99124138
  -Hartree energ DENC   =    -42372.27509740
  -exchange      EXHF   =      3696.96227543
  -V(xc)+E(xc)   XCENC  =      2875.89388593
  PAW double counting   =    152858.94256647  -170279.21737276
  entropy T*S    EENTRO =        -0.01970248
  eigenvalues    EBANDS =     15259.28847757
  atomic energy  EATOM  =    131500.23896116
  ---------------------------------------------------
  free energy    TOTEN  =     12156.05508758 eV

  energy without entropy =    12156.07479006  energy(sigma->0) =    12156.06493882
  exchange ACFDT corr.  =      -154.86223428  see jH, gK, PRB 81, 115126


--------------------------------------------------------------------------------------------------------




--------------------------------------- Iteration      1(   8)  ---------------------------------------


    POTLOK:  cpu time      1.5153: real time      1.5150
    SETDIJ:  cpu time      0.4493: real time      0.4492
    TRIAL :  cpu time    228.7682: real time    228.7359
    CORREC:  cpu time    230.2003: real time    230.1643
    CHARGE:  cpu time      0.2058: real time      0.2058
    --------------------------------------------
      LOOP:  cpu time    461.1392: real time    461.0771

 eigenvalue-minimisations  :     0
 total energy-change (2. order) :-0.7097500E+04  (-0.2429167E+04)
 number of electron    1043.0000150 magnetization 
 augmentation part      429.9793492 magnetization 

 Free energy of the ion-electron system (eV)
  ---------------------------------------------------
  alpha Z        PSCENC =      5376.25786726
  Ewald energy   TEWEN  =    -86759.99124138
  -Hartree energ DENC   =    -29318.65350506
  -exchange      EXHF   =      3361.13356752
  -V(xc)+E(xc)   XCENC  =      2636.73169413
  PAW double counting   =    144452.00392364  -158427.45961458
  entropy T*S    EENTRO =        -0.04622580
  eigenvalues    EBANDS =     -7761.68641256
  atomic energy  EATOM  =    131500.23896116
  ---------------------------------------------------
  free energy    TOTEN  =      5058.55553765 eV

  energy without entropy =     5058.60176345  energy(sigma->0) =     5058.57865055
  exchange ACFDT corr.  =       -94.19797912  see jH, gK, PRB 81, 115126


--------------------------------------------------------------------------------------------------------




--------------------------------------- Iteration      1(   9)  ---------------------------------------


    POTLOK:  cpu time      1.4970: real time      1.4968
    SETDIJ:  cpu time      0.4269: real time      0.4268
    TRIAL :  cpu time    228.6849: real time    228.6480
    CORREC:  cpu time    229.8912: real time    229.8531
    CHARGE:  cpu time      0.2121: real time      0.2120
    --------------------------------------------
      LOOP:  cpu time    460.7123: real time    460.6373

 eigenvalue-minimisations  :     0
 total energy-change (2. order) :-0.1488774E+04  (-0.2410238E+04)
 number of electron    1043.0000057 magnetization 
 augmentation part      450.0331601 magnetization 

 Free energy of the ion-electron system (eV)
  ---------------------------------------------------
  alpha Z        PSCENC =      5376.25786726
  Ewald energy   TEWEN  =    -86759.99124138
  -Hartree energ DENC   =    -30550.06821291
  -exchange      EXHF   =      3420.05273585
  -V(xc)+E(xc)   XCENC  =      2674.51775380
  PAW double counting   =    139712.92047012  -154312.38270411
  entropy T*S    EENTRO =        -0.01902221
  eigenvalues    EBANDS =     -7491.71780806
  atomic energy  EATOM  =    131500.23896116
  ---------------------------------------------------
  free energy    TOTEN  =      3569.78159593 eV

  energy without entropy =     3569.80061814  energy(sigma->0) =     3569.79110704
  exchange ACFDT corr.  =      -100.07261915  see jH, gK, PRB 81, 115126


--------------------------------------------------------------------------------------------------------




--------------------------------------- Iteration      1(  10)  ---------------------------------------


    POTLOK:  cpu time      1.4668: real time      1.4666
    SETDIJ:  cpu time      0.4929: real time      0.4929
    TRIAL :  cpu time    228.1546: real time    228.1240
    CORREC:  cpu time    230.0944: real time    230.0591
    CHARGE:  cpu time      0.2161: real time      0.2161
    --------------------------------------------
      LOOP:  cpu time    460.4251: real time    460.3591

 eigenvalue-minimisations  :     0
 total energy-change (2. order) :-0.1936071E+04  (-0.1160744E+04)
 number of electron    1043.0000026 magnetization 
 augmentation part      452.7542658 magnetization 

 Free energy of the ion-electron system (eV)
  ---------------------------------------------------
  alpha Z        PSCENC =      5376.25786726
  Ewald energy   TEWEN  =    -86759.99124138
  -Hartree energ DENC   =    -32513.06538018
  -exchange      EXHF   =      3558.37304801
  -V(xc)+E(xc)   XCENC  =      2778.00246344
  PAW double counting   =    141391.34624860  -157250.46696470
  entropy T*S    EENTRO =        -0.01559672
  eigenvalues    EBANDS =     -6446.96583212
  atomic energy  EATOM  =    131500.23896116
  ---------------------------------------------------
  free energy    TOTEN  =      1633.71014789 eV

  energy without entropy =     1633.72574461  energy(sigma->0) =     1633.71794625
  exchange ACFDT corr.  =        -4.89893892  see jH, gK, PRB 81, 115126


--------------------------------------------------------------------------------------------------------




--------------------------------------- Iteration      1(  11)  ---------------------------------------


    POTLOK:  cpu time      1.4668: real time      1.4667
    SETDIJ:  cpu time      0.4640: real time      0.4638
    TRIAL :  cpu time    228.3422: real time    228.3075
    CORREC:  cpu time    229.8812: real time    229.8453
    CHARGE:  cpu time      0.2136: real time      0.2136
    --------------------------------------------
      LOOP:  cpu time    460.3681: real time    460.2975

 eigenvalue-minimisations  :     0
 total energy-change (2. order) :-0.1164747E+04  (-0.6426484E+03)
 number of electron    1042.9999963 magnetization 
[...]
   0.157E+02 0.249E+03 -.458E+02   -.154E+02 -.249E+03 0.449E+02   -.213E+00 0.195E+00 0.733E+00
   0.635E+00 0.732E+02 -.644E+02   -.111E+01 -.706E+02 0.653E+02   0.415E+00 -.234E+01 -.909E+00
   0.294E+02 0.152E+03 -.180E+02   -.298E+02 -.150E+03 0.202E+02   0.395E+00 -.166E+01 -.203E+01
   -.835E+01 0.708E+02 -.588E+02   0.839E+01 -.689E+02 0.608E+02   -.372E-01 -.174E+01 -.187E+01
   -.372E+02 0.142E+03 -.391E+01   0.375E+02 -.141E+03 0.548E+01   -.184E+00 -.254E+00 -.147E+01
   0.546E+01 -.319E+02 0.303E+02   -.528E+01 0.389E+02 -.342E+02   -.146E+00 -.598E+01 0.344E+01
   0.441E+02 -.180E+03 0.359E+02   -.457E+02 0.173E+03 -.384E+02   0.141E+01 0.599E+01 0.212E+01
   0.555E+01 -.333E+02 0.173E+02   -.540E+01 0.407E+02 -.209E+02   -.139E+00 -.635E+01 0.314E+01
   0.314E+02 -.707E+02 0.276E+02   -.318E+02 0.782E+02 -.319E+02   0.362E+00 -.648E+01 0.367E+01
   -.117E+02 -.329E+02 0.142E+02   0.116E+02 0.408E+02 -.166E+02   0.995E-01 -.673E+01 0.207E+01
   -.290E+02 -.101E+03 0.519E+02   0.276E+02 0.111E+03 -.588E+02   0.118E+01 -.912E+01 0.591E+01
   -.748E+01 0.380E+02 -.113E+02   0.763E+01 -.456E+02 0.148E+02   -.134E+00 0.656E+01 -.306E+01
   -.154E+01 0.616E+02 -.305E+02   0.180E+01 -.708E+02 0.339E+02   -.220E+00 0.790E+01 -.296E+01
   0.475E+01 0.382E+02 -.110E+02   -.487E+01 -.452E+02 0.144E+02   0.968E-01 0.605E+01 -.295E+01
   -.504E+00 0.426E+02 -.235E+02   0.595E+00 -.487E+02 0.263E+02   -.748E-01 0.526E+01 -.242E+01
   0.871E+00 0.306E+02 -.145E+02   -.700E+00 -.379E+02 0.181E+02   -.149E+00 0.627E+01 -.314E+01
   0.155E+01 0.501E+02 -.352E+02   -.180E+01 -.577E+02 0.396E+02   0.205E+00 0.656E+01 -.380E+01
   0.189E+01 0.596E+02 0.430E+02   -.204E+01 -.568E+02 -.387E+02   0.134E+00 -.243E+01 -.375E+01
   0.254E+01 0.703E+02 0.356E+02   -.263E+01 -.684E+02 -.313E+02   0.768E-01 -.171E+01 -.369E+01
   0.318E+01 0.730E+02 0.342E+02   -.323E+01 -.717E+02 -.291E+02   0.436E-01 -.112E+01 -.438E+01
   0.201E+01 0.757E+02 0.357E+02   -.217E+01 -.738E+02 -.313E+02   0.127E+00 -.160E+01 -.373E+01
   -.303E+01 0.632E+02 0.400E+02   0.301E+01 -.609E+02 -.355E+02   0.178E-01 -.200E+01 -.390E+01
   -.505E+01 0.736E+02 0.367E+02   0.497E+01 -.720E+02 -.325E+02   0.634E-01 -.137E+01 -.365E+01
   -.492E+01 -.796E+02 -.290E+02   0.489E+01 0.771E+02 0.254E+02   0.311E-01 0.215E+01 0.308E+01
   0.603E+01 -.105E+03 -.335E+02   -.791E+01 0.103E+03 0.275E+02   0.162E+01 0.186E+01 0.514E+01
   0.573E+01 -.722E+02 -.256E+02   -.503E+01 0.694E+02 0.213E+02   -.601E+00 0.246E+01 0.370E+01
   0.340E+02 -.101E+03 -.217E+02   -.365E+02 0.986E+02 0.150E+02   0.214E+01 0.194E+01 0.585E+01
   -.110E+02 -.689E+02 -.335E+02   0.124E+02 0.665E+02 0.292E+02   -.120E+01 0.199E+01 0.367E+01
   0.271E+01 -.930E+02 -.321E+02   -.403E+01 0.918E+02 0.270E+02   0.113E+01 0.101E+01 0.439E+01
   -.215E+00 0.839E+02 0.773E+02   -.120E+01 -.971E+02 -.730E+02   0.122E+01 0.114E+02 -.374E+01
   -.304E+01 0.108E+03 0.625E+02   0.303E+01 -.121E+03 -.602E+02   0.981E-02 0.109E+02 -.202E+01
   0.354E+02 0.775E+02 0.664E+02   -.376E+02 -.892E+02 -.605E+02   0.196E+01 0.101E+02 -.510E+01
   0.435E+01 0.108E+03 0.580E+02   -.392E+01 -.121E+03 -.544E+02   -.378E+00 0.108E+02 -.310E+01
   0.461E+01 0.997E+02 0.718E+02   -.580E+01 -.112E+03 -.684E+02   0.103E+01 0.107E+02 -.294E+01
   -.307E+01 0.114E+03 0.606E+02   0.327E+01 -.127E+03 -.576E+02   -.179E+00 0.111E+02 -.260E+01
   0.125E+01 -.118E+03 -.663E+02   -.126E+01 0.131E+03 0.631E+02   0.280E-02 -.109E+02 0.276E+01
   0.106E+01 -.122E+03 -.631E+02   -.780E+00 0.134E+03 0.599E+02   -.243E+00 -.107E+02 0.277E+01
   0.615E+01 -.114E+03 -.641E+02   -.652E+01 0.126E+03 0.603E+02   0.325E+00 -.108E+02 0.324E+01
   -.179E+01 -.116E+03 -.640E+02   0.182E+01 0.129E+03 0.607E+02   -.203E-01 -.110E+02 0.289E+01
   -.311E+01 -.116E+03 -.671E+02   0.319E+01 0.128E+03 0.640E+02   -.665E-01 -.107E+02 0.272E+01
   -.634E+01 -.121E+03 -.632E+02   0.641E+01 0.134E+03 0.603E+02   -.681E-01 -.107E+02 0.254E+01
   -.370E+01 -.322E+01 0.766E+01   0.377E+01 0.101E+02 -.118E+02   -.601E-01 -.594E+01 0.353E+01
   -.935E+01 0.332E+02 0.924E+01   0.958E+01 -.263E+02 -.124E+02   -.197E+00 -.591E+01 0.277E+01
   0.345E+01 -.513E+01 0.102E+02   -.365E+01 0.122E+02 -.144E+02   0.173E+00 -.608E+01 0.358E+01
   0.535E+01 0.302E+02 0.421E+01   -.526E+01 -.237E+02 -.704E+01   -.789E-01 -.561E+01 0.245E+01
   0.173E+01 -.393E+01 0.674E+01   -.180E+01 0.108E+02 -.105E+02   0.577E-01 -.587E+01 0.320E+01
   0.457E+01 0.127E+02 0.179E+02   -.513E+01 -.518E+01 -.219E+02   0.485E+00 -.650E+01 0.344E+01
   0.566E+02 -.376E+02 0.631E+02   -.644E+02 0.319E+02 -.603E+02   0.682E+01 0.487E+01 -.237E+01
   0.147E+02 -.368E+02 -.552E+02   -.172E+02 0.298E+02 0.593E+02   0.211E+01 0.598E+01 -.350E+01
   0.156E+02 -.119E+02 0.277E+02   -.149E+02 0.470E+01 -.252E+02   -.608E+00 0.621E+01 -.219E+01
   0.120E+02 -.202E+02 -.335E+02   -.115E+02 0.135E+02 0.376E+02   -.430E+00 0.577E+01 -.354E+01
   -.661E+02 -.194E+02 -.100E+02   0.725E+02 0.165E+02 0.170E+02   -.554E+01 0.246E+01 -.595E+01
   -.146E+02 -.171E+02 -.396E+02   0.146E+02 0.103E+02 0.432E+02   -.614E-01 0.584E+01 -.314E+01
   -.214E+02 0.120E+03 0.866E+02   0.217E+02 -.124E+03 -.848E+02   -.203E+00 0.343E+01 -.154E+01
   -.959E+02 0.515E+02 -.112E+03   0.987E+02 -.504E+02 0.120E+03   -.244E+01 -.907E+00 -.736E+01
   0.985E+01 0.611E+02 0.738E+02   -.924E+01 -.574E+02 -.684E+02   -.531E+00 -.328E+01 -.470E+01
   0.967E+02 0.676E+01 -.490E+02   -.856E+02 -.311E+01 0.403E+02   -.962E+01 -.315E+01 0.760E+01
   0.665E+01 0.629E+02 0.598E+02   -.723E+01 -.607E+02 -.556E+02   0.494E+00 -.187E+01 -.361E+01
   -.765E+02 0.573E+02 -.130E+02   0.860E+02 -.564E+02 0.190E+02   -.818E+01 -.716E+00 -.520E+01
   -.947E+00 -.571E+02 -.332E+02   0.981E+00 0.560E+02 0.294E+02   -.313E-01 0.989E+00 0.330E+01
   0.202E+02 0.138E+03 -.138E+03   -.220E+02 -.146E+03 0.137E+03   0.158E+01 0.764E+01 0.689E+00
   0.767E+01 -.631E+02 -.317E+02   -.788E+01 0.620E+02 0.270E+02   0.174E+00 0.962E+00 0.400E+01
   0.388E+02 -.105E+02 -.586E+02   -.387E+02 0.793E+01 0.538E+02   -.589E-01 0.226E+01 0.413E+01
   -.667E+01 -.612E+02 -.370E+02   0.687E+01 0.596E+02 0.325E+02   -.177E+00 0.133E+01 0.383E+01
   -.203E+02 0.930E+01 -.443E+02   0.186E+02 -.133E+02 0.377E+02   0.144E+01 0.346E+01 0.569E+01
   0.363E+01 0.200E+03 0.111E+03   -.413E+01 -.213E+03 -.107E+03   0.433E+00 0.112E+02 -.329E+01
   -.175E+00 0.158E+03 0.321E+01   -.747E-01 -.171E+03 0.451E+00   0.226E+00 0.113E+02 -.317E+01
   0.189E+02 0.162E+03 0.834E+02   -.186E+02 -.175E+03 -.794E+02   -.280E+00 0.112E+02 -.339E+01
   0.142E+02 0.139E+03 0.259E+02   -.133E+02 -.151E+03 -.224E+02   -.746E+00 0.107E+02 -.303E+01
   -.159E+02 0.149E+03 0.856E+02   0.156E+02 -.161E+03 -.822E+02   0.266E+00 0.105E+02 -.298E+01
   -.195E+02 0.123E+03 0.245E+02   0.215E+02 -.135E+03 -.208E+02   -.175E+01 0.974E+01 -.322E+01
   -.142E+02 -.121E+03 -.865E+02   0.146E+02 0.133E+03 0.839E+02   -.349E+00 -.102E+02 0.224E+01
   0.104E+02 -.127E+03 -.806E+02   -.109E+02 0.139E+03 0.760E+02   0.438E+00 -.107E+02 0.394E+01
   0.126E+03 -.109E+03 0.130E+02   -.113E+03 0.120E+03 -.664E+01   -.108E+02 -.993E+01 -.553E+01
   -.929E+01 -.128E+03 -.765E+02   0.108E+02 0.141E+03 0.729E+02   -.130E+01 -.108E+02 0.304E+01
   -.153E+02 -.121E+03 -.170E+02   0.192E+02 0.134E+03 0.137E+02   -.342E+01 -.107E+02 0.285E+01
   0.130E+03 -.682E+02 -.373E+02   -.148E+03 0.783E+02 0.420E+02   0.183E+02 -.101E+02 -.463E+01
 -----------------------------------------------------------------------------------------------
   0.329E+01 -.323E+02 0.740E+01   0.369E-12 -.455E-12 0.183E-11   -.105E+01 0.266E+02 -.600E+01
 
 
 POSITION                                       TOTAL-FORCE (eV/Angst)
 -----------------------------------------------------------------------------------
      9.12578      7.64981     -1.75622         0.003859      0.072952      0.012461
      9.12928      6.31139     -7.41671        -0.000522      0.043519      0.004708
      3.02067      7.65412     -1.76040        -0.017561      0.050082      0.016842
      3.03259      6.28312     -7.43091        -0.005902      0.056336      0.004097
      6.07867      7.64877     -1.76005        -0.002879      0.074134      0.021882
      6.07827      6.31169     -7.41839        -0.005552      0.070732     -0.007804
      1.49721      9.41685     -3.85858        -0.048300     -0.091777     -0.000707
      1.48431      8.00068     -9.55276        -0.041196     -0.071596     -0.019246
      4.57813      9.36570     -3.85425         0.007953     -0.074673      0.016704
      4.54811      8.00948     -9.53658        -0.017011     -0.084974     -0.024918
      7.62365      9.39091     -3.87147         0.010291      0.001954      0.020636
      7.58898      7.99395     -9.55612        -0.032701     -0.042087     -0.036535
      1.50007      6.17892     -4.49009         0.002022     -0.023880      0.028219
      1.49877      4.77740    -10.13387         0.013885     -0.023910     -0.003325
      4.54351      6.16804     -4.49845         0.004699     -0.020539      0.035269
      4.58566      4.79675    -10.14275        -0.052722     -0.027145      0.009678
      7.59952      6.15862     -4.48759        -0.000805     -0.009544      0.025161
      7.60943      4.75226    -10.12607         0.019632     -0.030126     -0.001793
      9.10902     10.89835     -1.18033        -0.011812      0.020391     -0.021877
      0.07890      9.49766     -6.80446        -0.162670     -0.022613     -0.001171
      3.02257     10.88511     -1.15082        -0.016153      0.014810     -0.009178
      3.20744      9.39122     -6.77023        -0.004250      0.066183     -0.038083
      6.06326     10.88240     -1.15862         0.019615      0.019818      0.003071
      6.21575      9.50106     -6.79775        -0.040879      0.043107     -0.037322
      1.46235      1.51583     -1.79803        -0.034059      0.061925      0.015333
      4.53953      1.53877     -1.75405         0.019860      0.078958      0.010326
      4.75509      0.09357     -7.42011         0.234897      0.039995      0.013374
      7.59113      1.52101     -1.79657         0.012497      0.055292      0.018001
      7.92604      0.23786     -7.09510        -0.160677     -0.010574     -0.222796
      9.11525      3.23014     -3.87442        -0.027390     -0.093447      0.011008
      0.01176      1.81559     -9.46292         0.024566     -0.138276      0.036027
      3.01048      3.24343     -3.88589         0.005117     -0.064350      0.018799
      3.01217      1.93452     -9.48335        -0.104285      0.115098     -0.023830
      6.06037      3.24360     -3.86768         0.023032     -0.074817      0.003015
      6.09431      1.81478     -9.50076         0.038069     -0.137781     -0.048024
      9.01483      0.14758     -4.78795        -0.073647     -0.232630      0.529933
      9.03982     -1.32241    -10.12912        -0.025975      0.015589      0.064945
      2.97877     -0.03173     -4.40822         0.015942     -0.057519      0.073194
      2.95370     -1.37498    -10.14975        -0.023740     -0.148309     -0.060348
      6.07952     -0.01417     -4.44148         0.065590      0.003908      0.005816
      6.03571     -1.35492    -10.14757         0.034218      0.016768      0.041458
      1.50161      4.71439     -1.12717        -0.000158      0.031967     -0.015510
      1.50783      3.40010     -6.82481         0.000362     -0.025732     -0.085383
      4.53533      4.72655     -1.11622        -0.008638      0.037701     -0.036629
      4.55775      3.36400     -6.79796        -0.019004      0.022960      0.000972
      7.59569      4.73471     -1.13069         0.005354      0.023849      0.001540
      7.59584      3.41892     -6.79474         0.007476     -0.036279     -0.005716
      1.50163     11.88677     -1.45818         0.009492     -0.161692      0.121236
      1.69821     10.50167     -7.09098         0.124123      0.263015      0.072463
      4.54183     11.89867     -1.43451        -0.007805     -0.180495      0.109176
      4.66757     10.46605     -7.08370        -0.019597     -0.196154      0.132831
      7.57958     11.89871     -1.40823        -0.001934     -0.186408      0.074791
      7.72345     10.52970     -7.07285         0.011822     -0.326266      0.202946
      9.12885      5.15187     -4.22017        -0.006348      0.183983     -0.114429
      9.13180      3.75105     -9.85498        -0.009898      0.246378     -0.108674
      3.01995      5.15433     -4.22858         0.005503      0.170505     -0.111617
      3.05229      3.81604     -9.87260        -0.000178      0.138255     -0.087447
      6.06469      5.15927     -4.21894        -0.001314      0.175459     -0.117060
      6.07988      3.74901     -9.81781         0.002595      0.197719     -0.134963
      1.50876      7.49283     -3.15996         0.007730     -0.067028     -0.105237
      1.50617      6.11346     -8.81802         0.003504     -0.041041     -0.091343
      4.55002      7.47818     -3.15853         0.004043     -0.015833     -0.130670
      4.56728      6.11955     -8.81580        -0.001452     -0.030088     -0.092070
      7.60610      7.48301     -3.16127        -0.003621     -0.048475     -0.113438
      7.61118      6.11199     -8.82099        -0.005258     -0.029269     -0.093427
      9.12614      9.54579     -2.47353         0.011354      0.043323      0.072630
      0.01438      8.19794     -8.13362         0.053491      0.030817      0.162991
      3.01555      9.57033     -2.48079        -0.016076      0.070414      0.091122
      3.04318      8.17014     -8.14625         0.076860      0.051628      0.203810
      6.06810      9.54564     -2.46724        -0.043614      0.046877      0.093039
      6.10508      8.18933     -8.13488         0.026928      0.009041      0.136867
      0.02141      8.98028     -5.04626         0.038255      0.411763     -0.106801
      9.11184      7.60445    -10.70564         0.001298      0.397164     -0.036519
      3.04554      8.99270     -5.00227         0.072519      0.368206     -0.154307
      3.01580      7.61587    -10.68434        -0.008064      0.400867     -0.074160
      6.10693      8.98511     -5.02941         0.036451      0.398233     -0.079857
      6.05213      7.59609    -10.69148        -0.005869      0.405428     -0.055693
      1.50316      8.05835     -0.60355         0.001911     -0.402084      0.060792
      1.51791      6.70018     -6.26199        -0.008831     -0.393521      0.065676
      4.55439      8.06180     -0.61349         0.018081     -0.397880      0.079908
      4.54714      6.72630     -6.26085         0.000270     -0.413852      0.071362
      7.59673      8.03664     -0.59793         0.000248     -0.396339      0.070282
      7.60213      6.69379     -6.25665        -0.005489     -0.397438      0.059346
      9.12808      5.73141     -1.42797        -0.003483     -0.155071      0.119570
      9.12445      4.41105     -7.07079        -0.004797     -0.156978      0.104395
      3.01713      5.73786     -1.42437         0.013898     -0.170480      0.127413
      3.04958      4.39226     -7.06936        -0.006599     -0.148804      0.093603
      6.06042      5.73425     -1.41165         0.011275     -0.156091      0.111489
      6.06111      4.39585     -7.08213         0.020520     -0.182623      0.123094
      1.40216     -0.94739     -4.30193         0.241490      0.151527     -0.099865
      1.43104     -2.35366     -9.84419         0.093108      0.167561     -0.122150
      4.52957     -0.99832     -4.19830        -0.008680      0.157890     -0.077309
      4.49552     -2.34797     -9.85312        -0.015696      0.160079     -0.125537
      7.60084     -0.99557     -4.12463        -0.192799      0.046992     -0.181400
      7.54671     -2.38298     -9.86763         0.004967      0.154074     -0.121803
      9.10096      1.33764     -3.21190        -0.000366      0.132594     -0.068644
      9.00547     -0.02773     -8.81801        -0.157968     -0.011117     -0.276881
      3.01653      1.34639     -3.17106        -0.018984     -0.105569     -0.144558
      2.91082     -0.12844     -8.64217        -0.384709     -0.081614      0.352614
      6.05389      1.35160     -3.16160         0.018132     -0.040729     -0.090618
      6.02232     -0.03404     -8.85393        -0.307719      0.002556     -0.175803
      1.49770      3.41712     -2.49369        -0.002345      0.005663      0.078987
      1.55356      2.15402     -8.17970         0.073422      0.337897     -0.060916
      4.52814      3.42361     -2.47391         0.012211      0.011706      0.112822
      4.53362      1.99671     -8.08079        -0.003172      0.055378      0.117776
      7.58190      3.42890     -2.47757         0.000030      0.015574      0.100113
      7.64279      2.02159     -8.02933         0.028286      0.109195      0.189819
      1.49487      2.80233     -5.07319         0.025300      0.423340     -0.072298
      1.53209      1.41468    -10.65934         0.018545      0.425081     -0.095928
      4.53552      2.82715     -5.03666        -0.006900      0.416928     -0.090538
      4.50806      1.44964    -10.63465        -0.015125      0.393286     -0.066646
      7.58677      2.88218     -5.03559         0.003187      0.398753     -0.064876
      7.60884      1.49119    -10.65562        -0.063559      0.362191     -0.091329
      9.10141      1.91589     -0.62045        -0.010960     -0.381905      0.040328
      2.99340      1.92105     -0.60925         0.018602     -0.397011      0.117452
      3.10197      0.30638     -6.29462        -0.375071     -0.401107     -0.248715
      6.06438      1.93504     -0.61447        -0.051091     -0.400606      0.070216
      6.13512      0.51154     -6.20892        -0.133698     -0.389915      0.075191
      1.81391     -0.07360     -7.30638         1.189171     -0.569306     -0.074895
 -----------------------------------------------------------------------------------
    total drift:                                0.059665      0.084054      0.000978


--------------------------------------------------------------------------------------------------------



  FREE ENERGIE OF THE ION-ELECTRON SYSTEM (eV)
  ---------------------------------------------------
  free  energy   TOTEN  =      -939.22082958 eV

  energy  without entropy=     -939.21305515  energy(sigma->0) =     -939.21694237
 


--------------------------------------------------------------------------------------------------------


    POTLOK:  cpu time      2.0205: real time      2.0274


--------------------------------------------------------------------------------------------------------


 writing wavefunctions
     LOOP+:  cpu time  18520.0948: real time  18519.3503
    4ORBIT:  cpu time      0.0000: real time      0.0000

 total amount of memory used by VASP MPI-rank0  7418429. kBytes
=======================================================================

   base      :      30000. kBytes
   nonlr-proj:      46527. kBytes
   fftplans  :      51012. kBytes
   grid      :     102973. kBytes
   one-center:       1850. kBytes
   HF        :        194. kBytes
   wavefun   :    6956640. kBytes
   fock_wrk  :     229233. kBytes
 
  
  
 General timing and accounting informations for this job:
 ========================================================
  
                  Total CPU time used (sec):    18551.885
                            User time (sec):    18538.504
                          System time (sec):       13.380
                         Elapsed time (sec):    18553.286
  
                   Maximum memory used (kb):    13201856.
                   Average memory used (kb):          N/A
  
                          Minor page faults:      4882118
                          Major page faults:            3
                 Voluntary context switches:       356668
