<?xml version="1.0" encoding="ISO-8859-1"?>
<modeling>
 <generator>
  <i name="program" type="string">vasp </i>
  <i name="version" type="string">6.4.2  </i>
  <i name="subversion" type="string">20Jul23 (build Nov 12 2023 22:16:35) complex                          parallel </i>
  <i name="platform" type="string">LinuxNV </i>
  <i name="date" type="string">2025 03 17 </i>
  <i name="time" type="string">16:25:19 </i>
 </generator>
 <incar>
  <i type="int" name="ISTART">     0</i>
  <i type="string" name="PREC">Normal</i>
  <i type="string" name="ALGO">All</i>
  <i type="int" name="ISPIN">     1</i>
  <i type="int" name="ICHARG">     0</i>
  <i type="int" name="NELM">   500</i>
  <i type="int" name="IBRION">    -1</i>
  <i name="EDIFF">      0.00001000</i>
  <i name="EDIFFG">     -0.00500000</i>
  <i type="int" name="NSW">     0</i>
  <i type="int" name="ISIF">     2</i>
  <i name="ENCUT">    450.00000000</i>
  <i name="NELECT">   1056.00000000</i>
  <i type="string" name="LREAL">Auto</i>
  <i type="logical" name="LPLANE"> T  </i>
  <i name="TIME">      0.40000000</i>
  <i type="int" name="ISMEAR">     0</i>
  <i name="SIGMA">      0.05000000</i>
  <i type="logical" name="LWAVE"> T  </i>
  <i type="logical" name="LCHARG"> T  </i>
  <i name="HFSCREEN">      0.20000000</i>
  <i type="logical" name="LHFCALC"> T  </i>
  <i type="int" name="LMAXFOCK">     4</i>
  <i name="AEXX">      0.32000000</i>
  <i type="string" name="PRECFOCK">Fast</i>
 </incar>
 <primitive_cell>
  <structure name="primitive_cell" >
   <crystal>
    <varray name="basis" >
     <v>       0.00000000      12.28047342       0.00000000 </v>
     <v>       9.14270205       0.00000000       0.00000000 </v>
     <v>       0.00000000      -2.76826177     -11.30069772 </v>
    </varray>
    <i name="volume">   1268.80515525 </i>
    <varray name="rec_basis" >
     <v>       0.00000000       0.08143009      -0.01994742 </v>
     <v>       0.10937686      -0.00000000       0.00000000 </v>
     <v>       0.00000000       0.00000000      -0.08849011 </v>
    </varray>
   </crystal>
   <varray name="positions" >
    <v>       0.67205140       0.99719916       0.15209277 </v>
    <v>       0.64348254       0.00356456       0.65362779 </v>
    <v>       0.66671193       0.32795040       0.15742241 </v>
    <v>       0.64895119       0.33169736       0.65282488 </v>
    <v>       0.66399727       0.66524847       0.16149848 </v>
    <v>       0.64135127       0.67075779       0.65349832 </v>
    <v>       0.84379181       0.15667965       0.34336112 </v>
    <v>       0.83208096       0.16754165       0.84004577 </v>
    <v>       0.84160750       0.49701055       0.34489862 </v>
    <v>       0.82851133       0.50033473       0.83505349 </v>
    <v>       0.84032200       0.82506994       0.34691642 </v>
    <v>       0.82738990       0.83379530       0.83815923 </v>
    <v>       0.58762627       0.13627206       0.39525004 </v>
    <v>       0.58442141       0.16137839       0.89936124 </v>
    <v>       0.58515383       0.50058142       0.39279236 </v>
    <v>       0.59240506       0.49879089       0.90372305 </v>
    <v>       0.58761860       0.86892755       0.39683827 </v>
    <v>       0.58755730       0.83152770       0.90295247 </v>
    <v>       0.91679680       0.96383866       0.09970835 </v>
    <v>       0.90937054       0.99662848       0.60404488 </v>
    <v>       0.91233555       0.33271036       0.10061453 </v>
    <v>       0.90504583       0.35623445       0.59873056 </v>
    <v>       0.90137445       0.69776427       0.09245824 </v>
    <v>       0.89789487       0.62511505       0.60133366 </v>
    <v>       0.15664598       0.18693100       0.15290036 </v>
    <v>       0.14643686       0.50854440       0.16912310 </v>
    <v>       0.18666873       0.45898060       0.65245456 </v>
    <v>       0.16505876       0.84852204       0.15104524 </v>
    <v>       0.15184873       0.82385965       0.66645721 </v>
    <v>       0.34588678       0.00850804       0.34630906 </v>
    <v>       0.33364819       0.99980796       0.84972782 </v>
    <v>       0.34107286       0.34129092       0.33381614 </v>
    <v>       0.34043644       0.32620520       0.85821611 </v>
    <v>       0.35011887       0.66833193       0.33521277 </v>
    <v>       0.33838536       0.66839753       0.85795713 </v>
    <v>       0.08769269       0.97294984       0.36621873 </v>
    <v>       0.08168930       0.00669190       0.89260323 </v>
    <v>       0.09273149       0.29956510       0.44319709 </v>
    <v>       0.08277799       0.34236445       0.88474614 </v>
    <v>       0.09253591       0.64816376       0.41454609 </v>
    <v>       0.07952681       0.67224724       0.89557832 </v>
    <v>       0.42229862       0.15543971       0.11700224 </v>
    <v>       0.37369639       0.17904319       0.60241522 </v>
    <v>       0.41751594       0.49684536       0.11087790 </v>
    <v>       0.40217206       0.49531182       0.60513546 </v>
    <v>       0.42454419       0.84728148       0.11777391 </v>
    <v>       0.38159786       0.85064632       0.59851910 </v>
    <v>       0.99088337       0.15704684       0.11476035 </v>
    <v>       0.97606463       0.17347763       0.61960515 </v>
    <v>       0.98240231       0.51476675       0.12451081 </v>
    <v>       0.03647329       0.48998329       0.62931164 </v>
    <v>       0.04216461       0.87150728       0.21558428 </v>
    <v>       0.98504271       0.81535170       0.63742673 </v>
    <v>       0.44166809       0.01050076       0.24652805 </v>
    <v>       0.50227643       0.99375474       0.86331616 </v>
    <v>       0.51445912       0.32125450       0.35903257 </v>
    <v>       0.50553958       0.33387251       0.89024767 </v>
    <v>       0.51711230       0.68228606       0.35834413 </v>
    <v>       0.50488069       0.66365392       0.88810605 </v>
    <v>       0.67572752       0.15937667       0.27386733 </v>
    <v>       0.66383230       0.16349656       0.78067380 </v>
    <v>       0.67351370       0.49525851       0.27860447 </v>
    <v>       0.65913709       0.50105570       0.77606829 </v>
    <v>       0.67143271       0.83626757       0.27422819 </v>
    <v>       0.65973581       0.83622363       0.77897383 </v>
    <v>       0.83185824       0.98980912       0.21932392 </v>
    <v>       0.81803084       0.99715314       0.71597966 </v>
    <v>       0.83051807       0.32885458       0.21685876 </v>
    <v>       0.81440541       0.32990705       0.72361475 </v>
    <v>       0.82759209       0.66369838       0.22227414 </v>
    <v>       0.81155535       0.67360860       0.71917544 </v>
    <v>       0.82630909       0.99129240       0.44664625 </v>
    <v>       0.82565114       0.00378342       0.94031007 </v>
    <v>       0.82667868       0.32297183       0.43582585 </v>
    <v>       0.82908501       0.33657485       0.94511977 </v>
    <v>       0.81498406       0.66505542       0.44192702 </v>
    <v>       0.81448920       0.65914226       0.93578105 </v>
    <v>       0.68149426       0.16772485       0.04884631 </v>
    <v>       0.66598731       0.16960948       0.55577703 </v>
    <v>       0.67486531       0.49889158       0.05777025 </v>
    <v>       0.65066374       0.50288024       0.55267217 </v>
    <v>       0.68019379       0.82450379       0.05178906 </v>
    <v>       0.65847283       0.83345318       0.55758246 </v>
    <v>       0.51757961       0.99958142       0.08182833 </v>
    <v>       0.48331353       0.01013405       0.61996138 </v>
    <v>       0.50631962       0.32932276       0.12415600 </v>
    <v>       0.49422064       0.32941984       0.63641606 </v>
    <v>       0.50311446       0.66872956       0.12546345 </v>
    <v>       0.47912880       0.67696868       0.62876493 </v>
    <v>       0.99676722       0.13862761       0.35164385 </v>
    <v>       0.99508351       0.17335692       0.86492905 </v>
    <v>       0.99749153       0.49411403       0.36997710 </v>
    <v>       0.99044908       0.50722402       0.85911000 </v>
    <v>       0.99960916       0.81217050       0.40865760 </v>
    <v>       0.99136552       0.83954554       0.87876166 </v>
    <v>       0.19845747       0.03261524       0.27243296 </v>
    <v>       0.17075516       0.98096913       0.79281070 </v>
    <v>       0.16854417       0.34220833       0.28166202 </v>
    <v>       0.18215672       0.33526430       0.79252090 </v>
    <v>       0.18057691       0.65411350       0.30278026 </v>
    <v>       0.17311891       0.67518490       0.79536237 </v>
    <v>       0.31583361       0.23006134       0.18948465 </v>
    <v>       0.35054803       0.16579010       0.75372481 </v>
    <v>       0.32449344       0.51076049       0.21341829 </v>
    <v>       0.34109752       0.50984166       0.74689724 </v>
    <v>       0.31542636       0.79861247       0.20030342 </v>
    <v>       0.33501725       0.82648167       0.74268635 </v>
    <v>       0.36821849       0.17523390       0.43632515 </v>
    <v>       0.33230057       0.15970305       0.96300947 </v>
    <v>       0.37767623       0.50666832       0.43766172 </v>
    <v>       0.33006270       0.49890906       0.96077672 </v>
    <v>       0.37256393       0.83738146       0.43219820 </v>
    <v>       0.33650273       0.83529424       0.96306513 </v>
    <v>       0.16049628       0.01123017       0.04802248 </v>
    <v>       0.13723469       0.35343193       0.04612562 </v>
    <v>       0.27951800       0.35680010       0.56975342 </v>
    <v>       0.13932242       0.67419706       0.05655192 </v>
    <v>       0.19210324       0.65326743       0.56275133 </v>
    <v>       0.20667706       0.99952146       0.54713697 </v>
   </varray>
  </structure>
  <varray name="primitive_index" >
   <v type="int" >        1 </v>
   <v type="int" >        2 </v>
   <v type="int" >        3 </v>
   <v type="int" >        4 </v>
   <v type="int" >        5 </v>
   <v type="int" >        6 </v>
   <v type="int" >        7 </v>
   <v type="int" >        8 </v>
   <v type="int" >        9 </v>
   <v type="int" >       10 </v>
   <v type="int" >       11 </v>
   <v type="int" >       12 </v>
   <v type="int" >       13 </v>
   <v type="int" >       14 </v>
   <v type="int" >       15 </v>
   <v type="int" >       16 </v>
   <v type="int" >       17 </v>
   <v type="int" >       18 </v>
   <v type="int" >       19 </v>
   <v type="int" >       20 </v>
   <v type="int" >       21 </v>
   <v type="int" >       22 </v>
   <v type="int" >       23 </v>
   <v type="int" >       24 </v>
   <v type="int" >       25 </v>
   <v type="int" >       26 </v>
   <v type="int" >       27 </v>
   <v type="int" >       28 </v>
   <v type="int" >       29 </v>
   <v type="int" >       30 </v>
   <v type="int" >       31 </v>
   <v type="int" >       32 </v>
   <v type="int" >       33 </v>
   <v type="int" >       34 </v>
   <v type="int" >       35 </v>
   <v type="int" >       36 </v>
   <v type="int" >       37 </v>
   <v type="int" >       38 </v>
   <v type="int" >       39 </v>
   <v type="int" >       40 </v>
   <v type="int" >       41 </v>
   <v type="int" >       42 </v>
   <v type="int" >       43 </v>
   <v type="int" >       44 </v>
   <v type="int" >       45 </v>
   <v type="int" >       46 </v>
   <v type="int" >       47 </v>
   <v type="int" >       48 </v>
   <v type="int" >       49 </v>
   <v type="int" >       50 </v>
   <v type="int" >       51 </v>
   <v type="int" >       52 </v>
   <v type="int" >       53 </v>
   <v type="int" >       54 </v>
   <v type="int" >       55 </v>
   <v type="int" >       56 </v>
   <v type="int" >       57 </v>
   <v type="int" >       58 </v>
   <v type="int" >       59 </v>
   <v type="int" >       60 </v>
   <v type="int" >       61 </v>
   <v type="int" >       62 </v>
   <v type="int" >       63 </v>
   <v type="int" >       64 </v>
   <v type="int" >       65 </v>
   <v type="int" >       66 </v>
   <v type="int" >       67 </v>
   <v type="int" >       68 </v>
   <v type="int" >       69 </v>
   <v type="int" >       70 </v>
   <v type="int" >       71 </v>
   <v type="int" >       72 </v>
   <v type="int" >       73 </v>
   <v type="int" >       74 </v>
   <v type="int" >       75 </v>
   <v type="int" >       76 </v>
   <v type="int" >       77 </v>
   <v type="int" >       78 </v>
   <v type="int" >       79 </v>
   <v type="int" >       80 </v>
   <v type="int" >       81 </v>
   <v type="int" >       82 </v>
   <v type="int" >       83 </v>
   <v type="int" >       84 </v>
   <v type="int" >       85 </v>
   <v type="int" >       86 </v>
   <v type="int" >       87 </v>
   <v type="int" >       88 </v>
   <v type="int" >       89 </v>
   <v type="int" >       90 </v>
   <v type="int" >       91 </v>
   <v type="int" >       92 </v>
   <v type="int" >       93 </v>
   <v type="int" >       94 </v>
   <v type="int" >       95 </v>
   <v type="int" >       96 </v>
   <v type="int" >       97 </v>
   <v type="int" >       98 </v>
   <v type="int" >       99 </v>
   <v type="int" >      100 </v>
   <v type="int" >      101 </v>
   <v type="int" >      102 </v>
   <v type="int" >      103 </v>
   <v type="int" >      104 </v>
   <v type="int" >      105 </v>
   <v type="int" >      106 </v>
   <v type="int" >      107 </v>
   <v type="int" >      108 </v>
   <v type="int" >      109 </v>
   <v type="int" >      110 </v>
   <v type="int" >      111 </v>
   <v type="int" >      112 </v>
   <v type="int" >      113 </v>
   <v type="int" >      114 </v>
   <v type="int" >      115 </v>
   <v type="int" >      116 </v>
   <v type="int" >      117 </v>
   <v type="int" >      118 </v>
   <v type="int" >      119 </v>
  </varray>
 </primitive_cell>
 <kpoints>
  <generation param="Gamma">
   <v type="int" name="divisions">       2        2        2 </v>
   <v name="usershift">      0.00000000       0.00000000       0.00000000 </v>
   <v name="genvec1">      0.50000000       0.00000000       0.00000000 </v>
   <v name="genvec2">      0.00000000       0.50000000       0.00000000 </v>
   <v name="genvec3">      0.00000000       0.00000000       0.50000000 </v>
   <v name="shift">      0.00000000       0.00000000       0.00000000 </v>
  </generation>
  <varray name="kpointlist" >
   <v>       0.00000000       0.00000000       0.00000000 </v>
   <v>       0.50000000       0.00000000       0.00000000 </v>
   <v>       0.00000000       0.50000000       0.00000000 </v>
   <v>       0.50000000       0.50000000       0.00000000 </v>
   <v>       0.00000000       0.00000000       0.50000000 </v>
   <v>       0.50000000       0.00000000       0.50000000 </v>
   <v>       0.00000000       0.50000000       0.50000000 </v>
   <v>       0.50000000       0.50000000       0.50000000 </v>
  </varray>
  <varray name="weights" >
   <v>       0.12500000 </v>
   <v>       0.12500000 </v>
   <v>       0.12500000 </v>
   <v>       0.12500000 </v>
   <v>       0.12500000 </v>
   <v>       0.12500000 </v>
   <v>       0.12500000 </v>
   <v>       0.12500000 </v>
  </varray>
 </kpoints>
 <parameters>
  <separator name="general" >
   <i type="string" name="SYSTEM">unknown system</i>
   <i type="logical" name="LCOMPAT"> F  </i>
  </separator>
  <separator name="electronic" >
   <i type="string" name="PREC">normal</i>
   <i name="ENMAX">    450.00000000</i>
   <i name="ENAUG">    605.39200000</i>
   <i name="EDIFF">      0.00001000</i>
   <i type="int" name="IALGO">    58</i>
   <i type="int" name="IWAVPR">    10</i>
   <i type="int" name="NBANDS">   633</i>
   <i type="int" name="NBANDSLOW">    -1</i>
   <i type="int" name="NBANDSHIGH">    -1</i>
   <i name="NELECT">   1056.00000000</i>
   <i type="int" name="TURBO">     0</i>
   <i type="int" name="IRESTART">     0</i>
   <i type="int" name="NREBOOT">     0</i>
   <i type="int" name="NMIN">     0</i>
   <i name="EREF">      0.00000000</i>
   <separator name="electronic smearing" >
    <i type="int" name="ISMEAR">     0</i>
    <i name="SIGMA">      0.05000000</i>
    <i name="KSPACING">      0.50000000</i>
    <i type="logical" name="KGAMMA"> T  </i>
    <i type="logical" name="KBLOWUP"> T  </i>
   </separator>
   <separator name="electronic projectors" >
    <i type="logical" name="LREAL"> T  </i>
    <v name="ROPT">     -0.00050000     -0.00050000     -0.00050000</v>
    <i type="int" name="LMAXPAW">  -100</i>
    <i type="int" name="LMAXMIX">     2</i>
    <i type="logical" name="NLSPLINE"> F  </i>
   </separator>
   <separator name="electronic startup" >
    <i type="int" name="ISTART">     0</i>
    <i type="int" name="ICHARG">     0</i>
    <i type="int" name="INIWAV">     1</i>
   </separator>
   <separator name="electronic spin" >
    <i type="int" name="ISPIN">     1</i>
    <i type="logical" name="LNONCOLLINEAR"> F  </i>
    <v name="MAGMOM">      1.00000000      1.00000000      1.00000000      1.00000000      1.00000000      1.00000000      1.00000000      1.00000000      1.00000000      1.00000000      1.00000000      1.00000000      1.00000000      1.00000000      1.00000000      1.00000000      1.00000000      1.00000000      1.00000000      1.00000000
      1.00000000      1.00000000      1.00000000      1.00000000      1.00000000      1.00000000      1.00000000      1.00000000      1.00000000      1.00000000      1.00000000      1.00000000      1.00000000      1.00000000      1.00000000      1.00000000      1.00000000      1.00000000      1.00000000      1.00000000
      1.00000000      1.00000000      1.00000000      1.00000000      1.00000000      1.00000000      1.00000000      1.00000000      1.00000000      1.00000000      1.00000000      1.00000000      1.00000000      1.00000000      1.00000000      1.00000000      1.00000000      1.00000000      1.00000000      1.00000000
      1.00000000      1.00000000      1.00000000      1.00000000      1.00000000      1.00000000      1.00000000      1.00000000      1.00000000      1.00000000      1.00000000      1.00000000      1.00000000      1.00000000      1.00000000      1.00000000      1.00000000      1.00000000      1.00000000      1.00000000
      1.00000000      1.00000000      1.00000000      1.00000000      1.00000000      1.00000000      1.00000000      1.00000000      1.00000000      1.00000000      1.00000000      1.00000000      1.00000000      1.00000000      1.00000000      1.00000000      1.00000000      1.00000000      1.00000000      1.00000000
      1.00000000      1.00000000      1.00000000      1.00000000      1.00000000      1.00000000      1.00000000      1.00000000      1.00000000      1.00000000      1.00000000      1.00000000      1.00000000      1.00000000      1.00000000      1.00000000      1.00000000      1.00000000      1.00000000</v>
    <i name="NUPDOWN">     -1.00000000</i>
    <i type="logical" name="LSORBIT"> F  </i>
    <v name="SAXIS">      0.00000000      0.00000000      1.00000000</v>
    <i type="logical" name="LSPIRAL"> F  </i>
    <v name="QSPIRAL">      0.00000000      0.00000000      0.00000000</v>
    <i type="logical" name="LZEROZ"> F  </i>
   </separator>
   <separator name="electronic exchange-correlation" >
    <i type="logical" name="LASPH"> F  </i>
    <i type="logical" name="LMETAGGA"> F  </i>
   </separator>
   <separator name="electronic convergence" >
    <i type="int" name="NELM">   500</i>
    <i type="int" name="NELMDL">    -5</i>
    <i type="int" name="NELMIN">     2</i>
    <i name="ENINI">    450.00000000</i>
    <separator name="electronic convergence detail" >
     <i type="logical" name="LDIAG"> T  </i>
     <i type="logical" name="LSUBROT"> F  </i>
     <i name="WEIMIN">      0.00000000</i>
     <i name="EBREAK">      0.00000000</i>
     <i name="DEPER">      0.30000000</i>
     <i type="int" name="NRMM">     4</i>
     <i name="TIME">      0.40000000</i>
    </separator>
   </separator>
   <separator name="electronic mixer" >
    <i name="AMIX">      0.40000000</i>
    <i name="BMIX">      1.00000000</i>
    <i name="AMIN">      0.10000000</i>
    <i name="AMIX_MAG">      1.60000000</i>
    <i name="BMIX_MAG">      1.00000000</i>
    <separator name="electronic mixer details" >
     <i type="int" name="IMIX">     4</i>
     <i type="logical" name="MIXFIRST"> F  </i>
     <i type="int" name="MAXMIX">   -45</i>
     <i name="WC">    100.00000000</i>
     <i type="int" name="INIMIX">     1</i>
     <i type="int" name="MIXPRE">     1</i>
     <i type="int" name="MREMOVE">     5</i>
    </separator>
   </separator>
   <separator name="electronic dipolcorrection" >
    <i type="logical" name="LDIPOL"> F  </i>
    <i type="logical" name="LMONO"> F  </i>
    <i type="int" name="IDIPOL">     0</i>
    <i name="EPSILON">      1.00000000</i>
    <v name="DIPOL">   -100.00000000   -100.00000000   -100.00000000</v>
    <i name="EFIELD">      0.00000000</i>
   </separator>
  </separator>
  <separator name="grids" >
   <i type="int" name="NGX">    64</i>
   <i type="int" name="NGY">    48</i>
   <i type="int" name="NGZ">    60</i>
   <i type="int" name="NGXF">   128</i>
   <i type="int" name="NGYF">    96</i>
   <i type="int" name="NGZF">   120</i>
   <i type="logical" name="ADDGRID"> F  </i>
  </separator>
  <separator name="ionic" >
   <i type="int" name="NSW">     0</i>
   <i type="int" name="IBRION">    -1</i>
   <i type="int" name="MDALGO">     0</i>
   <i type="int" name="ISIF">     2</i>
   <i name="PSTRESS">      0.00000000</i>
   <i name="EDIFFG">     -0.00500000</i>
   <i type="int" name="NFREE">     0</i>
   <i name="POTIM">      0.50000000</i>
   <i name="SMASS">     -3.00000000</i>
   <i name="SCALEE">      1.00000000</i>
  </separator>
  <separator name="ionic md" >
   <i name="TEBEG">      0.00010000</i>
   <i name="TEEND">      0.00010000</i>
   <i type="int" name="NBLOCK">     1</i>
   <i type="int" name="KBLOCK">     1</i>
   <i type="int" name="NPACO">   256</i>
   <i name="APACO">     10.00000000</i>
  </separator>
  <separator name="symmetry" >
   <i type="int" name="ISYM">     3</i>
   <i name="SYMPREC">      0.00001000</i>
  </separator>
  <separator name="dos" >
   <i type="int" name="LORBIT">     0</i>
   <v name="RWIGS">     -1.00000000     -1.00000000     -1.00000000</v>
   <i type="int" name="NEDOS">   301</i>
   <i name="EMIN">     10.00000000</i>
   <i name="EMAX">    -10.00000000</i>
   <i name="EFERMI">      0.00000000</i>
  </separator>
  <separator name="writing" >
   <i type="int" name="NWRITE">     2</i>
   <i type="logical" name="LWAVE"> T  </i>
   <i type="logical" name="LDOWNSAMPLE"> F  </i>
   <i type="logical" name="LCHARG"> T  </i>
   <i type="logical" name="LPARD"> F  </i>
   <i type="logical" name="LVTOT"> F  </i>
   <i type="logical" name="LVHAR"> F  </i>
   <i type="logical" name="LELF"> F  </i>
   <i type="logical" name="LOPTICS"> F  </i>
   <v name="STM">      0.00000000      0.00000000      0.00000000      0.00000000      0.00000000      0.00000000      0.00000000</v>
  </separator>
  <separator name="performance" >
   <i type="int" name="NPAR">     1</i>
   <i type="int" name="NSIM">     4</i>
   <i type="int" name="NBLK">    -1</i>
   <i type="logical" name="LPLANE"> T  </i>
   <i type="logical" name="LSCALAPACK"> T  </i>
   <i type="logical" name="LSCAAWARE"> F  </i>
   <i type="logical" name="LSCALU"> F  </i>
   <i type="logical" name="LASYNC"> F  </i>
   <i type="logical" name="LORBITALREAL"> F  </i>
  </separator>
  <separator name="miscellaneous" >
   <i type="int" name="IDIOT">     3</i>
   <i type="int" name="PHON_NSTRUCT">    -1</i>
   <i type="logical" name="LMUSIC"> F  </i>
   <v name="POMASS">     69.72300000     16.00000000     30.97400000</v>
   <v name="DARWINR">      0.00000000      0.00000000      0.00000000</v>
   <v name="DARWINV">      1.00000000      1.00000000      1.00000000</v>
   <i type="logical" name="LCORR"> T  </i>
  </separator>
  <i type="logical" name="GGA_COMPAT"> T  </i>
  <i type="logical" name="LBERRY"> F  </i>
  <i type="int" name="ICORELEVEL">     0</i>
  <i type="logical" name="LDAU"> F  </i>
  <i type="int" name="I_CONSTRAINED_M">     0</i>
  <separator name="electronic exchange-correlation" >
   <i type="string" name="GGA">--</i>
   <i type="int" name="VOSKOWN">     0</i>
   <i type="logical" name="LHFCALC"> T  </i>
   <i type="string" name="PRECFOCK">fast</i>
   <i type="logical" name="LSYMGRAD"> F  </i>
   <i type="logical" name="LHFONE"> F  </i>
   <i type="logical" name="LRHFCALC"> F  </i>
   <i type="logical" name="LTHOMAS"> F  </i>
   <i type="logical" name="LMODELHF"> F  </i>
   <i type="logical" name="LFOCKACE"> T  </i>
   <i name="ENCUT4O">     -1.00000000</i>
   <i type="int" name="EXXOEP">     0</i>
   <i type="int" name="FOURORBIT">     0</i>
   <i name="AEXX">      0.32000000</i>
   <i name="HFALPHA">     -1.00000000</i>
   <i name="MCALPHA">      0.00000000</i>
   <i name="ALDAX">      0.68000000</i>
   <i name="AGGAX">      0.68000000</i>
   <i name="ALDAC">      1.00000000</i>
   <i name="AGGAC">      1.00000000</i>
   <i type="int" name="NKREDX">     1</i>
   <i type="int" name="NKREDY">     1</i>
   <i type="int" name="NKREDZ">     1</i>
   <i type="logical" name="SHIFTRED"> F  </i>
   <i type="logical" name="ODDONLY"> F  </i>
   <i type="logical" name="EVENONLY"> F  </i>
   <i type="int" name="LMAXFOCK">     4</i>
   <i type="int" name="NMAXFOCKAE">     1</i>
   <i type="logical" name="LFOCKAEDFT"> F  </i>
   <i name="HFSCREEN">      0.20000000</i>
   <i name="HFSCREENC">      0.20000000</i>
   <i type="int" name="NBANDSGWLOW">     1</i>
  </separator>
  <separator name="vdW DFT" >
   <i type="logical" name="LUSE_VDW"> F  </i>
   <i type="int" name="IVDW_NL">     1</i>
   <i type="logical" name="LSPIN_VDW"> F  </i>
   <i name="Zab_VDW">     -0.84910000</i>
   <i name="PARAM1">      0.12340000</i>
   <i name="PARAM2">      1.00000000</i>
   <i name="PARAM3">      0.00000000</i>
  </separator>
  <separator name="model GW" >
   <i type="int" name="MODEL_GW">     0</i>
   <i name="MODEL_EPS0">      6.39733692</i>
   <i name="MODEL_ALPHA">      1.00000000</i>
  </separator>
  <separator name="linear response parameters" >
   <i type="logical" name="LEPSILON"> F  </i>
   <i type="logical" name="LRPA"> F  </i>
   <i type="logical" name="LNABLA"> F  </i>
   <i type="logical" name="LVEL"> F  </i>
   <i name="CSHIFT">      0.10000000</i>
   <i name="OMEGAMAX">     -1.00000000</i>
   <i name="DEG_THRESHOLD">      0.00200000</i>
   <i name="RTIME">     -0.10000000</i>
   <i name="WPLASMAI">      0.00000000</i>
   <v name="DFIELD">      0.00000000      0.00000000      0.00000000</v>
   <v name="WPLASMA">      0.00000000      0.00000000      0.00000000      0.00000000      0.00000000      0.00000000      0.00000000      0.00000000      0.00000000</v>
  </separator>
  <separator name="orbital magnetization" >
   <i type="logical" name="NUCIND"> F  </i>
   <v name="MAGPOS">      0.00000000      0.00000000      0.00000000</v>
   <i type="logical" name="LNICSALL"> T  </i>
   <i type="logical" name="ORBITALMAG"> F  </i>
   <i type="logical" name="LMAGBLOCH"> F  </i>
   <i type="logical" name="LCHIMAG"> F  </i>
   <i type="logical" name="LGAUGE"> T  </i>
   <i type="int" name="MAGATOM">     0</i>
   <v name="MAGDIPOL">      0.00000000      0.00000000      0.00000000</v>
   <v name="AVECCONST">      0.00000000      0.00000000      0.00000000</v>
  </separator>
  <separator name="response functions" >
   <i type="logical" name="LALL_IN_ONE"> F  </i>
   <i type="int" name="IALL_IN_ONE">    -1</i>
   <i type="int" name="NBANDS_WAVE">    -1</i>
   <i type="logical" name="LFINITE_TEMPERATURE"> F  </i>
   <i type="logical" name="LADDER"> F  </i>
   <i type="logical" name="LRPAFORCE"> F  </i>
   <i type="logical" name="LFXC"> F  </i>
   <i type="logical" name="LHARTREE"> T  </i>
   <i type="int" name="IBSE">     0</i>
   <v type="int" name="KPOINT">    -1     0     0     0</v>
   <i type="logical" name="LTCTC"> F  </i>
   <i type="logical" name="LTCTE"> F  </i>
   <i type="logical" name="LTETE"> F  </i>
   <i type="logical" name="LTRIPLET"> F  </i>
   <i type="logical" name="LFXCEPS"> F  </i>
   <i type="logical" name="LFXHEG"> F  </i>
   <i type="int" name="NATURALO">     2</i>
   <i type="logical" name="LHOLEGF"> F  </i>
   <i type="logical" name="L2ORDER"> F  </i>
   <i type="logical" name="LDMP1"> F  </i>
   <i type="logical" name="LMP2LT"> F  </i>
   <i type="logical" name="LSMP2LT"> F  </i>
   <i type="logical" name="LGWLF"> F  </i>
   <i name="ENCUTGW">     -1.60000002</i>
   <i name="ENCUTGWSOFT">     -1.60000002</i>
   <i name="ENCUTLF">     -1.00000000</i>
   <i type="logical" name="LESF_SPLINES"> F  </i>
   <i type="int" name="LMAXMP2">    -1</i>
   <i name="SCISSOR">      0.00000000</i>
   <i type="int" name="NOMEGA">     0</i>
   <i type="int" name="NOMEGAR">     0</i>
   <i type="int" name="NBANDSGW">    -1</i>
   <i type="int" name="NBANDSO">    -1</i>
   <i type="int" name="NBANDSV">    -1</i>
   <i type="int" name="NELMGW">     1</i>
   <i type="int" name="NELMHF">     1</i>
   <i type="int" name="DIM">     3</i>
   <i type="int" name="IESPILON">     4</i>
   <i type="int" name="ANTIRES">     0</i>
   <i name="OMEGAMAX">    -30.00000000</i>
   <i name="OMEGAMIN">    -30.00000000</i>
   <i name="OMEGATL">   -200.00000000</i>
   <i type="int" name="OMEGAGRID">     0</i>
   <i name="CSHIFT">     -0.10000000</i>
   <i type="logical" name="LSELFENERGY"> F  </i>
   <i type="logical" name="LSPECTRAL"> F  </i>
   <i type="logical" name="LSPECTRALGW"> F  </i>
   <i type="logical" name="LSINGLES"> F  </i>
   <i type="logical" name="LFERMIGW"> F  </i>
   <i type="logical" name="ODDONLYGW"> F  </i>
   <i type="logical" name="EVENONLYGW"> F  </i>
   <i type="int" name="NKREDLFX">     1</i>
   <i type="int" name="NKREDLFY">     1</i>
   <i type="int" name="NKREDLFZ">     1</i>
   <i type="int" name="MAXMEM">  2800</i>
   <i type="int" name="TELESCOPE">     0</i>
   <i type="int" name="NTAUPAR">    -1</i>
   <i type="int" name="NOMEGAPAR">    -1</i>
   <i name="DAMP_NEWTON">      0.80000001</i>
   <i name="LAMBDA">      1.00000000</i>
  </separator>
  <separator name="External order field" >
   <i name="OFIELD_KAPPA">      0.00000000</i>
   <v name="OFIELD_K">      0.00000000      0.00000000      0.00000000</v>
   <i name="OFIELD_Q6_NEAR">      0.00000000</i>
   <i name="OFIELD_Q6_FAR">      0.00000000</i>
   <i name="OFIELD_A">      0.00000000</i>
  </separator>
  <separator name="optional k-points parameters" >
   <i type="int" name="KPOINTS_OPT_MODE">     1</i>
   <i type="logical" name="LKPOINTS_OPT"> F  </i>
  </separator>
 </parameters>
 <atominfo>
  <atoms>     119 </atoms>
  <types>       3 </types>
  <array name="atoms" >
   <dimension dim="1">ion</dimension>
   <field type="string">element</field>
   <field type="int">atomtype</field>
   <set>
    <rc><c>Ga</c><c>   1</c></rc>
    <rc><c>Ga</c><c>   1</c></rc>
    <rc><c>Ga</c><c>   1</c></rc>
    <rc><c>Ga</c><c>   1</c></rc>
    <rc><c>Ga</c><c>   1</c></rc>
    <rc><c>Ga</c><c>   1</c></rc>
    <rc><c>Ga</c><c>   1</c></rc>
    <rc><c>Ga</c><c>   1</c></rc>
    <rc><c>Ga</c><c>   1</c></rc>
    <rc><c>Ga</c><c>   1</c></rc>
    <rc><c>Ga</c><c>   1</c></rc>
    <rc><c>Ga</c><c>   1</c></rc>
    <rc><c>Ga</c><c>   1</c></rc>
    <rc><c>Ga</c><c>   1</c></rc>
    <rc><c>Ga</c><c>   1</c></rc>
    <rc><c>Ga</c><c>   1</c></rc>
    <rc><c>Ga</c><c>   1</c></rc>
    <rc><c>Ga</c><c>   1</c></rc>
    <rc><c>Ga</c><c>   1</c></rc>
    <rc><c>Ga</c><c>   1</c></rc>
    <rc><c>Ga</c><c>   1</c></rc>
    <rc><c>Ga</c><c>   1</c></rc>
    <rc><c>Ga</c><c>   1</c></rc>
    <rc><c>Ga</c><c>   1</c></rc>
    <rc><c>Ga</c><c>   1</c></rc>
    <rc><c>Ga</c><c>   1</c></rc>
    <rc><c>Ga</c><c>   1</c></rc>
    <rc><c>Ga</c><c>   1</c></rc>
    <rc><c>Ga</c><c>   1</c></rc>
    <rc><c>Ga</c><c>   1</c></rc>
    <rc><c>Ga</c><c>   1</c></rc>
    <rc><c>Ga</c><c>   1</c></rc>
    <rc><c>Ga</c><c>   1</c></rc>
    <rc><c>Ga</c><c>   1</c></rc>
    <rc><c>Ga</c><c>   1</c></rc>
    <rc><c>Ga</c><c>   1</c></rc>
    <rc><c>Ga</c><c>   1</c></rc>
    <rc><c>Ga</c><c>   1</c></rc>
    <rc><c>Ga</c><c>   1</c></rc>
    <rc><c>Ga</c><c>   1</c></rc>
    <rc><c>Ga</c><c>   1</c></rc>
    <rc><c>Ga</c><c>   1</c></rc>
    <rc><c>Ga</c><c>   1</c></rc>
    <rc><c>Ga</c><c>   1</c></rc>
    <rc><c>Ga</c><c>   1</c></rc>
    <rc><c>Ga</c><c>   1</c></rc>
    <rc><c>Ga</c><c>   1</c></rc>
    <rc><c>O </c><c>   2</c></rc>
    <rc><c>O </c><c>   2</c></rc>
    <rc><c>O </c><c>   2</c></rc>
    <rc><c>O </c><c>   2</c></rc>
    <rc><c>O </c><c>   2</c></rc>
    <rc><c>O </c><c>   2</c></rc>
    <rc><c>O </c><c>   2</c></rc>
    <rc><c>O </c><c>   2</c></rc>
    <rc><c>O </c><c>   2</c></rc>
    <rc><c>O </c><c>   2</c></rc>
    <rc><c>O </c><c>   2</c></rc>
    <rc><c>O </c><c>   2</c></rc>
    <rc><c>O </c><c>   2</c></rc>
    <rc><c>O </c><c>   2</c></rc>
    <rc><c>O </c><c>   2</c></rc>
    <rc><c>O </c><c>   2</c></rc>
    <rc><c>O </c><c>   2</c></rc>
    <rc><c>O </c><c>   2</c></rc>
    <rc><c>O </c><c>   2</c></rc>
    <rc><c>O </c><c>   2</c></rc>
    <rc><c>O </c><c>   2</c></rc>
    <rc><c>O </c><c>   2</c></rc>
    <rc><c>O </c><c>   2</c></rc>
    <rc><c>O </c><c>   2</c></rc>
    <rc><c>O </c><c>   2</c></rc>
    <rc><c>O </c><c>   2</c></rc>
    <rc><c>O </c><c>   2</c></rc>
    <rc><c>O </c><c>   2</c></rc>
    <rc><c>O </c><c>   2</c></rc>
    <rc><c>O </c><c>   2</c></rc>
    <rc><c>O </c><c>   2</c></rc>
    <rc><c>O </c><c>   2</c></rc>
    <rc><c>O </c><c>   2</c></rc>
    <rc><c>O </c><c>   2</c></rc>
    <rc><c>O </c><c>   2</c></rc>
    <rc><c>O </c><c>   2</c></rc>
    <rc><c>O </c><c>   2</c></rc>
    <rc><c>O </c><c>   2</c></rc>
    <rc><c>O </c><c>   2</c></rc>
    <rc><c>O </c><c>   2</c></rc>
    <rc><c>O </c><c>   2</c></rc>
    <rc><c>O </c><c>   2</c></rc>
    <rc><c>O </c><c>   2</c></rc>
    <rc><c>O </c><c>   2</c></rc>
    <rc><c>O </c><c>   2</c></rc>
    <rc><c>O </c><c>   2</c></rc>
    <rc><c>O </c><c>   2</c></rc>
    <rc><c>O </c><c>   2</c></rc>
    <rc><c>O </c><c>   2</c></rc>
    <rc><c>O </c><c>   2</c></rc>
    <rc><c>O </c><c>   2</c></rc>
    <rc><c>O </c><c>   2</c></rc>
    <rc><c>O </c><c>   2</c></rc>
    <rc><c>O </c><c>   2</c></rc>
    <rc><c>O </c><c>   2</c></rc>
    <rc><c>O </c><c>   2</c></rc>
    <rc><c>O </c><c>   2</c></rc>
    <rc><c>O </c><c>   2</c></rc>
    <rc><c>O </c><c>   2</c></rc>
    <rc><c>O </c><c>   2</c></rc>
    <rc><c>O </c><c>   2</c></rc>
    <rc><c>O </c><c>   2</c></rc>
    <rc><c>O </c><c>   2</c></rc>
    <rc><c>O </c><c>   2</c></rc>
    <rc><c>O </c><c>   2</c></rc>
    <rc><c>O </c><c>   2</c></rc>
    <rc><c>O </c><c>   2</c></rc>
    <rc><c>O </c><c>   2</c></rc>
    <rc><c>O </c><c>   2</c></rc>
    <rc><c>O </c><c>   2</c></rc>
    <rc><c>O </c><c>   2</c></rc>
    <rc><c>P </c><c>   3</c></rc>
   </set>
  </array>
  <array name="atomtypes" >
   <dimension dim="1">type</dimension>
   <field type="int">atomspertype</field>
   <field type="string">element</field>
   <field>mass</field>
   <field>valence</field>
   <field type="string">pseudopotential</field>
   <set>
    <rc><c>  47</c><c>Ga</c><c>     69.72300000</c><c>     13.00000000</c><c>  PAW_PBE Ga_d 06Jul2010                </c></rc>
    <rc><c>  71</c><c>O </c><c>     16.00000000</c><c>      6.00000000</c><c>   PAW_PBE O 08Apr2002                  </c></rc>
    <rc><c>   1</c><c>P </c><c>     30.97400000</c><c>      5.00000000</c><c>  PAW_PBE P 06Sep2000                   </c></rc>
   </set>
  </array>
 </atominfo>
 <structure name="initialpos" >
  <crystal>
   <varray name="basis" >
    <v>       0.00000000      12.28047342       0.00000000 </v>
    <v>       9.14270205       0.00000000       0.00000000 </v>
    <v>       0.00000000      -2.76826177     -11.30069772 </v>
   </varray>
   <i name="volume">   1268.80515525 </i>
   <varray name="rec_basis" >
    <v>       0.00000000       0.08143009      -0.01994742 </v>
    <v>       0.10937686      -0.00000000       0.00000000 </v>
    <v>       0.00000000       0.00000000      -0.08849011 </v>
   </varray>
  </crystal>
  <varray name="positions" >
   <v>       0.67205140       0.99719916       0.15209277 </v>
   <v>       0.64348254       0.00356456       0.65362779 </v>
   <v>       0.66671193       0.32795040       0.15742241 </v>
   <v>       0.64895119       0.33169736       0.65282488 </v>
   <v>       0.66399727       0.66524847       0.16149848 </v>
   <v>       0.64135127       0.67075779       0.65349832 </v>
   <v>       0.84379181       0.15667965       0.34336112 </v>
   <v>       0.83208096       0.16754165       0.84004577 </v>
   <v>       0.84160750       0.49701055       0.34489862 </v>
   <v>       0.82851133       0.50033473       0.83505349 </v>
   <v>       0.84032200       0.82506994       0.34691642 </v>
   <v>       0.82738990       0.83379530       0.83815923 </v>
   <v>       0.58762627       0.13627206       0.39525004 </v>
   <v>       0.58442141       0.16137839       0.89936124 </v>
   <v>       0.58515383       0.50058142       0.39279236 </v>
   <v>       0.59240506       0.49879089       0.90372305 </v>
   <v>       0.58761860       0.86892755       0.39683827 </v>
   <v>       0.58755730       0.83152770       0.90295247 </v>
   <v>       0.91679680       0.96383866       0.09970835 </v>
   <v>       0.90937054       0.99662848       0.60404488 </v>
   <v>       0.91233555       0.33271036       0.10061453 </v>
   <v>       0.90504583       0.35623445       0.59873056 </v>
   <v>       0.90137445       0.69776427       0.09245824 </v>
   <v>       0.89789487       0.62511505       0.60133366 </v>
   <v>       0.15664598       0.18693100       0.15290036 </v>
   <v>       0.14643686       0.50854440       0.16912310 </v>
   <v>       0.18666873       0.45898060       0.65245456 </v>
   <v>       0.16505876       0.84852204       0.15104524 </v>
   <v>       0.15184873       0.82385965       0.66645721 </v>
   <v>       0.34588678       0.00850804       0.34630906 </v>
   <v>       0.33364819       0.99980796       0.84972782 </v>
   <v>       0.34107286       0.34129092       0.33381614 </v>
   <v>       0.34043644       0.32620520       0.85821611 </v>
   <v>       0.35011887       0.66833193       0.33521277 </v>
   <v>       0.33838536       0.66839753       0.85795713 </v>
   <v>       0.08769269       0.97294984       0.36621873 </v>
   <v>       0.08168930       0.00669190       0.89260323 </v>
   <v>       0.09273149       0.29956510       0.44319709 </v>
   <v>       0.08277799       0.34236445       0.88474614 </v>
   <v>       0.09253591       0.64816376       0.41454609 </v>
   <v>       0.07952681       0.67224724       0.89557832 </v>
   <v>       0.42229862       0.15543971       0.11700224 </v>
   <v>       0.37369639       0.17904319       0.60241522 </v>
   <v>       0.41751594       0.49684536       0.11087790 </v>
   <v>       0.40217206       0.49531182       0.60513546 </v>
   <v>       0.42454419       0.84728148       0.11777391 </v>
   <v>       0.38159786       0.85064632       0.59851910 </v>
   <v>       0.99088337       0.15704684       0.11476035 </v>
   <v>       0.97606463       0.17347763       0.61960515 </v>
   <v>       0.98240231       0.51476675       0.12451081 </v>
   <v>       0.03647329       0.48998329       0.62931164 </v>
   <v>       0.04216461       0.87150728       0.21558428 </v>
   <v>       0.98504271       0.81535170       0.63742673 </v>
   <v>       0.44166809       0.01050076       0.24652805 </v>
   <v>       0.50227643       0.99375474       0.86331616 </v>
   <v>       0.51445912       0.32125450       0.35903257 </v>
   <v>       0.50553958       0.33387251       0.89024767 </v>
   <v>       0.51711230       0.68228606       0.35834413 </v>
   <v>       0.50488069       0.66365392       0.88810605 </v>
   <v>       0.67572752       0.15937667       0.27386733 </v>
   <v>       0.66383230       0.16349656       0.78067380 </v>
   <v>       0.67351370       0.49525851       0.27860447 </v>
   <v>       0.65913709       0.50105570       0.77606829 </v>
   <v>       0.67143271       0.83626757       0.27422819 </v>
   <v>       0.65973581       0.83622363       0.77897383 </v>
   <v>       0.83185824       0.98980912       0.21932392 </v>
   <v>       0.81803084       0.99715314       0.71597966 </v>
   <v>       0.83051807       0.32885458       0.21685876 </v>
   <v>       0.81440541       0.32990705       0.72361475 </v>
   <v>       0.82759209       0.66369838       0.22227414 </v>
   <v>       0.81155535       0.67360860       0.71917544 </v>
   <v>       0.82630909       0.99129240       0.44664625 </v>
   <v>       0.82565114       0.00378342       0.94031007 </v>
   <v>       0.82667868       0.32297183       0.43582585 </v>
   <v>       0.82908501       0.33657485       0.94511977 </v>
   <v>       0.81498406       0.66505542       0.44192702 </v>
   <v>       0.81448920       0.65914226       0.93578105 </v>
   <v>       0.68149426       0.16772485       0.04884631 </v>
   <v>       0.66598731       0.16960948       0.55577703 </v>
   <v>       0.67486531       0.49889158       0.05777025 </v>
   <v>       0.65066374       0.50288024       0.55267217 </v>
   <v>       0.68019379       0.82450379       0.05178906 </v>
   <v>       0.65847283       0.83345318       0.55758246 </v>
   <v>       0.51757961       0.99958142       0.08182833 </v>
   <v>       0.48331353       0.01013405       0.61996138 </v>
   <v>       0.50631962       0.32932276       0.12415600 </v>
   <v>       0.49422064       0.32941984       0.63641606 </v>
   <v>       0.50311446       0.66872956       0.12546345 </v>
   <v>       0.47912880       0.67696868       0.62876493 </v>
   <v>       0.99676722       0.13862761       0.35164385 </v>
   <v>       0.99508351       0.17335692       0.86492905 </v>
   <v>       0.99749153       0.49411403       0.36997710 </v>
   <v>       0.99044908       0.50722402       0.85911000 </v>
   <v>       0.99960916       0.81217050       0.40865760 </v>
   <v>       0.99136552       0.83954554       0.87876166 </v>
   <v>       0.19845747       0.03261524       0.27243296 </v>
   <v>       0.17075516       0.98096913       0.79281070 </v>
   <v>       0.16854417       0.34220833       0.28166202 </v>
   <v>       0.18215672       0.33526430       0.79252090 </v>
   <v>       0.18057691       0.65411350       0.30278026 </v>
   <v>       0.17311891       0.67518490       0.79536237 </v>
   <v>       0.31583361       0.23006134       0.18948465 </v>
   <v>       0.35054803       0.16579010       0.75372481 </v>
   <v>       0.32449344       0.51076049       0.21341829 </v>
   <v>       0.34109752       0.50984166       0.74689724 </v>
   <v>       0.31542636       0.79861247       0.20030342 </v>
   <v>       0.33501725       0.82648167       0.74268635 </v>
   <v>       0.36821849       0.17523390       0.43632515 </v>
   <v>       0.33230057       0.15970305       0.96300947 </v>
   <v>       0.37767623       0.50666832       0.43766172 </v>
   <v>       0.33006270       0.49890906       0.96077672 </v>
   <v>       0.37256393       0.83738146       0.43219820 </v>
   <v>       0.33650273       0.83529424       0.96306513 </v>
   <v>       0.16049628       0.01123017       0.04802248 </v>
   <v>       0.13723469       0.35343193       0.04612562 </v>
   <v>       0.27951800       0.35680010       0.56975342 </v>
   <v>       0.13932242       0.67419706       0.05655192 </v>
   <v>       0.19210324       0.65326743       0.56275133 </v>
   <v>       0.20667706       0.99952146       0.54713697 </v>
  </varray>
 </structure>
 <calculation>
  <scstep>
   <time name="total">    3.89    3.89</time>
   <energy>
    <i name="alphaZ">   5376.25786726 </i>
    <i name="ewald"> -86118.36274346 </i>
    <i name="hartreedc">  -2121.46910807 </i>
    <i name="XCdc">   2815.99950844 </i>
    <i name="pawpsdc"> 339603.40430475 </i>
    <i name="pawaedc">-368403.73309586 </i>
    <i name="eentropy">     -0.01292415 </i>
    <i name="bandstr"> -40852.43896263 </i>
    <i name="atom"> 131500.23896116 </i>
    <i name="e_fr_energy"> -18200.11619256 </i>
    <i name="e_wo_entrp"> -18200.10326841 </i>
    <i name="e_0_energy"> -18200.10973048 </i>
   </energy>
  </scstep>
  <scstep>
   <time name="total">    3.06    3.06</time>
   <energy>
    <i name="e_fr_energy"> -64808.10803583 </i>
    <i name="e_wo_entrp"> -64808.08782976 </i>
    <i name="e_0_energy"> -64808.09793280 </i>
   </energy>
  </scstep>
  <scstep>
   <time name="total">    3.57    3.57</time>
   <energy>
    <i name="e_fr_energy"> -71341.45024652 </i>
    <i name="e_wo_entrp"> -71341.42926813 </i>
    <i name="e_0_energy"> -71341.43975733 </i>
   </energy>
  </scstep>
  <scstep>
   <time name="total">    4.00    4.00</time>
   <energy>
    <i name="e_fr_energy"> -72348.82973184 </i>
    <i name="e_wo_entrp"> -72348.80213028 </i>
    <i name="e_0_energy"> -72348.81593106 </i>
   </energy>
  </scstep>
  <scstep>
   <time name="total">  235.07  235.03</time>
   <energy>
    <i name="e_fr_energy"> -42757.74293727 </i>
    <i name="e_wo_entrp"> -42757.74247713 </i>
    <i name="e_0_energy"> -42757.74270720 </i>
   </energy>
  </scstep>
  <scstep>
   <time name="total">  469.95  469.92</time>
   <energy>
    <i name="e_fr_energy">  47225.00041826 </i>
    <i name="e_wo_entrp">  47225.00554780 </i>
    <i name="e_0_energy">  47225.00298303 </i>
   </energy>
  </scstep>
  <scstep>
   <time name="total">  468.82  468.74</time>
   <energy>
    <i name="e_fr_energy">  47947.64851297 </i>
    <i name="e_wo_entrp">  47947.65329635 </i>
    <i name="e_0_energy">  47947.65090466 </i>
   </energy>
  </scstep>
  <scstep>
   <time name="total">  468.53  468.47</time>
   <energy>
    <i name="e_fr_energy">  46168.90891200 </i>
    <i name="e_wo_entrp">  46168.91541760 </i>
    <i name="e_0_energy">  46168.91216480 </i>
   </energy>
  </scstep>
  <scstep>
   <time name="total">  468.70  468.63</time>
   <energy>
    <i name="e_fr_energy">  43414.36579372 </i>
    <i name="e_wo_entrp">  43414.37329928 </i>
    <i name="e_0_energy">  43414.36954650 </i>
   </energy>
  </scstep>
  <scstep>
   <time name="total">  468.58  468.50</time>
   <energy>
    <i name="e_fr_energy">  41863.33559402 </i>
    <i name="e_wo_entrp">  41863.33701012 </i>
    <i name="e_0_energy">  41863.33630207 </i>
   </energy>
  </scstep>
  <scstep>
   <time name="total">  469.12  469.04</time>
   <energy>
    <i name="e_fr_energy">  48461.01504805 </i>
    <i name="e_wo_entrp">  48461.02463490 </i>
    <i name="e_0_energy">  48461.01984148 </i>
   </energy>
  </scstep>
  <scstep>
   <time name="total">  468.73  468.66</time>
   <energy>
    <i name="e_fr_energy">  64337.25769640 </i>
    <i name="e_wo_entrp">  64337.26207304 </i>
    <i name="e_0_energy">  64337.25988472 </i>
   </energy>
  </scstep>
  <scstep>
   <time name="total">  468.72  468.65</time>
   <energy>
    <i name="e_fr_energy">  71024.41865719 </i>
    <i name="e_wo_entrp">  71024.42816861 </i>
    <i name="e_0_energy">  71024.42341290 </i>
   </energy>
  </scstep>
  <scstep>
   <time name="total">  468.62  468.55</time>
   <energy>
    <i name="e_fr_energy">  79081.67718768 </i>
    <i name="e_wo_entrp">  79081.68549823 </i>
    <i name="e_0_energy">  79081.68134296 </i>
   </energy>
  </scstep>
  <scstep>
   <time name="total">  468.56  468.50</time>
   <energy>
    <i name="e_fr_energy">  90810.82617422 </i>
    <i name="e_wo_entrp">  90810.82633379 </i>
    <i name="e_0_energy">  90810.82625401 </i>
   </energy>
  </scstep>
  <scstep>
   <time name="total">  468.66  468.60</time>
   <energy>
    <i name="e_fr_energy"> 104420.16344978 </i>
    <i name="e_wo_entrp"> 104420.16344978 </i>
    <i name="e_0_energy"> 104420.16344978 </i>
   </energy>
  </scstep>
  <scstep>
   <time name="total">  468.31  468.24</time>
   <energy>
    <i name="e_fr_energy"> 116978.88400853 </i>
    <i name="e_wo_entrp"> 116978.88471621 </i>
    <i name="e_0_energy"> 116978.88436237 </i>
   </energy>
  </scstep>
  <scstep>
   <time name="total">  468.08  468.00</time>
   <energy>
    <i name="e_fr_energy"> 127363.27863100 </i>
    <i name="e_wo_entrp"> 127363.27863100 </i>
    <i name="e_0_energy"> 127363.27863100 </i>
   </energy>
  </scstep>
  <scstep>
   <time name="total">  468.44  468.37</time>
   <energy>
    <i name="e_fr_energy"> 137399.58335846 </i>
    <i name="e_wo_entrp"> 137399.58822023 </i>
    <i name="e_0_energy"> 137399.58578935 </i>
   </energy>
  </scstep>
  <scstep>
   <time name="total">  468.60  468.52</time>
   <energy>
    <i name="e_fr_energy"> 144520.80837627 </i>
    <i name="e_wo_entrp"> 144520.81529049 </i>
    <i name="e_0_energy"> 144520.81183338 </i>
   </energy>
  </scstep>
  <scstep>
   <time name="total">  468.55  468.47</time>
   <energy>
    <i name="e_fr_energy"> 152597.20597464 </i>
    <i name="e_wo_entrp"> 152597.21302697 </i>
    <i name="e_0_energy"> 152597.20950080 </i>
   </energy>
  </scstep>
  <scstep>
   <time name="total">  468.34  468.27</time>
   <energy>
    <i name="e_fr_energy"> 158757.45206370 </i>
    <i name="e_wo_entrp"> 158757.45233646 </i>
    <i name="e_0_energy"> 158757.45220008 </i>
   </energy>
  </scstep>
  <scstep>
   <time name="total">  468.79  468.72</time>
   <energy>
    <i name="e_fr_energy"> 166458.57619530 </i>
    <i name="e_wo_entrp"> 166458.57947727 </i>
    <i name="e_0_energy"> 166458.57783629 </i>
   </energy>
  </scstep>
  <scstep>
   <time name="total">  468.75  468.68</time>
   <energy>
    <i name="e_fr_energy"> 171132.85874454 </i>
    <i name="e_wo_entrp"> 171132.86223850 </i>
    <i name="e_0_energy"> 171132.86049152 </i>
   </energy>
  </scstep>
  <scstep>
   <time name="total">  468.68  468.60</time>
   <energy>
    <i name="e_fr_energy"> 181728.87331468 </i>
    <i name="e_wo_entrp"> 181728.87345352 </i>
    <i name="e_0_energy"> 181728.87338410 </i>
   </energy>
  </scstep>
  <scstep>
   <time name="total">  468.54  468.46</time>
   <energy>
    <i name="e_fr_energy"> 180871.86828708 </i>
    <i name="e_wo_entrp"> 180871.86854192 </i>
    <i name="e_0_energy"> 180871.86841450 </i>
   </energy>
  </scstep>
  <scstep>
   <time name="total">  468.68  468.62</time>
   <energy>
    <i name="e_fr_energy"> 193374.40025618 </i>
    <i name="e_wo_entrp"> 193374.41149186 </i>
    <i name="e_0_energy"> 193374.40587402 </i>
   </energy>
  </scstep>
  <scstep>
   <time name="total">  468.75  468.69</time>
   <energy>
    <i name="e_fr_energy"> 214949.61298468 </i>
    <i name="e_wo_entrp"> 214949.61961955 </i>
    <i name="e_0_energy"> 214949.61630212 </i>
   </energy>
  </scstep>
  <scstep>
   <time name="total">  468.53  468.46</time>
   <energy>
    <i name="e_fr_energy"> 135270.77136825 </i>
    <i name="e_wo_entrp"> 135270.77871211 </i>
    <i name="e_0_energy"> 135270.77504018 </i>
   </energy>
  </scstep>
  <scstep>
   <time name="total">  468.60  468.52</time>
   <energy>
    <i name="e_fr_energy">  69437.62639142 </i>
    <i name="e_wo_entrp">  69437.62646109 </i>
    <i name="e_0_energy">  69437.62642626 </i>
   </energy>
  </scstep>
  <scstep>
   <time name="total">  468.74  468.65</time>
   <energy>
    <i name="e_fr_energy">  40239.33439287 </i>
    <i name="e_wo_entrp">  40239.34479321 </i>
    <i name="e_0_energy">  40239.33959304 </i>
   </energy>
  </scstep>
  <scstep>
   <time name="total"> 1171.42 1171.22</time>
   <energy>
    <i name="e_fr_energy">  26019.70724887 </i>
    <i name="e_wo_entrp">  26019.70967885 </i>
    <i name="e_0_energy">  26019.70846386 </i>
   </energy>
  </scstep>
  <scstep>
   <time name="total">  468.67  468.59</time>
   <energy>
    <i name="e_fr_energy">  23690.10517415 </i>
    <i name="e_wo_entrp">  23690.10542240 </i>
    <i name="e_0_energy">  23690.10529828 </i>
   </energy>
  </scstep>
  <scstep>
   <time name="total">  468.58  468.51</time>
   <energy>
    <i name="e_fr_energy">  16572.49402750 </i>
    <i name="e_wo_entrp">  16572.50201384 </i>
    <i name="e_0_energy">  16572.49802067 </i>
   </energy>
  </scstep>
  <scstep>
   <time name="total">  468.76  468.68</time>
   <energy>
    <i name="e_fr_energy">  12586.34547237 </i>
    <i name="e_wo_entrp">  12586.35250825 </i>
    <i name="e_0_energy">  12586.34899031 </i>
   </energy>
  </scstep>
  <scstep>
   <time name="total">  468.73  468.66</time>
   <energy>
    <i name="e_fr_energy">  15866.19762993 </i>
    <i name="e_wo_entrp">  15866.19850860 </i>
    <i name="e_0_energy">  15866.19806926 </i>
   </energy>
  </scstep>
  <scstep>
   <time name="total">  468.78  468.70</time>
   <energy>
    <i name="e_fr_energy">  11507.04958667 </i>
    <i name="e_wo_entrp">  11507.05777281 </i>
    <i name="e_0_energy">  11507.05367974 </i>
   </energy>
  </scstep>
  <scstep>
   <time name="total"> 1171.18 1171.01</time>
   <energy>
    <i name="e_fr_energy">   9369.85383397 </i>
    <i name="e_wo_entrp">   9369.85402415 </i>
    <i name="e_0_energy">   9369.85392906 </i>
   </energy>
  </scstep>
  <scstep>
   <time name="total">  468.69  468.61</time>
   <energy>
    <i name="e_fr_energy">   9597.74710310 </i>
    <i name="e_wo_entrp">   9597.74717875 </i>
    <i name="e_0_energy">   9597.74714093 </i>
   </energy>
  </scstep>
  <scstep>
   <time name="total"> 1170.47 1170.30</time>
   <energy>
    <i name="e_fr_energy">   7086.88343852 </i>
    <i name="e_wo_entrp">   7086.88595029 </i>
    <i name="e_0_energy">   7086.88469440 </i>
   </energy>
  </scstep>
  <scstep>
   <time name="total">  468.22  468.16</time>
   <energy>
    <i name="e_fr_energy">  12395.84684357 </i>
    <i name="e_wo_entrp">  12395.84685702 </i>
    <i name="e_0_energy">  12395.84685029 </i>
   </energy>
  </scstep>
  <scstep>
   <time name="total">  468.44  468.37</time>
   <energy>
    <i name="e_fr_energy">   9683.69860992 </i>
    <i name="e_wo_entrp">   9683.70083021 </i>
    <i name="e_0_energy">   9683.69972006 </i>
   </energy>
  </scstep>
  <scstep>
   <time name="total">  469.06  468.98</time>
   <energy>
    <i name="e_fr_energy">   7039.71926990 </i>
    <i name="e_wo_entrp">   7039.71977524 </i>
    <i name="e_0_energy">   7039.71952257 </i>
   </energy>
  </scstep>
  <scstep>
   <time name="total">  469.54  469.47</time>
   <energy>
    <i name="e_fr_energy">   6283.34326922 </i>
    <i name="e_wo_entrp">   6283.35228142 </i>
    <i name="e_0_energy">   6283.34777532 </i>
   </energy>
  </scstep>
  <scstep>
   <time name="total">  469.68  469.61</time>
   <energy>
    <i name="e_fr_energy">   5787.76987876 </i>
    <i name="e_wo_entrp">   5787.77826102 </i>
    <i name="e_0_energy">   5787.77406989 </i>
   </energy>
  </scstep>
  <scstep>
   <time name="total">  469.56  469.48</time>
   <energy>
    <i name="e_fr_energy">   5250.12710143 </i>
    <i name="e_wo_entrp">   5250.13441341 </i>
    <i name="e_0_energy">   5250.13075742 </i>
   </energy>
  </scstep>
  <scstep>
   <time name="total">  469.42  469.34</time>
   <energy>
    <i name="e_fr_energy">   4189.80618192 </i>
    <i name="e_wo_entrp">   4189.83134208 </i>
    <i name="e_0_energy">   4189.81876200 </i>
   </energy>
  </scstep>
  <scstep>
   <time name="total">  470.13  470.05</time>
   <energy>
    <i name="e_fr_energy">   1278.53814166 </i>
    <i name="e_wo_entrp">   1278.55683950 </i>
    <i name="e_0_energy">   1278.54749058 </i>
   </energy>
  </scstep>
  <scstep>
   <time name="total">  469.67  469.60</time>
   <energy>
    <i name="e_fr_energy">    628.93968729 </i>
    <i name="e_wo_entrp">    628.94919783 </i>
    <i name="e_0_energy">    628.94444256 </i>
   </energy>
  </scstep>
  <scstep>
   <time name="total">  469.99  469.92</time>
   <energy>
    <i name="e_fr_energy">    -65.86773778 </i>
    <i name="e_wo_entrp">    -65.85990784 </i>
    <i name="e_0_energy">    -65.86382281 </i>
   </energy>
  </scstep>
  <scstep>
   <time name="total">  469.48  469.41</time>
   <energy>
    <i name="e_fr_energy">   -231.46959719 </i>
    <i name="e_wo_entrp">   -231.45647829 </i>
    <i name="e_0_energy">   -231.46303774 </i>
   </energy>
  </scstep>
  <scstep>
   <time name="total">  468.48  468.41</time>
   <energy>
    <i name="e_fr_energy">   -425.91072762 </i>
    <i name="e_wo_entrp">   -425.90651945 </i>
    <i name="e_0_energy">   -425.90862354 </i>
   </energy>
  </scstep>
  <scstep>
   <time name="total">  469.11  469.03</time>
   <energy>
    <i name="e_fr_energy">   -663.49577912 </i>
    <i name="e_wo_entrp">   -663.48612330 </i>
    <i name="e_0_energy">   -663.49095121 </i>
   </energy>
  </scstep>
  <scstep>
   <time name="total">  468.85  468.78</time>
   <energy>
    <i name="e_fr_energy">   -762.54433792 </i>
    <i name="e_wo_entrp">   -762.53654645 </i>
    <i name="e_0_energy">   -762.54044218 </i>
   </energy>
  </scstep>
  <scstep>
   <time name="total">  468.97  468.93</time>
   <energy>
    <i name="e_fr_energy">   -796.02370868 </i>
    <i name="e_wo_entrp">   -796.01812704 </i>
    <i name="e_0_energy">   -796.02091786 </i>
   </energy>
  </scstep>
  <scstep>
   <time name="total">  468.65  468.58</time>
   <energy>
    <i name="e_fr_energy">   -824.66786790 </i>
    <i name="e_wo_entrp">   -824.66633583 </i>
    <i name="e_0_energy">   -824.66710186 </i>
   </energy>
  </scstep>
  <scstep>
   <time name="total">  468.72  468.65</time>
   <energy>
    <i name="e_fr_energy">   -834.12223841 </i>
    <i name="e_wo_entrp">   -834.11262908 </i>
    <i name="e_0_energy">   -834.11743375 </i>
   </energy>
  </scstep>
  <scstep>
   <time name="total">  468.74  468.67</time>
   <energy>
    <i name="e_fr_energy">   -838.07449064 </i>
    <i name="e_wo_entrp">   -838.06491717 </i>
    <i name="e_0_energy">   -838.06970391 </i>
   </energy>
  </scstep>
  <scstep>
   <time name="total">  468.71  468.64</time>
   <energy>
    <i name="e_fr_energy">   -840.16863647 </i>
    <i name="e_wo_entrp">   -840.15980319 </i>
    <i name="e_0_energy">   -840.16421983 </i>
   </energy>
  </scstep>
  <scstep>
   <time name="total">  468.65  468.60</time>
   <energy>
    <i name="e_fr_energy">   -840.97395784 </i>
    <i name="e_wo_entrp">   -840.96491056 </i>
    <i name="e_0_energy">   -840.96943420 </i>
   </energy>
  </scstep>
  <scstep>
   <time name="total">  468.87  468.80</time>
   <energy>
    <i name="e_fr_energy">   -841.30229784 </i>
    <i name="e_wo_entrp">   -841.29346737 </i>
    <i name="e_0_energy">   -841.29788260 </i>
   </energy>
  </scstep>
  <scstep>
   <time name="total">  468.73  468.66</time>
   <energy>
    <i name="e_fr_energy">   -841.47741241 </i>
    <i name="e_wo_entrp">   -841.46833789 </i>
    <i name="e_0_energy">   -841.47287515 </i>
   </energy>
  </scstep>
  <scstep>
   <time name="total">  468.47  468.39</time>
   <energy>
    <i name="e_fr_energy">   -841.55878819 </i>
    <i name="e_wo_entrp">   -841.54973465 </i>
    <i name="e_0_energy">   -841.55426142 </i>
   </energy>
  </scstep>
  <scstep>
   <time name="total">  468.58  468.51</time>
   <energy>
    <i name="e_fr_energy">   -841.58837677 </i>
    <i name="e_wo_entrp">   -841.57944657 </i>
    <i name="e_0_energy">   -841.58391167 </i>
   </energy>
  </scstep>
  <scstep>
   <time name="total">  468.83  468.75</time>
   <energy>
    <i name="e_fr_energy">   -841.60152897 </i>
    <i name="e_wo_entrp">   -841.59260200 </i>
    <i name="e_0_energy">   -841.59706548 </i>
   </energy>
  </scstep>
  <scstep>
   <time name="total">  468.41  468.34</time>
   <energy>
    <i name="e_fr_energy">   -841.60878259 </i>
    <i name="e_wo_entrp">   -841.59985339 </i>
    <i name="e_0_energy">   -841.60431799 </i>
   </energy>
  </scstep>
  <scstep>
   <time name="total">  468.75  468.68</time>
   <energy>
    <i name="e_fr_energy">   -841.61118442 </i>
    <i name="e_wo_entrp">   -841.60228500 </i>
    <i name="e_0_energy">   -841.60673471 </i>
   </energy>
  </scstep>
  <scstep>
   <time name="total">  468.60  468.53</time>
   <energy>
    <i name="e_fr_energy">   -841.61222217 </i>
    <i name="e_wo_entrp">   -841.60330896 </i>
    <i name="e_0_energy">   -841.60776557 </i>
   </energy>
  </scstep>
  <scstep>
   <time name="total">  468.37  468.30</time>
   <energy>
    <i name="e_fr_energy">   -841.61289275 </i>
    <i name="e_wo_entrp">   -841.60396427 </i>
    <i name="e_0_energy">   -841.60842851 </i>
   </energy>
  </scstep>
  <scstep>
   <time name="total">  468.69  468.61</time>
   <energy>
    <i name="e_fr_energy">   -841.61314897 </i>
    <i name="e_wo_entrp">   -841.60422697 </i>
    <i name="e_0_energy">   -841.60868797 </i>
   </energy>
  </scstep>
  <scstep>
   <time name="total">  468.75  468.68</time>
   <energy>
    <i name="e_fr_energy">   -841.61324754 </i>
    <i name="e_wo_entrp">   -841.60432152 </i>
    <i name="e_0_energy">   -841.60878453 </i>
   </energy>
  </scstep>
  <scstep>
   <time name="total">  468.46  468.40</time>
   <energy>
    <i name="e_fr_energy">   -841.61331863 </i>
    <i name="e_wo_entrp">   -841.60438815 </i>
    <i name="e_0_energy">   -841.60885339 </i>
   </energy>
  </scstep>
  <scstep>
   <time name="total">  468.49  468.43</time>
   <energy>
    <i name="e_fr_energy">   -841.61334914 </i>
    <i name="e_wo_entrp">   -841.60442330 </i>
    <i name="e_0_energy">   -841.60888622 </i>
   </energy>
  </scstep>
  <scstep>
   <time name="total">  468.50  468.43</time>
   <energy>
    <i name="e_fr_energy">   -841.61336109 </i>
    <i name="e_wo_entrp">   -841.60443681 </i>
    <i name="e_0_energy">   -841.60889895 </i>
   </energy>
  </scstep>
  <scstep>
   <time name="total">  698.47  698.35</time>
   <energy>
    <i name="alphaZ">   5376.25786726 </i>
    <i name="ewald"> -86118.36274346 </i>
    <i name="hartreedc"> -34464.98567096 </i>
    <i name="XCdc">   2906.39071945 </i>
    <i name="pawpsdc"> 121568.57699287 </i>
    <i name="pawaedc">-136838.12965310 </i>
    <i name="eentropy">     -0.00892570 </i>
    <i name="bandstr">  -8642.08069679 </i>
    <i name="atom"> 131500.23896116 </i>
    <i name="e_fr_energy">   -841.61336938 </i>
    <i name="e_wo_entrp">   -841.60444367 </i>
    <i name="e_0_energy">   -841.60890652 </i>
   </energy>
  </scstep>
  <structure>
   <crystal>
    <varray name="basis" >
     <v>       0.00000000      12.28047342       0.00000000 </v>
     <v>       9.14270205       0.00000000       0.00000000 </v>
     <v>       0.00000000      -2.76826177     -11.30069772 </v>
    </varray>
    <i name="volume">   1268.80515525 </i>
    <varray name="rec_basis" >
     <v>       0.00000000       0.08143009      -0.01994742 </v>
     <v>       0.10937686      -0.00000000       0.00000000 </v>
     <v>       0.00000000       0.00000000      -0.08849011 </v>
    </varray>
   </crystal>
   <varray name="positions" >
    <v>       0.67205140       0.99719916       0.15209277 </v>
    <v>       0.64348254       0.00356456       0.65362779 </v>
    <v>       0.66671193       0.32795040       0.15742241 </v>
    <v>       0.64895119       0.33169736       0.65282488 </v>
    <v>       0.66399727       0.66524847       0.16149848 </v>
    <v>       0.64135127       0.67075779       0.65349832 </v>
    <v>       0.84379181       0.15667965       0.34336112 </v>
    <v>       0.83208096       0.16754165       0.84004577 </v>
    <v>       0.84160750       0.49701055       0.34489862 </v>
    <v>       0.82851133       0.50033473       0.83505349 </v>
    <v>       0.84032200       0.82506994       0.34691642 </v>
    <v>       0.82738990       0.83379530       0.83815923 </v>
    <v>       0.58762627       0.13627206       0.39525004 </v>
    <v>       0.58442141       0.16137839       0.89936124 </v>
    <v>       0.58515383       0.50058142       0.39279236 </v>
    <v>       0.59240506       0.49879089       0.90372305 </v>
    <v>       0.58761860       0.86892755       0.39683827 </v>
    <v>       0.58755730       0.83152770       0.90295247 </v>
    <v>       0.91679680       0.96383866       0.09970835 </v>
    <v>       0.90937054       0.99662848       0.60404488 </v>
    <v>       0.91233555       0.33271036       0.10061453 </v>
    <v>       0.90504583       0.35623445       0.59873056 </v>
    <v>       0.90137445       0.69776427       0.09245824 </v>
    <v>       0.89789487       0.62511505       0.60133366 </v>
    <v>       0.15664598       0.18693100       0.15290036 </v>
    <v>       0.14643686       0.50854440       0.16912310 </v>
    <v>       0.18666873       0.45898060       0.65245456 </v>
    <v>       0.16505876       0.84852204       0.15104524 </v>
    <v>       0.15184873       0.82385965       0.66645721 </v>
    <v>       0.34588678       0.00850804       0.34630906 </v>
    <v>       0.33364819       0.99980796       0.84972782 </v>
    <v>       0.34107286       0.34129092       0.33381614 </v>
    <v>       0.34043644       0.32620520       0.85821611 </v>
    <v>       0.35011887       0.66833193       0.33521277 </v>
    <v>       0.33838536       0.66839753       0.85795713 </v>
    <v>       0.08769269       0.97294984       0.36621873 </v>
    <v>       0.08168930       0.00669190       0.89260323 </v>
    <v>       0.09273149       0.29956510       0.44319709 </v>
    <v>       0.08277799       0.34236445       0.88474614 </v>
    <v>       0.09253591       0.64816376       0.41454609 </v>
    <v>       0.07952681       0.67224724       0.89557832 </v>
    <v>       0.42229862       0.15543971       0.11700224 </v>
    <v>       0.37369639       0.17904319       0.60241522 </v>
    <v>       0.41751594       0.49684536       0.11087790 </v>
    <v>       0.40217206       0.49531182       0.60513546 </v>
    <v>       0.42454419       0.84728148       0.11777391 </v>
    <v>       0.38159786       0.85064632       0.59851910 </v>
    <v>       0.99088337       0.15704684       0.11476035 </v>
    <v>       0.97606463       0.17347763       0.61960515 </v>
    <v>       0.98240231       0.51476675       0.12451081 </v>
    <v>       0.03647329       0.48998329       0.62931164 </v>
    <v>       0.04216461       0.87150728       0.21558428 </v>
    <v>       0.98504271       0.81535170       0.63742673 </v>
    <v>       0.44166809       0.01050076       0.24652805 </v>
    <v>       0.50227643       0.99375474       0.86331616 </v>
    <v>       0.51445912       0.32125450       0.35903257 </v>
    <v>       0.50553958       0.33387251       0.89024767 </v>
    <v>       0.51711230       0.68228606       0.35834413 </v>
    <v>       0.50488069       0.66365392       0.88810605 </v>
    <v>       0.67572752       0.15937667       0.27386733 </v>
    <v>       0.66383230       0.16349656       0.78067380 </v>
    <v>       0.67351370       0.49525851       0.27860447 </v>
    <v>       0.65913709       0.50105570       0.77606829 </v>
    <v>       0.67143271       0.83626757       0.27422819 </v>
    <v>       0.65973581       0.83622363       0.77897383 </v>
    <v>       0.83185824       0.98980912       0.21932392 </v>
    <v>       0.81803084       0.99715314       0.71597966 </v>
    <v>       0.83051807       0.32885458       0.21685876 </v>
    <v>       0.81440541       0.32990705       0.72361475 </v>
    <v>       0.82759209       0.66369838       0.22227414 </v>
    <v>       0.81155535       0.67360860       0.71917544 </v>
    <v>       0.82630909       0.99129240       0.44664625 </v>
    <v>       0.82565114       0.00378342       0.94031007 </v>
    <v>       0.82667868       0.32297183       0.43582585 </v>
    <v>       0.82908501       0.33657485       0.94511977 </v>
    <v>       0.81498406       0.66505542       0.44192702 </v>
    <v>       0.81448920       0.65914226       0.93578105 </v>
    <v>       0.68149426       0.16772485       0.04884631 </v>
    <v>       0.66598731       0.16960948       0.55577703 </v>
    <v>       0.67486531       0.49889158       0.05777025 </v>
    <v>       0.65066374       0.50288024       0.55267217 </v>
    <v>       0.68019379       0.82450379       0.05178906 </v>
    <v>       0.65847283       0.83345318       0.55758246 </v>
    <v>       0.51757961       0.99958142       0.08182833 </v>
    <v>       0.48331353       0.01013405       0.61996138 </v>
    <v>       0.50631962       0.32932276       0.12415600 </v>
    <v>       0.49422064       0.32941984       0.63641606 </v>
    <v>       0.50311446       0.66872956       0.12546345 </v>
    <v>       0.47912880       0.67696868       0.62876493 </v>
    <v>       0.99676722       0.13862761       0.35164385 </v>
    <v>       0.99508351       0.17335692       0.86492905 </v>
    <v>       0.99749153       0.49411403       0.36997710 </v>
    <v>       0.99044908       0.50722402       0.85911000 </v>
    <v>       0.99960916       0.81217050       0.40865760 </v>
    <v>       0.99136552       0.83954554       0.87876166 </v>
    <v>       0.19845747       0.03261524       0.27243296 </v>
    <v>       0.17075516       0.98096913       0.79281070 </v>
    <v>       0.16854417       0.34220833       0.28166202 </v>
    <v>       0.18215672       0.33526430       0.79252090 </v>
    <v>       0.18057691       0.65411350       0.30278026 </v>
    <v>       0.17311891       0.67518490       0.79536237 </v>
    <v>       0.31583361       0.23006134       0.18948465 </v>
    <v>       0.35054803       0.16579010       0.75372481 </v>
    <v>       0.32449344       0.51076049       0.21341829 </v>
    <v>       0.34109752       0.50984166       0.74689724 </v>
    <v>       0.31542636       0.79861247       0.20030342 </v>
    <v>       0.33501725       0.82648167       0.74268635 </v>
    <v>       0.36821849       0.17523390       0.43632515 </v>
    <v>       0.33230057       0.15970305       0.96300947 </v>
    <v>       0.37767623       0.50666832       0.43766172 </v>
    <v>       0.33006270       0.49890906       0.96077672 </v>
    <v>       0.37256393       0.83738146       0.43219820 </v>
    <v>       0.33650273       0.83529424       0.96306513 </v>
    <v>       0.16049628       0.01123017       0.04802248 </v>
    <v>       0.13723469       0.35343193       0.04612562 </v>
    <v>       0.27951800       0.35680010       0.56975342 </v>
    <v>       0.13932242       0.67419706       0.05655192 </v>
    <v>       0.19210324       0.65326743       0.56275133 </v>
    <v>       0.20667706       0.99952146       0.54713697 </v>
   </varray>
  </structure>
  <varray name="forces" >
   <v>      -0.01028158       0.01470353       0.03961065 </v>
   <v>       0.01874299       0.02431866       0.06565815 </v>
   <v>       0.00189512       0.07260268      -0.00471727 </v>
   <v>      -0.02731490       0.05820539       0.04454107 </v>
   <v>      -0.00271349       0.09661397       0.00169116 </v>
   <v>       0.05061910       0.16147030       0.05385533 </v>
   <v>       0.06094974       0.00040858      -0.04822211 </v>
   <v>       0.06584488      -0.07916946       0.04168149 </v>
   <v>      -0.03271267       0.01517225      -0.10936221 </v>
   <v>       0.04386232      -0.03885582       0.06277547 </v>
   <v>      -0.12240703      -0.07552157      -0.14542848 </v>
   <v>      -0.05864441      -0.06560331       0.05164207 </v>
   <v>       0.34908571       0.20328088      -0.07742303 </v>
   <v>       0.01292530       0.00214543       0.06767533 </v>
   <v>      -0.01636105       0.06005780      -0.01798900 </v>
   <v>      -0.00944781      -0.09336143      -0.00629464 </v>
   <v>      -0.38950608       0.22088402      -0.11117260 </v>
   <v>       0.01057704      -0.04757091       0.08260138 </v>
   <v>       0.04704416      -0.12934983      -0.19996609 </v>
   <v>       0.14597290      -0.08390186       0.02736254 </v>
   <v>       0.01205950      -0.14309061      -0.00507405 </v>
   <v>       0.12189666       0.06080462       0.09017772 </v>
   <v>      -0.30517616      -0.29024546       0.08425242 </v>
   <v>      -0.18815784      -0.19104596       0.05192801 </v>
   <v>       0.06578298       0.16706812      -0.11599801 </v>
   <v>      -0.04611468       0.01204490      -0.03861488 </v>
   <v>      -0.04374652      -0.06995666       0.01577655 </v>
   <v>       0.01500969       0.01657587      -0.05181714 </v>
   <v>      -0.13676102       0.00455783      -0.27743770 </v>
   <v>       0.09809235      -0.03165033       0.07589971 </v>
   <v>       0.07575962      -0.01689225       0.11971645 </v>
   <v>      -0.05223239       0.03095994       0.05177219 </v>
   <v>      -0.13839830      -0.09517998       0.14511679 </v>
   <v>      -0.03286057       0.01605644       0.03612397 </v>
   <v>      -0.01021995      -0.01940746       0.17481031 </v>
   <v>       0.04536010      -0.26062168       0.41378870 </v>
   <v>      -0.01138099       0.08845333       0.01843890 </v>
   <v>      -0.05539984      -0.19303478       0.30577371 </v>
   <v>       0.01273617       0.00142549       0.00255926 </v>
   <v>      -0.06051257      -0.02903196       0.03686841 </v>
   <v>      -0.01178787      -0.02560190       0.02508095 </v>
   <v>       0.08064846      -0.12074025       0.01436105 </v>
   <v>       0.29606059       0.02081576      -0.08486659 </v>
   <v>       0.03218942      -0.13878550       0.11265705 </v>
   <v>      -0.33132922      -0.10622158       0.08058304 </v>
   <v>      -0.03939616      -0.05905365       0.11362886 </v>
   <v>       0.08509170       0.23373704      -0.08907056 </v>
   <v>       0.15464178      -0.06534603       0.02245564 </v>
   <v>      -0.19554767      -0.66818210       0.12046308 </v>
   <v>      -0.08635342      -0.04250671       0.08203367 </v>
   <v>      -0.06852821       0.63043016      -0.06977785 </v>
   <v>       0.38772647       0.51252034      -0.07207812 </v>
   <v>       0.17015488       0.00410171       0.14454044 </v>
   <v>       0.05719236      -0.45912780       0.21803594 </v>
   <v>       0.01085202       0.32312918      -0.38972891 </v>
   <v>       0.05193711       0.18047331      -0.16754457 </v>
   <v>      -0.03485416       0.22415290      -0.05044142 </v>
   <v>      -0.03696763       0.06487944      -0.14924918 </v>
   <v>       0.05155211       0.26997832      -0.08722474 </v>
   <v>      -0.04819032       0.10897047       0.07228964 </v>
   <v>      -0.06409525       0.00089167      -0.11193468 </v>
   <v>       0.04924241       0.01820122      -0.06020467 </v>
   <v>       0.02281160       0.00319387      -0.17561621 </v>
   <v>       0.02004468       0.09913537       0.05569641 </v>
   <v>      -0.00904363       0.02094693      -0.14284517 </v>
   <v>      -0.02598689      -0.18302024       0.04591972 </v>
   <v>      -0.01927838       0.05640993      -0.00470988 </v>
   <v>       0.00869554      -0.03086981       0.23870602 </v>
   <v>      -0.12991015      -0.29842069      -0.29689128 </v>
   <v>       0.10050716      -0.15821948       0.00147956 </v>
   <v>       0.09646302      -0.15431295      -0.21598340 </v>
   <v>      -0.01274862       0.43588357      -0.01010214 </v>
   <v>       0.02799870       0.35465939       0.21609239 </v>
   <v>      -0.12638331       0.42145455       0.26718174 </v>
   <v>      -0.03231110       0.37817967      -0.05610707 </v>
   <v>       0.13418664       0.48337758       0.25096107 </v>
   <v>      -0.01123706       0.38120178       0.12245082 </v>
   <v>      -0.04470370      -0.46552382       0.03497953 </v>
   <v>      -0.01090985      -0.43371587      -0.10259848 </v>
   <v>      -0.01123282      -0.40443118       0.07850526 </v>
   <v>      -0.00775532      -0.42767341       0.10995387 </v>
   <v>       0.06709628      -0.46578338       0.08684408 </v>
   <v>       0.02746072      -0.39707205      -0.07557006 </v>
   <v>      -0.05445425      -0.13710581      -0.40670529 </v>
   <v>      -0.16488280      -0.04780643      -0.02849940 </v>
   <v>      -0.02648943      -0.08490887      -0.02989592 </v>
   <v>       0.19644889       0.06332733       0.09701570 </v>
   <v>       0.03970410      -0.06350581      -0.04285613 </v>
   <v>      -0.12816777      -0.04216530       0.08497350 </v>
   <v>      -0.17542198      -0.11632238      -0.15273926 </v>
   <v>      -0.07269825       0.18369332      -0.14187554 </v>
   <v>       0.44973222      -0.17960718      -0.11393867 </v>
   <v>      -0.00254622       0.19546493      -0.19486950 </v>
   <v>      -0.09928163       0.15546267       0.29197270 </v>
   <v>      -0.01586649       0.24258326       0.02699371 </v>
   <v>      -0.05843356       0.23707148      -0.03913127 </v>
   <v>      -0.21985322      -0.14245694      -0.39198375 </v>
   <v>       0.05977101       0.30072087       0.36728106 </v>
   <v>       0.28909883       0.02151570      -0.31207290 </v>
   <v>      -0.16324281      -0.07670631      -0.11595449 </v>
   <v>       0.27050266      -0.11747494      -0.22077054 </v>
   <v>      -0.09470376      -0.00164188      -0.11632293 </v>
   <v>       0.01840800       0.06276105      -0.03390735 </v>
   <v>      -0.01152757       0.15789867      -0.03451825 </v>
   <v>      -0.01228809      -0.16520370       0.13092863 </v>
   <v>       0.08445639      -0.07501681       0.01398546 </v>
   <v>       0.03375571      -0.00147545       0.04876907 </v>
   <v>      -0.13102841      -0.08069636       0.23738502 </v>
   <v>      -0.02033888       0.41186104      -0.02413622 </v>
   <v>       0.02450465      -0.07957063       0.12598624 </v>
   <v>       0.01350394       0.43953584      -0.10106035 </v>
   <v>       0.09587338      -0.08854059       0.12463970 </v>
   <v>       0.00865091       0.34891502      -0.00338599 </v>
   <v>      -0.14837591      -0.36661958       0.07265602 </v>
   <v>      -0.10224003      -0.18420416       0.05672170 </v>
   <v>       0.31439883       0.28973365      -0.52641650 </v>
   <v>       0.11069700      -0.16020182       0.06062926 </v>
   <v>      -0.05861363      -0.40731377       0.17603507 </v>
   <v>      -0.32692124       0.01156542       0.06013201 </v>
  </varray>
  <varray name="stress" >
   <v>     151.94174235       9.30238219      -0.40655688 </v>
   <v>       9.30238280     206.09017954       1.83356990 </v>
   <v>      -0.40655670       1.83357038     231.45087890 </v>
  </varray>
  <energy>
   <i name="e_fr_energy">   -841.61336938 </i>
   <i name="e_wo_entrp">   -841.60444367 </i>
   <i name="e_0_energy">   -841.60890652 </i>
  </energy>
  <time name="totalsc">35989.6435984.40</time>
  <eigenvalues>
   <array>
    <dimension dim="1">band</dimension>
    <dimension dim="2">kpoint</dimension>
    <dimension dim="3">spin</dimension>
    <field>eigene</field>
    <field>occ</field>
    <set>
     <set comment="spin 1">
      <set comment="kpoint 1">
       <r>  -18.8883    1.0000 </r>
       <r>  -18.6384    1.0000 </r>
       <r>  -18.5239    1.0000 </r>
       <r>  -18.3550    1.0000 </r>
       <r>  -18.2350    1.0000 </r>
       <r>  -18.2039    1.0000 </r>
       <r>  -18.1584    1.0000 </r>
       <r>  -18.0727    1.0000 </r>
       <r>  -18.0424    1.0000 </r>
       <r>  -18.0226    1.0000 </r>
       <r>  -17.9624    1.0000 </r>
       <r>  -17.8827    1.0000 </r>
       <r>  -17.8593    1.0000 </r>
       <r>  -17.8347    1.0000 </r>
       <r>  -17.8005    1.0000 </r>
       <r>  -17.7717    1.0000 </r>
       <r>  -17.7503    1.0000 </r>
       <r>  -17.6972    1.0000 </r>
       <r>  -17.6238    1.0000 </r>
       <r>  -17.5945    1.0000 </r>
       <r>  -17.5693    1.0000 </r>
       <r>  -17.5274    1.0000 </r>
       <r>  -17.5057    1.0000 </r>
       <r>  -17.4820    1.0000 </r>
       <r>  -17.4278    1.0000 </r>
       <r>  -17.3936    1.0000 </r>
       <r>  -17.3761    1.0000 </r>
       <r>  -17.3467    1.0000 </r>
       <r>  -17.3387    1.0000 </r>
       <r>  -17.3151    1.0000 </r>
       <r>  -17.2953    1.0000 </r>
       <r>  -17.2629    1.0000 </r>
       <r>  -17.2513    1.0000 </r>
       <r>  -17.2350    1.0000 </r>
       <r>  -17.2238    1.0000 </r>
       <r>  -17.2041    1.0000 </r>
       <r>  -17.1932    1.0000 </r>
       <r>  -17.1295    1.0000 </r>
[...]
       <r>   -12.5199   348.6331   473.0811 </r>
       <r>   -12.3855   242.6152   505.7026 </r>
       <r>   -12.2510   192.8148   531.6280 </r>
       <r>   -12.1165   136.6514   550.0019 </r>
       <r>   -11.9821   121.7552   566.3728 </r>
       <r>   -11.8476    90.3385   578.5196 </r>
       <r>   -11.7132    84.9524   589.9421 </r>
       <r>   -11.5787    39.4510   595.2466 </r>
       <r>   -11.4442    32.1751   599.5728 </r>
       <r>   -11.3098    18.6413   602.0792 </r>
       <r>   -11.1753    53.1914   609.2312 </r>
       <r>   -11.0409    20.5063   611.9885 </r>
       <r>   -10.9064     0.0857   612.0000 </r>
       <r>   -10.7720     0.0000   612.0000 </r>
       <r>   -10.6375     0.0000   612.0000 </r>
       <r>   -10.5030     0.0000   612.0000 </r>
       <r>   -10.3686     0.0000   612.0000 </r>
       <r>   -10.2341     0.0000   612.0000 </r>
       <r>   -10.0997     0.0000   612.0000 </r>
       <r>    -9.9652     0.0000   612.0000 </r>
       <r>    -9.8308     0.0000   612.0000 </r>
       <r>    -9.6963     0.0000   612.0000 </r>
       <r>    -9.5618     0.0000   612.0000 </r>
       <r>    -9.4274     0.0000   612.0000 </r>
       <r>    -9.2929     0.0000   612.0000 </r>
       <r>    -9.1585     0.0000   612.0000 </r>
       <r>    -9.0240     0.0000   612.0000 </r>
       <r>    -8.8895     0.0000   612.0000 </r>
       <r>    -8.7551     0.0000   612.0000 </r>
       <r>    -8.6206     0.0000   612.0000 </r>
       <r>    -8.4862     0.0000   612.0000 </r>
       <r>    -8.3517     0.0000   612.0000 </r>
       <r>    -8.2173     0.0000   612.0000 </r>
       <r>    -8.0828     0.0000   612.0000 </r>
       <r>    -7.9483     0.0000   612.0000 </r>
       <r>    -7.8139     0.0000   612.0000 </r>
       <r>    -7.6794     0.0000   612.0000 </r>
       <r>    -7.5450     0.0000   612.0000 </r>
       <r>    -7.4105     0.0000   612.0000 </r>
       <r>    -7.2761     0.0000   612.0000 </r>
       <r>    -7.1416     0.0000   612.0000 </r>
       <r>    -7.0071     0.0000   612.0000 </r>
       <r>    -6.8727     0.0000   612.0000 </r>
       <r>    -6.7382     0.0029   612.0004 </r>
       <r>    -6.6038     8.9355   613.2018 </r>
       <r>    -6.4693     5.9358   614.0000 </r>
       <r>    -6.3348     0.0004   614.0000 </r>
       <r>    -6.2004     0.0000   614.0000 </r>
       <r>    -6.0659     0.0000   614.0000 </r>
       <r>    -5.9315     0.0000   614.0000 </r>
       <r>    -5.7970     0.0000   614.0000 </r>
       <r>    -5.6626     0.0000   614.0000 </r>
       <r>    -5.5281     0.0000   614.0000 </r>
       <r>    -5.3936     0.0000   614.0000 </r>
       <r>    -5.2592     0.7245   614.0974 </r>
       <r>    -5.1247    10.9724   615.5727 </r>
       <r>    -4.9903    27.4585   619.2647 </r>
       <r>    -4.8558    29.7065   623.2590 </r>
       <r>    -4.7214    41.3130   628.8139 </r>
       <r>    -4.5869    34.6973   633.4792 </r>
       <r>    -4.4524    42.1755   639.1500 </r>
       <r>    -4.3180    35.0561   643.8636 </r>
       <r>    -4.1835    43.1936   649.6713 </r>
       <r>    -4.0491    41.9475   655.3115 </r>
       <r>    -3.9146    34.3519   659.9304 </r>
       <r>    -3.7802    33.8879   664.4869 </r>
       <r>    -3.6457    39.2162   669.7598 </r>
       <r>    -3.5112    32.1403   674.0813 </r>
       <r>    -3.3768    31.7114   678.3452 </r>
       <r>    -3.2423    31.1449   682.5329 </r>
       <r>    -3.1079    32.3393   686.8811 </r>
       <r>    -2.9734    29.1600   690.8019 </r>
       <r>    -2.8389    42.7812   696.5542 </r>
       <r>    -2.7045    40.1199   701.9486 </r>
       <r>    -2.5700    42.6843   707.6879 </r>
       <r>    -2.4356    38.5861   712.8761 </r>
       <r>    -2.3011    46.3590   719.1094 </r>
       <r>    -2.1667    40.7144   724.5838 </r>
       <r>    -2.0322    45.9941   730.7680 </r>
       <r>    -1.8977    54.4345   738.0872 </r>
       <r>    -1.7633    53.2244   745.2436 </r>
       <r>    -1.6288    48.3854   751.7494 </r>
       <r>    -1.4944    56.0279   759.2828 </r>
       <r>    -1.3599    59.2800   767.2535 </r>
       <r>    -1.2255    60.8864   775.4401 </r>
       <r>    -1.0910    60.7531   783.6089 </r>
       <r>    -0.9565    59.8349   791.6541 </r>
       <r>    -0.8221    59.6464   799.6741 </r>
       <r>    -0.6876    54.2619   806.9700 </r>
       <r>    -0.5532    56.8009   814.6073 </r>
       <r>    -0.4187    63.0235   823.0813 </r>
       <r>    -0.2842    62.5749   831.4950 </r>
       <r>    -0.1498    64.1376   840.1188 </r>
       <r>    -0.0153    68.2784   849.2994 </r>
       <r>     0.1191    61.5200   857.5712 </r>
       <r>     0.2536    67.5108   866.6486 </r>
       <r>     0.3880    79.4935   877.3371 </r>
       <r>     0.5225    71.9622   887.0130 </r>
       <r>     0.6570    81.8751   898.0218 </r>
       <r>     0.7914    75.9430   908.2329 </r>
       <r>     0.9259    84.6682   919.6172 </r>
       <r>     1.0603    86.9453   931.3077 </r>
       <r>     1.1948   100.5416   944.8263 </r>
       <r>     1.3292   100.4502   958.3326 </r>
       <r>     1.4637    89.2643   970.3349 </r>
       <r>     1.5982   102.8668   984.1661 </r>
       <r>     1.7326    87.5598   995.9392 </r>
       <r>     1.8671    76.2296  1006.1889 </r>
       <r>     2.0015    71.3792  1015.7864 </r>
       <r>     2.1360    47.7624  1022.2084 </r>
       <r>     2.2705    44.4122  1028.1800 </r>
       <r>     2.4049    33.3532  1032.6646 </r>
       <r>     2.5394    27.9040  1036.4165 </r>
       <r>     2.6738    22.9706  1039.5051 </r>
       <r>     2.8083     3.6805  1040.0000 </r>
       <r>     2.9427     0.0003  1040.0000 </r>
       <r>     3.0772     0.0000  1040.0000 </r>
       <r>     3.2117     0.0000  1040.0000 </r>
       <r>     3.3461     0.0884  1040.0119 </r>
       <r>     3.4806    11.9799  1041.6227 </r>
       <r>     3.6150     7.9704  1042.6944 </r>
       <r>     3.7495     9.6217  1043.9881 </r>
       <r>     3.8839     0.0887  1044.0000 </r>
       <r>     4.0184     0.4684  1044.0630 </r>
       <r>     4.1529     3.7226  1044.5635 </r>
       <r>     4.2873    10.5613  1045.9836 </r>
       <r>     4.4218    13.8427  1047.8448 </r>
       <r>     4.5562     1.1541  1048.0000 </r>
       <r>     4.6907     0.0003  1048.0000 </r>
       <r>     4.8252     1.4352  1048.1930 </r>
       <r>     4.9596     8.6389  1049.3546 </r>
       <r>     5.0941     4.7944  1049.9992 </r>
       <r>     5.2285     0.0057  1050.0000 </r>
       <r>     5.3630     0.0000  1050.0000 </r>
       <r>     5.4974     0.0000  1050.0000 </r>
       <r>     5.6319     0.4757  1050.0640 </r>
       <r>     5.7664     6.2214  1050.9005 </r>
       <r>     5.9008     3.0171  1051.3062 </r>
       <r>     6.0353     5.1079  1051.9930 </r>
       <r>     6.1697     0.0524  1052.0000 </r>
       <r>     6.3042     0.9100  1052.1224 </r>
       <r>     6.4386    13.6306  1053.9551 </r>
       <r>     6.5731     0.3339  1054.0000 </r>
       <r>     6.7076     0.0000  1054.0000 </r>
       <r>     6.8420     0.0000  1054.0000 </r>
       <r>     6.9765     0.0000  1054.0000 </r>
       <r>     7.1109     0.0000  1054.0000 </r>
       <r>     7.2454     0.0000  1054.0000 </r>
       <r>     7.3799     0.0000  1054.0000 </r>
       <r>     7.5143     0.0000  1054.0000 </r>
       <r>     7.6488     0.3282  1054.0441 </r>
       <r>     7.7832     2.3995  1054.3668 </r>
       <r>     7.9177     2.7651  1054.7385 </r>
       <r>     8.0521     0.4764  1054.8026 </r>
       <r>     8.1866     2.9169  1055.1948 </r>
       <r>     8.3211     4.2127  1055.7612 </r>
       <r>     8.4555     3.8509  1056.2790 </r>
       <r>     8.5900     4.1301  1056.8343 </r>
       <r>     8.7244     6.0087  1057.6423 </r>
       <r>     8.8589     4.5070  1058.2483 </r>
       <r>     8.9933     6.2113  1059.0834 </r>
       <r>     9.1278     8.5966  1060.2393 </r>
       <r>     9.2623     7.1033  1061.1944 </r>
       <r>     9.3967     5.1521  1061.8871 </r>
       <r>     9.5312    13.6122  1063.7174 </r>
       <r>     9.6656    14.3575  1065.6479 </r>
       <r>     9.8001    15.2670  1067.7007 </r>
       <r>     9.9346    21.9237  1070.6485 </r>
       <r>    10.0690    20.9858  1073.4702 </r>
       <r>    10.2035    20.1904  1076.1849 </r>
       <r>    10.3379    17.9627  1078.6002 </r>
       <r>    10.4724    19.7692  1081.2583 </r>
       <r>    10.6068    29.0616  1085.1659 </r>
       <r>    10.7413    26.0853  1088.6732 </r>
       <r>    10.8758    31.7597  1092.9436 </r>
       <r>    11.0102    30.0522  1096.9843 </r>
       <r>    11.1447    22.2971  1099.9824 </r>
       <r>    11.2791    27.9759  1103.7439 </r>
       <r>    11.4136    35.9509  1108.5778 </r>
       <r>    11.5480    36.3989  1113.4719 </r>
       <r>    11.6825    32.5755  1117.8520 </r>
       <r>    11.8170    31.7371  1122.1193 </r>
       <r>    11.9514    29.3231  1126.0620 </r>
       <r>    12.0859    33.6771  1130.5901 </r>
       <r>    12.2203    30.2730  1134.6606 </r>
       <r>    12.3548    34.5506  1139.3062 </r>
       <r>    12.4893    28.0444  1143.0770 </r>
       <r>    12.6237    35.6529  1147.8708 </r>
       <r>    12.7582    28.4210  1151.6922 </r>
       <r>    12.8926    34.2638  1156.2993 </r>
       <r>    13.0271    26.6976  1159.8890 </r>
       <r>    13.1615    28.1343  1163.6718 </r>
       <r>    13.2960    27.7681  1167.4055 </r>
       <r>    13.4305    27.6167  1171.1188 </r>
       <r>    13.5649    26.2295  1174.6455 </r>
       <r>    13.6994    23.6719  1177.8284 </r>
       <r>    13.8338    28.9604  1181.7224 </r>
       <r>    13.9683    26.5736  1185.2954 </r>
       <r>    14.1027    31.7112  1189.5592 </r>
       <r>    14.2372    24.8275  1192.8975 </r>
       <r>    14.3717    23.3053  1196.0310 </r>
       <r>    14.5061    25.3066  1199.4337 </r>
       <r>    14.6406    26.4035  1202.9839 </r>
       <r>    14.7750    24.6940  1206.3042 </r>
       <r>    14.9095    22.6465  1209.3492 </r>
       <r>    15.0439    24.2182  1212.6055 </r>
       <r>    15.1784    25.9150  1216.0900 </r>
       <r>    15.3129    21.7872  1219.0194 </r>
       <r>    15.4473    22.6867  1222.0698 </r>
       <r>    15.5818    24.3552  1225.3446 </r>
       <r>    15.7162    25.9674  1228.8361 </r>
       <r>    15.8507    22.0887  1231.8061 </r>
       <r>    15.9852    19.8938  1234.4810 </r>
       <r>    16.1196    19.5266  1237.1065 </r>
       <r>    16.2541    23.3787  1240.2500 </r>
       <r>    16.3885    24.8126  1243.5862 </r>
       <r>    16.5230    17.5617  1245.9475 </r>
       <r>    16.6574    21.2278  1248.8017 </r>
       <r>    16.7919    21.1850  1251.6502 </r>
       <r>    16.9264    20.0456  1254.3455 </r>
       <r>    17.0608    20.3725  1257.0848 </r>
       <r>    17.1953    13.0801  1258.8435 </r>
       <r>    17.3297    15.0898  1260.8724 </r>
       <r>    17.4642    13.8755  1262.7381 </r>
       <r>    17.5986     9.4731  1264.0118 </r>
       <r>    17.7331    11.0832  1265.5021 </r>
       <r>    17.8676     3.6885  1265.9980 </r>
       <r>    18.0020     0.0149  1266.0000 </r>
       <r>    18.1365     0.0000  1266.0000 </r>
       <r>    18.2709     0.0000  1266.0000 </r>
       <r>    18.4054     0.0000  1266.0000 </r>
       <r>    18.5399     0.0000  1266.0000 </r>
       <r>    18.6743     0.0000  1266.0000 </r>
       <r>    18.8088     0.0000  1266.0000 </r>
       <r>    18.9432     0.0000  1266.0000 </r>
       <r>    19.0777     0.0000  1266.0000 </r>
       <r>    19.2121     0.0000  1266.0000 </r>
       <r>    19.3466     0.0000  1266.0000 </r>
       <r>    19.4811     0.0000  1266.0000 </r>
       <r>    19.6155     0.0000  1266.0000 </r>
      </set>
     </set>
    </array>
   </total>
  </dos>
 </calculation>
 <structure name="finalpos" >
  <crystal>
   <varray name="basis" >
    <v>       0.00000000      12.28047342       0.00000000 </v>
    <v>       9.14270205       0.00000000       0.00000000 </v>
    <v>       0.00000000      -2.76826177     -11.30069772 </v>
   </varray>
   <i name="volume">   1268.80515525 </i>
   <varray name="rec_basis" >
    <v>       0.00000000       0.08143009      -0.01994742 </v>
    <v>       0.10937686      -0.00000000       0.00000000 </v>
    <v>       0.00000000       0.00000000      -0.08849011 </v>
   </varray>
  </crystal>
  <varray name="positions" >
   <v>       0.67205140       0.99719916       0.15209277 </v>
   <v>       0.64348254       0.00356456       0.65362779 </v>
   <v>       0.66671193       0.32795040       0.15742241 </v>
   <v>       0.64895119       0.33169736       0.65282488 </v>
   <v>       0.66399727       0.66524847       0.16149848 </v>
   <v>       0.64135127       0.67075779       0.65349832 </v>
   <v>       0.84379181       0.15667965       0.34336112 </v>
   <v>       0.83208096       0.16754165       0.84004577 </v>
   <v>       0.84160750       0.49701055       0.34489862 </v>
   <v>       0.82851133       0.50033473       0.83505349 </v>
   <v>       0.84032200       0.82506994       0.34691642 </v>
   <v>       0.82738990       0.83379530       0.83815923 </v>
   <v>       0.58762627       0.13627206       0.39525004 </v>
   <v>       0.58442141       0.16137839       0.89936124 </v>
   <v>       0.58515383       0.50058142       0.39279236 </v>
   <v>       0.59240506       0.49879089       0.90372305 </v>
   <v>       0.58761860       0.86892755       0.39683827 </v>
   <v>       0.58755730       0.83152770       0.90295247 </v>
   <v>       0.91679680       0.96383866       0.09970835 </v>
   <v>       0.90937054       0.99662848       0.60404488 </v>
   <v>       0.91233555       0.33271036       0.10061453 </v>
   <v>       0.90504583       0.35623445       0.59873056 </v>
   <v>       0.90137445       0.69776427       0.09245824 </v>
   <v>       0.89789487       0.62511505       0.60133366 </v>
   <v>       0.15664598       0.18693100       0.15290036 </v>
   <v>       0.14643686       0.50854440       0.16912310 </v>
   <v>       0.18666873       0.45898060       0.65245456 </v>
   <v>       0.16505876       0.84852204       0.15104524 </v>
   <v>       0.15184873       0.82385965       0.66645721 </v>
   <v>       0.34588678       0.00850804       0.34630906 </v>
   <v>       0.33364819       0.99980796       0.84972782 </v>
   <v>       0.34107286       0.34129092       0.33381614 </v>
   <v>       0.34043644       0.32620520       0.85821611 </v>
   <v>       0.35011887       0.66833193       0.33521277 </v>
   <v>       0.33838536       0.66839753       0.85795713 </v>
   <v>       0.08769269       0.97294984       0.36621873 </v>
   <v>       0.08168930       0.00669190       0.89260323 </v>
   <v>       0.09273149       0.29956510       0.44319709 </v>
   <v>       0.08277799       0.34236445       0.88474614 </v>
   <v>       0.09253591       0.64816376       0.41454609 </v>
   <v>       0.07952681       0.67224724       0.89557832 </v>
   <v>       0.42229862       0.15543971       0.11700224 </v>
   <v>       0.37369639       0.17904319       0.60241522 </v>
   <v>       0.41751594       0.49684536       0.11087790 </v>
   <v>       0.40217206       0.49531182       0.60513546 </v>
   <v>       0.42454419       0.84728148       0.11777391 </v>
   <v>       0.38159786       0.85064632       0.59851910 </v>
   <v>       0.99088337       0.15704684       0.11476035 </v>
   <v>       0.97606463       0.17347763       0.61960515 </v>
   <v>       0.98240231       0.51476675       0.12451081 </v>
   <v>       0.03647329       0.48998329       0.62931164 </v>
   <v>       0.04216461       0.87150728       0.21558428 </v>
   <v>       0.98504271       0.81535170       0.63742673 </v>
   <v>       0.44166809       0.01050076       0.24652805 </v>
   <v>       0.50227643       0.99375474       0.86331616 </v>
   <v>       0.51445912       0.32125450       0.35903257 </v>
   <v>       0.50553958       0.33387251       0.89024767 </v>
   <v>       0.51711230       0.68228606       0.35834413 </v>
   <v>       0.50488069       0.66365392       0.88810605 </v>
   <v>       0.67572752       0.15937667       0.27386733 </v>
   <v>       0.66383230       0.16349656       0.78067380 </v>
   <v>       0.67351370       0.49525851       0.27860447 </v>
   <v>       0.65913709       0.50105570       0.77606829 </v>
   <v>       0.67143271       0.83626757       0.27422819 </v>
   <v>       0.65973581       0.83622363       0.77897383 </v>
   <v>       0.83185824       0.98980912       0.21932392 </v>
   <v>       0.81803084       0.99715314       0.71597966 </v>
   <v>       0.83051807       0.32885458       0.21685876 </v>
   <v>       0.81440541       0.32990705       0.72361475 </v>
   <v>       0.82759209       0.66369838       0.22227414 </v>
   <v>       0.81155535       0.67360860       0.71917544 </v>
   <v>       0.82630909       0.99129240       0.44664625 </v>
   <v>       0.82565114       0.00378342       0.94031007 </v>
   <v>       0.82667868       0.32297183       0.43582585 </v>
   <v>       0.82908501       0.33657485       0.94511977 </v>
   <v>       0.81498406       0.66505542       0.44192702 </v>
   <v>       0.81448920       0.65914226       0.93578105 </v>
   <v>       0.68149426       0.16772485       0.04884631 </v>
   <v>       0.66598731       0.16960948       0.55577703 </v>
   <v>       0.67486531       0.49889158       0.05777025 </v>
   <v>       0.65066374       0.50288024       0.55267217 </v>
   <v>       0.68019379       0.82450379       0.05178906 </v>
   <v>       0.65847283       0.83345318       0.55758246 </v>
   <v>       0.51757961       0.99958142       0.08182833 </v>
   <v>       0.48331353       0.01013405       0.61996138 </v>
   <v>       0.50631962       0.32932276       0.12415600 </v>
   <v>       0.49422064       0.32941984       0.63641606 </v>
   <v>       0.50311446       0.66872956       0.12546345 </v>
   <v>       0.47912880       0.67696868       0.62876493 </v>
   <v>       0.99676722       0.13862761       0.35164385 </v>
   <v>       0.99508351       0.17335692       0.86492905 </v>
   <v>       0.99749153       0.49411403       0.36997710 </v>
   <v>       0.99044908       0.50722402       0.85911000 </v>
   <v>       0.99960916       0.81217050       0.40865760 </v>
   <v>       0.99136552       0.83954554       0.87876166 </v>
   <v>       0.19845747       0.03261524       0.27243296 </v>
   <v>       0.17075516       0.98096913       0.79281070 </v>
   <v>       0.16854417       0.34220833       0.28166202 </v>
   <v>       0.18215672       0.33526430       0.79252090 </v>
   <v>       0.18057691       0.65411350       0.30278026 </v>
   <v>       0.17311891       0.67518490       0.79536237 </v>
   <v>       0.31583361       0.23006134       0.18948465 </v>
   <v>       0.35054803       0.16579010       0.75372481 </v>
   <v>       0.32449344       0.51076049       0.21341829 </v>
   <v>       0.34109752       0.50984166       0.74689724 </v>
   <v>       0.31542636       0.79861247       0.20030342 </v>
   <v>       0.33501725       0.82648167       0.74268635 </v>
   <v>       0.36821849       0.17523390       0.43632515 </v>
   <v>       0.33230057       0.15970305       0.96300947 </v>
   <v>       0.37767623       0.50666832       0.43766172 </v>
   <v>       0.33006270       0.49890906       0.96077672 </v>
   <v>       0.37256393       0.83738146       0.43219820 </v>
   <v>       0.33650273       0.83529424       0.96306513 </v>
   <v>       0.16049628       0.01123017       0.04802248 </v>
   <v>       0.13723469       0.35343193       0.04612562 </v>
   <v>       0.27951800       0.35680010       0.56975342 </v>
   <v>       0.13932242       0.67419706       0.05655192 </v>
   <v>       0.19210324       0.65326743       0.56275133 </v>
   <v>       0.20667706       0.99952146       0.54713697 </v>
  </varray>
 </structure>
</modeling>
