 running    4 mpi-ranks, on    1 nodes
 distrk:  each k-point on    1 cores,    4 groups
 distr:  one band on    1 cores,    1 groups
 OpenACC runtime initialized ...    4 GPUs detected
 vasp.6.4.2 20Jul23 (build Nov 12 2023 22:16:35) complex                         
 POSCAR found type information on POSCAR GaO P 
 POSCAR found :  3 types and     119 ions
 scaLAPACK will be used selectively (only on CPU)
 LDA part: xc-table for Pade appr. of Perdew
 POSCAR, INCAR and KPOINTS ok, starting setup
 FFT: planning ... GRIDC
 FFT: planning ... GRID_SOFT
 FFT: planning ... GRID
 WAVECAR not read
 entering main loop
       N       E                     dE             d eps       ncg     rms          rms(c)
DAV:   1     0.216720722889E+05    0.21672E+05   -0.31765E+05 10000   0.280E+03
DAV:   2     0.480797247771E+04   -0.16864E+05   -0.15893E+05 10000   0.813E+02
DAV:   3    -0.144315022544E+03   -0.49523E+04   -0.46662E+04 12856   0.320E+02
DAV:   4    -0.764257923939E+03   -0.61994E+03   -0.60711E+03 12384   0.121E+02
DAV:   5    -0.806727137489E+03   -0.42469E+02   -0.42142E+02 14320   0.343E+01    0.610E+01
RMM:   6    -0.698198164300E+03    0.10853E+03   -0.38509E+02 13139   0.237E+01    0.234E+01
RMM:   7    -0.704584867513E+03   -0.63867E+01   -0.69443E+01 13784   0.101E+01    0.187E+01
RMM:   8    -0.698830808186E+03    0.57541E+01   -0.11692E+01 15158   0.459E+00    0.127E+01
RMM:   9    -0.706220582784E+03   -0.73898E+01   -0.14735E+01 12782   0.427E+00    0.229E+01
RMM:  10    -0.701807720509E+03    0.44129E+01   -0.20582E+00 14729   0.178E+00    0.222E+01
RMM:  11    -0.697474766906E+03    0.43330E+01   -0.26749E+00 12742   0.142E+00    0.433E+00
RMM:  12    -0.698021671138E+03   -0.54690E+00   -0.16554E+00 13198   0.130E+00    0.572E+00
RMM:  13    -0.697426457972E+03    0.59521E+00   -0.20196E-01 14324   0.600E-01    0.421E+00
RMM:  14    -0.697200319910E+03    0.22614E+00   -0.11149E-01 13913   0.304E-01    0.299E+00
RMM:  15    -0.697203726891E+03   -0.34070E-02   -0.14180E-02 15476   0.131E-01    0.296E+00
RMM:  16    -0.697177980602E+03    0.25746E-01   -0.86541E-03 13477   0.700E-02    0.279E+00
RMM:  17    -0.697076441681E+03    0.10154E+00   -0.25916E-02 13369   0.139E-01    0.227E+00
RMM:  18    -0.697085474795E+03   -0.90331E-02   -0.10347E-01 14521   0.233E-01    0.576E+00
RMM:  19    -0.697062119895E+03    0.23355E-01   -0.16172E-02 14975   0.165E-01    0.550E+00
RMM:  20    -0.697065388710E+03   -0.32688E-02   -0.44673E-03 13040   0.585E-02    0.581E+00
RMM:  21    -0.697058495751E+03    0.68930E-02   -0.11043E-03 11120   0.304E-02    0.565E+00
RMM:  22    -0.697084189526E+03   -0.25694E-01   -0.24699E-03 12622   0.381E-02    0.683E+00
RMM:  23    -0.697035409457E+03    0.48780E-01   -0.15708E-03 13336   0.459E-02    0.556E+00
RMM:  24    -0.696986593120E+03    0.48816E-01   -0.16873E-02 17109   0.122E-01    0.304E+00
RMM:  25    -0.696980750394E+03    0.58427E-02   -0.10885E-02 15174   0.990E-02    0.744E-01
RMM:  26    -0.696991365838E+03   -0.10615E-01   -0.35720E-03 14168   0.897E-02    0.400E-01
RMM:  27    -0.696993656131E+03   -0.22903E-02   -0.23650E-03 13888   0.496E-02    0.678E-01
RMM:  28    -0.696995084301E+03   -0.14282E-02   -0.11011E-03 12524   0.366E-02    0.883E-01
RMM:  29    -0.696993330330E+03    0.17540E-02   -0.35603E-04 11997   0.257E-02    0.694E-01
RMM:  30    -0.696992746307E+03    0.58402E-03   -0.19903E-04 10982   0.169E-02    0.562E-01
RMM:  31    -0.696991920196E+03    0.82611E-03   -0.13558E-04 10290   0.135E-02    0.376E-01
RMM:  32    -0.696991748415E+03    0.17178E-03   -0.69039E-05  9642   0.105E-02    0.298E-01
RMM:  33    -0.696991576198E+03    0.17222E-03   -0.55625E-05  9328   0.891E-03    0.231E-01
RMM:  34    -0.696991390220E+03    0.18598E-03   -0.54467E-05  8851   0.875E-03    0.108E-01
RMM:  35    -0.696991347915E+03    0.42305E-04   -0.61409E-05  9231   0.938E-03    0.370E-02
RMM:  36    -0.696991343671E+03    0.42446E-05   -0.47017E-05  8757   0.873E-03
   1 F= -.69699134E+03 E0= -.69698134E+03  d E =-.696991E+03
 curvature:   0.00 expect dE= 0.000E+00 dE for cont linesearch  0.000E+00
 trial: gam= 0.00000 g(F)=  0.170E+02 g(S)=  0.000E+00 ort = 0.000E+00 (trialstep = 0.100E+01)
 search vector abs. value=  0.170E+02
 bond charge predicted
       N       E                     dE             d eps       ncg     rms          rms(c)
DAV:   1    -0.655755275621E+03    0.41236E+02   -0.68961E+03 11104   0.113E+02    0.236E+01
RMM:   2    -0.679856654159E+03   -0.24101E+02   -0.29855E+02 13900   0.296E+01    0.530E+00
RMM:   3    -0.699738116228E+03   -0.19881E+02   -0.11522E+02 14579   0.143E+01    0.106E+01
RMM:   4    -0.700409814478E+03   -0.67170E+00   -0.14554E+01 15307   0.608E+00    0.974E+00
RMM:   5    -0.700235920983E+03    0.17389E+00   -0.24790E+00 14555   0.248E+00    0.640E+00
RMM:   6    -0.700143811671E+03    0.92109E-01   -0.81450E-01 13734   0.149E+00    0.241E+00
RMM:   7    -0.700189820468E+03   -0.46009E-01   -0.51891E-01 13698   0.109E+00    0.200E+00
RMM:   8    -0.700158571930E+03    0.31249E-01   -0.14425E-01 15531   0.509E-01    0.123E+00
RMM:   9    -0.700153629763E+03    0.49422E-02   -0.31291E-02 14985   0.207E-01    0.905E-01
RMM:  10    -0.700147100550E+03    0.65292E-02   -0.15430E-02 13421   0.187E-01    0.468E-01
RMM:  11    -0.700145835682E+03    0.12649E-02   -0.70896E-03 13313   0.122E-01    0.235E-01
RMM:  12    -0.700145664986E+03    0.17070E-03   -0.21658E-03 14436   0.626E-02    0.787E-02
RMM:  13    -0.700145717605E+03   -0.52619E-04   -0.69162E-04 13580   0.319E-02    0.232E-02
RMM:  14    -0.700145746344E+03   -0.28739E-04   -0.28610E-04 11897   0.223E-02    0.308E-02
RMM:  15    -0.700145741386E+03    0.49584E-05   -0.86058E-05  9364   0.117E-02
   2 F= -.70014574E+03 E0= -.70014482E+03  d E =-.315440E+01
 trial-energy change:   -3.154398  1 .order   -5.974354  -17.033094    5.084385
 step:   0.5843(harm=  0.7701)  dis= 0.24353  next Energy=  -701.405072 (dE=-0.441E+01)
 bond charge predicted
       N       E                     dE             d eps       ncg     rms          rms(c)
DAV:   1    -0.697921295793E+03    0.22245E+01   -0.50465E+02 13672   0.310E+01    0.509E+00
RMM:   2    -0.700207219202E+03   -0.22859E+01   -0.24874E+01 13335   0.948E+00    0.185E+00
RMM:   3    -0.701048700235E+03   -0.84148E+00   -0.72798E+00 15445   0.411E+00    0.185E+00
RMM:   4    -0.701137299973E+03   -0.88600E-01   -0.10544E+00 15673   0.129E+00    0.140E+00
RMM:   5    -0.701135636515E+03    0.16635E-02   -0.10258E-01 15670   0.445E-01    0.101E+00
RMM:   6    -0.701126975067E+03    0.86614E-02   -0.44022E-02 13162   0.331E-01    0.288E-01
RMM:   7    -0.701127565975E+03   -0.59091E-03   -0.15186E-02 13709   0.181E-01    0.383E-01
RMM:   8    -0.701126829715E+03    0.73626E-03   -0.36241E-03 15116   0.880E-02    0.202E-01
RMM:   9    -0.701126540015E+03    0.28970E-03   -0.21316E-03 13472   0.591E-02    0.410E-02
RMM:  10    -0.701126560299E+03   -0.20284E-04   -0.39522E-04 13281   0.274E-02    0.190E-02
RMM:  11    -0.701126569055E+03   -0.87564E-05   -0.11369E-04 10117   0.151E-02    0.692E-03
RMM:  12    -0.701126572018E+03   -0.29624E-05   -0.34241E-05  8241   0.929E-03
   3 F= -.70112657E+03 E0= -.70112657E+03  d E =-.413523E+01
 curvature:  -0.13 expect dE=-0.294E+00 dE for cont linesearch -0.210E-02
 ZBRENT: interpolating
 opt :   0.6227  next Energy=  -701.136496 (dE=-0.415E+01)
 bond charge predicted
       N       E                     dE             d eps       ncg     rms          rms(c)
DAV:   1    -0.701122279521E+03    0.42895E-02   -0.29755E+00 12160   0.204E+00    0.294E-01
RMM:   2    -0.701131751240E+03   -0.94717E-02   -0.10221E-01 13580   0.547E-01    0.183E-01
RMM:   3    -0.701134612736E+03   -0.28615E-02   -0.31626E-02 15421   0.235E-01    0.128E-01
RMM:   4    -0.701134812370E+03   -0.19963E-03   -0.41007E-03 15405   0.860E-02    0.648E-02
RMM:   5    -0.701134787221E+03    0.25149E-04   -0.70596E-04 13935   0.356E-02    0.227E-02
RMM:   6    -0.701134795417E+03   -0.81955E-05   -0.18375E-04 11122   0.181E-02    0.106E-02
RMM:   7    -0.701134797560E+03   -0.21426E-05   -0.48226E-05  9312   0.106E-02
   4 F= -.70113480E+03 E0= -.70113480E+03  d E =-.414345E+01
 curvature:  -0.63 expect dE=-0.153E+01 dE for cont linesearch -0.257E-03
 trial: gam= 0.14670 g(F)=  0.242E+01 g(S)=  0.000E+00 ort =-0.832E-01 (trialstep = 0.925E+00)
 search vector abs. value=  0.276E+01
 bond charge predicted
       N       E                     dE             d eps       ncg     rms          rms(c)
DAV:   1    -0.700825232436E+03    0.30956E+00   -0.31100E+02 10504   0.254E+01    0.526E+00
RMM:   2    -0.702290670869E+03   -0.14654E+01   -0.16082E+01 13612   0.784E+00    0.145E+00
RMM:   3    -0.702595990327E+03   -0.30532E+00   -0.35932E+00 15406   0.300E+00    0.212E+00
RMM:   4    -0.702623674085E+03   -0.27684E-01   -0.45443E-01 15534   0.105E+00    0.188E+00
RMM:   5    -0.702601850073E+03    0.21824E-01   -0.87439E-02 15136   0.438E-01    0.698E-01
RMM:   6    -0.702600260497E+03    0.15896E-02   -0.68632E-02 12594   0.338E-01    0.797E-01
RMM:   7    -0.702596190326E+03    0.40702E-02   -0.13283E-02 15143   0.154E-01    0.331E-01
RMM:   8    -0.702595845238E+03    0.34509E-03   -0.61052E-03 13683   0.773E-02    0.670E-02
RMM:   9    -0.702595879868E+03   -0.34629E-04   -0.86496E-04 13282   0.384E-02    0.554E-02
RMM:  10    -0.702595889067E+03   -0.91995E-05   -0.38924E-04 11772   0.233E-02    0.257E-02
RMM:  11    -0.702595896739E+03   -0.76721E-05   -0.10595E-04  9968   0.131E-02    0.222E-02
RMM:  12    -0.702595896216E+03    0.52348E-06   -0.38012E-05  8602   0.840E-03
   5 F= -.70259590E+03 E0= -.70259590E+03  d E =-.146110E+01
 trial-energy change:   -1.461099  1 .order   -1.491565   -2.221985   -0.761146
 step:   1.5323(harm=  1.4063)  dis= 0.27296  next Energy=  -702.837417 (dE=-0.170E+01)
 bond charge predicted
       N       E                     dE             d eps       ncg     rms          rms(c)
DAV:   1    -0.702157878369E+03    0.43802E+00   -0.13491E+02 10920   0.167E+01    0.250E+00
RMM:   2    -0.702721216564E+03   -0.56334E+00   -0.62334E+00 13790   0.482E+00    0.930E-01
RMM:   3    -0.702825519443E+03   -0.10430E+00   -0.12670E+00 15400   0.180E+00    0.940E-01
RMM:   4    -0.702833497988E+03   -0.79785E-02   -0.16515E-01 15533   0.625E-01    0.771E-01
RMM:   5    -0.702825138110E+03    0.83599E-02   -0.43810E-02 14671   0.298E-01    0.201E-01
RMM:   6    -0.702825779704E+03   -0.64159E-03   -0.15707E-02 14217   0.160E-01    0.226E-01
RMM:   7    -0.702825249048E+03    0.53066E-03   -0.40662E-03 14669   0.762E-02    0.741E-02
RMM:   8    -0.702825318770E+03   -0.69722E-04   -0.13839E-03 13079   0.399E-02    0.339E-02
RMM:   9    -0.702825318924E+03   -0.15468E-06   -0.28557E-04 11199   0.233E-02    0.106E-02
RMM:  10    -0.702825328495E+03   -0.95704E-05   -0.11401E-04  9819   0.118E-02    0.599E-03
RMM:  11    -0.702825330051E+03   -0.15557E-05   -0.28753E-05  8577   0.789E-03
   6 F= -.70282533E+03 E0= -.70282533E+03  d E =-.169053E+01
 curvature:  -0.75 expect dE=-0.196E+01 dE for cont linesearch -0.857E-03
 trial: gam= 1.11783 g(F)=  0.261E+01 g(S)=  0.000E+00 ort =-0.561E-01 (trialstep = 0.487E+00)
 search vector abs. value=  0.593E+01
 bond charge predicted
       N       E                     dE             d eps       ncg     rms          rms(c)
DAV:   1    -0.703101354995E+03   -0.27603E+00   -0.15223E+02 10312   0.172E+01    0.399E+00
RMM:   2    -0.703759751372E+03   -0.65840E+00   -0.75760E+00 13670   0.498E+00    0.116E+00
RMM:   3    -0.703889040236E+03   -0.12929E+00   -0.15148E+00 15525   0.188E+00    0.124E+00
RMM:   4    -0.703901418049E+03   -0.12378E-01   -0.20302E-01 15506   0.674E-01    0.994E-01
RMM:   5    -0.703896508649E+03    0.49094E-02   -0.54812E-02 14175   0.337E-01    0.216E-01
RMM:   6    -0.703897324056E+03   -0.81541E-03   -0.14666E-02 15255   0.165E-01    0.213E-01
RMM:   7    -0.703897126160E+03    0.19790E-03   -0.71922E-03 14660   0.860E-02    0.672E-02
RMM:   8    -0.703897135849E+03   -0.96895E-05   -0.12098E-03 13604   0.427E-02    0.288E-02
RMM:   9    -0.703897157330E+03   -0.21481E-04   -0.39116E-04 11042   0.224E-02    0.119E-02
RMM:  10    -0.703897167079E+03   -0.97488E-05   -0.11402E-04  9906   0.134E-02    0.138E-02
RMM:  11    -0.703897166989E+03    0.89996E-07   -0.37781E-05  8955   0.888E-03
   7 F= -.70389717E+03 E0= -.70389717E+03  d E =-.107184E+01
 trial-energy change:   -1.071837  1 .order   -1.063462   -1.238646   -0.888277
 step:   1.3660(harm=  1.7201)  dis= 0.42972  next Energy=  -704.749393 (dE=-0.192E+01)
 bond charge predicted
       N       E                     dE             d eps       ncg     rms          rms(c)
DAV:   1    -0.701635147901E+03    0.22620E+01   -0.50253E+02 10425   0.315E+01    0.149E+01
RMM:   2    -0.704161867442E+03   -0.25267E+01   -0.28433E+01 13773   0.956E+00    0.247E+00
RMM:   3    -0.704660074456E+03   -0.49821E+00   -0.57181E+00 15716   0.361E+00    0.390E+00
RMM:   4    -0.704690521889E+03   -0.30447E-01   -0.70129E-01 15503   0.127E+00    0.243E+00
RMM:   5    -0.704682678824E+03    0.78431E-02   -0.19212E-01 14779   0.631E-01    0.437E-01
RMM:   6    -0.704685909728E+03   -0.32309E-02   -0.51457E-02 15345   0.301E-01    0.379E-01
RMM:   7    -0.704686858600E+03   -0.94887E-03   -0.16159E-02 15263   0.145E-01    0.133E-01
RMM:   8    -0.704687199803E+03   -0.34120E-03   -0.43531E-03 13925   0.788E-02    0.518E-02
RMM:   9    -0.704687318069E+03   -0.11827E-03   -0.15673E-03 13757   0.429E-02    0.444E-02
RMM:  10    -0.704687338159E+03   -0.20090E-04   -0.41132E-04 10894   0.232E-02    0.155E-02
RMM:  11    -0.704687350103E+03   -0.11944E-04   -0.15201E-04 10180   0.132E-02    0.561E-03
RMM:  12    -0.704687354151E+03   -0.40484E-05   -0.49199E-05  9102   0.818E-03
   8 F= -.70468735E+03 E0= -.70468248E+03  d E =-.186202E+01
 curvature:  -1.84 expect dE=-0.380E+01 dE for cont linesearch -0.319E-02
 trial: gam= 0.49888 g(F)=  0.207E+01 g(S)=  0.000E+00 ort =-0.101E+00 (trialstep = 0.662E+00)
 search vector abs. value=  0.344E+01
 bond charge predicted
       N       E                     dE             d eps       ncg     rms          rms(c)
DAV:   1    -0.704069609909E+03    0.61774E+00   -0.26207E+02 10632   0.232E+01    0.811E+00
RMM:   2    -0.705312968355E+03   -0.12434E+01   -0.13247E+01 13925   0.665E+00    0.163E+00
RMM:   3    -0.705491917474E+03   -0.17895E+00   -0.22986E+00 15527   0.239E+00    0.108E+00
RMM:   4    -0.705493312829E+03   -0.13954E-02   -0.28687E-01 15507   0.853E-01    0.443E-01
RMM:   5    -0.705495810875E+03   -0.24980E-02   -0.60182E-02 15746   0.362E-01    0.164E-01
RMM:   6    -0.705496787388E+03   -0.97651E-03   -0.13631E-02 15650   0.170E-01    0.704E-02
RMM:   7    -0.705497102198E+03   -0.31481E-03   -0.40767E-03 15220   0.835E-02    0.295E-02
RMM:   8    -0.705497199474E+03   -0.97276E-04   -0.11925E-03 14292   0.432E-02    0.903E-03
RMM:   9    -0.705497234646E+03   -0.35172E-04   -0.39047E-04 10936   0.225E-02    0.584E-03
RMM:  10    -0.705497244605E+03   -0.99590E-05   -0.12485E-04 10211   0.139E-02    0.234E-03
RMM:  11    -0.705497248370E+03   -0.37646E-05   -0.46952E-05  9077   0.851E-03
   9 F= -.70549725E+03 E0= -.70549276E+03  d E =-.809894E+00
 trial-energy change:   -0.809894  1 .order   -0.755419   -1.335372   -0.175466
 step:   0.7387(harm=  0.7627)  dis= 0.13076  next Energy=  -705.507430 (dE=-0.820E+00)
 bond charge predicted
       N       E                     dE             d eps       ncg     rms          rms(c)
DAV:   1    -0.705490996839E+03    0.62478E-02   -0.35359E+00 10936   0.265E+00    0.773E-01
RMM:   2    -0.705505844022E+03   -0.14847E-01   -0.15991E-01 13409   0.723E-01    0.267E-01
RMM:   3    -0.705507880027E+03   -0.20360E-02   -0.28747E-02 15489   0.266E-01    0.142E-01
RMM:   4    -0.705507878183E+03    0.18442E-05   -0.33728E-03 15131   0.963E-02    0.441E-02
RMM:   5    -0.705507929488E+03   -0.51305E-04   -0.79356E-04 15005   0.427E-02    0.180E-02
RMM:   6    -0.705507942256E+03   -0.12767E-04   -0.17948E-04 12224   0.196E-02    0.118E-02
RMM:   7    -0.705507945425E+03   -0.31690E-05   -0.55468E-05  9737   0.112E-02
  10 F= -.70550795E+03 E0= -.70550361E+03  d E =-.820591E+00
 curvature:  -0.61 expect dE=-0.662E+00 dE for cont linesearch -0.245E-05
 trial: gam= 0.17711 g(F)=  0.108E+01 g(S)=  0.000E+00 ort = 0.370E-02 (trialstep = 0.678E+00)
 search vector abs. value=  0.119E+01
 bond charge predicted
       N       E                     dE             d eps       ncg     rms          rms(c)
DAV:   1    -0.705544469445E+03   -0.36527E-01   -0.11659E+02 10464   0.159E+01    0.219E+00
RMM:   2    -0.705956895416E+03   -0.41243E+00   -0.44810E+00 13390   0.438E+00    0.758E-01
RMM:   3    -0.706037670621E+03   -0.80775E-01   -0.97311E-01 15267   0.167E+00    0.778E-01
RMM:   4    -0.706040448633E+03   -0.27780E-02   -0.10693E-01 15393   0.559E-01    0.515E-01
RMM:   5    -0.706037826613E+03    0.26220E-02   -0.29999E-02 14435   0.271E-01    0.122E-01
RMM:   6    -0.706038280194E+03   -0.45358E-03   -0.69537E-03 15347   0.128E-01    0.932E-02
RMM:   7    -0.706038399858E+03   -0.11966E-03   -0.24182E-03 14250   0.654E-02    0.821E-02
RMM:   8    -0.706038351351E+03    0.48508E-04   -0.57646E-04 13396   0.329E-02    0.126E-02
RMM:   9    -0.706038366281E+03   -0.14930E-04   -0.17696E-04 10868   0.165E-02    0.725E-03
RMM:  10    -0.706038370340E+03   -0.40586E-05   -0.48421E-05  8755   0.104E-02
  11 F= -.70603837E+03 E0= -.70603389E+03  d E =-.530425E+00
 trial-energy change:   -0.530425  1 .order   -0.528001   -0.731156   -0.324846
 step:   1.1876(harm=  1.2195)  dis= 0.07073  next Energy=  -706.161596 (dE=-0.654E+00)
 bond charge predicted
       N       E                     dE             d eps       ncg     rms          rms(c)
DAV:   1    -0.705897332908E+03    0.14103E+00   -0.66052E+01 10992   0.120E+01    0.158E+00
RMM:   2    -0.706124085792E+03   -0.22675E+00   -0.24680E+00 13329   0.324E+00    0.547E-01
RMM:   3    -0.706168496254E+03   -0.44410E-01   -0.53463E-01 15272   0.123E+00    0.550E-01
RMM:   4    -0.706169481500E+03   -0.98525E-03   -0.57944E-02 15327   0.412E-01    0.338E-01
RMM:   5    -0.706168221990E+03    0.12595E-02   -0.16834E-02 14533   0.201E-01    0.874E-02
RMM:   6    -0.706168476113E+03   -0.25412E-03   -0.37336E-03 15476   0.928E-02    0.668E-02
RMM:   7    -0.706168555955E+03   -0.79843E-04   -0.12860E-03 14301   0.486E-02    0.591E-02
RMM:   8    -0.706168525194E+03    0.30761E-04   -0.34330E-04 12742   0.255E-02    0.901E-03
RMM:   9    -0.706168533099E+03   -0.79053E-05   -0.10361E-04  9862   0.135E-02    0.532E-03
RMM:  10    -0.706168535224E+03   -0.21251E-05   -0.28439E-05  8402   0.884E-03
  12 F= -.70616854E+03 E0= -.70616398E+03  d E =-.660590E+00
 curvature:  -0.67 expect dE=-0.280E+00 dE for cont linesearch -0.396E-03
 trial: gam= 0.37981 g(F)=  0.418E+00 g(S)=  0.000E+00 ort = 0.265E-01 (trialstep = 0.780E+00)
 search vector abs. value=  0.609E+00
 bond charge predicted
       N       E                     dE             d eps       ncg     rms          rms(c)
DAV:   1    -0.706040276333E+03    0.12826E+00   -0.77306E+01 10760   0.131E+01    0.177E+00
RMM:   2    -0.706321375548E+03   -0.28110E+00   -0.30047E+00 13531   0.363E+00    0.618E-01
RMM:   3    -0.706377665710E+03   -0.56290E-01   -0.64664E-01 15335   0.136E+00    0.514E-01
RMM:   4    -0.706378782128E+03   -0.11164E-02   -0.73014E-02 15417   0.460E-01    0.256E-01
RMM:   5    -0.706378071214E+03    0.71091E-03   -0.17416E-02 15090   0.208E-01    0.778E-02
RMM:   6    -0.706378306463E+03   -0.23525E-03   -0.36655E-03 15498   0.925E-02    0.529E-02
RMM:   7    -0.706378350707E+03   -0.44244E-04   -0.11624E-03 14054   0.490E-02    0.304E-02
RMM:   8    -0.706378365271E+03   -0.14564E-04   -0.35802E-04 13205   0.254E-02    0.827E-03
RMM:   9    -0.706378372923E+03   -0.76516E-05   -0.99619E-05  9738   0.125E-02
  13 F= -.70637837E+03 E0= -.70637365E+03  d E =-.209838E+00
 trial-energy change:   -0.209838  1 .order   -0.208010   -0.333776   -0.082244
 step:   1.0208(harm=  1.0346)  dis= 0.03629  next Energy=  -706.391146 (dE=-0.223E+00)
 bond charge predicted
       N       E                     dE             d eps       ncg     rms          rms(c)
DAV:   1    -0.706361554807E+03    0.16810E-01   -0.74095E+00 11528   0.404E+00    0.536E-01
RMM:   2    -0.706387075673E+03   -0.25521E-01   -0.27371E-01 13438   0.109E+00    0.192E-01
RMM:   3    -0.706391977479E+03   -0.49018E-02   -0.56772E-02 15318   0.404E-01    0.157E-01
RMM:   4    -0.706392006546E+03   -0.29067E-04   -0.65172E-03 15269   0.139E-01    0.695E-02
RMM:   5    -0.706391976013E+03    0.30532E-04   -0.16581E-03 15061   0.631E-02    0.232E-02
RMM:   6    -0.706391997614E+03   -0.21601E-04   -0.34386E-04 13767   0.279E-02    0.149E-02
RMM:   7    -0.706392001348E+03   -0.37337E-05   -0.10983E-04 10434   0.155E-02    0.635E-03
RMM:   8    -0.706392003259E+03   -0.19113E-05   -0.33766E-05  8731   0.929E-03
  14 F= -.70639200E+03 E0= -.70638725E+03  d E =-.223468E+00
 curvature:  -0.73 expect dE=-0.162E+00 dE for cont linesearch -0.154E-04
 trial: gam= 0.53092 g(F)=  0.221E+00 g(S)=  0.000E+00 ort = 0.357E-02 (trialstep = 0.828E+00)
 search vector abs. value=  0.397E+00
 bond charge predicted
       N       E                     dE             d eps       ncg     rms          rms(c)
DAV:   1    -0.706267166793E+03    0.12483E+00   -0.57382E+01 10688   0.113E+01    0.125E+00
RMM:   2    -0.706468761371E+03   -0.20159E+00   -0.21180E+00 13562   0.315E+00    0.416E-01
RMM:   3    -0.706515295165E+03   -0.46534E-01   -0.50499E-01 15171   0.120E+00    0.382E-01
RMM:   4    -0.706517838154E+03   -0.25430E-02   -0.56226E-02 15487   0.399E-01    0.215E-01
RMM:   5    -0.706517217118E+03    0.62104E-03   -0.12070E-02 14986   0.175E-01    0.662E-02
RMM:   6    -0.706517387500E+03   -0.17038E-03   -0.25942E-03 15500   0.796E-02    0.483E-02
RMM:   7    -0.706517413984E+03   -0.26484E-04   -0.80142E-04 14804   0.401E-02    0.315E-02
RMM:   8    -0.706517414272E+03   -0.28757E-06   -0.20518E-04 11863   0.195E-02    0.155E-02
RMM:   9    -0.706517415347E+03   -0.10752E-05   -0.67483E-05  9468   0.119E-02
  15 F= -.70651742E+03 E0= -.70651261E+03  d E =-.125412E+00
 trial-energy change:   -0.125412  1 .order   -0.123922   -0.184698   -0.063145
 step:   1.2161(harm=  1.2580)  dis= 0.04202  next Energy=  -706.532371 (dE=-0.140E+00)
 bond charge predicted
       N       E                     dE             d eps       ncg     rms          rms(c)
DAV:   1    -0.706481693333E+03    0.35721E-01   -0.12605E+01 11240   0.525E+00    0.591E-01
RMM:   2    -0.706523473344E+03   -0.41780E-01   -0.43979E-01 13394   0.143E+00    0.196E-01
RMM:   3    -0.706533359835E+03   -0.98865E-02   -0.10783E-01 15155   0.549E-01    0.179E-01
RMM:   4    -0.706533874549E+03   -0.51471E-03   -0.12007E-02 15374   0.183E-01    0.978E-02
RMM:   5    -0.706533750813E+03    0.12374E-03   -0.26230E-03 14879   0.819E-02    0.308E-02
RMM:   6    -0.706533788447E+03   -0.37634E-04   -0.57641E-04 14980   0.372E-02    0.219E-02
RMM:   7    -0.706533793576E+03   -0.51289E-05   -0.17299E-04 12074   0.190E-02    0.126E-02
RMM:   8    -0.706533794272E+03   -0.69605E-06   -0.46533E-05  8999   0.107E-02
  16 F= -.70653379E+03 E0= -.70652896E+03  d E =-.141791E+00
 curvature:  -1.11 expect dE=-0.141E+00 dE for cont linesearch -0.734E-04
 trial: gam= 0.53948 g(F)=  0.127E+00 g(S)=  0.000E+00 ort = 0.513E-02 (trialstep = 0.906E+00)
 search vector abs. value=  0.248E+00
 bond charge predicted
       N       E                     dE             d eps       ncg     rms          rms(c)
DAV:   1    -0.706410694600E+03    0.12310E+00   -0.43875E+01 10704   0.983E+00    0.121E+00
RMM:   2    -0.706567103442E+03   -0.15641E+00   -0.16403E+00 13590   0.272E+00    0.395E-01
RMM:   3    -0.706601375248E+03   -0.34272E-01   -0.37677E-01 15229   0.102E+00    0.343E-01
RMM:   4    -0.706602801164E+03   -0.14259E-02   -0.40740E-02 15458   0.337E-01    0.178E-01
RMM:   5    -0.706602449627E+03    0.35154E-03   -0.89425E-03 14988   0.147E-01    0.611E-02
RMM:   6    -0.706602564286E+03   -0.11466E-03   -0.19045E-03 15457   0.662E-02    0.366E-02
RMM:   7    -0.706602592378E+03   -0.28092E-04   -0.60524E-04 14364   0.334E-02    0.258E-02
RMM:   8    -0.706602593103E+03   -0.72438E-06   -0.16231E-04 10654   0.174E-02    0.824E-03
RMM:   9    -0.706602596480E+03   -0.33779E-05   -0.54309E-05  9254   0.108E-02
  17 F= -.70660260E+03 E0= -.70659771E+03  d E =-.688022E-01
 trial-energy change:   -0.068802  1 .order   -0.067887   -0.117736   -0.018037
 step:   1.0594(harm=  1.0694)  dis= 0.02821  next Energy=  -706.604134 (dE=-0.703E-01)
 bond charge predicted
       N       E                     dE             d eps       ncg     rms          rms(c)
DAV:   1    -0.706599320484E+03    0.32726E-02   -0.12713E+00 11736   0.166E+00    0.204E-01
RMM:   2    -0.706603446983E+03   -0.41265E-02   -0.43407E-02 13345   0.439E-01    0.667E-02
RMM:   3    -0.706604320841E+03   -0.87386E-03   -0.97133E-03 15191   0.167E-01    0.570E-02
RMM:   4    -0.706604350847E+03   -0.30006E-04   -0.11136E-03 15046   0.565E-02    0.268E-02
RMM:   5    -0.706604345773E+03    0.50735E-05   -0.25545E-04 13032   0.254E-02    0.908E-03
RMM:   6    -0.706604348336E+03   -0.25626E-05   -0.50096E-05  9671   0.121E-02
  18 F= -.70660435E+03 E0= -.70659945E+03  d E =-.705541E-01
 curvature:  -1.02 expect dE=-0.602E-01 dE for cont linesearch -0.269E-06
 trial: gam= 0.47480 g(F)=  0.591E-01 g(S)=  0.000E+00 ort = 0.256E-03 (trialstep = 0.936E+00)
 search vector abs. value=  0.115E+00
 bond charge predicted
       N       E                     dE             d eps       ncg     rms          rms(c)
DAV:   1    -0.706547400777E+03    0.56945E-01   -0.21789E+01 10864   0.692E+00    0.691E-01
RMM:   2    -0.706620277149E+03   -0.72876E-01   -0.76841E-01 13357   0.184E+00    0.253E-01
RMM:   3    -0.706635509245E+03   -0.15232E-01   -0.16749E-01 15270   0.699E-01    0.255E-01
RMM:   4    -0.706635883512E+03   -0.37427E-03   -0.18035E-02 15269   0.228E-01    0.129E-01
RMM:   5    -0.706635715813E+03    0.16770E-03   -0.47632E-03 14882   0.105E-01    0.580E-02
RMM:   6    -0.706635750696E+03   -0.34883E-04   -0.92867E-04 15333   0.464E-02    0.329E-02
RMM:   7    -0.706635759846E+03   -0.91501E-05   -0.33772E-04 12823   0.247E-02    0.174E-02
RMM:   8    -0.706635760639E+03   -0.79297E-06   -0.80481E-05  9725   0.133E-02
  19 F= -.70663576E+03 E0= -.70663086E+03  d E =-.314123E-01
 trial-energy change:   -0.031412  1 .order   -0.030554   -0.055481   -0.005627
 step:   1.0312(harm=  1.0420)  dis= 0.01218  next Energy=  -706.636047 (dE=-0.317E-01)
 bond charge predicted
       N       E                     dE             d eps       ncg     rms          rms(c)
DAV:   1    -0.706635284914E+03    0.47493E-03   -0.22418E-01 11952   0.702E-01    0.685E-02
RMM:   2    -0.706636012003E+03   -0.72709E-03   -0.76648E-03 13212   0.185E-01    0.253E-02
RMM:   3    -0.706636170055E+03   -0.15805E-03   -0.17431E-03 15171   0.712E-02    0.257E-02
RMM:   4    -0.706636175705E+03   -0.56500E-05   -0.20048E-04 12635   0.243E-02    0.136E-02
RMM:   5    -0.706636173915E+03    0.17899E-05   -0.60336E-05 10048   0.145E-02
  20 F= -.70663617E+03 E0= -.70663127E+03  d E =-.318256E-01
 curvature:  -1.00 expect dE=-0.272E-01 dE for cont linesearch -0.104E-04
 trial: gam= 0.44077 g(F)=  0.271E-01 g(S)=  0.000E+00 ort = 0.109E-02 (trialstep = 0.955E+00)
 search vector abs. value=  0.505E-01
 bond charge predicted
       N       E                     dE             d eps       ncg     rms          rms(c)
DAV:   1    -0.706613044284E+03    0.23131E-01   -0.10051E+01 10920   0.473E+00    0.486E-01
RMM:   2    -0.706645996049E+03   -0.32952E-01   -0.34589E-01 13176   0.125E+00    0.162E-01
RMM:   3    -0.706653324517E+03   -0.73285E-02   -0.79099E-02 15229   0.485E-01    0.166E-01
RMM:   4    -0.706653703995E+03   -0.37948E-03   -0.86413E-03 15286   0.159E-01    0.101E-01
RMM:   5    -0.706653588846E+03    0.11515E-03   -0.22058E-03 14591   0.738E-02    0.388E-02
RMM:   6    -0.706653612974E+03   -0.24128E-04   -0.46914E-04 14929   0.339E-02    0.252E-02
RMM:   7    -0.706653618796E+03   -0.58221E-05   -0.17679E-04 11712   0.178E-02    0.162E-02
RMM:   8    -0.706653617720E+03    0.10756E-05   -0.41555E-05  8815   0.101E-02
  21 F= -.70665362E+03 E0= -.70664871E+03  d E =-.174438E-01
 trial-energy change:   -0.017444  1 .order   -0.017116   -0.026359   -0.007872
 step:   1.3102(harm=  1.3621)  dis= 0.00754  next Energy=  -706.655097 (dE=-0.189E-01)
 bond charge predicted
       N       E                     dE             d eps       ncg     rms          rms(c)
DAV:   1    -0.706649947479E+03    0.36713E-02   -0.13876E+00 11512   0.176E+00    0.179E-01
RMM:   2    -0.706654442607E+03   -0.44951E-02   -0.47175E-02 13163   0.459E-01    0.600E-02
RMM:   3    -0.706655429819E+03   -0.98721E-03   -0.10679E-02 15225   0.178E-01    0.612E-02
RMM:   4    -0.706655480390E+03   -0.50571E-04   -0.11821E-03 15033   0.587E-02    0.367E-02
RMM:   5    -0.706655466471E+03    0.13919E-04   -0.31805E-04 12912   0.282E-02    0.147E-02
RMM:   6    -0.706655468645E+03   -0.21731E-05   -0.59337E-05  9874   0.130E-02
  22 F= -.70665547E+03 E0= -.70665056E+03  d E =-.192947E-01
 curvature:  -1.23 expect dE=-0.197E-01 dE for cont linesearch -0.260E-04
 trial: gam= 0.57401 g(F)=  0.161E-01 g(S)=  0.000E+00 ort = 0.104E-02 (trialstep = 0.103E+01)
 search vector abs. value=  0.339E-01
 bond charge predicted
       N       E                     dE             d eps       ncg     rms          rms(c)
DAV:   1    -0.706634284558E+03    0.21182E-01   -0.77490E+00 10800   0.416E+00    0.432E-01
RMM:   2    -0.706659898903E+03   -0.25614E-01   -0.26898E-01 13189   0.110E+00    0.144E-01
RMM:   3    -0.706665606345E+03   -0.57074E-02   -0.61613E-02 15194   0.427E-01    0.148E-01
RMM:   4    -0.706665907227E+03   -0.30088E-03   -0.68034E-03 15284   0.141E-01    0.928E-02
RMM:   5    -0.706665799647E+03    0.10758E-03   -0.17353E-03 14394   0.660E-02    0.341E-02
RMM:   6    -0.706665819775E+03   -0.20128E-04   -0.37618E-04 14458   0.306E-02    0.227E-02
RMM:   7    -0.706665823534E+03   -0.37595E-05   -0.13404E-04 10801   0.157E-02    0.140E-02
RMM:   8    -0.706665822480E+03    0.10540E-05   -0.33641E-05  8456   0.960E-03
  23 F= -.70666582E+03 E0= -.70666089E+03  d E =-.103538E-01
 trial-energy change:   -0.010354  1 .order   -0.009930   -0.017082   -0.002778
 step:   1.1915(harm=  1.2256)  dis= 0.00732  next Energy=  -706.666048 (dE=-0.106E-01)
 bond charge predicted
       N       E                     dE             d eps       ncg     rms          rms(c)
DAV:   1    -0.706665351445E+03    0.47209E-03   -0.20102E-01 11872   0.669E-01    0.685E-02
RMM:   2    -0.706665998179E+03   -0.64673E-03   -0.67874E-03 13145   0.173E-01    0.229E-02
RMM:   3    -0.706666138072E+03   -0.13989E-03   -0.15185E-03 15057   0.672E-02    0.232E-02
RMM:   4    -0.706666145347E+03   -0.72744E-05   -0.17635E-04 12655   0.232E-02    0.138E-02
RMM:   5    -0.706666143631E+03    0.17161E-05   -0.53631E-05  9939   0.138E-02
  24 F= -.70666614E+03 E0= -.70666121E+03  d E =-.106750E-01
 curvature:  -1.21 expect dE=-0.114E-01 dE for cont linesearch -0.103E-04
 trial: gam= 0.62689 g(F)=  0.945E-02 g(S)=  0.000E+00 ort = 0.536E-03 (trialstep = 0.106E+01)
 search vector abs. value=  0.234E-01
 bond charge predicted
       N       E                     dE             d eps       ncg     rms          rms(c)
DAV:   1    -0.706650625218E+03    0.15520E-01   -0.57164E+00 10832   0.356E+00    0.384E-01
RMM:   2    -0.706668442050E+03   -0.17817E-01   -0.18725E-01 12993   0.921E-01    0.122E-01
RMM:   3    -0.706672666775E+03   -0.42247E-02   -0.45231E-02 15130   0.366E-01    0.121E-01
RMM:   4    -0.706672933113E+03   -0.26634E-03   -0.49972E-03 15350   0.120E-01    0.774E-02
RMM:   5    -0.706672865547E+03    0.67566E-04   -0.12221E-03 14286   0.549E-02    0.315E-02
RMM:   6    -0.706672879421E+03   -0.13875E-04   -0.27350E-04 13575   0.256E-02    0.206E-02
RMM:   7    -0.706672881881E+03   -0.24590E-05   -0.99602E-05 10238   0.138E-02
  25 F= -.70667288E+03 E0= -.70666794E+03  d E =-.673825E-02
 trial-energy change:   -0.006738  1 .order   -0.006341   -0.010367   -0.002315
 step:   1.2835(harm=  1.3639)  dis= 0.00782  next Energy=  -706.673131 (dE=-0.699E-02)
 bond charge predicted
       N       E                     dE             d eps       ncg     rms          rms(c)
DAV:   1    -0.706672344268E+03    0.53515E-03   -0.25620E-01 11480   0.754E-01    0.765E-02
RMM:   2    -0.706673141432E+03   -0.79716E-03   -0.83698E-03 12998   0.195E-01    0.254E-02
RMM:   3    -0.706673329356E+03   -0.18792E-03   -0.20394E-03 15022   0.773E-02    0.265E-02
RMM:   4    -0.706673340558E+03   -0.11201E-04   -0.22662E-04 12888   0.260E-02    0.167E-02
RMM:   5    -0.706673338200E+03    0.23578E-05   -0.72996E-05 10439   0.159E-02
  26 F= -.70667334E+03 E0= -.70666839E+03  d E =-.719457E-02
 curvature:  -1.52 expect dE=-0.877E-02 dE for cont linesearch -0.732E-04
 trial: gam= 0.51977 g(F)=  0.577E-02 g(S)=  0.000E+00 ort = 0.106E-02 (trialstep = 0.110E+01)
 search vector abs. value=  0.132E-01
 bond charge predicted
       N       E                     dE             d eps       ncg     rms          rms(c)
DAV:   1    -0.706663673143E+03    0.96674E-02   -0.34374E+00 10624   0.278E+00    0.300E-01
RMM:   2    -0.706674995414E+03   -0.11322E-01   -0.11884E-01 13171   0.737E-01    0.963E-02
RMM:   3    -0.706677619253E+03   -0.26238E-02   -0.27899E-02 15205   0.286E-01    0.956E-02
RMM:   4    -0.706677780709E+03   -0.16146E-03   -0.30406E-03 15260   0.939E-02    0.607E-02
RMM:   5    -0.706677747301E+03    0.33409E-04   -0.76250E-04 14405   0.434E-02    0.238E-02
RMM:   6    -0.706677755063E+03   -0.77626E-05   -0.16039E-04 12635   0.200E-02    0.154E-02
RMM:   7    -0.706677756250E+03   -0.11868E-05   -0.55283E-05  9478   0.111E-02
  27 F= -.70667776E+03 E0= -.70667281E+03  d E =-.441805E-02
 trial-energy change:   -0.004418  1 .order   -0.004108   -0.006980   -0.001236
 step:   1.2771(harm=  1.3418)  dis= 0.00541  next Energy=  -706.677854 (dE=-0.452E-02)
 bond charge predicted
       N       E                     dE             d eps       ncg     rms          rms(c)
DAV:   1    -0.706677603809E+03    0.15125E-03   -0.84640E-02 11688   0.437E-01    0.438E-02
RMM:   2    -0.706677883368E+03   -0.27956E-03   -0.29283E-03 13154   0.116E-01    0.149E-02
RMM:   3    -0.706677947062E+03   -0.63694E-04   -0.69579E-04 14853   0.452E-02    0.156E-02
RMM:   4    -0.706677951371E+03   -0.43097E-05   -0.84201E-05 11637   0.162E-02
  28 F= -.70667795E+03 E0= -.70667300E+03  d E =-.461317E-02
 curvature:  -1.30 expect dE=-0.443E-02 dE for cont linesearch -0.166E-04
 trial: gam= 0.63916 g(F)=  0.341E-02 g(S)=  0.000E+00 ort = 0.411E-03 (trialstep = 0.114E+01)
 search vector abs. value=  0.933E-02
 bond charge predicted
       N       E                     dE             d eps       ncg     rms          rms(c)
DAV:   1    -0.706670661571E+03    0.72855E-02   -0.25609E+00 10968   0.241E+00    0.241E-01
RMM:   2    -0.706678669422E+03   -0.80079E-02   -0.83750E-02 13059   0.625E-01    0.795E-02
RMM:   3    -0.706680579609E+03   -0.19102E-02   -0.20017E-02 15133   0.246E-01    0.787E-02
RMM:   4    -0.706680723450E+03   -0.14384E-03   -0.22531E-03 15272   0.817E-02    0.541E-02
RMM:   5    -0.706680699936E+03    0.23514E-04   -0.54026E-04 14141   0.369E-02    0.201E-02
RMM:   6    -0.706680706323E+03   -0.63878E-05   -0.11437E-04 11857   0.176E-02    0.142E-02
RMM:   7    -0.706680706734E+03   -0.41029E-06   -0.42155E-05  9086   0.103E-02
  29 F= -.70668071E+03 E0= -.70667576E+03  d E =-.275536E-02
 trial-energy change:   -0.002755  1 .order   -0.002464   -0.004187   -0.000742
 step:   1.2945(harm=  1.3842)  dis= 0.00484  next Energy=  -706.680758 (dE=-0.281E-02)
 bond charge predicted
       N       E                     dE             d eps       ncg     rms          rms(c)
DAV:   1    -0.706680637220E+03    0.69103E-04   -0.48300E-02 11984   0.331E-01    0.303E-02
RMM:   2    -0.706680788946E+03   -0.15173E-03   -0.15842E-03 13021   0.856E-02    0.108E-02
RMM:   3    -0.706680824063E+03   -0.35116E-04   -0.38245E-04 14053   0.342E-02    0.116E-02
RMM:   4    -0.706680827201E+03   -0.31389E-05   -0.52223E-05  9636   0.146E-02
  30 F= -.70668083E+03 E0= -.70667588E+03  d E =-.287583E-02
 curvature:  -1.52 expect dE=-0.280E-02 dE for cont linesearch -0.133E-04
 trial: gam= 0.53911 g(F)=  0.184E-02 g(S)=  0.000E+00 ort = 0.285E-03 (trialstep = 0.117E+01)
 search vector abs. value=  0.486E-02
 bond charge predicted
       N       E                     dE             d eps       ncg     rms          rms(c)
DAV:   1    -0.706676907859E+03    0.39162E-02   -0.14483E+00 11112   0.181E+00    0.181E-01
RMM:   2    -0.706681346308E+03   -0.44384E-02   -0.46420E-02 13030   0.468E-01    0.586E-02
RMM:   3    -0.706682432192E+03   -0.10859E-02   -0.11454E-02 15133   0.186E-01    0.577E-02
RMM:   4    -0.706682512036E+03   -0.79844E-04   -0.12789E-03 15158   0.614E-02    0.393E-02
RMM:   5    -0.706682495249E+03    0.16787E-04   -0.31084E-04 12869   0.283E-02    0.148E-02
RMM:   6    -0.706682498393E+03   -0.31444E-05   -0.61778E-05  9957   0.136E-02
  31 F= -.70668250E+03 E0= -.70667754E+03  d E =-.167119E-02
 trial-energy change:   -0.001671  1 .order   -0.001425   -0.002328   -0.000523
 step:   1.3447(harm=  1.5087)  dis= 0.00366  next Energy=  -706.682538 (dE=-0.171E-02)
 bond charge predicted
       N       E                     dE             d eps       ncg     rms          rms(c)
DAV:   1    -0.706682454302E+03    0.40947E-04   -0.33166E-02 11992   0.276E-01    0.244E-02
RMM:   2    -0.706682568986E+03   -0.11468E-03   -0.12069E-03 13064   0.772E-02    0.933E-03
RMM:   3    -0.706682595176E+03   -0.26190E-04   -0.28953E-04 13670   0.306E-02    0.108E-02
RMM:   4    -0.706682597108E+03   -0.19325E-05   -0.42726E-05  8857   0.140E-02
  32 F= -.70668260E+03 E0= -.70667764E+03  d E =-.176991E-02
 curvature:  -1.41 expect dE=-0.168E-02 dE for cont linesearch -0.164E-04
 trial: gam= 0.63474 g(F)=  0.120E-02 g(S)=  0.000E+00 ort = 0.238E-03 (trialstep = 0.120E+01)
 search vector abs. value=  0.345E-02
 bond charge predicted
       N       E                     dE             d eps       ncg     rms          rms(c)
DAV:   1    -0.706679468026E+03    0.31271E-02   -0.11064E+00 11070   0.158E+00    0.157E-01
RMM:   2    -0.706682862892E+03   -0.33949E-02   -0.35536E-02 12957   0.407E-01    0.513E-02
RMM:   3    -0.706683697033E+03   -0.83414E-03   -0.87963E-03 15059   0.162E-01    0.509E-02
RMM:   4    -0.706683760600E+03   -0.63567E-04   -0.99732E-04 15084   0.538E-02    0.362E-02
RMM:   5    -0.706683746802E+03    0.13797E-04   -0.25865E-04 12566   0.254E-02    0.160E-02
RMM:   6    -0.706683747607E+03   -0.80442E-06   -0.47190E-05  9434   0.119E-02
  33 F= -.70668375E+03 E0= -.70667879E+03  d E =-.115050E-02
 trial-energy change:   -0.001150  1 .order   -0.000972   -0.001622   -0.000323
 step:   1.3599(harm=  1.5040)  dis= 0.00241  next Energy=  -706.683769 (dE=-0.117E-02)
 bond charge predicted
       N       E                     dE             d eps       ncg     rms          rms(c)
DAV:   1    -0.706683723820E+03    0.22983E-04   -0.18914E-02 12024   0.208E-01    0.183E-02
RMM:   2    -0.706683791156E+03   -0.67336E-04   -0.70720E-04 12999   0.578E-02    0.734E-03
RMM:   3    -0.706683805120E+03   -0.13964E-04   -0.16294E-04 12748   0.230E-02    0.844E-03
RMM:   4    -0.706683806132E+03   -0.10125E-05   -0.26936E-05  6525   0.118E-02
  34 F= -.70668381E+03 E0= -.70667885E+03  d E =-.120902E-02
 curvature:  -1.48 expect dE=-0.157E-02 dE for cont linesearch -0.126E-04
 trial: gam= 0.92922 g(F)=  0.106E-02 g(S)=  0.000E+00 ort = 0.171E-03 (trialstep = 0.979E+00)
 search vector abs. value=  0.436E-02
 bond charge predicted
       N       E                     dE             d eps       ncg     rms          rms(c)
DAV:   1    -0.706681302425E+03    0.25027E-02   -0.92187E-01 11056   0.144E+00    0.145E-01
RMM:   2    -0.706684031399E+03   -0.27290E-02   -0.28543E-02 12799   0.366E-01    0.470E-02
RMM:   3    -0.706684726107E+03   -0.69471E-03   -0.72908E-03 15040   0.148E-01    0.457E-02
RMM:   4    -0.706684783709E+03   -0.57602E-04   -0.84406E-04 15033   0.495E-02    0.331E-02
RMM:   5    -0.706684775122E+03    0.85873E-05   -0.20751E-04 12401   0.234E-02    0.129E-02
RMM:   6    -0.706684776533E+03   -0.14115E-05   -0.39121E-05  9025   0.111E-02
  35 F= -.70668478E+03 E0= -.70667982E+03  d E =-.970401E-03
 trial-energy change:   -0.000970  1 .order   -0.000830   -0.001194   -0.000465
 step:   1.2328(harm=  1.6036)  dis= 0.00257  next Energy=  -706.684839 (dE=-0.103E-02)
 bond charge predicted
       N       E                     dE             d eps       ncg     rms          rms(c)
DAV:   1    -0.706684662352E+03    0.11277E-03   -0.63231E-02 11744   0.379E-01    0.349E-02
RMM:   2    -0.706684862683E+03   -0.20033E-03   -0.20988E-03 12820   0.990E-02    0.125E-02
RMM:   3    -0.706684909421E+03   -0.46739E-04   -0.50861E-04 14429   0.397E-02    0.138E-02
RMM:   4    -0.706684912934E+03   -0.35124E-05   -0.67070E-05 10550   0.156E-02
  36 F= -.70668491E+03 E0= -.70667995E+03  d E =-.110680E-02
 curvature:  -1.86 expect dE=-0.104E-02 dE for cont linesearch -0.238E-04
 ZBRENT: increasing intervall
 opt :   1.7413  next Energy=  -706.684911 (dE=-0.111E-02)
 bond charge predicted
       N       E                     dE             d eps       ncg     rms          rms(c)
DAV:   1    -0.706684112996E+03    0.79643E-03   -0.24853E-01 11182   0.748E-01    0.761E-02
RMM:   2    -0.706684837724E+03   -0.72473E-03   -0.75782E-03 12817   0.186E-01    0.246E-02
RMM:   3    -0.706685012598E+03   -0.17487E-03   -0.18498E-03 14955   0.747E-02    0.228E-02
RMM:   4    -0.706685026889E+03   -0.14291E-04   -0.21908E-04 12854   0.254E-02    0.157E-02
RMM:   5    -0.706685026054E+03    0.83501E-06   -0.62475E-05  9901   0.148E-02
  37 F= -.70668503E+03 E0= -.70668007E+03  d E =-.121992E-02
 curvature:   0.12 expect dE= 0.142E-03 dE for cont linesearch  0.781E-07
 trial: gam= 1.44475 g(F)=  0.122E-02 g(S)=  0.000E+00 ort =-0.540E-04 (trialstep = 0.485E+00)
 search vector abs. value=  0.102E-01
 bond charge predicted
       N       E                     dE             d eps       ncg     rms          rms(c)
DAV:   1    -0.706683593310E+03    0.14336E-02   -0.52254E-01 11368   0.109E+00    0.110E-01
RMM:   2    -0.706685108310E+03   -0.15150E-02   -0.15806E-02 12716   0.272E-01    0.354E-02
RMM:   3    -0.706685502840E+03   -0.39453E-03   -0.40944E-03 14974   0.112E-01    0.332E-02
RMM:   4    -0.706685539002E+03   -0.36162E-04   -0.49558E-04 14820   0.378E-02    0.252E-02
RMM:   5    -0.706685534859E+03    0.41426E-05   -0.11670E-04 10713   0.178E-02    0.103E-02
RMM:   6    -0.706685535657E+03   -0.79747E-06   -0.25712E-05  8026   0.927E-03
  38 F= -.70668554E+03 E0= -.70668057E+03  d E =-.509603E-03
 trial-energy change:   -0.000510  1 .order   -0.000419   -0.000554   -0.000284
 step:   0.6266(harm=  0.9960)  dis= 0.00198  next Energy=  -706.685579 (dE=-0.553E-03)
 bond charge predicted
       N       E                     dE             d eps       ncg     rms          rms(c)
DAV:   1    -0.706685473000E+03    0.61860E-04   -0.44969E-02 11848   0.320E-01    0.294E-02
RMM:   2    -0.706685606673E+03   -0.13367E-03   -0.13938E-03 12705   0.779E-02    0.103E-02
RMM:   3    -0.706685636233E+03   -0.29559E-04   -0.32286E-04 13988   0.315E-02    0.110E-02
RMM:   4    -0.706685638565E+03   -0.23321E-05   -0.42283E-05  8546   0.125E-02
  39 F= -.70668564E+03 E0= -.70668067E+03  d E =-.612511E-03
 curvature:  -2.12 expect dE=-0.158E-02 dE for cont linesearch -0.304E-04
 ZBRENT: increasing intervall
 opt :   0.9094  next Energy=  -706.685689 (dE=-0.663E-03)
 bond charge predicted
       N       E                     dE             d eps       ncg     rms          rms(c)
DAV:   1    -0.706685133580E+03    0.50265E-03   -0.17668E-01 11348   0.633E-01    0.638E-02
RMM:   2    -0.706685635128E+03   -0.50155E-03   -0.52367E-03 12701   0.158E-01    0.207E-02
RMM:   3    -0.706685766293E+03   -0.13117E-03   -0.13647E-03 14895   0.646E-02    0.186E-02
RMM:   4    -0.706685777953E+03   -0.11659E-04   -0.16398E-04 12660   0.222E-02    0.135E-02
RMM:   5    -0.706685777414E+03    0.53871E-06   -0.45114E-05  9223   0.131E-02
  40 F= -.70668578E+03 E0= -.70668081E+03  d E =-.751360E-03
 curvature:  -3.53 expect dE=-0.265E-02 dE for cont linesearch -0.142E-04
 ZBRENT: increasing intervall
 opt :   1.4749  next Energy=  -706.685790 (dE=-0.764E-03)
 bond charge predicted
       N       E                     dE             d eps       ncg     rms          rms(c)
DAV:   1    -0.706683182467E+03    0.25955E-02   -0.70928E-01 11272   0.127E+00    0.127E-01
RMM:   2    -0.706685230403E+03   -0.20479E-02   -0.21375E-02 12712   0.317E-01    0.412E-02
RMM:   3    -0.706685762102E+03   -0.53170E-03   -0.55038E-03 14932   0.130E-01    0.386E-02
RMM:   4    -0.706685811287E+03   -0.49185E-04   -0.67604E-04 15068   0.442E-02    0.291E-02
RMM:   5    -0.706685805525E+03    0.57625E-05   -0.15298E-04 11744   0.199E-02    0.114E-02
RMM:   6    -0.706685806611E+03   -0.10859E-05   -0.31109E-05  8524   0.991E-03
  41 F= -.70668581E+03 E0= -.70668084E+03  d E =-.780557E-03
 curvature:  -3.10 expect dE=-0.379E-02 dE for cont linesearch -0.644E-04
 ZBRENT: bracketing found
 ZBRENT: interpolating
 opt :   1.0820  next Energy=  -706.685795 (dE=-0.769E-03)
 bond charge predicted
       N       E                     dE             d eps       ncg     rms          rms(c)
DAV:   1    -0.706684593335E+03    0.12122E-02   -0.33975E-01 11230   0.877E-01    0.899E-02
RMM:   2    -0.706685555217E+03   -0.96188E-03   -0.10051E-02 12714   0.217E-01    0.290E-02
RMM:   3    -0.706685803155E+03   -0.24794E-03   -0.25638E-03 14942   0.890E-02    0.256E-02
RMM:   4    -0.706685824643E+03   -0.21489E-04   -0.30295E-04 13528   0.303E-02    0.190E-02
RMM:   5    -0.706685822537E+03    0.21066E-05   -0.76382E-05 10334   0.165E-02
  42 F= -.70668582E+03 E0= -.70668086E+03  d E =-.796483E-03
 curvature:  -0.84 expect dE=-0.765E-03 dE for cont linesearch -0.100E-04
 ZBRENT: bisectioning
 opt :   1.2785  next Energy=  -706.685907 (dE=-0.881E-03)
 bond charge predicted
       N       E                     dE             d eps       ncg     rms          rms(c)
DAV:   1    -0.706685535607E+03    0.28904E-03   -0.85068E-02 11246   0.439E-01    0.406E-02
RMM:   2    -0.706685775821E+03   -0.24021E-03   -0.25114E-03 12752   0.107E-01    0.143E-02
RMM:   3    -0.706685829997E+03   -0.54176E-04   -0.58420E-04 14639   0.427E-02    0.141E-02
RMM:   4    -0.706685833569E+03   -0.35718E-05   -0.69250E-05 10724   0.153E-02
  43 F= -.70668583E+03 E0= -.70668087E+03  d E =-.807515E-03
 curvature:  -7.10 expect dE=-0.711E-02 dE for cont linesearch -0.761E-04
 ZBRENT: interpolating
 opt :   1.1829  next Energy=  -706.685849 (dE=-0.823E-03)
 bond charge predicted
       N       E                     dE             d eps       ncg     rms          rms(c)
DAV:   1    -0.706685751644E+03    0.78353E-04   -0.20400E-02 11294   0.216E-01    0.200E-02
RMM:   2    -0.706685817943E+03   -0.66299E-04   -0.69250E-04 12901   0.560E-02    0.694E-03
RMM:   3    -0.706685831785E+03   -0.13842E-04   -0.15883E-04 12824   0.224E-02    0.784E-03
RMM:   4    -0.706685832554E+03   -0.76921E-06   -0.21392E-05  6287   0.105E-02
  44 F= -.70668583E+03 E0= -.70668087E+03  d E =-.806500E-03
 curvature:  -1.47 expect dE=-0.142E-02 dE for cont linesearch -0.120E-04
 ZBRENT: interpolating
 opt :   1.2274  next Energy=  -706.685839 (dE=-0.813E-03)
 bond charge predicted
       N       E                     dE             d eps       ncg     rms          rms(c)
DAV:   1    -0.706685816624E+03    0.15161E-04   -0.44149E-03 11149   0.101E-01    0.937E-03
RMM:   2    -0.706685831861E+03   -0.15238E-04   -0.15919E-04 11456   0.263E-02    0.331E-03
RMM:   3    -0.706685833754E+03   -0.18928E-05   -0.34645E-05  6889   0.114E-02
  45 F= -.70668583E+03 E0= -.70668087E+03  d E =-.807701E-03
 curvature:  -0.79 expect dE=-0.759E-03 dE for cont linesearch -0.632E-05
 ZBRENT: interpolating
 opt :   1.2052  next Energy=  -706.685837 (dE=-0.811E-03)
 bond charge predicted
       N       E                     dE             d eps       ncg     rms          rms(c)
DAV:   1    -0.706685829968E+03    0.18936E-05   -0.10491E-03 10613   0.492E-02    0.679E-03
RMM:   2    -0.706685833810E+03   -0.38418E-05   -0.40668E-05  8460   0.133E-02
  46 F= -.70668583E+03 E0= -.70668087E+03  d E =-.807756E-03
 curvature:  -0.39 expect dE=-0.379E-03 dE for cont linesearch -0.859E-05
 ZBRENT: interpolating
 opt :   1.2190  next Energy=  -706.685835 (dE=-0.809E-03)
 bond charge predicted
       N       E                     dE             d eps       ncg     rms          rms(c)
DAV:   1    -0.706685833081E+03   -0.31131E-05   -0.37439E-04 10278   0.300E-02    0.374E-03
RMM:   2    -0.706685834633E+03   -0.15524E-05   -0.18087E-05  5858   0.106E-02
  47 F= -.70668583E+03 E0= -.70668087E+03  d E =-.808580E-03
 curvature:  -0.06 expect dE=-0.530E-04 dE for cont linesearch -0.484E-06
 ZBRENT: bisectioning
 opt :   1.2121  next Energy=  -706.685837 (dE=-0.811E-03)
 bond charge predicted
       N       E                     dE             d eps       ncg     rms          rms(c)
DAV:   1    -0.706685833727E+03   -0.64642E-06   -0.83297E-05  9813   0.170E-02    0.182E-03
RMM:   2    -0.706685834819E+03   -0.10917E-05   -0.12016E-05  5277   0.776E-03
  48 F= -.70668583E+03 E0= -.70668087E+03  d E =-.808765E-03
 curvature:  -0.24 expect dE=-0.235E-03 dE for cont linesearch -0.191E-05
 ZBRENT: interpolating
 opt :   1.2155  next Energy=  -706.685835 (dE=-0.809E-03)
 bond charge predicted
       N       E                     dE             d eps       ncg     rms          rms(c)
DAV:   1    -0.706685834416E+03   -0.68850E-06   -0.16315E-05  7022   0.109E-02    0.109E-03
RMM:   2    -0.706685834842E+03   -0.42618E-06   -0.44735E-06  5133   0.464E-03
  49 F= -.70668583E+03 E0= -.70668087E+03  d E =-.808788E-03
 curvature:  -0.06 expect dE=-0.581E-04 dE for cont linesearch -0.422E-06
 ZBRENT: interpolating
 opt :   1.2139  next Energy=  -706.685835 (dE=-0.809E-03)
 bond charge predicted
       N       E                     dE             d eps       ncg     rms          rms(c)
DAV:   1    -0.706685834775E+03   -0.35894E-06   -0.22046E-06  5476   0.603E-03    0.904E-04
RMM:   2    -0.706685834868E+03   -0.93503E-07   -0.11518E-06  4645   0.212E-03
  50 F= -.70668583E+03 E0= -.70668087E+03  d E =-.808815E-03
 curvature:  -0.03 expect dE=-0.294E-04 dE for cont linesearch -0.129E-06
 ZBRENT: interpolating
 opt :   1.2146  next Energy=  -706.685835 (dE=-0.809E-03)
 bond charge predicted
       N       E                     dE             d eps       ncg     rms          rms(c)
DAV:   1    -0.706685834923E+03   -0.14820E-06   -0.34373E-07  5360   0.311E-03    0.400E-04
RMM:   2    -0.706685834927E+03   -0.38781E-08   -0.87395E-08  1834   0.876E-04
  51 F= -.70668583E+03 E0= -.70668087E+03  d E =-.808873E-03
 curvature:  -0.02 expect dE=-0.167E-04 dE for cont linesearch -0.634E-08
 trial: gam= 0.45509 g(F)=  0.954E-03 g(S)=  0.000E+00 ort =-0.607E-04 (trialstep = 0.631E+00)
 search vector abs. value=  0.300E-02
 bond charge predicted
       N       E                     dE             d eps       ncg     rms          rms(c)
DAV:   1    -0.706685286506E+03    0.54842E-03   -0.25225E-01 11319   0.766E-01    0.718E-02
RMM:   2    -0.706686071342E+03   -0.78484E-03   -0.81915E-03 13064   0.201E-01    0.246E-02
RMM:   3    -0.706686267001E+03   -0.19566E-03   -0.20699E-03 14957   0.798E-02    0.250E-02
RMM:   4    -0.706686282845E+03   -0.15844E-04   -0.23703E-04 13416   0.274E-02    0.186E-02
RMM:   5    -0.706686279101E+03    0.37444E-05   -0.63697E-05 10314   0.153E-02
  52 F= -.70668628E+03 E0= -.70668131E+03  d E =-.444174E-03
 trial-energy change:   -0.000444  1 .order   -0.000399   -0.000585   -0.000213
 step:   0.8170(harm=  0.9927)  dis= 0.00163  next Energy=  -706.686312 (dE=-0.477E-03)
 bond charge predicted
       N       E                     dE             d eps       ncg     rms          rms(c)
DAV:   1    -0.706686251045E+03    0.31801E-04   -0.22017E-02 11806   0.227E-01    0.247E-02
RMM:   2    -0.706686324168E+03   -0.73123E-04   -0.76656E-04 13059   0.626E-02    0.783E-03
RMM:   3    -0.706686343189E+03   -0.19021E-04   -0.20523E-04 12876   0.255E-02    0.662E-03
RMM:   4    -0.706686345547E+03   -0.23583E-05   -0.33084E-05  6955   0.131E-02
  53 F= -.70668635E+03 E0= -.70668137E+03  d E =-.510621E-03
 curvature:  -1.23 expect dE=-0.422E-03 dE for cont linesearch -0.521E-05
 ZBRENT: increasing intervall
 opt :   1.1888  next Energy=  -706.686304 (dE=-0.469E-03)
 bond charge predicted
       N       E                     dE             d eps       ncg     rms          rms(c)
DAV:   1    -0.706686034692E+03    0.30850E-03   -0.87603E-02 11392   0.452E-01    0.425E-02
RMM:   2    -0.706686308907E+03   -0.27422E-03   -0.28622E-03 13062   0.121E-01    0.147E-02
RMM:   3    -0.706686379412E+03   -0.70505E-04   -0.74606E-04 14753   0.479E-02    0.143E-02
RMM:   4    -0.706686385515E+03   -0.61027E-05   -0.90628E-05 11964   0.174E-02
  54 F= -.70668639E+03 E0= -.70668141E+03  d E =-.550588E-03
 curvature:   9.80 expect dE= 0.589E-02 dE for cont linesearch  0.146E-03
 ZBRENT: bracketing found
 ZBRENT: interpolating
 opt :   0.9463  next Energy=  -706.686353 (dE=-0.518E-03)
 bond charge predicted
       N       E                     dE             d eps       ncg     rms          rms(c)
DAV:   1    -0.706686203638E+03    0.17577E-03   -0.37247E-02 11382   0.296E-01    0.266E-02
RMM:   2    -0.706686335836E+03   -0.13220E-03   -0.13889E-03 13214   0.850E-02    0.943E-03
RMM:   3    -0.706686369728E+03   -0.33891E-04   -0.36119E-04 14331   0.338E-02    0.110E-02
RMM:   4    -0.706686372370E+03   -0.26427E-05   -0.49834E-05  8115   0.140E-02
  55 F= -.70668637E+03 E0= -.70668140E+03  d E =-.537443E-03
 curvature:  -0.49 expect dE=-0.218E-03 dE for cont linesearch -0.171E-04
 ZBRENT: interpolating
 opt :   1.0929  next Energy=  -706.686396 (dE=-0.561E-03)
 bond charge predicted
       N       E                     dE             d eps       ncg     rms          rms(c)
DAV:   1    -0.706686323475E+03    0.46253E-04   -0.13539E-02 11280   0.179E-01    0.174E-02
RMM:   2    -0.706686371635E+03   -0.48160E-04   -0.50283E-04 13174   0.502E-02    0.502E-03
RMM:   3    -0.706686383427E+03   -0.11793E-04   -0.12857E-04 12547   0.203E-02    0.581E-03
RMM:   4    -0.706686384604E+03   -0.11766E-05   -0.18651E-05  5987   0.101E-02
  56 F= -.70668638E+03 E0= -.70668141E+03  d E =-.549677E-03
 curvature:  -0.29 expect dE=-0.149E-03 dE for cont linesearch -0.874E-06
 trial: gam= 0.51637 g(F)=  0.512E-03 g(S)=  0.000E+00 ort =-0.950E-04 (trialstep = 0.723E+00)
 search vector abs. value=  0.122E-02
 bond charge predicted
       N       E                     dE             d eps       ncg     rms          rms(c)
DAV:   1    -0.706686112571E+03    0.27086E-03   -0.13725E-01 11064   0.564E-01    0.585E-02
RMM:   2    -0.706686552322E+03   -0.43975E-03   -0.46179E-03 13066   0.149E-01    0.193E-02
RMM:   3    -0.706686657090E+03   -0.10477E-03   -0.11313E-03 14984   0.590E-02    0.186E-02
RMM:   4    -0.706686664537E+03   -0.74467E-05   -0.13224E-04 12430   0.207E-02    0.121E-02
RMM:   5    -0.706686663136E+03    0.14015E-05   -0.37460E-05  9104   0.126E-02
  57 F= -.70668666E+03 E0= -.70668169E+03  d E =-.278532E-03
 trial-energy change:   -0.000279  1 .order   -0.000235   -0.000335   -0.000135
 step:   0.9082(harm=  1.2114)  dis= 0.00117  next Energy=  -706.686681 (dE=-0.296E-03)
 bond charge predicted
       N       E                     dE             d eps       ncg     rms          rms(c)
DAV:   1    -0.706686659897E+03    0.46396E-05   -0.90433E-03 11896   0.145E-01    0.166E-02
RMM:   2    -0.706686690701E+03   -0.30804E-04   -0.32354E-04 12977   0.395E-02    0.507E-03
RMM:   3    -0.706686698217E+03   -0.75156E-05   -0.86065E-05 11834   0.162E-02
  58 F= -.70668670E+03 E0= -.70668172E+03  d E =-.313613E-03
 curvature:  -0.98 expect dE=-0.183E-03 dE for cont linesearch -0.938E-06
 trial: gam= 0.20535 g(F)=  0.188E-03 g(S)=  0.000E+00 ort = 0.342E-04 (trialstep = 0.760E+00)
 search vector abs. value=  0.253E-03
 bond charge predicted
       N       E                     dE             d eps       ncg     rms          rms(c)
DAV:   1    -0.706686678961E+03    0.11740E-04   -0.32287E-02 10976   0.272E-01    0.281E-02
RMM:   2    -0.706686796903E+03   -0.11794E-03   -0.12451E-03 13327   0.764E-02    0.103E-02
RMM:   3    -0.706686823824E+03   -0.26922E-04   -0.29812E-04 13706   0.302E-02    0.101E-02
RMM:   4    -0.706686825657E+03   -0.18325E-05   -0.42760E-05  8915   0.142E-02
  59 F= -.70668683E+03 E0= -.70668185E+03  d E =-.127440E-03
 trial-energy change:   -0.000127  1 .order   -0.000097   -0.000148   -0.000047
 step:   1.1143(harm=  1.1143)  dis= 0.00062  next Energy=  -706.686807 (dE=-0.108E-03)
 bond charge predicted
       N       E                     dE             d eps       ncg     rms          rms(c)
DAV:   1    -0.706686824524E+03   -0.69975E-06   -0.69662E-03 11584   0.128E-01    0.140E-02
RMM:   2    -0.706686849993E+03   -0.25469E-04   -0.26972E-04 13177   0.362E-02    0.473E-03
RMM:   3    -0.706686855093E+03   -0.50996E-05   -0.61716E-05 10224   0.140E-02
  60 F= -.70668686E+03 E0= -.70668188E+03  d E =-.156876E-03
 curvature:  -0.72 expect dE=-0.888E-04 dE for cont linesearch -0.427E-07
 trial: gam= 0.77752 g(F)=  0.123E-03 g(S)=  0.000E+00 ort = 0.386E-05 (trialstep = 0.746E+00)
 search vector abs. value=  0.282E-03
 bond charge predicted
       N       E                     dE             d eps       ncg     rms          rms(c)
DAV:   1    -0.706686807236E+03    0.42757E-04   -0.35843E-02 11144   0.285E-01    0.317E-02
RMM:   2    -0.706686924907E+03   -0.11767E-03   -0.12396E-03 12958   0.767E-02    0.103E-02
RMM:   3    -0.706686951168E+03   -0.26261E-04   -0.29048E-04 13408   0.305E-02    0.959E-03
RMM:   4    -0.706686953361E+03   -0.21929E-05   -0.45046E-05  8729   0.146E-02
  61 F= -.70668695E+03 E0= -.70668198E+03  d E =-.982681E-04
 trial-energy change:   -0.000098  1 .order   -0.000066   -0.000094   -0.000037
 step:   1.2400(harm=  1.2400)  dis= 0.00088  next Energy=  -706.686933 (dE=-0.779E-04)
 bond charge predicted
       N       E                     dE             d eps       ncg     rms          rms(c)
DAV:   1    -0.706686931375E+03    0.19793E-04   -0.15631E-02 11592   0.188E-01    0.215E-02
RMM:   2    -0.706686980872E+03   -0.49496E-04   -0.52091E-04 12831   0.501E-02    0.668E-03
RMM:   3    -0.706686992608E+03   -0.11737E-04   -0.13059E-04 12432   0.202E-02    0.574E-03
RMM:   4    -0.706686993588E+03   -0.97993E-06   -0.21504E-05  6365   0.106E-02
  62 F= -.70668699E+03 E0= -.70668202E+03  d E =-.138495E-03
 curvature:  -1.39 expect dE=-0.985E-04 dE for cont linesearch -0.153E-05
 ZBRENT: increasing intervall
 opt :   2.2271  next Energy=  -706.686979 (dE=-0.124E-03)
 bond charge predicted
       N       E                     dE             d eps       ncg     rms          rms(c)
DAV:   1    -0.706686761639E+03    0.23097E-03   -0.62502E-02 11104   0.376E-01    0.424E-02
RMM:   2    -0.706686957314E+03   -0.19567E-03   -0.20571E-03 12913   0.984E-02    0.131E-02
RMM:   3    -0.706687003217E+03   -0.45903E-04   -0.49243E-04 14566   0.388E-02    0.119E-02
RMM:   4    -0.706687006269E+03   -0.30514E-05   -0.60407E-05 10400   0.145E-02
  63 F= -.70668701E+03 E0= -.70668203E+03  d E =-.151176E-03
 curvature:  13.33 expect dE= 0.391E-02 dE for cont linesearch  0.284E-03
 ZBRENT: bracketing found
 ZBRENT: interpolating
 opt :   1.4228  next Energy=  -706.686995 (dE=-0.140E-03)
 bond charge predicted
       N       E                     dE             d eps       ncg     rms          rms(c)
DAV:   1    -0.706686832719E+03    0.17050E-03   -0.41596E-02 11088   0.308E-01    0.336E-02
RMM:   2    -0.706686971360E+03   -0.13864E-03   -0.14577E-03 12910   0.814E-02    0.107E-02
RMM:   3    -0.706687001469E+03   -0.30108E-04   -0.33271E-04 13866   0.325E-02    0.108E-02
RMM:   4    -0.706687003144E+03   -0.16749E-05   -0.44437E-05  8441   0.135E-02
  64 F= -.70668700E+03 E0= -.70668203E+03  d E =-.148051E-03
 curvature:  -0.08 expect dE=-0.106E-04 dE for cont linesearch -0.179E-05
 ZBRENT: interpolating
 opt :   1.8359  next Energy=  -706.687021 (dE=-0.166E-03)
 bond charge predicted
       N       E                     dE             d eps       ncg     rms          rms(c)
DAV:   1    -0.706686963851E+03    0.37618E-04   -0.10980E-02 11000   0.158E-01    0.170E-02
RMM:   2    -0.706687003713E+03   -0.39862E-04   -0.41851E-04 13198   0.432E-02    0.565E-03
RMM:   3    -0.706687010614E+03   -0.69007E-05   -0.86812E-05 11592   0.168E-02
  65 F= -.70668701E+03 E0= -.70668204E+03  d E =-.155521E-03
 curvature:  -0.64 expect dE=-0.123E-03 dE for cont linesearch -0.868E-05
 ZBRENT: bisectioning
 opt :   1.6293  next Energy=  -706.687023 (dE=-0.167E-03)
 bond charge predicted
       N       E                     dE             d eps       ncg     rms          rms(c)
DAV:   1    -0.706686997407E+03    0.63065E-05   -0.26669E-03 11024   0.780E-02    0.106E-02
RMM:   2    -0.706687007651E+03   -0.10244E-04   -0.10742E-04 11445   0.210E-02    0.294E-03
RMM:   3    -0.706687008822E+03   -0.11712E-05   -0.22736E-05  6390   0.965E-03
  66 F= -.70668701E+03 E0= -.70668203E+03  d E =-.153729E-03
 curvature:  -0.88 expect dE=-0.143E-03 dE for cont linesearch -0.178E-04
 ZBRENT: interpolating
 opt :   1.7429  next Energy=  -706.687013 (dE=-0.158E-03)
 bond charge predicted
       N       E                     dE             d eps       ncg     rms          rms(c)
DAV:   1    -0.706687006661E+03    0.98909E-06   -0.78121E-04 10496   0.422E-02    0.583E-03
RMM:   2    -0.706687009747E+03   -0.30856E-05   -0.32508E-05  8179   0.113E-02
  67 F= -.70668701E+03 E0= -.70668204E+03  d E =-.154654E-03
 curvature:  -0.14 expect dE=-0.243E-04 dE for cont linesearch -0.135E-05
 ZBRENT: bisectioning
 opt :   1.6861  next Energy=  -706.687013 (dE=-0.157E-03)
 bond charge predicted
       N       E                     dE             d eps       ncg     rms          rms(c)
DAV:   1    -0.706687009454E+03   -0.27923E-05   -0.18529E-04 10760   0.207E-02    0.266E-03
RMM:   2    -0.706687010093E+03   -0.63923E-06   -0.73324E-06  5339   0.613E-03
  68 F= -.70668701E+03 E0= -.70668204E+03  d E =-.155000E-03
 curvature:  -0.29 expect dE=-0.465E-04 dE for cont linesearch -0.215E-05
 ZBRENT: interpolating
 opt :   1.7127  next Energy=  -706.687011 (dE=-0.156E-03)
 bond charge predicted
       N       E                     dE             d eps       ncg     rms          rms(c)
DAV:   1    -0.706687009965E+03   -0.51165E-06   -0.35747E-05  8614   0.120E-02    0.126E-03
RMM:   2    -0.706687010579E+03   -0.61384E-06   -0.68577E-06  5120   0.568E-03
  69 F= -.70668701E+03 E0= -.70668204E+03  d E =-.155487E-03
 curvature:  -0.08 expect dE=-0.131E-04 dE for cont linesearch -0.137E-06
 ZBRENT: interpolating
 opt :   1.7042  next Energy=  -706.687011 (dE=-0.156E-03)
 bond charge predicted
       N       E                     dE             d eps       ncg     rms          rms(c)
DAV:   1    -0.706687010323E+03   -0.35806E-06   -0.29763E-06  5412   0.736E-03    0.821E-04
RMM:   2    -0.706687010404E+03   -0.81011E-07   -0.10119E-06  3926   0.213E-03
  70 F= -.70668701E+03 E0= -.70668204E+03  d E =-.155312E-03
 curvature:  -0.06 expect dE=-0.909E-05 dE for cont linesearch -0.469E-06
 ZBRENT: interpolating
 opt :   1.7101  next Energy=  -706.687011 (dE=-0.156E-03)
 bond charge predicted
       N       E                     dE             d eps       ncg     rms          rms(c)
DAV:   1    -0.706687010506E+03   -0.18279E-06   -0.51908E-07  5294   0.263E-03    0.656E-04
RMM:   2    -0.706687010534E+03   -0.27998E-07   -0.41791E-07  3813   0.152E-03
  71 F= -.70668701E+03 E0= -.70668204E+03  d E =-.155442E-03
 curvature:  -0.00 expect dE=-0.534E-06 dE for cont linesearch -0.582E-09
 trial: gam= 1.61995 g(F)=  0.157E-03 g(S)=  0.000E+00 ort =-0.695E-05 (trialstep = 0.303E+00)
 search vector abs. value=  0.874E-03
 bond charge predicted
       N       E                     dE             d eps       ncg     rms          rms(c)
DAV:   1    -0.706686991587E+03    0.18919E-04   -0.18015E-02 11299   0.202E-01    0.206E-02
RMM:   2    -0.706687045482E+03   -0.53895E-04   -0.56236E-04 12723   0.515E-02    0.666E-03
RMM:   3    -0.706687058235E+03   -0.12753E-04   -0.13932E-04 12447   0.210E-02    0.617E-03
RMM:   4    -0.706687059275E+03   -0.10407E-05   -0.21092E-05  6371   0.106E-02
  72 F= -.70668706E+03 E0= -.70668209E+03  d E =-.487410E-04
 trial-energy change:   -0.000049  1 .order   -0.000032   -0.000044   -0.000021
 step:   0.5661(harm=  0.5661)  dis= 0.00072  next Energy=  -706.687052 (dE=-0.413E-04)
 bond charge predicted
       N       E                     dE             d eps       ncg     rms          rms(c)
DAV:   1    -0.706687041633E+03    0.16601E-04   -0.13570E-02 11616   0.176E-01    0.182E-02
RMM:   2    -0.706687082199E+03   -0.40566E-04   -0.42328E-04 12628   0.463E-02    0.591E-03
RMM:   3    -0.706687093240E+03   -0.11041E-04   -0.11732E-04 11952   0.192E-02    0.518E-03
RMM:   4    -0.706687094317E+03   -0.10766E-05   -0.20313E-05  6316   0.106E-02
  73 F= -.70668709E+03 E0= -.70668212E+03  d E =-.837828E-04
 curvature:  -1.69 expect dE=-0.138E-03 dE for cont linesearch -0.300E-05
 ZBRENT: increasing intervall
 opt :   1.0929  next Energy=  -706.687100 (dE=-0.894E-04)
 bond charge predicted
       N       E                     dE             d eps       ncg     rms          rms(c)
DAV:   1    -0.706686921749E+03    0.17149E-03   -0.54292E-02 11335   0.352E-01    0.361E-02
RMM:   2    -0.706687082980E+03   -0.16123E-03   -0.16833E-03 12805   0.909E-02    0.117E-02
RMM:   3    -0.706687125601E+03   -0.42621E-04   -0.44234E-04 14191   0.369E-02    0.104E-02
RMM:   4    -0.706687129165E+03   -0.35645E-05   -0.56811E-05  9863   0.148E-02
  74 F= -.70668713E+03 E0= -.70668215E+03  d E =-.118631E-03
 curvature:  -3.19 expect dE=-0.284E-03 dE for cont linesearch -0.157E-04
 ZBRENT: bracketing found
 ZBRENT: interpolating
 opt :   0.7636  next Energy=  -706.687098 (dE=-0.877E-04)
 bond charge predicted
       N       E                     dE             d eps       ncg     rms          rms(c)
DAV:   1    -0.706687026764E+03    0.98837E-04   -0.21265E-02 11359   0.221E-01    0.215E-02
RMM:   2    -0.706687096632E+03   -0.69868E-04   -0.72887E-04 12968   0.574E-02    0.717E-03
RMM:   3    -0.706687110651E+03   -0.14019E-04   -0.15556E-04 12623   0.226E-02    0.747E-03
RMM:   4    -0.706687111630E+03   -0.97921E-06   -0.23306E-05  6430   0.110E-02
  75 F= -.70668711E+03 E0= -.70668214E+03  d E =-.101096E-03
 curvature:  -0.79 expect dE=-0.842E-04 dE for cont linesearch -0.200E-04
 ZBRENT: interpolating
 opt :   0.9921  next Energy=  -706.687132 (dE=-0.122E-03)
 bond charge predicted
       N       E                     dE             d eps       ncg     rms          rms(c)
DAV:   1    -0.706687085618E+03    0.25033E-04   -0.10217E-02 11160   0.153E-01    0.151E-02
RMM:   2    -0.706687119155E+03   -0.33537E-04   -0.34979E-04 12869   0.398E-02    0.509E-03
RMM:   3    -0.706687125797E+03   -0.66414E-05   -0.79774E-05 11350   0.159E-02
  76 F= -.70668713E+03 E0= -.70668215E+03  d E =-.115262E-03
 curvature:  -0.13 expect dE=-0.110E-04 dE for cont linesearch -0.622E-06
 ZBRENT: bisectioning
 opt :   0.8779  next Energy=  -706.687133 (dE=-0.123E-03)
 bond charge predicted
       N       E                     dE             d eps       ncg     rms          rms(c)
DAV:   1    -0.706687109726E+03    0.94289E-05   -0.24854E-03 11144   0.757E-02    0.979E-03
RMM:   2    -0.706687118996E+03   -0.92697E-05   -0.97097E-05 10694   0.196E-02
  77 F= -.70668712E+03 E0= -.70668214E+03  d E =-.108462E-03
 curvature:  -1.53 expect dE=-0.217E-03 dE for cont linesearch -0.103E-03
 ZBRENT: interpolating
 opt :   0.9681  next Energy=  -706.687127 (dE=-0.116E-03)
 bond charge predicted
       N       E                     dE             d eps       ncg     rms          rms(c)
DAV:   1    -0.706687119815E+03   -0.10089E-04   -0.14721E-03 10616   0.571E-02    0.700E-03
RMM:   2    -0.706687124022E+03   -0.42070E-05   -0.45078E-05  7395   0.151E-02
  78 F= -.70668712E+03 E0= -.70668215E+03  d E =-.113488E-03
 curvature:  -0.01 expect dE=-0.104E-05 dE for cont linesearch -0.128E-06
 ZBRENT: bisectioning
 opt :   0.9230  next Energy=  -706.687130 (dE=-0.119E-03)
 bond charge predicted
       N       E                     dE             d eps       ncg     rms          rms(c)
DAV:   1    -0.706687121175E+03   -0.13599E-05   -0.35190E-04 10240   0.292E-02    0.372E-03
RMM:   2    -0.706687122821E+03   -0.16458E-05   -0.18858E-05  5732   0.105E-02
  79 F= -.70668712E+03 E0= -.70668215E+03  d E =-.112287E-03
 curvature:  -0.53 expect dE=-0.547E-04 dE for cont linesearch -0.136E-04
 ZBRENT: interpolating
 opt :   0.9502  next Energy=  -706.687125 (dE=-0.114E-03)
 bond charge predicted
       N       E                     dE             d eps       ncg     rms          rms(c)
DAV:   1    -0.706687123043E+03   -0.18675E-05   -0.11744E-04 10672   0.206E-02    0.211E-03
RMM:   2    -0.706687124392E+03   -0.13492E-05   -0.14855E-05  5216   0.890E-03
  80 F= -.70668712E+03 E0= -.70668215E+03  d E =-.113857E-03
 curvature:  -0.03 expect dE=-0.280E-05 dE for cont linesearch -0.496E-07
 ZBRENT: interpolating
 opt :   0.9421  next Energy=  -706.687125 (dE=-0.114E-03)
 bond charge predicted
       N       E                     dE             d eps       ncg     rms          rms(c)
DAV:   1    -0.706687123627E+03   -0.58454E-06   -0.75289E-06  5606   0.102E-02    0.119E-03
RMM:   2    -0.706687123927E+03   -0.29953E-06   -0.34306E-06  4992   0.414E-03
  81 F= -.70668712E+03 E0= -.70668215E+03  d E =-.113392E-03
 curvature:  -0.12 expect dE=-0.122E-04 dE for cont linesearch -0.298E-05
 ZBRENT: interpolating
 opt :   0.9486  next Energy=  -706.687124 (dE=-0.114E-03)
 bond charge predicted
       N       E                     dE             d eps       ncg     rms          rms(c)
DAV:   1    -0.706687124174E+03   -0.54697E-06   -0.20176E-06  5344   0.602E-03    0.117E-03
RMM:   2    -0.706687124327E+03   -0.15313E-06   -0.19043E-06  5045   0.299E-03
  82 F= -.70668712E+03 E0= -.70668215E+03  d E =-.113793E-03
 curvature:  -0.00 expect dE=-0.912E-07 dE for cont linesearch -0.692E-09
 ZBRENT: interpolating
 opt :   0.9461  next Energy=  -706.687124 (dE=-0.114E-03)
 bond charge predicted
       N       E                     dE             d eps       ncg     rms          rms(c)
DAV:   1    -0.706687124283E+03   -0.10927E-06   -0.41279E-07  5262   0.450E-03    0.381E-04
RMM:   2    -0.706687124283E+03    0.49477E-09   -0.47041E-08  1159   0.776E-04
  83 F= -.70668712E+03 E0= -.70668215E+03  d E =-.113749E-03
 curvature:  -0.05 expect dE=-0.453E-05 dE for cont linesearch -0.296E-06
 ZBRENT: interpolating
 opt :   0.9480  next Energy=  -706.687124 (dE=-0.114E-03)
 bond charge predicted
       N       E                     dE             d eps       ncg     rms          rms(c)
DAV:   1    -0.706687124372E+03   -0.88941E-07   -0.31261E-07  5280   0.163E-03    0.277E-04
RMM:   2    -0.706687124374E+03   -0.12878E-08   -0.47540E-08  1337   0.868E-04
  84 F= -.70668712E+03 E0= -.70668215E+03  d E =-.113839E-03
 curvature:  -0.00 expect dE=-0.106E-06 dE for cont linesearch -0.933E-09
 ZBRENT: interpolating
 opt :   0.9483  next Energy=  -706.687124 (dE=-0.114E-03)
 bond charge predicted
       N       E                     dE             d eps       ncg     rms          rms(c)
DAV:   1    -0.706687124395E+03   -0.22890E-07   -0.17233E-07  5264   0.161E-03    0.199E-04
RMM:   2    -0.706687124393E+03    0.18044E-08   -0.61094E-09   729   0.764E-04
  85 F= -.70668712E+03 E0= -.70668215E+03  d E =-.113859E-03
 curvature:  -0.01 expect dE=-0.406E-06 dE for cont linesearch -0.358E-08
 ZBRENT: interpolating
 opt :   0.9485  next Energy=  -706.687124 (dE=-0.114E-03)
 bond charge predicted
       N       E                     dE             d eps       ncg     rms          rms(c)
DAV:   1    -0.706687124407E+03   -0.11962E-07   -0.12687E-07  5216   0.264E-03    0.219E-04
RMM:   2    -0.706687124402E+03    0.48894E-08    0.00000E+00   518   0.611E-04
  86 F= -.70668712E+03 E0= -.70668215E+03  d E =-.113868E-03
 curvature:  -0.00 expect dE=-0.195E-06 dE for cont linesearch -0.181E-08
 ZBRENT: interpolating
 opt :   0.9486  next Energy=  -706.687124 (dE=-0.114E-03)
 bond charge predicted
       N       E                     dE             d eps       ncg     rms          rms(c)
DAV:   1    -0.706687124412E+03   -0.52169E-08   -0.98708E-08  5208   0.275E-03    0.203E-04
RMM:   2    -0.706687124409E+03    0.33178E-08    0.00000E+00   463   0.567E-04
  87 F= -.70668712E+03 E0= -.70668215E+03  d E =-.113875E-03
 curvature:  -0.00 expect dE=-0.886E-07 dE for cont linesearch -0.101E-08
 ZBRENT: interpolating
 opt :   0.9486  next Energy=  -706.687124 (dE=-0.114E-03)
 bond charge predicted
       N       E                     dE             d eps       ncg     rms          rms(c)
DAV:   1    -0.706687124419E+03   -0.70722E-08   -0.79463E-08  5214   0.259E-03    0.184E-04
RMM:   2    -0.706687124416E+03    0.36889E-08    0.00000E+00   386   0.478E-04
  88 F= -.70668712E+03 E0= -.70668215E+03  d E =-.113881E-03
 curvature:  -0.00 expect dE=-0.325E-07 dE for cont linesearch -0.456E-09
 ZBRENT: interpolating
 opt :   0.9486  next Energy=  -706.687124 (dE=-0.114E-03)
 bond charge predicted
       N       E                     dE             d eps       ncg     rms          rms(c)
DAV:   1    -0.706687124419E+03    0.42928E-09   -0.59907E-08  5208   0.230E-03    0.163E-04
RMM:   2    -0.706687124416E+03    0.30268E-08    0.00000E+00   362   0.422E-04
  89 F= -.70668712E+03 E0= -.70668215E+03  d E =-.113882E-03
 curvature:  -0.00 expect dE=-0.113E-07 dE for cont linesearch -0.189E-09
 ZBRENT:  can not reach accuracy
 opt :   0.0000  next Energy=     0.000000 (dE= 0.707E+03)
 bond charge predicted
       N       E                     dE             d eps       ncg     rms          rms(c)
DAV:   1    -0.706686345423E+03    0.77900E-03   -0.17582E-01 11274   0.632E-01    0.645E-02
RMM:   2    -0.706686866743E+03   -0.52132E-03   -0.54413E-03 12805   0.160E-01    0.207E-02
RMM:   3    -0.706686999808E+03   -0.13306E-03   -0.13634E-03 14804   0.648E-02    0.192E-02
RMM:   4    -0.706687010590E+03   -0.10783E-04   -0.16781E-04 12724   0.226E-02    0.133E-02
RMM:   5    -0.706687010002E+03    0.58793E-06   -0.45525E-05  9243   0.129E-02
  90 F= -.70668701E+03 E0= -.70668204E+03  d E =0.531792E-06
 curvature:   0.00 expect dE= 0.000E+00 dE for cont linesearch  0.000E+00
 -----------------------------------------------------------------------------
|                                                                             |
|     EEEEEEE  RRRRRR   RRRRRR   OOOOOOO  RRRRRR      ###     ###     ###     |
|     E        R     R  R     R  O     O  R     R     ###     ###     ###     |
|     E        R     R  R     R  O     O  R     R     ###     ###     ###     |
|     EEEEE    RRRRRR   RRRRRR   O     O  RRRRRR       #       #       #      |
|     E        R   R    R   R    O     O  R   R                               |
|     E        R    R   R    R   O     O  R    R      ###     ###     ###     |
|     EEEEEEE  R     R  R     R  OOOOOOO  R     R     ###     ###     ###     |
|                                                                             |
|     ZBRENT: fatal error in bracketing                                       |
|      please rerun with smaller EDIFF, or copy CONTCAR                       |
|      to POSCAR and continue                                                 |
|                                                                             |
|       ---->  I REFUSE TO CONTINUE WITH THIS SICK JOB ... BYE!!! <----       |
|                                                                             |
 -----------------------------------------------------------------------------

Warning: ieee_invalid is signaling
Warning: ieee_divide_by_zero is signaling
Warning: ieee_underflow is signaling
Warning: ieee_inexact is signaling
    1
Warning: ieee_invalid is signaling
Warning: ieee_divide_by_zero is signaling
Warning: ieee_underflow is signaling
Warning: ieee_inexact is signaling
    1
Warning: ieee_invalid is signaling
Warning: ieee_divide_by_zero is signaling
Warning: ieee_underflow is signaling
Warning: ieee_inexact is signaling
    1
Warning: ieee_invalid is signaling
Warning: ieee_divide_by_zero is signaling
Warning: ieee_underflow is signaling
Warning: ieee_inexact is signaling
    1
--------------------------------------------------------------------------
Primary job  terminated normally, but 1 process returned
a non-zero exit code. Per user-direction, the job has been aborted.
--------------------------------------------------------------------------
--------------------------------------------------------------------------
mpirun detected that one or more processes exited with non-zero status, thus causing
the job to be terminated. The first process to do so was:

  Process name: [[8498,1],0]
  Exit code:    1
--------------------------------------------------------------------------
