<?xml version="1.0" encoding="ISO-8859-1"?>
<modeling>
 <generator>
  <i name="program" type="string">vasp </i>
  <i name="version" type="string">6.4.2  </i>
  <i name="subversion" type="string">20Jul23 (build Nov 12 2023 22:16:35) complex                          parallel </i>
  <i name="platform" type="string">LinuxNV </i>
  <i name="date" type="string">2025 03 11 </i>
  <i name="time" type="string">22:55:29 </i>
 </generator>
 <incar>
  <i type="int" name="ISTART">     0</i>
  <i type="string" name="PREC">Normal</i>
  <i type="string" name="ALGO">Fast</i>
  <i type="int" name="ISPIN">     1</i>
  <i type="int" name="ICHARG">     2</i>
  <i type="int" name="IBRION">     2</i>
  <i name="EDIFF">      0.00001000</i>
  <i name="EDIFFG">     -0.00500000</i>
  <i type="int" name="NSW">   300</i>
  <i type="int" name="ISIF">     2</i>
  <i name="ENCUT">    450.00000000</i>
  <i type="string" name="LREAL">Auto</i>
  <i type="logical" name="LPLANE"> T  </i>
  <i type="int" name="ISMEAR">     0</i>
  <i name="SIGMA">      0.05000000</i>
  <i type="logical" name="LWAVE"> F  </i>
  <i type="logical" name="LCHARG"> F  </i>
 </incar>
 <primitive_cell>
  <structure name="primitive_cell" >
   <crystal>
    <varray name="basis" >
     <v>       0.00000000      12.28047342       0.00000000 </v>
     <v>       9.14270205       0.00000000       0.00000000 </v>
     <v>       0.00000000      -2.76826177     -11.30069772 </v>
    </varray>
    <i name="volume">   1268.80515525 </i>
    <varray name="rec_basis" >
     <v>       0.00000000       0.08143009      -0.01994742 </v>
     <v>       0.10937686      -0.00000000       0.00000000 </v>
     <v>       0.00000000       0.00000000      -0.08849011 </v>
    </varray>
   </crystal>
   <varray name="positions" >
    <v>       0.65883830       0.00000000       0.15736517 </v>
    <v>       0.65883830       0.00000000       0.65736517 </v>
    <v>       0.65883830       0.33333333       0.15736517 </v>
    <v>       0.65883830       0.33333333       0.65736517 </v>
    <v>       0.65883830       0.66666667       0.15736517 </v>
    <v>       0.65883830       0.66666667       0.65736517 </v>
    <v>       0.84116170       0.16666667       0.34263483 </v>
    <v>       0.84116170       0.16666667       0.84263483 </v>
    <v>       0.84116170       0.50000000       0.34263483 </v>
    <v>       0.84116170       0.50000000       0.84263483 </v>
    <v>       0.84116170       0.83333333       0.34263483 </v>
    <v>       0.84116170       0.83333333       0.84263483 </v>
    <v>       0.59047440       0.16666667       0.39739300 </v>
    <v>       0.59047440       0.16666667       0.89739300 </v>
    <v>       0.59047440       0.50000000       0.39739300 </v>
    <v>       0.59047440       0.50000000       0.89739300 </v>
    <v>       0.59047440       0.83333333       0.39739300 </v>
    <v>       0.59047440       0.83333333       0.89739300 </v>
    <v>       0.90952560       0.00000000       0.10260700 </v>
    <v>       0.90952560       0.00000000       0.60260700 </v>
    <v>       0.90952560       0.33333333       0.10260700 </v>
    <v>       0.90952560       0.33333333       0.60260700 </v>
    <v>       0.90952560       0.66666667       0.10260700 </v>
    <v>       0.90952560       0.66666667       0.60260700 </v>
    <v>       0.15883830       0.16666667       0.15736517 </v>
    <v>       0.15883830       0.16666667       0.65736517 </v>
    <v>       0.15883830       0.50000000       0.15736517 </v>
    <v>       0.15883830       0.50000000       0.65736517 </v>
    <v>       0.15883830       0.83333333       0.15736517 </v>
    <v>       0.15883830       0.83333333       0.65736517 </v>
    <v>       0.34116170       0.00000000       0.34263483 </v>
    <v>       0.34116170       0.00000000       0.84263483 </v>
    <v>       0.34116170       0.33333333       0.34263483 </v>
    <v>       0.34116170       0.33333333       0.84263483 </v>
    <v>       0.34116170       0.66666667       0.34263483 </v>
    <v>       0.34116170       0.66666667       0.84263483 </v>
    <v>       0.09047440       0.00000000       0.89739300 </v>
    <v>       0.09047440       0.33333333       0.39739300 </v>
    <v>       0.09047440       0.33333333       0.89739300 </v>
    <v>       0.09047440       0.66666667       0.39739300 </v>
    <v>       0.09047440       0.66666667       0.89739300 </v>
    <v>       0.40952560       0.16666667       0.10260700 </v>
    <v>       0.40952560       0.16666667       0.60260700 </v>
    <v>       0.40952560       0.50000000       0.10260700 </v>
    <v>       0.40952560       0.50000000       0.60260700 </v>
    <v>       0.40952560       0.83333333       0.10260700 </v>
    <v>       0.40952560       0.83333333       0.60260700 </v>
    <v>       0.99646913       0.16666667       0.12833205 </v>
    <v>       0.99646913       0.16666667       0.62833205 </v>
    <v>       0.99646913       0.50000000       0.12833205 </v>
    <v>       0.99646913       0.50000000       0.62833205 </v>
    <v>       0.99646913       0.83333333       0.12833205 </v>
    <v>       0.99646913       0.83333333       0.62833205 </v>
    <v>       0.50353087       0.00000000       0.37166795 </v>
    <v>       0.50353087       0.00000000       0.87166795 </v>
    <v>       0.50353087       0.33333333       0.37166795 </v>
    <v>       0.50353087       0.33333333       0.87166795 </v>
    <v>       0.50353087       0.66666667       0.37166795 </v>
    <v>       0.50353087       0.66666667       0.87166795 </v>
    <v>       0.67337106       0.16666667       0.28161508 </v>
    <v>       0.67337106       0.16666667       0.78161508 </v>
    <v>       0.67337106       0.50000000       0.28161508 </v>
    <v>       0.67337106       0.50000000       0.78161508 </v>
    <v>       0.67337106       0.83333333       0.28161508 </v>
    <v>       0.67337106       0.83333333       0.78161508 </v>
    <v>       0.82662894       0.00000000       0.21838492 </v>
    <v>       0.82662894       0.00000000       0.71838492 </v>
    <v>       0.82662894       0.33333333       0.21838492 </v>
    <v>       0.82662894       0.33333333       0.71838492 </v>
    <v>       0.82662894       0.66666667       0.21838492 </v>
    <v>       0.82662894       0.66666667       0.71838492 </v>
    <v>       0.83549502       0.00000000       0.44542296 </v>
    <v>       0.83549502       0.00000000       0.94542296 </v>
    <v>       0.83549502       0.33333333       0.44542296 </v>
    <v>       0.83549502       0.33333333       0.94542296 </v>
    <v>       0.83549502       0.66666667       0.44542296 </v>
    <v>       0.83549502       0.66666667       0.94542296 </v>
    <v>       0.66450498       0.16666667       0.05457704 </v>
    <v>       0.66450498       0.16666667       0.55457704 </v>
    <v>       0.66450498       0.50000000       0.05457704 </v>
    <v>       0.66450498       0.50000000       0.55457704 </v>
    <v>       0.66450498       0.83333333       0.05457704 </v>
    <v>       0.66450498       0.83333333       0.55457704 </v>
    <v>       0.49646913       0.00000000       0.12833205 </v>
    <v>       0.49646913       0.00000000       0.62833205 </v>
    <v>       0.49646913       0.33333333       0.12833205 </v>
    <v>       0.49646913       0.33333333       0.62833205 </v>
    <v>       0.49646913       0.66666667       0.12833205 </v>
    <v>       0.49646913       0.66666667       0.62833205 </v>
    <v>       0.00353087       0.16666667       0.87166795 </v>
    <v>       0.00353087       0.50000000       0.37166795 </v>
    <v>       0.00353087       0.50000000       0.87166795 </v>
    <v>       0.00353087       0.83333333       0.37166795 </v>
    <v>       0.00353087       0.83333333       0.87166795 </v>
    <v>       0.17337106       0.00000000       0.28161508 </v>
    <v>       0.17337106       0.00000000       0.78161508 </v>
    <v>       0.17337106       0.33333333       0.28161508 </v>
    <v>       0.17337106       0.33333333       0.78161508 </v>
    <v>       0.17337106       0.66666667       0.28161508 </v>
    <v>       0.17337106       0.66666667       0.78161508 </v>
    <v>       0.32662894       0.16666667       0.21838492 </v>
    <v>       0.32662894       0.16666667       0.71838492 </v>
    <v>       0.32662894       0.50000000       0.21838492 </v>
    <v>       0.32662894       0.50000000       0.71838492 </v>
    <v>       0.32662894       0.83333333       0.21838492 </v>
    <v>       0.32662894       0.83333333       0.71838492 </v>
    <v>       0.33549502       0.16666667       0.44542296 </v>
    <v>       0.33549502       0.16666667       0.94542296 </v>
    <v>       0.33549502       0.50000000       0.44542296 </v>
    <v>       0.33549502       0.50000000       0.94542296 </v>
    <v>       0.33549502       0.83333333       0.44542296 </v>
    <v>       0.33549502       0.83333333       0.94542296 </v>
    <v>       0.16450498       0.00000000       0.05457704 </v>
    <v>       0.16450498       0.00000000       0.55457704 </v>
    <v>       0.16450498       0.33333333       0.05457704 </v>
    <v>       0.16450498       0.33333333       0.55457704 </v>
    <v>       0.16450498       0.66666667       0.05457704 </v>
    <v>       0.16450498       0.66666667       0.55457704 </v>
    <v>       0.00353087       0.16666667       0.37166795 </v>
   </varray>
  </structure>
  <varray name="primitive_index" >
   <v type="int" >        1 </v>
   <v type="int" >        2 </v>
   <v type="int" >        3 </v>
   <v type="int" >        4 </v>
   <v type="int" >        5 </v>
   <v type="int" >        6 </v>
   <v type="int" >        7 </v>
   <v type="int" >        8 </v>
   <v type="int" >        9 </v>
   <v type="int" >       10 </v>
   <v type="int" >       11 </v>
   <v type="int" >       12 </v>
   <v type="int" >       13 </v>
   <v type="int" >       14 </v>
   <v type="int" >       15 </v>
   <v type="int" >       16 </v>
   <v type="int" >       17 </v>
   <v type="int" >       18 </v>
   <v type="int" >       19 </v>
   <v type="int" >       20 </v>
   <v type="int" >       21 </v>
   <v type="int" >       22 </v>
   <v type="int" >       23 </v>
   <v type="int" >       24 </v>
   <v type="int" >       25 </v>
   <v type="int" >       26 </v>
   <v type="int" >       27 </v>
   <v type="int" >       28 </v>
   <v type="int" >       29 </v>
   <v type="int" >       30 </v>
   <v type="int" >       31 </v>
   <v type="int" >       32 </v>
   <v type="int" >       33 </v>
   <v type="int" >       34 </v>
   <v type="int" >       35 </v>
   <v type="int" >       36 </v>
   <v type="int" >       37 </v>
   <v type="int" >       38 </v>
   <v type="int" >       39 </v>
   <v type="int" >       40 </v>
   <v type="int" >       41 </v>
   <v type="int" >       42 </v>
   <v type="int" >       43 </v>
   <v type="int" >       44 </v>
   <v type="int" >       45 </v>
   <v type="int" >       46 </v>
   <v type="int" >       47 </v>
   <v type="int" >       48 </v>
   <v type="int" >       49 </v>
   <v type="int" >       50 </v>
   <v type="int" >       51 </v>
   <v type="int" >       52 </v>
   <v type="int" >       53 </v>
   <v type="int" >       54 </v>
   <v type="int" >       55 </v>
   <v type="int" >       56 </v>
   <v type="int" >       57 </v>
   <v type="int" >       58 </v>
   <v type="int" >       59 </v>
   <v type="int" >       60 </v>
   <v type="int" >       61 </v>
   <v type="int" >       62 </v>
   <v type="int" >       63 </v>
   <v type="int" >       64 </v>
   <v type="int" >       65 </v>
   <v type="int" >       66 </v>
   <v type="int" >       67 </v>
   <v type="int" >       68 </v>
   <v type="int" >       69 </v>
   <v type="int" >       70 </v>
   <v type="int" >       71 </v>
   <v type="int" >       72 </v>
   <v type="int" >       73 </v>
   <v type="int" >       74 </v>
   <v type="int" >       75 </v>
   <v type="int" >       76 </v>
   <v type="int" >       77 </v>
   <v type="int" >       78 </v>
   <v type="int" >       79 </v>
   <v type="int" >       80 </v>
   <v type="int" >       81 </v>
   <v type="int" >       82 </v>
   <v type="int" >       83 </v>
   <v type="int" >       84 </v>
   <v type="int" >       85 </v>
   <v type="int" >       86 </v>
   <v type="int" >       87 </v>
   <v type="int" >       88 </v>
   <v type="int" >       89 </v>
   <v type="int" >       90 </v>
   <v type="int" >       91 </v>
   <v type="int" >       92 </v>
   <v type="int" >       93 </v>
   <v type="int" >       94 </v>
   <v type="int" >       95 </v>
   <v type="int" >       96 </v>
   <v type="int" >       97 </v>
   <v type="int" >       98 </v>
   <v type="int" >       99 </v>
   <v type="int" >      100 </v>
   <v type="int" >      101 </v>
   <v type="int" >      102 </v>
   <v type="int" >      103 </v>
   <v type="int" >      104 </v>
   <v type="int" >      105 </v>
   <v type="int" >      106 </v>
   <v type="int" >      107 </v>
   <v type="int" >      108 </v>
   <v type="int" >      109 </v>
   <v type="int" >      110 </v>
   <v type="int" >      111 </v>
   <v type="int" >      112 </v>
   <v type="int" >      113 </v>
   <v type="int" >      114 </v>
   <v type="int" >      115 </v>
   <v type="int" >      116 </v>
   <v type="int" >      117 </v>
   <v type="int" >      118 </v>
   <v type="int" >      119 </v>
  </varray>
 </primitive_cell>
 <kpoints>
  <generation param="Gamma">
   <v type="int" name="divisions">       2        2        2 </v>
   <v name="usershift">      0.00000000       0.00000000       0.00000000 </v>
   <v name="genvec1">      0.50000000       0.00000000       0.00000000 </v>
   <v name="genvec2">      0.00000000       0.50000000       0.00000000 </v>
   <v name="genvec3">      0.00000000       0.00000000       0.50000000 </v>
   <v name="shift">      0.00000000       0.00000000       0.00000000 </v>
  </generation>
  <varray name="kpointlist" >
   <v>       0.00000000       0.00000000       0.00000000 </v>
   <v>       0.50000000       0.00000000       0.00000000 </v>
   <v>       0.00000000       0.50000000       0.00000000 </v>
   <v>       0.50000000       0.50000000       0.00000000 </v>
   <v>       0.00000000       0.00000000       0.50000000 </v>
   <v>       0.50000000       0.00000000       0.50000000 </v>
   <v>       0.00000000       0.50000000       0.50000000 </v>
   <v>       0.50000000       0.50000000       0.50000000 </v>
  </varray>
  <varray name="weights" >
   <v>       0.12500000 </v>
   <v>       0.12500000 </v>
   <v>       0.12500000 </v>
   <v>       0.12500000 </v>
   <v>       0.12500000 </v>
   <v>       0.12500000 </v>
   <v>       0.12500000 </v>
   <v>       0.12500000 </v>
  </varray>
 </kpoints>
 <parameters>
  <separator name="general" >
   <i type="string" name="SYSTEM">unknown system</i>
   <i type="logical" name="LCOMPAT"> F  </i>
  </separator>
  <separator name="electronic" >
   <i type="string" name="PREC">normal</i>
   <i name="ENMAX">    450.00000000</i>
   <i name="ENAUG">    605.39200000</i>
   <i name="EDIFF">      0.00001000</i>
   <i type="int" name="IALGO">    68</i>
   <i type="int" name="IWAVPR">    11</i>
   <i type="int" name="NBANDS">   625</i>
   <i type="int" name="NBANDSLOW">    -1</i>
   <i type="int" name="NBANDSHIGH">    -1</i>
   <i name="NELECT">   1042.00000000</i>
   <i type="int" name="TURBO">     0</i>
   <i type="int" name="IRESTART">     0</i>
   <i type="int" name="NREBOOT">     0</i>
   <i type="int" name="NMIN">     0</i>
   <i name="EREF">      0.00000000</i>
   <separator name="electronic smearing" >
    <i type="int" name="ISMEAR">     0</i>
    <i name="SIGMA">      0.05000000</i>
    <i name="KSPACING">      0.50000000</i>
    <i type="logical" name="KGAMMA"> T  </i>
    <i type="logical" name="KBLOWUP"> T  </i>
   </separator>
   <separator name="electronic projectors" >
    <i type="logical" name="LREAL"> T  </i>
    <v name="ROPT">     -0.00050000     -0.00050000     -0.00050000</v>
    <i type="int" name="LMAXPAW">  -100</i>
    <i type="int" name="LMAXMIX">     2</i>
    <i type="logical" name="NLSPLINE"> F  </i>
   </separator>
   <separator name="electronic startup" >
    <i type="int" name="ISTART">     0</i>
    <i type="int" name="ICHARG">     2</i>
    <i type="int" name="INIWAV">     1</i>
   </separator>
   <separator name="electronic spin" >
    <i type="int" name="ISPIN">     1</i>
    <i type="logical" name="LNONCOLLINEAR"> F  </i>
    <v name="MAGMOM">      1.00000000      1.00000000      1.00000000      1.00000000      1.00000000      1.00000000      1.00000000      1.00000000      1.00000000      1.00000000      1.00000000      1.00000000      1.00000000      1.00000000      1.00000000      1.00000000      1.00000000      1.00000000      1.00000000      1.00000000
      1.00000000      1.00000000      1.00000000      1.00000000      1.00000000      1.00000000      1.00000000      1.00000000      1.00000000      1.00000000      1.00000000      1.00000000      1.00000000      1.00000000      1.00000000      1.00000000      1.00000000      1.00000000      1.00000000      1.00000000
      1.00000000      1.00000000      1.00000000      1.00000000      1.00000000      1.00000000      1.00000000      1.00000000      1.00000000      1.00000000      1.00000000      1.00000000      1.00000000      1.00000000      1.00000000      1.00000000      1.00000000      1.00000000      1.00000000      1.00000000
      1.00000000      1.00000000      1.00000000      1.00000000      1.00000000      1.00000000      1.00000000      1.00000000      1.00000000      1.00000000      1.00000000      1.00000000      1.00000000      1.00000000      1.00000000      1.00000000      1.00000000      1.00000000      1.00000000      1.00000000
      1.00000000      1.00000000      1.00000000      1.00000000      1.00000000      1.00000000      1.00000000      1.00000000      1.00000000      1.00000000      1.00000000      1.00000000      1.00000000      1.00000000      1.00000000      1.00000000      1.00000000      1.00000000      1.00000000      1.00000000
      1.00000000      1.00000000      1.00000000      1.00000000      1.00000000      1.00000000      1.00000000      1.00000000      1.00000000      1.00000000      1.00000000      1.00000000      1.00000000      1.00000000      1.00000000      1.00000000      1.00000000      1.00000000      1.00000000</v>
    <i name="NUPDOWN">     -1.00000000</i>
    <i type="logical" name="LSORBIT"> F  </i>
    <v name="SAXIS">      0.00000000      0.00000000      1.00000000</v>
    <i type="logical" name="LSPIRAL"> F  </i>
    <v name="QSPIRAL">      0.00000000      0.00000000      0.00000000</v>
    <i type="logical" name="LZEROZ"> F  </i>
   </separator>
   <separator name="electronic exchange-correlation" >
    <i type="logical" name="LASPH"> F  </i>
    <i type="logical" name="LMETAGGA"> F  </i>
   </separator>
   <separator name="electronic convergence" >
    <i type="int" name="NELM">    60</i>
    <i type="int" name="NELMDL">    -5</i>
    <i type="int" name="NELMIN">     2</i>
    <i name="ENINI">    450.00000000</i>
    <separator name="electronic convergence detail" >
     <i type="logical" name="LDIAG"> T  </i>
     <i type="logical" name="LSUBROT"> F  </i>
     <i name="WEIMIN">      0.00100000</i>
     <i name="EBREAK">      0.00000000</i>
     <i name="DEPER">      0.30000000</i>
     <i type="int" name="NRMM">     4</i>
     <i name="TIME">      0.40000000</i>
    </separator>
   </separator>
   <separator name="electronic mixer" >
    <i name="AMIX">      0.40000000</i>
    <i name="BMIX">      1.00000000</i>
    <i name="AMIN">      0.10000000</i>
    <i name="AMIX_MAG">      1.60000000</i>
    <i name="BMIX_MAG">      1.00000000</i>
    <separator name="electronic mixer details" >
     <i type="int" name="IMIX">     4</i>
     <i type="logical" name="MIXFIRST"> F  </i>
     <i type="int" name="MAXMIX">   -45</i>
     <i name="WC">    100.00000000</i>
     <i type="int" name="INIMIX">     1</i>
     <i type="int" name="MIXPRE">     1</i>
     <i type="int" name="MREMOVE">     5</i>
    </separator>
   </separator>
   <separator name="electronic dipolcorrection" >
    <i type="logical" name="LDIPOL"> F  </i>
    <i type="logical" name="LMONO"> F  </i>
    <i type="int" name="IDIPOL">     0</i>
    <i name="EPSILON">      1.00000000</i>
    <v name="DIPOL">   -100.00000000   -100.00000000   -100.00000000</v>
    <i name="EFIELD">      0.00000000</i>
   </separator>
  </separator>
  <separator name="grids" >
   <i type="int" name="NGX">    64</i>
   <i type="int" name="NGY">    48</i>
   <i type="int" name="NGZ">    60</i>
   <i type="int" name="NGXF">   128</i>
   <i type="int" name="NGYF">    96</i>
   <i type="int" name="NGZF">   120</i>
   <i type="logical" name="ADDGRID"> F  </i>
  </separator>
  <separator name="ionic" >
   <i type="int" name="NSW">   300</i>
   <i type="int" name="IBRION">     2</i>
   <i type="int" name="MDALGO">     0</i>
   <i type="int" name="ISIF">     2</i>
   <i name="PSTRESS">      0.00000000</i>
   <i name="EDIFFG">     -0.00500000</i>
   <i type="int" name="NFREE">     1</i>
   <i name="POTIM">      0.50000000</i>
   <i name="SMASS">     -3.00000000</i>
   <i name="SCALEE">      1.00000000</i>
  </separator>
  <separator name="ionic md" >
   <i name="TEBEG">      0.00010000</i>
   <i name="TEEND">      0.00010000</i>
   <i type="int" name="NBLOCK">     1</i>
   <i type="int" name="KBLOCK">   300</i>
   <i type="int" name="NPACO">   256</i>
   <i name="APACO">     10.00000000</i>
  </separator>
  <separator name="symmetry" >
   <i type="int" name="ISYM">     2</i>
   <i name="SYMPREC">      0.00001000</i>
  </separator>
  <separator name="dos" >
   <i type="int" name="LORBIT">     0</i>
   <v name="RWIGS">     -1.00000000     -1.00000000     -1.00000000</v>
   <i type="int" name="NEDOS">   301</i>
   <i name="EMIN">     10.00000000</i>
   <i name="EMAX">    -10.00000000</i>
   <i name="EFERMI">      0.00000000</i>
  </separator>
  <separator name="writing" >
   <i type="int" name="NWRITE">     2</i>
   <i type="logical" name="LWAVE"> F  </i>
   <i type="logical" name="LDOWNSAMPLE"> F  </i>
   <i type="logical" name="LCHARG"> F  </i>
   <i type="logical" name="LPARD"> F  </i>
   <i type="logical" name="LVTOT"> F  </i>
   <i type="logical" name="LVHAR"> F  </i>
   <i type="logical" name="LELF"> F  </i>
   <i type="logical" name="LOPTICS"> F  </i>
   <v name="STM">      0.00000000      0.00000000      0.00000000      0.00000000      0.00000000      0.00000000      0.00000000</v>
  </separator>
  <separator name="performance" >
   <i type="int" name="NPAR">     1</i>
   <i type="int" name="NSIM">     4</i>
   <i type="int" name="NBLK">    -1</i>
   <i type="logical" name="LPLANE"> T  </i>
   <i type="logical" name="LSCALAPACK"> T  </i>
   <i type="logical" name="LSCAAWARE"> F  </i>
   <i type="logical" name="LSCALU"> F  </i>
   <i type="logical" name="LASYNC"> F  </i>
   <i type="logical" name="LORBITALREAL"> F  </i>
  </separator>
  <separator name="miscellaneous" >
   <i type="int" name="IDIOT">     3</i>
   <i type="int" name="PHON_NSTRUCT">    -1</i>
   <i type="logical" name="LMUSIC"> F  </i>
   <v name="POMASS">     69.72300000     16.00000000     30.97400000</v>
   <v name="DARWINR">      0.00000000      0.00000000      0.00000000</v>
   <v name="DARWINV">      1.00000000      1.00000000      1.00000000</v>
   <i type="logical" name="LCORR"> T  </i>
  </separator>
  <i type="logical" name="GGA_COMPAT"> T  </i>
  <i type="logical" name="LBERRY"> F  </i>
  <i type="int" name="ICORELEVEL">     0</i>
  <i type="logical" name="LDAU"> F  </i>
  <i type="int" name="I_CONSTRAINED_M">     0</i>
  <separator name="electronic exchange-correlation" >
   <i type="string" name="GGA">--</i>
   <i type="int" name="VOSKOWN">     0</i>
   <i type="logical" name="LHFCALC"> F  </i>
   <i type="string" name="PRECFOCK"></i>
   <i type="logical" name="LSYMGRAD"> F  </i>
   <i type="logical" name="LHFONE"> F  </i>
   <i type="logical" name="LRHFCALC"> F  </i>
   <i type="logical" name="LTHOMAS"> F  </i>
   <i type="logical" name="LMODELHF"> F  </i>
   <i type="logical" name="LFOCKACE"> F  </i>
   <i name="ENCUT4O">     -1.00000000</i>
   <i type="int" name="EXXOEP">     0</i>
   <i type="int" name="FOURORBIT">     0</i>
   <i name="AEXX">      0.00000000</i>
   <i name="HFALPHA">      0.00000000</i>
   <i name="MCALPHA">      0.00000000</i>
   <i name="ALDAX">      1.00000000</i>
   <i name="AGGAX">      1.00000000</i>
   <i name="ALDAC">      1.00000000</i>
   <i name="AGGAC">      1.00000000</i>
   <i type="int" name="NKREDX">     1</i>
   <i type="int" name="NKREDY">     1</i>
   <i type="int" name="NKREDZ">     1</i>
   <i type="logical" name="SHIFTRED"> F  </i>
   <i type="logical" name="ODDONLY"> F  </i>
   <i type="logical" name="EVENONLY"> F  </i>
   <i type="int" name="LMAXFOCK">     0</i>
   <i type="int" name="NMAXFOCKAE">     0</i>
   <i type="logical" name="LFOCKAEDFT"> F  </i>
   <i name="HFSCREEN">      0.00000000</i>
   <i name="HFSCREENC">      0.00000000</i>
   <i type="int" name="NBANDSGWLOW">     0</i>
  </separator>
  <separator name="vdW DFT" >
   <i type="logical" name="LUSE_VDW"> F  </i>
   <i type="int" name="IVDW_NL">     1</i>
   <i type="logical" name="LSPIN_VDW"> F  </i>
   <i name="Zab_VDW">     -0.84910000</i>
   <i name="PARAM1">      0.12340000</i>
   <i name="PARAM2">      1.00000000</i>
   <i name="PARAM3">      0.00000000</i>
  </separator>
  <separator name="model GW" >
   <i type="int" name="MODEL_GW">     0</i>
   <i name="MODEL_EPS0">      6.39733692</i>
   <i name="MODEL_ALPHA">      1.00000000</i>
  </separator>
  <separator name="linear response parameters" >
   <i type="logical" name="LEPSILON"> F  </i>
   <i type="logical" name="LRPA"> F  </i>
   <i type="logical" name="LNABLA"> F  </i>
   <i type="logical" name="LVEL"> F  </i>
   <i name="CSHIFT">      0.10000000</i>
   <i name="OMEGAMAX">     -1.00000000</i>
   <i name="DEG_THRESHOLD">      0.00200000</i>
   <i name="RTIME">     -0.10000000</i>
   <i name="WPLASMAI">      0.00000000</i>
   <v name="DFIELD">      0.00000000      0.00000000      0.00000000</v>
   <v name="WPLASMA">      0.00000000      0.00000000      0.00000000      0.00000000      0.00000000      0.00000000      0.00000000      0.00000000      0.00000000</v>
  </separator>
  <separator name="orbital magnetization" >
   <i type="logical" name="NUCIND"> F  </i>
   <v name="MAGPOS">      0.00000000      0.00000000      0.00000000</v>
   <i type="logical" name="LNICSALL"> T  </i>
   <i type="logical" name="ORBITALMAG"> F  </i>
   <i type="logical" name="LMAGBLOCH"> F  </i>
   <i type="logical" name="LCHIMAG"> F  </i>
   <i type="logical" name="LGAUGE"> T  </i>
   <i type="int" name="MAGATOM">     0</i>
   <v name="MAGDIPOL">      0.00000000      0.00000000      0.00000000</v>
   <v name="AVECCONST">      0.00000000      0.00000000      0.00000000</v>
  </separator>
  <separator name="response functions" >
   <i type="logical" name="LALL_IN_ONE"> F  </i>
   <i type="int" name="IALL_IN_ONE">    -1</i>
   <i type="int" name="NBANDS_WAVE">    -1</i>
   <i type="logical" name="LFINITE_TEMPERATURE"> F  </i>
   <i type="logical" name="LADDER"> F  </i>
   <i type="logical" name="LRPAFORCE"> F  </i>
   <i type="logical" name="LFXC"> F  </i>
   <i type="logical" name="LHARTREE"> T  </i>
   <i type="int" name="IBSE">     0</i>
   <v type="int" name="KPOINT">    -1     0     0     0</v>
   <i type="logical" name="LTCTC"> F  </i>
   <i type="logical" name="LTCTE"> F  </i>
   <i type="logical" name="LTETE"> F  </i>
   <i type="logical" name="LTRIPLET"> F  </i>
   <i type="logical" name="LFXCEPS"> F  </i>
   <i type="logical" name="LFXHEG"> F  </i>
   <i type="int" name="NATURALO">     2</i>
   <i type="logical" name="LHOLEGF"> F  </i>
   <i type="logical" name="L2ORDER"> F  </i>
   <i type="logical" name="LDMP1"> F  </i>
   <i type="logical" name="LMP2LT"> F  </i>
   <i type="logical" name="LSMP2LT"> F  </i>
   <i type="logical" name="LGWLF"> F  </i>
   <i name="ENCUTGW">     -1.60000002</i>
   <i name="ENCUTGWSOFT">     -1.60000002</i>
   <i name="ENCUTLF">     -1.00000000</i>
   <i type="logical" name="LESF_SPLINES"> F  </i>
   <i type="int" name="LMAXMP2">    -1</i>
   <i name="SCISSOR">      0.00000000</i>
   <i type="int" name="NOMEGA">     0</i>
   <i type="int" name="NOMEGAR">     0</i>
   <i type="int" name="NBANDSGW">    -1</i>
   <i type="int" name="NBANDSO">    -1</i>
   <i type="int" name="NBANDSV">    -1</i>
   <i type="int" name="NELMGW">     1</i>
   <i type="int" name="NELMHF">     1</i>
   <i type="int" name="DIM">     3</i>
   <i type="int" name="IESPILON">     4</i>
   <i type="int" name="ANTIRES">     0</i>
   <i name="OMEGAMAX">    -30.00000000</i>
   <i name="OMEGAMIN">    -30.00000000</i>
   <i name="OMEGATL">   -200.00000000</i>
   <i type="int" name="OMEGAGRID">     0</i>
   <i name="CSHIFT">     -0.10000000</i>
   <i type="logical" name="LSELFENERGY"> F  </i>
   <i type="logical" name="LSPECTRAL"> F  </i>
   <i type="logical" name="LSPECTRALGW"> F  </i>
   <i type="logical" name="LSINGLES"> F  </i>
   <i type="logical" name="LFERMIGW"> F  </i>
   <i type="logical" name="ODDONLYGW"> F  </i>
   <i type="logical" name="EVENONLYGW"> F  </i>
   <i type="int" name="NKREDLFX">     1</i>
   <i type="int" name="NKREDLFY">     1</i>
   <i type="int" name="NKREDLFZ">     1</i>
   <i type="int" name="MAXMEM">  2800</i>
   <i type="int" name="TELESCOPE">     0</i>
   <i type="int" name="NTAUPAR">    -1</i>
   <i type="int" name="NOMEGAPAR">    -1</i>
   <i name="DAMP_NEWTON">      0.80000001</i>
   <i name="LAMBDA">      1.00000000</i>
  </separator>
  <separator name="External order field" >
   <i name="OFIELD_KAPPA">      0.00000000</i>
   <v name="OFIELD_K">      0.00000000      0.00000000      0.00000000</v>
   <i name="OFIELD_Q6_NEAR">      0.00000000</i>
   <i name="OFIELD_Q6_FAR">      0.00000000</i>
   <i name="OFIELD_A">      0.00000000</i>
  </separator>
  <separator name="optional k-points parameters" >
   <i type="int" name="KPOINTS_OPT_MODE">     1</i>
   <i type="logical" name="LKPOINTS_OPT"> F  </i>
  </separator>
 </parameters>
 <atominfo>
  <atoms>     119 </atoms>
  <types>       3 </types>
  <array name="atoms" >
   <dimension dim="1">ion</dimension>
   <field type="string">element</field>
   <field type="int">atomtype</field>
   <set>
    <rc><c>Ga</c><c>   1</c></rc>
    <rc><c>Ga</c><c>   1</c></rc>
    <rc><c>Ga</c><c>   1</c></rc>
    <rc><c>Ga</c><c>   1</c></rc>
    <rc><c>Ga</c><c>   1</c></rc>
    <rc><c>Ga</c><c>   1</c></rc>
    <rc><c>Ga</c><c>   1</c></rc>
    <rc><c>Ga</c><c>   1</c></rc>
    <rc><c>Ga</c><c>   1</c></rc>
    <rc><c>Ga</c><c>   1</c></rc>
    <rc><c>Ga</c><c>   1</c></rc>
    <rc><c>Ga</c><c>   1</c></rc>
    <rc><c>Ga</c><c>   1</c></rc>
    <rc><c>Ga</c><c>   1</c></rc>
    <rc><c>Ga</c><c>   1</c></rc>
    <rc><c>Ga</c><c>   1</c></rc>
    <rc><c>Ga</c><c>   1</c></rc>
    <rc><c>Ga</c><c>   1</c></rc>
    <rc><c>Ga</c><c>   1</c></rc>
    <rc><c>Ga</c><c>   1</c></rc>
    <rc><c>Ga</c><c>   1</c></rc>
    <rc><c>Ga</c><c>   1</c></rc>
    <rc><c>Ga</c><c>   1</c></rc>
    <rc><c>Ga</c><c>   1</c></rc>
    <rc><c>Ga</c><c>   1</c></rc>
    <rc><c>Ga</c><c>   1</c></rc>
    <rc><c>Ga</c><c>   1</c></rc>
    <rc><c>Ga</c><c>   1</c></rc>
    <rc><c>Ga</c><c>   1</c></rc>
    <rc><c>Ga</c><c>   1</c></rc>
    <rc><c>Ga</c><c>   1</c></rc>
    <rc><c>Ga</c><c>   1</c></rc>
    <rc><c>Ga</c><c>   1</c></rc>
    <rc><c>Ga</c><c>   1</c></rc>
    <rc><c>Ga</c><c>   1</c></rc>
    <rc><c>Ga</c><c>   1</c></rc>
    <rc><c>Ga</c><c>   1</c></rc>
    <rc><c>Ga</c><c>   1</c></rc>
    <rc><c>Ga</c><c>   1</c></rc>
    <rc><c>Ga</c><c>   1</c></rc>
    <rc><c>Ga</c><c>   1</c></rc>
    <rc><c>Ga</c><c>   1</c></rc>
    <rc><c>Ga</c><c>   1</c></rc>
    <rc><c>Ga</c><c>   1</c></rc>
    <rc><c>Ga</c><c>   1</c></rc>
    <rc><c>Ga</c><c>   1</c></rc>
    <rc><c>Ga</c><c>   1</c></rc>
    <rc><c>O </c><c>   2</c></rc>
    <rc><c>O </c><c>   2</c></rc>
    <rc><c>O </c><c>   2</c></rc>
    <rc><c>O </c><c>   2</c></rc>
    <rc><c>O </c><c>   2</c></rc>
    <rc><c>O </c><c>   2</c></rc>
    <rc><c>O </c><c>   2</c></rc>
    <rc><c>O </c><c>   2</c></rc>
    <rc><c>O </c><c>   2</c></rc>
    <rc><c>O </c><c>   2</c></rc>
    <rc><c>O </c><c>   2</c></rc>
    <rc><c>O </c><c>   2</c></rc>
    <rc><c>O </c><c>   2</c></rc>
    <rc><c>O </c><c>   2</c></rc>
    <rc><c>O </c><c>   2</c></rc>
    <rc><c>O </c><c>   2</c></rc>
    <rc><c>O </c><c>   2</c></rc>
    <rc><c>O </c><c>   2</c></rc>
    <rc><c>O </c><c>   2</c></rc>
    <rc><c>O </c><c>   2</c></rc>
    <rc><c>O </c><c>   2</c></rc>
    <rc><c>O </c><c>   2</c></rc>
    <rc><c>O </c><c>   2</c></rc>
    <rc><c>O </c><c>   2</c></rc>
    <rc><c>O </c><c>   2</c></rc>
    <rc><c>O </c><c>   2</c></rc>
    <rc><c>O </c><c>   2</c></rc>
    <rc><c>O </c><c>   2</c></rc>
    <rc><c>O </c><c>   2</c></rc>
    <rc><c>O </c><c>   2</c></rc>
    <rc><c>O </c><c>   2</c></rc>
    <rc><c>O </c><c>   2</c></rc>
    <rc><c>O </c><c>   2</c></rc>
    <rc><c>O </c><c>   2</c></rc>
    <rc><c>O </c><c>   2</c></rc>
    <rc><c>O </c><c>   2</c></rc>
    <rc><c>O </c><c>   2</c></rc>
    <rc><c>O </c><c>   2</c></rc>
    <rc><c>O </c><c>   2</c></rc>
    <rc><c>O </c><c>   2</c></rc>
    <rc><c>O </c><c>   2</c></rc>
    <rc><c>O </c><c>   2</c></rc>
    <rc><c>O </c><c>   2</c></rc>
    <rc><c>O </c><c>   2</c></rc>
    <rc><c>O </c><c>   2</c></rc>
    <rc><c>O </c><c>   2</c></rc>
    <rc><c>O </c><c>   2</c></rc>
    <rc><c>O </c><c>   2</c></rc>
    <rc><c>O </c><c>   2</c></rc>
    <rc><c>O </c><c>   2</c></rc>
    <rc><c>O </c><c>   2</c></rc>
    <rc><c>O </c><c>   2</c></rc>
    <rc><c>O </c><c>   2</c></rc>
    <rc><c>O </c><c>   2</c></rc>
    <rc><c>O </c><c>   2</c></rc>
    <rc><c>O </c><c>   2</c></rc>
    <rc><c>O </c><c>   2</c></rc>
    <rc><c>O </c><c>   2</c></rc>
    <rc><c>O </c><c>   2</c></rc>
    <rc><c>O </c><c>   2</c></rc>
    <rc><c>O </c><c>   2</c></rc>
    <rc><c>O </c><c>   2</c></rc>
    <rc><c>O </c><c>   2</c></rc>
    <rc><c>O </c><c>   2</c></rc>
    <rc><c>O </c><c>   2</c></rc>
    <rc><c>O </c><c>   2</c></rc>
    <rc><c>O </c><c>   2</c></rc>
    <rc><c>O </c><c>   2</c></rc>
    <rc><c>O </c><c>   2</c></rc>
    <rc><c>O </c><c>   2</c></rc>
    <rc><c>O </c><c>   2</c></rc>
    <rc><c>P </c><c>   3</c></rc>
   </set>
  </array>
  <array name="atomtypes" >
   <dimension dim="1">type</dimension>
   <field type="int">atomspertype</field>
   <field type="string">element</field>
   <field>mass</field>
   <field>valence</field>
   <field type="string">pseudopotential</field>
   <set>
    <rc><c>  47</c><c>Ga</c><c>     69.72300000</c><c>     13.00000000</c><c>  PAW_PBE Ga_d 06Jul2010                </c></rc>
    <rc><c>  71</c><c>O </c><c>     16.00000000</c><c>      6.00000000</c><c>   PAW_PBE O 08Apr2002                  </c></rc>
    <rc><c>   1</c><c>P </c><c>     30.97400000</c><c>      5.00000000</c><c>  PAW_PBE P 06Sep2000                   </c></rc>
   </set>
  </array>
 </atominfo>
 <structure name="initialpos" >
  <crystal>
   <varray name="basis" >
    <v>       0.00000000      12.28047342       0.00000000 </v>
    <v>       9.14270205       0.00000000       0.00000000 </v>
    <v>       0.00000000      -2.76826177     -11.30069772 </v>
   </varray>
   <i name="volume">   1268.80515525 </i>
   <varray name="rec_basis" >
    <v>       0.00000000       0.08143009      -0.01994742 </v>
    <v>       0.10937686      -0.00000000       0.00000000 </v>
    <v>       0.00000000       0.00000000      -0.08849011 </v>
   </varray>
  </crystal>
  <varray name="positions" >
   <v>       0.65883830       0.00000000       0.15736517 </v>
   <v>       0.65883830       0.00000000       0.65736517 </v>
   <v>       0.65883830       0.33333333       0.15736517 </v>
   <v>       0.65883830       0.33333333       0.65736517 </v>
   <v>       0.65883830       0.66666667       0.15736517 </v>
   <v>       0.65883830       0.66666667       0.65736517 </v>
   <v>       0.84116170       0.16666667       0.34263483 </v>
   <v>       0.84116170       0.16666667       0.84263483 </v>
   <v>       0.84116170       0.50000000       0.34263483 </v>
   <v>       0.84116170       0.50000000       0.84263483 </v>
   <v>       0.84116170       0.83333333       0.34263483 </v>
   <v>       0.84116170       0.83333333       0.84263483 </v>
   <v>       0.59047440       0.16666667       0.39739300 </v>
   <v>       0.59047440       0.16666667       0.89739300 </v>
   <v>       0.59047440       0.50000000       0.39739300 </v>
   <v>       0.59047440       0.50000000       0.89739300 </v>
   <v>       0.59047440       0.83333333       0.39739300 </v>
   <v>       0.59047440       0.83333333       0.89739300 </v>
   <v>       0.90952560       0.00000000       0.10260700 </v>
   <v>       0.90952560       0.00000000       0.60260700 </v>
   <v>       0.90952560       0.33333333       0.10260700 </v>
   <v>       0.90952560       0.33333333       0.60260700 </v>
   <v>       0.90952560       0.66666667       0.10260700 </v>
   <v>       0.90952560       0.66666667       0.60260700 </v>
   <v>       0.15883830       0.16666667       0.15736517 </v>
   <v>       0.15883830       0.16666667       0.65736517 </v>
   <v>       0.15883830       0.50000000       0.15736517 </v>
   <v>       0.15883830       0.50000000       0.65736517 </v>
   <v>       0.15883830       0.83333333       0.15736517 </v>
   <v>       0.15883830       0.83333333       0.65736517 </v>
   <v>       0.34116170       0.00000000       0.34263483 </v>
   <v>       0.34116170       0.00000000       0.84263483 </v>
   <v>       0.34116170       0.33333333       0.34263483 </v>
   <v>       0.34116170       0.33333333       0.84263483 </v>
   <v>       0.34116170       0.66666667       0.34263483 </v>
   <v>       0.34116170       0.66666667       0.84263483 </v>
   <v>       0.09047440       0.00000000       0.89739300 </v>
   <v>       0.09047440       0.33333333       0.39739300 </v>
   <v>       0.09047440       0.33333333       0.89739300 </v>
   <v>       0.09047440       0.66666667       0.39739300 </v>
   <v>       0.09047440       0.66666667       0.89739300 </v>
   <v>       0.40952560       0.16666667       0.10260700 </v>
   <v>       0.40952560       0.16666667       0.60260700 </v>
   <v>       0.40952560       0.50000000       0.10260700 </v>
   <v>       0.40952560       0.50000000       0.60260700 </v>
   <v>       0.40952560       0.83333333       0.10260700 </v>
   <v>       0.40952560       0.83333333       0.60260700 </v>
   <v>       0.99646913       0.16666667       0.12833205 </v>
   <v>       0.99646913       0.16666667       0.62833205 </v>
   <v>       0.99646913       0.50000000       0.12833205 </v>
   <v>       0.99646913       0.50000000       0.62833205 </v>
   <v>       0.99646913       0.83333333       0.12833205 </v>
   <v>       0.99646913       0.83333333       0.62833205 </v>
   <v>       0.50353087       0.00000000       0.37166795 </v>
   <v>       0.50353087       0.00000000       0.87166795 </v>
   <v>       0.50353087       0.33333333       0.37166795 </v>
   <v>       0.50353087       0.33333333       0.87166795 </v>
   <v>       0.50353087       0.66666667       0.37166795 </v>
   <v>       0.50353087       0.66666667       0.87166795 </v>
   <v>       0.67337106       0.16666667       0.28161508 </v>
   <v>       0.67337106       0.16666667       0.78161508 </v>
   <v>       0.67337106       0.50000000       0.28161508 </v>
   <v>       0.67337106       0.50000000       0.78161508 </v>
   <v>       0.67337106       0.83333333       0.28161508 </v>
   <v>       0.67337106       0.83333333       0.78161508 </v>
   <v>       0.82662894       0.00000000       0.21838492 </v>
   <v>       0.82662894       0.00000000       0.71838492 </v>
   <v>       0.82662894       0.33333333       0.21838492 </v>
   <v>       0.82662894       0.33333333       0.71838492 </v>
   <v>       0.82662894       0.66666667       0.21838492 </v>
   <v>       0.82662894       0.66666667       0.71838492 </v>
   <v>       0.83549502       0.00000000       0.44542296 </v>
   <v>       0.83549502       0.00000000       0.94542296 </v>
   <v>       0.83549502       0.33333333       0.44542296 </v>
   <v>       0.83549502       0.33333333       0.94542296 </v>
   <v>       0.83549502       0.66666667       0.44542296 </v>
   <v>       0.83549502       0.66666667       0.94542296 </v>
   <v>       0.66450498       0.16666667       0.05457704 </v>
   <v>       0.66450498       0.16666667       0.55457704 </v>
   <v>       0.66450498       0.50000000       0.05457704 </v>
   <v>       0.66450498       0.50000000       0.55457704 </v>
   <v>       0.66450498       0.83333333       0.05457704 </v>
   <v>       0.66450498       0.83333333       0.55457704 </v>
   <v>       0.49646913       0.00000000       0.12833205 </v>
   <v>       0.49646913       0.00000000       0.62833205 </v>
   <v>       0.49646913       0.33333333       0.12833205 </v>
   <v>       0.49646913       0.33333333       0.62833205 </v>
   <v>       0.49646913       0.66666667       0.12833205 </v>
   <v>       0.49646913       0.66666667       0.62833205 </v>
   <v>       0.00353087       0.16666667       0.87166795 </v>
   <v>       0.00353087       0.50000000       0.37166795 </v>
   <v>       0.00353087       0.50000000       0.87166795 </v>
   <v>       0.00353087       0.83333333       0.37166795 </v>
   <v>       0.00353087       0.83333333       0.87166795 </v>
   <v>       0.17337106       0.00000000       0.28161508 </v>
   <v>       0.17337106       0.00000000       0.78161508 </v>
   <v>       0.17337106       0.33333333       0.28161508 </v>
   <v>       0.17337106       0.33333333       0.78161508 </v>
   <v>       0.17337106       0.66666667       0.28161508 </v>
   <v>       0.17337106       0.66666667       0.78161508 </v>
   <v>       0.32662894       0.16666667       0.21838492 </v>
   <v>       0.32662894       0.16666667       0.71838492 </v>
   <v>       0.32662894       0.50000000       0.21838492 </v>
   <v>       0.32662894       0.50000000       0.71838492 </v>
   <v>       0.32662894       0.83333333       0.21838492 </v>
   <v>       0.32662894       0.83333333       0.71838492 </v>
   <v>       0.33549502       0.16666667       0.44542296 </v>
   <v>       0.33549502       0.16666667       0.94542296 </v>
   <v>       0.33549502       0.50000000       0.44542296 </v>
   <v>       0.33549502       0.50000000       0.94542296 </v>
   <v>       0.33549502       0.83333333       0.44542296 </v>
   <v>       0.33549502       0.83333333       0.94542296 </v>
   <v>       0.16450498       0.00000000       0.05457704 </v>
   <v>       0.16450498       0.00000000       0.55457704 </v>
   <v>       0.16450498       0.33333333       0.05457704 </v>
   <v>       0.16450498       0.33333333       0.55457704 </v>
   <v>       0.16450498       0.66666667       0.05457704 </v>
   <v>       0.16450498       0.66666667       0.55457704 </v>
   <v>       0.00353087       0.16666667       0.37166795 </v>
  </varray>
 </structure>
 <calculation>
  <scstep>
   <time name="dav">    1.75    1.75</time>
   <time name="total">    1.88    1.88</time>
   <energy>
    <i name="alphaZ">   5376.25786726 </i>
    <i name="ewald"> -86190.85697251 </i>
    <i name="hartreedc"> -33706.21511295 </i>
    <i name="XCdc">   4078.45869328 </i>
    <i name="pawpsdc"> 100093.09196360 </i>
    <i name="pawaedc">-115889.62880893 </i>
    <i name="eentropy">     -0.00892258 </i>
    <i name="bandstr">  16043.98080395 </i>
    <i name="atom"> 131866.99277783 </i>
    <i name="e_fr_energy">  21672.07228894 </i>
    <i name="e_wo_entrp">  21672.08121152 </i>
    <i name="e_0_energy">  21672.07675023 </i>
   </energy>
  </scstep>
  <scstep>
   <time name="dav">    1.68    1.68</time>
   <time name="total">    1.68    1.69</time>
   <energy>
    <i name="e_fr_energy">   4807.97247771 </i>
    <i name="e_wo_entrp">   4807.99280945 </i>
    <i name="e_0_energy">   4807.98264358 </i>
   </energy>
  </scstep>
  <scstep>
   <time name="dav">    2.08    2.08</time>
   <time name="total">    2.08    2.08</time>
   <energy>
    <i name="e_fr_energy">   -144.31502254 </i>
    <i name="e_wo_entrp">   -144.31502254 </i>
    <i name="e_0_energy">   -144.31502254 </i>
   </energy>
  </scstep>
  <scstep>
   <time name="dav">    2.01    2.01</time>
   <time name="total">    2.01    2.01</time>
   <energy>
    <i name="e_fr_energy">   -764.25792394 </i>
    <i name="e_wo_entrp">   -764.25792394 </i>
    <i name="e_0_energy">   -764.25792394 </i>
   </energy>
  </scstep>
  <scstep>
   <time name="dav">    2.30    2.30</time>
   <time name="total">    2.55    2.56</time>
   <energy>
    <i name="e_fr_energy">   -806.72713749 </i>
    <i name="e_wo_entrp">   -806.72713749 </i>
    <i name="e_0_energy">   -806.72713749 </i>
   </energy>
  </scstep>
  <scstep>
   <time name="diag">    0.24    0.24</time>
   <time name="diis">    2.47    2.47</time>
   <time name="orth">    0.03    0.03</time>
   <time name="total">    3.11    3.11</time>
   <energy>
    <i name="e_fr_energy">   -698.19816430 </i>
    <i name="e_wo_entrp">   -698.19810796 </i>
    <i name="e_0_energy">   -698.19813613 </i>
   </energy>
  </scstep>
  <scstep>
   <time name="diag">    0.24    0.24</time>
   <time name="diis">    2.61    2.61</time>
   <time name="orth">    0.03    0.03</time>
   <time name="total">    3.26    3.26</time>
   <energy>
    <i name="e_fr_energy">   -704.58486751 </i>
    <i name="e_wo_entrp">   -704.58486751 </i>
    <i name="e_0_energy">   -704.58486751 </i>
   </energy>
  </scstep>
  <scstep>
   <time name="diag">    0.24    0.24</time>
   <time name="diis">    2.92    2.92</time>
   <time name="orth">    0.03    0.03</time>
   <time name="total">    3.56    3.56</time>
   <energy>
    <i name="e_fr_energy">   -698.83080819 </i>
    <i name="e_wo_entrp">   -698.83080819 </i>
    <i name="e_0_energy">   -698.83080819 </i>
   </energy>
  </scstep>
  <scstep>
   <time name="diag">    0.24    0.24</time>
   <time name="diis">    2.39    2.39</time>
   <time name="orth">    0.03    0.03</time>
   <time name="total">    3.03    3.03</time>
   <energy>
    <i name="e_fr_energy">   -706.22058278 </i>
    <i name="e_wo_entrp">   -706.22057715 </i>
    <i name="e_0_energy">   -706.22057997 </i>
   </energy>
  </scstep>
  <scstep>
   <time name="diag">    0.24    0.24</time>
   <time name="diis">    2.80    2.80</time>
   <time name="orth">    0.03    0.03</time>
   <time name="total">    3.45    3.45</time>
   <energy>
    <i name="e_fr_energy">   -701.80772051 </i>
    <i name="e_wo_entrp">   -701.80772051 </i>
    <i name="e_0_energy">   -701.80772051 </i>
   </energy>
  </scstep>
  <scstep>
   <time name="diag">    0.24    0.24</time>
   <time name="diis">    2.40    2.40</time>
   <time name="orth">    0.03    0.03</time>
   <time name="total">    3.05    3.05</time>
   <energy>
    <i name="e_fr_energy">   -697.47476691 </i>
    <i name="e_wo_entrp">   -697.47476691 </i>
    <i name="e_0_energy">   -697.47476691 </i>
   </energy>
  </scstep>
  <scstep>
   <time name="diag">    0.24    0.24</time>
   <time name="diis">    2.49    2.49</time>
   <time name="orth">    0.03    0.03</time>
   <time name="total">    3.14    3.14</time>
   <energy>
    <i name="e_fr_energy">   -698.02167114 </i>
    <i name="e_wo_entrp">   -698.02167114 </i>
    <i name="e_0_energy">   -698.02167114 </i>
   </energy>
  </scstep>
  <scstep>
   <time name="diag">    0.24    0.24</time>
   <time name="diis">    2.71    2.71</time>
   <time name="orth">    0.03    0.03</time>
   <time name="total">    3.36    3.36</time>
   <energy>
    <i name="e_fr_energy">   -697.42645797 </i>
    <i name="e_wo_entrp">   -697.42645797 </i>
    <i name="e_0_energy">   -697.42645797 </i>
   </energy>
  </scstep>
  <scstep>
   <time name="diag">    0.24    0.24</time>
   <time name="diis">    2.64    2.64</time>
   <time name="orth">    0.03    0.03</time>
   <time name="total">    3.29    3.29</time>
   <energy>
    <i name="e_fr_energy">   -697.20031991 </i>
    <i name="e_wo_entrp">   -697.20031963 </i>
    <i name="e_0_energy">   -697.20031977 </i>
   </energy>
  </scstep>
  <scstep>
   <time name="diag">    0.24    0.24</time>
   <time name="diis">    2.96    2.96</time>
   <time name="orth">    0.03    0.03</time>
   <time name="total">    3.62    3.62</time>
   <energy>
    <i name="e_fr_energy">   -697.20372689 </i>
    <i name="e_wo_entrp">   -697.20372665 </i>
    <i name="e_0_energy">   -697.20372677 </i>
   </energy>
  </scstep>
  <scstep>
   <time name="diag">    0.24    0.24</time>
   <time name="diis">    2.55    2.55</time>
   <time name="orth">    0.03    0.03</time>
   <time name="total">    3.20    3.20</time>
   <energy>
    <i name="e_fr_energy">   -697.17798060 </i>
    <i name="e_wo_entrp">   -697.17797967 </i>
    <i name="e_0_energy">   -697.17798014 </i>
   </energy>
  </scstep>
  <scstep>
   <time name="diag">    0.24    0.24</time>
   <time name="diis">    2.53    2.53</time>
   <time name="orth">    0.03    0.03</time>
   <time name="total">    3.19    3.19</time>
   <energy>
    <i name="e_fr_energy">   -697.07644168 </i>
    <i name="e_wo_entrp">   -697.07563711 </i>
    <i name="e_0_energy">   -697.07603939 </i>
   </energy>
  </scstep>
  <scstep>
   <time name="diag">    0.24    0.24</time>
   <time name="diis">    2.77    2.77</time>
   <time name="orth">    0.03    0.03</time>
   <time name="total">    3.43    3.43</time>
   <energy>
    <i name="e_fr_energy">   -697.08547480 </i>
    <i name="e_wo_entrp">   -697.05469129 </i>
    <i name="e_0_energy">   -697.07008304 </i>
   </energy>
  </scstep>
  <scstep>
   <time name="diag">    0.24    0.24</time>
   <time name="diis">    2.86    2.86</time>
   <time name="orth">    0.03    0.03</time>
   <time name="total">    3.52    3.52</time>
   <energy>
    <i name="e_fr_energy">   -697.06211989 </i>
    <i name="e_wo_entrp">   -697.03251529 </i>
    <i name="e_0_energy">   -697.04731759 </i>
   </energy>
  </scstep>
  <scstep>
   <time name="diag">    0.24    0.24</time>
   <time name="diis">    2.48    2.48</time>
   <time name="orth">    0.03    0.03</time>
   <time name="total">    3.15    3.15</time>
   <energy>
    <i name="e_fr_energy">   -697.06538871 </i>
    <i name="e_wo_entrp">   -697.03453663 </i>
    <i name="e_0_energy">   -697.04996267 </i>
   </energy>
  </scstep>
  <scstep>
   <time name="diag">    0.24    0.24</time>
   <time name="diis">    2.13    2.13</time>
   <time name="orth">    0.03    0.03</time>
   <time name="total">    2.80    2.80</time>
   <energy>
    <i name="e_fr_energy">   -697.05849575 </i>
    <i name="e_wo_entrp">   -697.02847377 </i>
    <i name="e_0_energy">   -697.04348476 </i>
   </energy>
  </scstep>
  <scstep>
   <time name="diag">    0.24    0.24</time>
   <time name="diis">    2.40    2.40</time>
   <time name="orth">    0.03    0.03</time>
   <time name="total">    3.08    3.08</time>
   <energy>
    <i name="e_fr_energy">   -697.08418953 </i>
    <i name="e_wo_entrp">   -697.04979734 </i>
    <i name="e_0_energy">   -697.06699343 </i>
   </energy>
  </scstep>
  <scstep>
   <time name="diag">    0.24    0.24</time>
   <time name="diis">    2.53    2.53</time>
   <time name="orth">    0.03    0.03</time>
   <time name="total">    3.20    3.20</time>
   <energy>
    <i name="e_fr_energy">   -697.03540946 </i>
    <i name="e_wo_entrp">   -697.00431626 </i>
    <i name="e_0_energy">   -697.01986286 </i>
   </energy>
  </scstep>
  <scstep>
   <time name="diag">    0.24    0.24</time>
   <time name="diis">    3.32    3.32</time>
   <time name="orth">    0.03    0.03</time>
   <time name="total">    4.00    4.00</time>
   <energy>
    <i name="e_fr_energy">   -696.98659312 </i>
    <i name="e_wo_entrp">   -696.95241672 </i>
    <i name="e_0_energy">   -696.96950492 </i>
   </energy>
  </scstep>
  <scstep>
   <time name="diag">    0.24    0.24</time>
   <time name="diis">    2.90    2.90</time>
   <time name="orth">    0.03    0.03</time>
   <time name="total">    3.58    3.58</time>
   <energy>
    <i name="e_fr_energy">   -696.98075039 </i>
    <i name="e_wo_entrp">   -696.96382260 </i>
    <i name="e_0_energy">   -696.97228650 </i>
   </energy>
  </scstep>
  <scstep>
   <time name="diag">    0.24    0.24</time>
   <time name="diis">    2.71    2.71</time>
   <time name="orth">    0.03    0.03</time>
   <time name="total">    3.40    3.40</time>
   <energy>
    <i name="e_fr_energy">   -696.99136584 </i>
    <i name="e_wo_entrp">   -696.97369691 </i>
    <i name="e_0_energy">   -696.98253137 </i>
   </energy>
  </scstep>
  <scstep>
   <time name="diag">    0.24    0.24</time>
   <time name="diis">    2.65    2.65</time>
   <time name="orth">    0.03    0.03</time>
   <time name="total">    3.34    3.34</time>
   <energy>
    <i name="e_fr_energy">   -696.99365613 </i>
    <i name="e_wo_entrp">   -696.97953879 </i>
    <i name="e_0_energy">   -696.98659746 </i>
   </energy>
  </scstep>
  <scstep>
   <time name="diag">    0.24    0.24</time>
   <time name="diis">    2.38    2.38</time>
   <time name="orth">    0.03    0.03</time>
   <time name="total">    3.08    3.08</time>
   <energy>
    <i name="e_fr_energy">   -696.99508430 </i>
    <i name="e_wo_entrp">   -696.98280213 </i>
    <i name="e_0_energy">   -696.98894321 </i>
   </energy>
  </scstep>
  <scstep>
   <time name="diag">    0.24    0.24</time>
   <time name="diis">    2.28    2.28</time>
   <time name="orth">    0.03    0.03</time>
   <time name="total">    2.98    2.98</time>
   <energy>
    <i name="e_fr_energy">   -696.99333033 </i>
    <i name="e_wo_entrp">   -696.97921814 </i>
    <i name="e_0_energy">   -696.98627424 </i>
   </energy>
  </scstep>
  <scstep>
   <time name="diag">    0.24    0.24</time>
   <time name="diis">    2.11    2.11</time>
   <time name="orth">    0.03    0.03</time>
   <time name="total">    2.81    2.81</time>
   <energy>
    <i name="e_fr_energy">   -696.99274631 </i>
    <i name="e_wo_entrp">   -696.97733803 </i>
    <i name="e_0_energy">   -696.98504217 </i>
   </energy>
  </scstep>
  <scstep>
   <time name="diag">    0.24    0.24</time>
   <time name="diis">    1.96    1.95</time>
   <time name="orth">    0.03    0.03</time>
   <time name="total">    2.66    2.66</time>
   <energy>
    <i name="e_fr_energy">   -696.99192020 </i>
    <i name="e_wo_entrp">   -696.97483511 </i>
    <i name="e_0_energy">   -696.98337765 </i>
   </energy>
  </scstep>
  <scstep>
   <time name="diag">    0.24    0.24</time>
   <time name="diis">    1.84    1.84</time>
   <time name="orth">    0.03    0.03</time>
   <time name="total">    2.54    2.54</time>
   <energy>
    <i name="e_fr_energy">   -696.99174842 </i>
    <i name="e_wo_entrp">   -696.97398488 </i>
    <i name="e_0_energy">   -696.98286665 </i>
   </energy>
  </scstep>
  <scstep>
   <time name="diag">    0.24    0.24</time>
   <time name="diis">    1.77    1.77</time>
   <time name="orth">    0.03    0.03</time>
   <time name="total">    2.48    2.49</time>
   <energy>
    <i name="e_fr_energy">   -696.99157620 </i>
    <i name="e_wo_entrp">   -696.97330057 </i>
    <i name="e_0_energy">   -696.98243838 </i>
   </energy>
  </scstep>
  <scstep>
   <time name="diag">    0.24    0.24</time>
   <time name="diis">    1.69    1.69</time>
   <time name="orth">    0.03    0.03</time>
   <time name="total">    2.41    2.41</time>
   <energy>
    <i name="e_fr_energy">   -696.99139022 </i>
    <i name="e_wo_entrp">   -696.97214170 </i>
    <i name="e_0_energy">   -696.98176596 </i>
   </energy>
  </scstep>
  <scstep>
   <time name="diag">    0.24    0.24</time>
   <time name="diis">    1.75    1.74</time>
   <time name="orth">    0.03    0.03</time>
   <time name="total">    2.47    2.47</time>
   <energy>
    <i name="e_fr_energy">   -696.99134792 </i>
    <i name="e_wo_entrp">   -696.97150953 </i>
    <i name="e_0_energy">   -696.98142872 </i>
   </energy>
  </scstep>
  <scstep>
   <time name="diag">    0.24    0.24</time>
   <time name="diis">    1.66    1.66</time>
   <time name="orth">    0.03    0.03</time>
   <time name="total">    2.04    2.04</time>
   <energy>
    <i name="alphaZ">   5376.25786726 </i>
    <i name="ewald"> -86190.85697251 </i>
    <i name="hartreedc"> -34163.66679089 </i>
    <i name="XCdc">   4137.28425375 </i>
    <i name="pawpsdc"> 118229.78100231 </i>
    <i name="pawaedc">-134278.28225751 </i>
    <i name="eentropy">     -0.02001215 </i>
    <i name="bandstr">  -5674.48121176 </i>
    <i name="atom"> 131866.99277783 </i>
    <i name="e_fr_energy">   -696.99134367 </i>
    <i name="e_wo_entrp">   -696.97133152 </i>
    <i name="e_0_energy">   -696.98133760 </i>
   </energy>
  </scstep>
  <structure>
   <crystal>
    <varray name="basis" >
     <v>       0.00000000      12.28047342       0.00000000 </v>
     <v>       9.14270205       0.00000000       0.00000000 </v>
     <v>       0.00000000      -2.76826177     -11.30069772 </v>
    </varray>
    <i name="volume">   1268.80515525 </i>
    <varray name="rec_basis" >
     <v>       0.00000000       0.08143009      -0.01994742 </v>
     <v>       0.10937686      -0.00000000       0.00000000 </v>
     <v>       0.00000000       0.00000000      -0.08849011 </v>
    </varray>
   </crystal>
   <varray name="positions" >
    <v>       0.65883830       0.00000000       0.15736517 </v>
    <v>       0.65883830       0.00000000       0.65736517 </v>
    <v>       0.65883830       0.33333333       0.15736517 </v>
    <v>       0.65883830       0.33333333       0.65736517 </v>
    <v>       0.65883830       0.66666667       0.15736517 </v>
    <v>       0.65883830       0.66666667       0.65736517 </v>
    <v>       0.84116170       0.16666667       0.34263483 </v>
    <v>       0.84116170       0.16666667       0.84263483 </v>
    <v>       0.84116170       0.50000000       0.34263483 </v>
    <v>       0.84116170       0.50000000       0.84263483 </v>
    <v>       0.84116170       0.83333333       0.34263483 </v>
    <v>       0.84116170       0.83333333       0.84263483 </v>
    <v>       0.59047440       0.16666667       0.39739300 </v>
    <v>       0.59047440       0.16666667       0.89739300 </v>
    <v>       0.59047440       0.50000000       0.39739300 </v>
    <v>       0.59047440       0.50000000       0.89739300 </v>
    <v>       0.59047440       0.83333333       0.39739300 </v>
    <v>       0.59047440       0.83333333       0.89739300 </v>
    <v>       0.90952560       0.00000000       0.10260700 </v>
    <v>       0.90952560       0.00000000       0.60260700 </v>
    <v>       0.90952560       0.33333333       0.10260700 </v>
    <v>       0.90952560       0.33333333       0.60260700 </v>
    <v>       0.90952560       0.66666667       0.10260700 </v>
    <v>       0.90952560       0.66666667       0.60260700 </v>
    <v>       0.15883830       0.16666667       0.15736517 </v>
    <v>       0.15883830       0.16666667       0.65736517 </v>
    <v>       0.15883830       0.50000000       0.15736517 </v>
    <v>       0.15883830       0.50000000       0.65736517 </v>
    <v>       0.15883830       0.83333333       0.15736517 </v>
    <v>       0.15883830       0.83333333       0.65736517 </v>
    <v>       0.34116170       0.00000000       0.34263483 </v>
    <v>       0.34116170       0.00000000       0.84263483 </v>
    <v>       0.34116170       0.33333333       0.34263483 </v>
    <v>       0.34116170       0.33333333       0.84263483 </v>
    <v>       0.34116170       0.66666667       0.34263483 </v>
    <v>       0.34116170       0.66666667       0.84263483 </v>
    <v>       0.09047440       0.00000000       0.89739300 </v>
    <v>       0.09047440       0.33333333       0.39739300 </v>
    <v>       0.09047440       0.33333333       0.89739300 </v>
    <v>       0.09047440       0.66666667       0.39739300 </v>
    <v>       0.09047440       0.66666667       0.89739300 </v>
    <v>       0.40952560       0.16666667       0.10260700 </v>
    <v>       0.40952560       0.16666667       0.60260700 </v>
    <v>       0.40952560       0.50000000       0.10260700 </v>
    <v>       0.40952560       0.50000000       0.60260700 </v>
    <v>       0.40952560       0.83333333       0.10260700 </v>
    <v>       0.40952560       0.83333333       0.60260700 </v>
    <v>       0.99646913       0.16666667       0.12833205 </v>
    <v>       0.99646913       0.16666667       0.62833205 </v>
    <v>       0.99646913       0.50000000       0.12833205 </v>
    <v>       0.99646913       0.50000000       0.62833205 </v>
    <v>       0.99646913       0.83333333       0.12833205 </v>
    <v>       0.99646913       0.83333333       0.62833205 </v>
    <v>       0.50353087       0.00000000       0.37166795 </v>
    <v>       0.50353087       0.00000000       0.87166795 </v>
    <v>       0.50353087       0.33333333       0.37166795 </v>
    <v>       0.50353087       0.33333333       0.87166795 </v>
    <v>       0.50353087       0.66666667       0.37166795 </v>
    <v>       0.50353087       0.66666667       0.87166795 </v>
    <v>       0.67337106       0.16666667       0.28161508 </v>
    <v>       0.67337106       0.16666667       0.78161508 </v>
    <v>       0.67337106       0.50000000       0.28161508 </v>
    <v>       0.67337106       0.50000000       0.78161508 </v>
    <v>       0.67337106       0.83333333       0.28161508 </v>
    <v>       0.67337106       0.83333333       0.78161508 </v>
    <v>       0.82662894       0.00000000       0.21838492 </v>
    <v>       0.82662894       0.00000000       0.71838492 </v>
    <v>       0.82662894       0.33333333       0.21838492 </v>
    <v>       0.82662894       0.33333333       0.71838492 </v>
    <v>       0.82662894       0.66666667       0.21838492 </v>
    <v>       0.82662894       0.66666667       0.71838492 </v>
    <v>       0.83549502       0.00000000       0.44542296 </v>
    <v>       0.83549502       0.00000000       0.94542296 </v>
    <v>       0.83549502       0.33333333       0.44542296 </v>
    <v>       0.83549502       0.33333333       0.94542296 </v>
    <v>       0.83549502       0.66666667       0.44542296 </v>
    <v>       0.83549502       0.66666667       0.94542296 </v>
    <v>       0.66450498       0.16666667       0.05457704 </v>
    <v>       0.66450498       0.16666667       0.55457704 </v>
    <v>       0.66450498       0.50000000       0.05457704 </v>
    <v>       0.66450498       0.50000000       0.55457704 </v>
    <v>       0.66450498       0.83333333       0.05457704 </v>
    <v>       0.66450498       0.83333333       0.55457704 </v>
    <v>       0.49646913       0.00000000       0.12833205 </v>
    <v>       0.49646913       0.00000000       0.62833205 </v>
    <v>       0.49646913       0.33333333       0.12833205 </v>
    <v>       0.49646913       0.33333333       0.62833205 </v>
    <v>       0.49646913       0.66666667       0.12833205 </v>
    <v>       0.49646913       0.66666667       0.62833205 </v>
    <v>       0.00353087       0.16666667       0.87166795 </v>
    <v>       0.00353087       0.50000000       0.37166795 </v>
    <v>       0.00353087       0.50000000       0.87166795 </v>
    <v>       0.00353087       0.83333333       0.37166795 </v>
    <v>       0.00353087       0.83333333       0.87166795 </v>
    <v>       0.17337106       0.00000000       0.28161508 </v>
    <v>       0.17337106       0.00000000       0.78161508 </v>
    <v>       0.17337106       0.33333333       0.28161508 </v>
    <v>       0.17337106       0.33333333       0.78161508 </v>
    <v>       0.17337106       0.66666667       0.28161508 </v>
    <v>       0.17337106       0.66666667       0.78161508 </v>
    <v>       0.32662894       0.16666667       0.21838492 </v>
    <v>       0.32662894       0.16666667       0.71838492 </v>
    <v>       0.32662894       0.50000000       0.21838492 </v>
    <v>       0.32662894       0.50000000       0.71838492 </v>
    <v>       0.32662894       0.83333333       0.21838492 </v>
    <v>       0.32662894       0.83333333       0.71838492 </v>
    <v>       0.33549502       0.16666667       0.44542296 </v>
    <v>       0.33549502       0.16666667       0.94542296 </v>
    <v>       0.33549502       0.50000000       0.44542296 </v>
    <v>       0.33549502       0.50000000       0.94542296 </v>
    <v>       0.33549502       0.83333333       0.44542296 </v>
    <v>       0.33549502       0.83333333       0.94542296 </v>
    <v>       0.16450498       0.00000000       0.05457704 </v>
    <v>       0.16450498       0.00000000       0.55457704 </v>
    <v>       0.16450498       0.33333333       0.05457704 </v>
    <v>       0.16450498       0.33333333       0.55457704 </v>
    <v>       0.16450498       0.66666667       0.05457704 </v>
    <v>       0.16450498       0.66666667       0.55457704 </v>
    <v>       0.00353087       0.16666667       0.37166795 </v>
   </varray>
  </structure>
  <varray name="forces" >
   <v>      -0.12198710      -0.13010520       0.10623662 </v>
   <v>      -0.05279216      -0.21113039       0.08974185 </v>
   <v>       0.02108931      -0.43926142       0.22093484 </v>
   <v>       0.00310608      -0.24367814       0.05890940 </v>
   <v>       0.08754987      -0.00106040       0.03828969 </v>
   <v>       0.05097301      -0.11779525       0.06180986 </v>
   <v>      -0.81130414      -8.05729799       1.61609371 </v>
   <v>      -0.06459470      -0.06972219       0.04121589 </v>
   <v>       0.78199876       0.10953864       0.08997942 </v>
   <v>       0.17110865       0.05612519      -0.02434095 </v>
   <v>      -0.18882317       1.27575042      -0.18287318 </v>
   <v>      -0.10715951       0.09014360      -0.02430288 </v>
   <v>      -0.07153859      -0.33179714      -0.05470185 </v>
   <v>      -0.01216342      -0.11543684       0.04526478 </v>
   <v>       0.05678334      -0.23536322      -0.02222483 </v>
   <v>      -0.00283438      -0.08342742       0.04513157 </v>
   <v>       0.01696227      -0.16914348      -0.02611567 </v>
   <v>       0.01219296      -0.06152700       0.00177996 </v>
   <v>      -0.85031551      -0.11759090      -0.09963980 </v>
   <v>      -0.63345459       0.10811880       0.06522467 </v>
   <v>       0.66297053      -0.09822711       0.46716450 </v>
   <v>       0.40799076      -0.12138303      -0.55943495 </v>
   <v>       0.19111998       0.04102555      -0.12841821 </v>
   <v>       0.21926876       0.10832145       0.10429629 </v>
   <v>      -0.88108197       0.70571005      -0.81943049 </v>
   <v>      -0.80851421       0.61371675       0.36508190 </v>
   <v>       0.23314565       0.04975566      -0.18222571 </v>
   <v>       0.30225028       0.08484885       0.11457435 </v>
   <v>       0.51546489      -0.32450632      -0.84625662 </v>
   <v>       0.41003382      -0.13792174       0.87351775 </v>
   <v>       0.04505015      -1.23446228      -0.25753296 </v>
   <v>       0.01807606      -0.05549590       0.03822527 </v>
   <v>      -0.25904815       0.00394296      -0.17195854 </v>
   <v>      -0.05479338       0.07622938      -0.01635915 </v>
   <v>       0.25821879      -0.24876119      -0.18294046 </v>
   <v>       0.02793968      -0.01403192      -0.01907743 </v>
   <v>      -0.17749381       0.26580744      -0.07382868 </v>
   <v>       8.63917638       6.56240728      -1.81993398 </v>
   <v>       0.11178885       0.11250140      -0.04083217 </v>
   <v>       1.86607352      -0.03929568       0.07491177 </v>
   <v>       0.06100802       0.06942932      -0.05739191 </v>
   <v>      -0.01833490      -0.15182601      -0.08313460 </v>
   <v>      -0.09586839      -0.15568324       0.33274701 </v>
   <v>      -0.00375568      -0.04522817      -0.01340457 </v>
   <v>       0.02111809       0.00724875       0.11515428 </v>
   <v>       0.03469292      -0.09456698      -0.02632362 </v>
   <v>       0.06967569      -0.15026499       0.39846819 </v>
   <v>       0.25085555      -0.45803794      -0.90497212 </v>
   <v>       0.29173506      -0.17978049       0.52147672 </v>
   <v>      -0.22382217      -0.13961943      -0.00378318 </v>
   <v>      -0.22824234      -0.13842162       0.03064369 </v>
   <v>      -0.01733131      -0.26550941       0.16888223 </v>
   <v>      -0.03261103      -0.34518539      -0.11607504 </v>
   <v>       0.03379418       0.21495695       0.02584843 </v>
   <v>       0.01253038       0.07012099      -0.00375074 </v>
   <v>       0.03918516       0.20285709       0.02017625 </v>
   <v>       0.00780646       0.07467144      -0.00481017 </v>
   <v>      -0.06979829       0.16444891       0.03353795 </v>
   <v>      -0.01726459       0.04937854       0.00632120 </v>
   <v>       0.10285427       0.33237276      -0.08578350 </v>
   <v>       0.02127278       0.06184056      -0.01658895 </v>
   <v>      -0.16956811       0.14585954      -0.01229781 </v>
   <v>      -0.03944143       0.04410889      -0.01092048 </v>
   <v>       0.04694479       0.04958202       0.01701804 </v>
   <v>       0.01898125       0.03904620      -0.01845096 </v>
   <v>      -0.04061909      -0.21108667       0.49331501 </v>
   <v>       0.08928347       0.06634348      -0.02556476 </v>
   <v>       0.18966153       0.19297590       0.11165521 </v>
   <v>      -0.04412647       0.10727303       0.05615481 </v>
   <v>      -0.28975241      -0.18814214       0.18274919 </v>
   <v>      -0.04477796      -0.02073434      -0.04802270 </v>
   <v>       0.06077442      -0.61293849      -0.40896896 </v>
   <v>       0.14400348      -0.12408183      -0.10343280 </v>
   <v>       0.02180289      -0.11133251      -0.16471629 </v>
   <v>      -0.09783498      -0.13293870      -0.15791645 </v>
   <v>      -0.36282168      -0.40733541      -0.15529461 </v>
   <v>      -0.04500211      -0.19005836       0.01653511 </v>
   <v>       0.06249482       0.24091768      -0.05037664 </v>
   <v>       0.05483114       0.29048267       0.03021303 </v>
   <v>      -0.08584206       0.22863152      -0.03776330 </v>
   <v>      -0.07686052       0.27340317       0.03718209 </v>
   <v>       0.01264260       0.18791004       0.03332594 </v>
   <v>       0.00990250       0.22709106      -0.00418053 </v>
   <v>       0.01321373       0.11700257      -0.03010965 </v>
   <v>       0.01511438       0.14358572      -0.12976480 </v>
   <v>       0.02621160       0.13857048      -0.04031490 </v>
   <v>       0.05701458       0.11527499      -0.10193045 </v>
   <v>      -0.03236950       0.07981336      -0.03522177 </v>
   <v>      -0.07215305       0.11124042      -0.10888504 </v>
   <v>       0.05568968      -0.12286606       0.06153336 </v>
   <v>      -0.14275557      -0.15503245       0.04597806 </v>
   <v>      -0.07109644      -0.05367667       0.04838936 </v>
   <v>      -0.05456789      -0.87596328       0.13837405 </v>
   <v>       0.00631437      -0.10879363       0.05272395 </v>
   <v>       0.73951506      -0.04347941       0.97772384 </v>
   <v>       0.05015919      -0.17242501      -0.43337019 </v>
   <v>       0.45333223       0.15916939       0.25316860 </v>
   <v>      -0.02342139      -0.12692108       0.05560384 </v>
   <v>      -0.38054257       0.14120754       0.20901307 </v>
   <v>      -0.04107307      -0.05708660      -0.04220762 </v>
   <v>       0.27817394       0.39839244       0.17874178 </v>
   <v>       0.10933782       0.13157670      -0.17914089 </v>
   <v>      -0.05142823       0.09146520       0.04492974 </v>
   <v>      -0.05037353       0.02349797      -0.06575855 </v>
   <v>      -0.11546995       0.23182223       0.12841848 </v>
   <v>       0.02148556       0.09341985      -0.10921204 </v>
   <v>       0.30334074       0.13729177      -0.15530445 </v>
   <v>       0.03669194      -0.14843688      -0.02177195 </v>
   <v>      -0.06119013      -0.14898483      -0.04724870 </v>
   <v>      -0.01606125      -0.16632920      -0.02106518 </v>
   <v>      -0.23681318       0.21118524      -0.15254850 </v>
   <v>      -0.02326364      -0.13250729      -0.02457856 </v>
   <v>       0.09504037       0.12485567       0.51772464 </v>
   <v>       0.93227201      -0.32909035      -0.04574186 </v>
   <v>      -0.06410364       0.03977895       0.06713791 </v>
   <v>       0.39395164       0.22995350      -0.21949776 </v>
   <v>      -0.04710513       0.14630839       0.12231508 </v>
   <v>      -0.40064531       0.17199778      -0.23057046 </v>
   <v>     -11.36903487       2.78048291       0.20903230 </v>
  </varray>
  <varray name="stress" >
   <v>      80.71505242      20.01881635      -5.51436544 </v>
   <v>      20.01881785      86.58909975      -7.68499077 </v>
   <v>      -5.51436478      -7.68499080      56.52118645 </v>
  </varray>
  <energy>
   <i name="e_fr_energy">   -696.99134367 </i>
   <i name="e_wo_entrp">   -696.97133152 </i>
   <i name="e_0_energy">   -696.98133760 </i>
  </energy>
  <time name="totalsc">  115.94  115.96</time>
 </calculation>
 <calculation>
  <scstep>
   <time name="dav">    1.83    1.83</time>
   <time name="total">    2.20    2.20</time>
   <energy>
    <i name="alphaZ">   5376.25786726 </i>
    <i name="ewald"> -85991.66536126 </i>
    <i name="hartreedc"> -34365.97878784 </i>
    <i name="XCdc">   4136.97214983 </i>
    <i name="pawpsdc"> 118229.40201090 </i>
    <i name="pawaedc">-134277.89447887 </i>
    <i name="eentropy">     -0.00874502 </i>
    <i name="bandstr">  -5629.83270843 </i>
    <i name="atom"> 131866.99277783 </i>
    <i name="e_fr_energy">   -655.75527562 </i>
    <i name="e_wo_entrp">   -655.74653060 </i>
    <i name="e_0_energy">   -655.75090311 </i>
   </energy>
  </scstep>
  <scstep>
   <time name="diag">    0.24    0.24</time>
   <time name="diis">    2.63    2.63</time>
   <time name="orth">    0.03    0.03</time>
   <time name="total">    3.28    3.28</time>
   <energy>
    <i name="e_fr_energy">   -679.85665416 </i>
    <i name="e_wo_entrp">   -679.85665415 </i>
    <i name="e_0_energy">   -679.85665415 </i>
   </energy>
  </scstep>
  <scstep>
   <time name="diag">    0.24    0.24</time>
   <time name="diis">    2.79    2.78</time>
   <time name="orth">    0.03    0.03</time>
   <time name="total">    3.43    3.43</time>
   <energy>
    <i name="e_fr_energy">   -699.73811623 </i>
    <i name="e_wo_entrp">   -699.73811623 </i>
    <i name="e_0_energy">   -699.73811623 </i>
   </energy>
  </scstep>
  <scstep>
   <time name="diag">    0.24    0.24</time>
   <time name="diis">    2.91    2.91</time>
   <time name="orth">    0.03    0.03</time>
   <time name="total">    3.55    3.55</time>
   <energy>
    <i name="e_fr_energy">   -700.40981448 </i>
    <i name="e_wo_entrp">   -700.40981448 </i>
    <i name="e_0_energy">   -700.40981448 </i>
   </energy>
  </scstep>
  <scstep>
   <time name="diag">    0.24    0.24</time>
   <time name="diis">    2.74    2.74</time>
   <time name="orth">    0.03    0.03</time>
   <time name="total">    3.39    3.39</time>
   <energy>
    <i name="e_fr_energy">   -700.23592098 </i>
    <i name="e_wo_entrp">   -700.23592031 </i>
    <i name="e_0_energy">   -700.23592065 </i>
   </energy>
  </scstep>
  <scstep>
   <time name="diag">    0.24    0.24</time>
   <time name="diis">    2.60    2.60</time>
   <time name="orth">    0.03    0.03</time>
   <time name="total">    3.25    3.25</time>
   <energy>
    <i name="e_fr_energy">   -700.14381167 </i>
    <i name="e_wo_entrp">   -700.14366794 </i>
    <i name="e_0_energy">   -700.14373981 </i>
   </energy>
  </scstep>
  <scstep>
   <time name="diag">    0.24    0.24</time>
   <time name="diis">    2.61    2.61</time>
   <time name="orth">    0.03    0.03</time>
   <time name="total">    3.26    3.26</time>
   <energy>
    <i name="e_fr_energy">   -700.18982047 </i>
    <i name="e_wo_entrp">   -700.18765753 </i>
    <i name="e_0_energy">   -700.18873900 </i>
   </energy>
  </scstep>
  <scstep>
   <time name="diag">    0.24    0.24</time>
   <time name="diis">    2.96    2.96</time>
   <time name="orth">    0.03    0.03</time>
   <time name="total">    3.61    3.61</time>
   <energy>
    <i name="e_fr_energy">   -700.15857193 </i>
    <i name="e_wo_entrp">   -700.15571680 </i>
    <i name="e_0_energy">   -700.15714436 </i>
   </energy>
  </scstep>
  <scstep>
   <time name="diag">    0.24    0.24</time>
   <time name="diis">    2.87    2.87</time>
   <time name="orth">    0.03    0.03</time>
   <time name="total">    3.52    3.52</time>
   <energy>
    <i name="e_fr_energy">   -700.15362976 </i>
    <i name="e_wo_entrp">   -700.15094896 </i>
    <i name="e_0_energy">   -700.15228936 </i>
   </energy>
  </scstep>
  <scstep>
   <time name="diag">    0.24    0.24</time>
   <time name="diis">    2.53    2.53</time>
   <time name="orth">    0.03    0.03</time>
   <time name="total">    3.19    3.19</time>
   <energy>
    <i name="e_fr_energy">   -700.14710055 </i>
    <i name="e_wo_entrp">   -700.14507845 </i>
    <i name="e_0_energy">   -700.14608950 </i>
   </energy>
  </scstep>
  <scstep>
   <time name="diag">    0.24    0.24</time>
   <time name="diis">    2.62    2.62</time>
   <time name="orth">    0.03    0.03</time>
   <time name="total">    3.27    3.27</time>
   <energy>
    <i name="e_fr_energy">   -700.14583568 </i>
    <i name="e_wo_entrp">   -700.14406046 </i>
    <i name="e_0_energy">   -700.14494807 </i>
   </energy>
  </scstep>
  <scstep>
   <time name="diag">    0.24    0.24</time>
   <time name="diis">    2.75    2.75</time>
   <time name="orth">    0.03    0.03</time>
   <time name="total">    3.40    3.40</time>
   <energy>
    <i name="e_fr_energy">   -700.14566499 </i>
    <i name="e_wo_entrp">   -700.14385662 </i>
    <i name="e_0_energy">   -700.14476080 </i>
   </energy>
  </scstep>
  <scstep>
   <time name="diag">    0.24    0.24</time>
   <time name="diis">    2.59    2.59</time>
   <time name="orth">    0.03    0.03</time>
   <time name="total">    3.25    3.25</time>
   <energy>
    <i name="e_fr_energy">   -700.14571761 </i>
    <i name="e_wo_entrp">   -700.14387705 </i>
    <i name="e_0_energy">   -700.14479733 </i>
   </energy>
  </scstep>
  <scstep>
   <time name="diag">    0.24    0.24</time>
   <time name="diis">    2.24    2.24</time>
   <time name="orth">    0.03    0.03</time>
   <time name="total">    2.90    2.90</time>
   <energy>
    <i name="e_fr_energy">   -700.14574634 </i>
    <i name="e_wo_entrp">   -700.14391323 </i>
    <i name="e_0_energy">   -700.14482979 </i>
   </energy>
  </scstep>
  <scstep>
   <time name="diag">    0.24    0.24</time>
   <time name="diis">    1.80    1.80</time>
   <time name="orth">    0.03    0.03</time>
   <time name="total">    2.19    2.19</time>
   <energy>
    <i name="alphaZ">   5376.25786726 </i>
    <i name="ewald"> -85991.66536126 </i>
    <i name="hartreedc"> -34382.57040501 </i>
    <i name="XCdc">   4137.67982926 </i>
    <i name="pawpsdc"> 117846.52038997 </i>
    <i name="pawaedc">-133897.22277957 </i>
    <i name="eentropy">     -0.00185152 </i>
    <i name="bandstr">  -5656.13620834 </i>
    <i name="atom"> 131866.99277783 </i>
    <i name="e_fr_energy">   -700.14574139 </i>
    <i name="e_wo_entrp">   -700.14388986 </i>
    <i name="e_0_energy">   -700.14481562 </i>
   </energy>
  </scstep>
  <structure>
   <crystal>
    <varray name="basis" >
     <v>       0.00000000      12.28047342       0.00000000 </v>
     <v>       9.14270205       0.00000000       0.00000000 </v>
     <v>       0.00000000      -2.76826177     -11.30069772 </v>
    </varray>
    <i name="volume">   1268.80515525 </i>
    <varray name="rec_basis" >
     <v>       0.00000000       0.08143009      -0.01994742 </v>
     <v>       0.10937686      -0.00000000       0.00000000 </v>
[...]
   <v>      -0.00171223       0.00040266       0.00181564 </v>
   <v>      -0.00098267      -0.00077071      -0.00270217 </v>
   <v>      -0.00209259      -0.00283872       0.00307794 </v>
   <v>      -0.00189444       0.00165098      -0.00304481 </v>
   <v>       0.00027293      -0.00278770      -0.00016743 </v>
   <v>       0.00361070       0.00009193       0.00277360 </v>
   <v>      -0.00610675       0.00135943      -0.00897244 </v>
   <v>       0.00089530      -0.00000531      -0.00008721 </v>
   <v>      -0.00173765      -0.00107679       0.00094655 </v>
   <v>       0.00276145       0.00016349       0.00001070 </v>
   <v>       0.00068549      -0.00507480       0.00002891 </v>
   <v>      -0.00368889       0.00221131       0.00150852 </v>
  </varray>
  <varray name="stress" >
   <v>      53.66070587       6.36143079      -1.87619388 </v>
   <v>       6.36143117      46.42606789      -2.31478085 </v>
   <v>      -1.87619358      -2.31478181      45.35996009 </v>
  </varray>
  <energy>
   <i name="e_fr_energy">   -706.68712442 </i>
   <i name="e_wo_entrp">   -706.67717572 </i>
   <i name="e_0_energy">   -706.68215007 </i>
  </energy>
  <time name="totalsc">   11.60   11.62</time>
 </calculation>
 <calculation>
  <scstep>
   <time name="dav">    1.90    1.90</time>
   <time name="total">    2.27    2.27</time>
   <energy>
    <i name="alphaZ">   5376.25786726 </i>
    <i name="ewald"> -86723.85434649 </i>
    <i name="hartreedc"> -33675.51959677 </i>
    <i name="XCdc">   4136.36524945 </i>
    <i name="pawpsdc"> 117849.98031549 </i>
    <i name="pawaedc">-133889.51270551 </i>
    <i name="eentropy">     -0.00994849 </i>
    <i name="bandstr">  -5647.38595819 </i>
    <i name="atom"> 131866.99277783 </i>
    <i name="e_fr_energy">   -706.68634542 </i>
    <i name="e_wo_entrp">   -706.67639694 </i>
    <i name="e_0_energy">   -706.68137118 </i>
   </energy>
  </scstep>
  <scstep>
   <time name="diag">    0.24    0.24</time>
   <time name="diis">    2.40    2.40</time>
   <time name="orth">    0.03    0.03</time>
   <time name="total">    3.05    3.05</time>
   <energy>
    <i name="e_fr_energy">   -706.68686674 </i>
    <i name="e_wo_entrp">   -706.67691810 </i>
    <i name="e_0_energy">   -706.68189242 </i>
   </energy>
  </scstep>
  <scstep>
   <time name="diag">    0.24    0.24</time>
   <time name="diis">    2.81    2.81</time>
   <time name="orth">    0.03    0.03</time>
   <time name="total">    3.46    3.46</time>
   <energy>
    <i name="e_fr_energy">   -706.68699981 </i>
    <i name="e_wo_entrp">   -706.67705129 </i>
    <i name="e_0_energy">   -706.68202555 </i>
   </energy>
  </scstep>
  <scstep>
   <time name="diag">    0.24    0.24</time>
   <time name="diis">    2.41    2.41</time>
   <time name="orth">    0.03    0.03</time>
   <time name="total">    3.05    3.05</time>
   <energy>
    <i name="e_fr_energy">   -706.68701059 </i>
    <i name="e_wo_entrp">   -706.67706225 </i>
    <i name="e_0_energy">   -706.68203642 </i>
   </energy>
  </scstep>
  <scstep>
   <time name="diag">    0.24    0.24</time>
   <time name="diis">    1.75    1.75</time>
   <time name="orth">    0.03    0.03</time>
   <time name="total">    2.13    2.13</time>
   <energy>
    <i name="alphaZ">   5376.25786726 </i>
    <i name="ewald"> -86723.85434649 </i>
    <i name="hartreedc"> -33675.53717809 </i>
    <i name="XCdc">   4136.36574202 </i>
    <i name="pawpsdc"> 117849.84439692 </i>
    <i name="pawaedc">-133889.37716363 </i>
    <i name="eentropy">     -0.00994800 </i>
    <i name="bandstr">  -5647.36915782 </i>
    <i name="atom"> 131866.99277783 </i>
    <i name="e_fr_energy">   -706.68701000 </i>
    <i name="e_wo_entrp">   -706.67706201 </i>
    <i name="e_0_energy">   -706.68203600 </i>
   </energy>
  </scstep>
  <structure>
   <crystal>
    <varray name="basis" >
     <v>       0.00000000      12.28047342       0.00000000 </v>
     <v>       9.14270205       0.00000000       0.00000000 </v>
     <v>       0.00000000      -2.76826177     -11.30069772 </v>
    </varray>
    <i name="volume">   1268.80515525 </i>
    <varray name="rec_basis" >
     <v>       0.00000000       0.08143009      -0.01994742 </v>
     <v>       0.10937686      -0.00000000       0.00000000 </v>
     <v>       0.00000000       0.00000000      -0.08849011 </v>
    </varray>
   </crystal>
   <varray name="positions" >
    <v>       0.65618264      -0.00267604       0.15508734 </v>
    <v>       0.66027212       0.00179874       0.65685592 </v>
    <v>       0.65696308       0.33221362       0.15698944 </v>
    <v>       0.65930203       0.33537307       0.65701638 </v>
    <v>       0.65894058       0.66578525       0.15810463 </v>
    <v>       0.65982578       0.66829484       0.65673758 </v>
    <v>       0.83353839       0.15639596       0.34081508 </v>
    <v>       0.84127010       0.16816651       0.84382755 </v>
    <v>       0.84696408       0.49419490       0.34264899 </v>
    <v>       0.84068863       0.50186501       0.84355689 </v>
    <v>       0.84620289       0.82898242       0.34415161 </v>
    <v>       0.84171985       0.83563941       0.84410347 </v>
    <v>       0.58840306       0.16732870       0.39830303 </v>
    <v>       0.59015878       0.16740651       0.89736744 </v>
    <v>       0.59137207       0.50231595       0.39709923 </v>
    <v>       0.58877041       0.50133554       0.89686541 </v>
    <v>       0.59260506       0.83500813       0.39733908 </v>
    <v>       0.59089513       0.83429984       0.89739485 </v>
    <v>       0.91003237       0.00204202       0.10452257 </v>
    <v>       0.90870523       0.00091548       0.60155321 </v>
    <v>       0.90900048       0.33580682       0.10306231 </v>
    <v>       0.90941626       0.33455386       0.60262587 </v>
    <v>       0.90786769       0.66691479       0.10158262 </v>
    <v>       0.90784347       0.66635013       0.60132384 </v>
    <v>       0.15800140       0.17362215       0.15800278 </v>
    <v>       0.15871850       0.17423680       0.65558847 </v>
    <v>       0.16001196       0.50221672       0.15706991 </v>
    <v>       0.15924907       0.50475683       0.65579782 </v>
    <v>       0.15491939       0.82999537       0.15626452 </v>
    <v>       0.15512265       0.83515696       0.64883982 </v>
    <v>       0.33933081       0.00341263       0.34779576 </v>
    <v>       0.33958927       0.00142962       0.84003477 </v>
    <v>       0.34166525       0.33800279       0.34342687 </v>
    <v>       0.33946464       0.33561851       0.84431110 </v>
    <v>       0.34045613       0.66978670       0.34415640 </v>
    <v>       0.33886023       0.66871216       0.84268789 </v>
    <v>       0.09261220       0.00170583       0.89744441 </v>
    <v>       0.09872360       0.31162574       0.40064810 </v>
    <v>       0.09065354       0.33578428       0.89750216 </v>
    <v>       0.08762135       0.66437961       0.39519107 </v>
    <v>       0.09096085       0.66794940       0.89617199 </v>
    <v>       0.40574587       0.16586994       0.10199051 </v>
    <v>       0.41107559       0.17003571       0.60356792 </v>
    <v>       0.40943074       0.50187607       0.10221562 </v>
    <v>       0.40839611       0.50289026       0.60321449 </v>
    <v>       0.40419914       0.83486776       0.10224233 </v>
    <v>       0.41115770       0.83571873       0.60230519 </v>
    <v>       0.99662726       0.16974480       0.13890370 </v>
    <v>       0.99652030       0.16788246       0.62284620 </v>
    <v>       0.99656261       0.50170877       0.12556255 </v>
    <v>       0.99640629       0.50089393       0.62775965 </v>
    <v>       0.99487075       0.83367061       0.12680661 </v>
    <v>       0.99500998       0.83377625       0.62709740 </v>
    <v>       0.50267892      -0.00008349       0.37296343 </v>
    <v>       0.50243392       0.00050327       0.87212154 </v>
    <v>       0.50329351       0.33557313       0.37197737 </v>
    <v>       0.50171617       0.33357658       0.87215929 </v>
    <v>       0.50369355       0.66923815       0.37221870 </v>
    <v>       0.50161060       0.66914858       0.87179632 </v>
    <v>       0.66905733       0.16511772       0.28002556 </v>
    <v>       0.67291384       0.16864377       0.78114887 </v>
    <v>       0.67391144       0.49652373       0.28087540 </v>
    <v>       0.67237748       0.50163985       0.78102810 </v>
    <v>       0.67416127       0.83161566       0.28041014 </v>
    <v>       0.67338173       0.83600174       0.78106384 </v>
    <v>       0.82476955      -0.00119447       0.21825118 </v>
    <v>       0.82847930       0.00262390       0.72001419 </v>
    <v>       0.82832683       0.32665631       0.22056108 </v>
    <v>       0.82778095       0.33480191       0.71946243 </v>
    <v>       0.82765062       0.66181566       0.21885711 </v>
    <v>       0.82762277       0.66861256       0.71963473 </v>
    <v>       0.82754563      -0.00433590       0.44639606 </v>
    <v>       0.83438773       0.00258992       0.94738987 </v>
    <v>       0.84047608       0.32350191       0.44358080 </v>
    <v>       0.83322745       0.33446917       0.94635798 </v>
    <v>       0.83257300       0.66022116       0.44464810 </v>
    <v>       0.83147677       0.66848282       0.94519312 </v>
    <v>       0.66569758       0.16606165       0.05426066 </v>
    <v>       0.66789911       0.16898544       0.55412593 </v>
    <v>       0.66498726       0.49903670       0.05410102 </v>
    <v>       0.66895791       0.50103826       0.55388015 </v>
    <v>       0.66778214       0.83194489       0.05378149 </v>
    <v>       0.66850969       0.83471601       0.55454926 </v>
    <v>       0.49379711      -0.00048206       0.12666722 </v>
    <v>       0.49788047       0.00276841       0.62814712 </v>
    <v>       0.49364915       0.33224978       0.12679769 </v>
    <v>       0.49709544       0.33699949       0.62873240 </v>
    <v>       0.49479544       0.67045025       0.12736166 </v>
    <v>       0.49734662       0.66879017       0.62826262 </v>
    <v>       0.00443150       0.16798913       0.87371770 </v>
    <v>       0.00953203       0.48666493       0.37354767 </v>
    <v>       0.00298455       0.50194047       0.87209243 </v>
    <v>       0.00504791       0.83299397       0.37364366 </v>
    <v>       0.00463588       0.83555149       0.87308833 </v>
    <v>       0.15648388       0.01213017       0.30089682 </v>
    <v>       0.16892054       0.00247124       0.77244977 </v>
    <v>       0.17703506       0.34042886       0.27732708 </v>
    <v>       0.17258897       0.33575471       0.78154702 </v>
    <v>       0.17243224       0.66888694       0.27945187 </v>
    <v>       0.17177774       0.66953514       0.77864300 </v>
    <v>       0.32419775       0.16219941       0.22045897 </v>
    <v>       0.32564665       0.16515166       0.71705735 </v>
    <v>       0.32927662       0.50510965       0.21960150 </v>
    <v>       0.32862366       0.50398762       0.72152343 </v>
    <v>       0.32096465       0.84214067       0.22036780 </v>
    <v>       0.32254174       0.84039076       0.71314863 </v>
    <v>       0.33542100       0.17128055       0.44705109 </v>
    <v>       0.32889206       0.16595400       0.94456260 </v>
    <v>       0.33361104       0.50367645       0.44640312 </v>
    <v>       0.33142714       0.50228385       0.94620062 </v>
    <v>       0.33268558       0.83617790       0.44657959 </v>
    <v>       0.32828306       0.83641413       0.94391675 </v>
    <v>       0.16177824       0.00225508       0.05917994 </v>
    <v>       0.14583735       0.01225100       0.52786333 </v>
    <v>       0.16819842       0.33528862       0.05321830 </v>
    <v>       0.17529115       0.34037343       0.55951198 </v>
    <v>       0.16819021       0.66792540       0.05287919 </v>
    <v>       0.16800974       0.66908969       0.55212918 </v>
    <v>       0.07193155       0.04776160       0.39136549 </v>
   </varray>
  </structure>
  <varray name="forces" >
   <v>      -0.00265164      -0.00391136       0.00052500 </v>
   <v>       0.00018218      -0.00070646      -0.00263640 </v>
   <v>       0.00223225      -0.00560380       0.00377797 </v>
   <v>       0.00115778       0.00319200      -0.00068154 </v>
   <v>      -0.00161413      -0.00541713       0.00320890 </v>
   <v>      -0.00164951      -0.00060254       0.00148499 </v>
   <v>       0.00009956      -0.00419536      -0.00450827 </v>
   <v>       0.00617926      -0.00321715      -0.00127531 </v>
   <v>       0.00310400       0.00022877      -0.00376179 </v>
   <v>       0.00372493       0.00314077       0.00323009 </v>
   <v>       0.00050031       0.00224860      -0.00507540 </v>
   <v>       0.00191029       0.00012648       0.00138344 </v>
   <v>      -0.00274572      -0.00891023      -0.00733393 </v>
   <v>      -0.00165682      -0.00526508       0.01088281 </v>
   <v>       0.00146577      -0.00287085      -0.00872725 </v>
   <v>      -0.00447660       0.00210027       0.00844515 </v>
   <v>       0.00064966      -0.00755334      -0.00499105 </v>
   <v>      -0.00241227       0.00180056       0.00722209 </v>
   <v>       0.00537242       0.00626563       0.00015737 </v>
   <v>      -0.00587037      -0.00794213      -0.00458785 </v>
   <v>       0.00431477       0.00853179       0.00305303 </v>
   <v>      -0.00335967      -0.00411360      -0.00497268 </v>
   <v>       0.00536514       0.00613046       0.00578991 </v>
   <v>      -0.00085241       0.00037826      -0.00370733 </v>
   <v>       0.00211696       0.00620166       0.00137778 </v>
   <v>      -0.00475689      -0.00029112       0.00381139 </v>
   <v>       0.00337407       0.00494511      -0.00076616 </v>
   <v>      -0.00054269       0.00038883      -0.00069018 </v>
   <v>       0.00290869      -0.00055130      -0.00616808 </v>
   <v>      -0.00398893      -0.00419174      -0.00012633 </v>
   <v>       0.00111021      -0.00127141      -0.00167644 </v>
   <v>      -0.00487852       0.00067046      -0.00201994 </v>
   <v>       0.00163825       0.00082443       0.00009573 </v>
   <v>      -0.00319405       0.00228776       0.00228577 </v>
   <v>       0.00435172      -0.00020327      -0.00089814 </v>
   <v>      -0.00053394      -0.00227511      -0.00043252 </v>
   <v>       0.00392366       0.00358337      -0.00586677 </v>
   <v>      -0.00729688       0.00418359       0.00189859 </v>
   <v>       0.00749784      -0.00038243      -0.00236938 </v>
   <v>      -0.00686117       0.00173857       0.00013699 </v>
   <v>       0.01015642      -0.00187493      -0.00166991 </v>
   <v>      -0.00483858      -0.00096809      -0.00091822 </v>
   <v>       0.00623210       0.01228854       0.00029247 </v>
   <v>      -0.00681931      -0.00658458      -0.00100977 </v>
   <v>       0.00226211       0.00028783       0.00369342 </v>
   <v>      -0.00564892      -0.00298063      -0.00349337 </v>
   <v>       0.00230643       0.00491845      -0.00146258 </v>
   <v>       0.00076429       0.00015559       0.00102065 </v>
   <v>      -0.00205113       0.00098736       0.00562970 </v>
   <v>       0.00151311      -0.00485677      -0.00193269 </v>
   <v>      -0.00072732      -0.00031683      -0.00023457 </v>
   <v>      -0.00014133      -0.00258133      -0.00009610 </v>
   <v>      -0.00121139       0.00066366       0.00250302 </v>
   <v>       0.00154918       0.00069519       0.00080849 </v>
   <v>      -0.00024621       0.00131229       0.00065654 </v>
   <v>       0.00428154       0.00223855       0.00048412 </v>
   <v>      -0.00116430      -0.00069591       0.00074394 </v>
   <v>      -0.00044803       0.00194043       0.00085569 </v>
   <v>      -0.00025385       0.00237640      -0.00007999 </v>
   <v>       0.00096100       0.00140743       0.00480608 </v>
   <v>      -0.00004410       0.00134793      -0.00169200 </v>
   <v>      -0.00086316       0.00404666       0.00603641 </v>
   <v>      -0.00041823      -0.00272150      -0.00428021 </v>
   <v>       0.00087231       0.00384984       0.00407993 </v>
   <v>      -0.00063012      -0.00349223      -0.00368525 </v>
   <v>       0.00077911      -0.00246104      -0.00086264 </v>
   <v>      -0.00034057       0.00382272       0.00585242 </v>
   <v>       0.00089216      -0.00021472      -0.00291443 </v>
   <v>      -0.00153719       0.00260827       0.00156962 </v>
   <v>      -0.00002711      -0.00078694      -0.00007615 </v>
   <v>       0.00211783       0.00315097      -0.00246346 </v>
   <v>      -0.00116137      -0.00313249      -0.00031647 </v>
   <v>       0.00058698       0.00075825      -0.00324240 </v>
   <v>       0.00141152      -0.00273438       0.00502714 </v>
   <v>      -0.00075930       0.00238991      -0.00543006 </v>
   <v>      -0.00127464       0.00168550       0.00598165 </v>
   <v>       0.00235435       0.00232339      -0.00632406 </v>
   <v>      -0.00296296      -0.00131889      -0.00689051 </v>
   <v>       0.00119043      -0.00320014       0.00037384 </v>
   <v>       0.00101366       0.00319047      -0.00262331 </v>
   <v>      -0.00286176       0.00348111       0.00214170 </v>
   <v>      -0.00082153       0.00319962      -0.00731648 </v>
   <v>      -0.00031707      -0.00123653       0.00397929 </v>
   <v>      -0.00217107       0.00159535       0.00135139 </v>
   <v>      -0.00024520      -0.00667714       0.00137698 </v>
   <v>       0.00047740       0.00260045       0.00072785 </v>
   <v>      -0.00229904      -0.00409328       0.00274366 </v>
   <v>      -0.00425889       0.00604443      -0.00056602 </v>
   <v>       0.00174391      -0.00024179       0.00020033 </v>
   <v>       0.00087585       0.00452148       0.00102456 </v>
   <v>       0.00302691      -0.00690061       0.00012359 </v>
   <v>       0.00178034       0.00209605      -0.00065616 </v>
   <v>       0.00249245      -0.00630638       0.00127525 </v>
   <v>       0.00443834       0.00037511       0.00098831 </v>
   <v>       0.00160711      -0.00541084       0.00280675 </v>
   <v>       0.00068921      -0.00204688      -0.00002111 </v>
   <v>       0.00121602       0.00016668       0.00293468 </v>
   <v>      -0.00339839       0.00078854       0.00372523 </v>
   <v>      -0.00085953      -0.00196257      -0.00260585 </v>
   <v>       0.00011637       0.00018820       0.00237315 </v>
   <v>      -0.00004108       0.00199272       0.00183237 </v>
   <v>       0.00130990       0.00048478       0.00245273 </v>
   <v>      -0.00044985       0.00181262       0.00508024 </v>
   <v>      -0.00048283      -0.00395048       0.00033743 </v>
   <v>      -0.00116709       0.00105652       0.00219701 </v>
   <v>      -0.00196444       0.00025805       0.00015302 </v>
   <v>       0.00139339       0.00272712      -0.00612572 </v>
   <v>      -0.00226964      -0.00152572       0.00243988 </v>
   <v>      -0.00095608      -0.00102172      -0.00395434 </v>
   <v>      -0.00255530      -0.00253722       0.00096187 </v>
   <v>      -0.00206529       0.00103574      -0.00629822 </v>
   <v>       0.00037733      -0.00138887       0.00143816 </v>
   <v>       0.00377886       0.00123864       0.00235923 </v>
   <v>      -0.00451197      -0.00188757      -0.00584567 </v>
   <v>      -0.00025107       0.00015857       0.00271710 </v>
   <v>      -0.00281473       0.00066937      -0.00137130 </v>
   <v>       0.00137945       0.00056582      -0.00029524 </v>
   <v>      -0.00087741      -0.00327721      -0.00005713 </v>
   <v>      -0.00057653       0.00639163       0.00116027 </v>
  </varray>
  <varray name="stress" >
   <v>      53.67115074       6.35557805      -1.88057961 </v>
   <v>       6.35557793      46.43541986      -2.30535145 </v>
   <v>      -1.88057951      -2.30535159      45.38260583 </v>
  </varray>
  <energy>
   <i name="e_fr_energy">   -706.68701000 </i>
   <i name="e_wo_entrp">   -706.67706201 </i>
   <i name="e_0_energy">   -706.68203600 </i>
  </energy>
