 running    4 mpi-ranks, on    1 nodes
 distrk:  each k-point on    1 cores,    4 groups
 distr:  one band on    1 cores,    1 groups
 OpenACC runtime initialized ...    4 GPUs detected
 vasp.6.4.2 20Jul23 (build Nov 12 2023 22:16:35) complex                         
 POSCAR found type information on POSCAR GaO P 
 POSCAR found :  3 types and     119 ions
 scaLAPACK will be used selectively (only on CPU)
 LDA part: xc-table for Pade appr. of Perdew
 POSCAR, INCAR and KPOINTS ok, starting setup
 FFT: planning ... GRIDC
 FFT: planning ... GRID_SOFT
 FFT: planning ... GRID
 WAVECAR not read
 initial charge from wavefunction
 entering main loop
       N       E                     dE             d eps       ncg     rms          ort
DAV:   1    -0.176197370003E+05   -0.17620E+05   -0.54046E+05  5064   0.749E+03
DAV:   2    -0.634500648873E+05   -0.45830E+05   -0.44171E+05  5064   0.125E+03
DAV:   3    -0.691452102955E+05   -0.56951E+04   -0.51692E+04  5064   0.390E+02
DAV:   4    -0.700292998894E+05   -0.88409E+03   -0.80931E+03  5064   0.129E+02
DAV:   5    -0.404343317151E+05    0.29595E+05   -0.70481E+02  5064   0.579E+01
 gam= 0.000 g(H,U,f)=  0.882E+05 0.215E+05 0.251E-09 ort(H,U,f) = 0.000E+00 0.000E+00 0.000E+00
SDA:   6     0.404442536875E+05    0.80879E+05   -0.70481E+02  5064   0.110E+06 0.000E+00
 gam= 0.000 trial= 0.400  step= 0.662 mean= 0.400
 gam= 0.678 g(H,U,f)=  0.614E+05 0.124E+05 0.630E+03 ort(H,U,f) =-0.164E+05-0.677E+04-0.459E+03
CGA:   7     0.167347363914E+05   -0.23710E+05   -0.36334E+05  5064   0.744E+05-0.237E+05
 gam= 0.678 trial= 0.413  step= 0.300 mean= 0.413
 gam= 0.396 g(H,U,f)=  0.239E+05 0.528E+04 0.211E+03 ort(H,U,f) = 0.445E+04 0.334E+04-0.602E+02
CGA:   8     0.908421886366E+04   -0.76505E+04   -0.87431E+04  5064   0.294E+05 0.773E+04
 gam= 0.396 trial= 0.407  step= 0.242 mean= 0.407
 gam= 0.739 g(H,U,f)=  0.148E+05 0.681E+04 0.191E+03 ort(H,U,f) = 0.327E+04-0.983E+03 0.139E+03
CGA:   9     0.573693126352E+04   -0.33473E+04   -0.39333E+04  5064   0.218E+05 0.242E+04
 gam= 0.739 trial= 0.399  step= 0.253 mean= 0.399
 gam= 0.553 g(H,U,f)=  0.976E+04 0.225E+04 0.220E+02 ort(H,U,f) = 0.356E+04-0.113E+04-0.799E+01
CGA:  10     0.367670993419E+04   -0.20602E+04   -0.29790E+04  5064   0.120E+05 0.242E+04
 gam= 0.553 trial= 0.392  step= 0.281 mean= 0.392
 gam= 0.554 g(H,U,f)=  0.565E+04 0.963E+03 0.505E+02 ort(H,U,f) = 0.663E+03 0.388E+03-0.146E+02
CGA:  11     0.202109881634E+04   -0.16556E+04   -0.18804E+04  5064   0.666E+04 0.104E+04
 gam= 0.554 trial= 0.386  step= 0.344 mean= 0.386
 gam= 0.382 g(H,U,f)=  0.230E+04 0.248E+03 0.614E+00 ort(H,U,f) = 0.522E+03 0.352E+03 0.541E+01
CGA:  12     0.824049831490E+03   -0.11970E+04   -0.12441E+04  5064   0.255E+04 0.879E+03
 gam= 0.382 trial= 0.384  step= 0.517 mean= 0.384
 gam= 0.585 g(H,U,f)=  0.128E+04 0.209E+03 0.387E+01 ort(H,U,f) =-0.153E+03 0.247E+03-0.540E+01
CGA:  13     0.682887262144E+02   -0.75576E+03   -0.74576E+03  5064   0.149E+04 0.886E+02
 gam= 0.585 trial= 0.391  step= 0.564 mean= 0.391
 gam= 0.586 g(H,U,f)=  0.757E+03 0.117E+03 0.633E+00 ort(H,U,f) =-0.231E+03 0.139E+03-0.429E+00
CGA:  14    -0.362505464976E+03   -0.43079E+03   -0.43530E+03  5064   0.874E+03-0.927E+02
 gam= 0.586 trial= 0.400  step= 0.374 mean= 0.400
 gam= 0.740 g(H,U,f)=  0.423E+03 0.218E+03 0.590E+01 ort(H,U,f) = 0.914E+02-0.193E+03-0.111E+02
CGA:  15    -0.519192097273E+03   -0.15669E+03   -0.15335E+03  5064   0.647E+03-0.112E+03
 gam= 0.740 trial= 0.398  step= 0.284 mean= 0.398
 gam= 0.816 g(H,U,f)=  0.278E+03 0.241E+03 0.915E+01 ort(H,U,f) = 0.105E+03-0.105E+03-0.570E+01
CGA:  16    -0.599831640184E+03   -0.80640E+02   -0.80084E+02  5064   0.528E+03-0.494E+01
 gam= 0.816 trial= 0.393  step= 0.249 mean= 0.393
 gam= 0.539 g(H,U,f)=  0.199E+03 0.853E+02 0.502E+00 ort(H,U,f) = 0.219E+02-0.182E+02 0.764E+00
CGA:  17    -0.661274362263E+03   -0.61443E+02   -0.65313E+02  5064   0.285E+03 0.446E+01
 gam= 0.539 trial= 0.385  step= 0.331 mean= 0.385
 gam= 0.684 g(H,U,f)=  0.132E+03 0.622E+02 0.757E+00 ort(H,U,f) = 0.253E+01 0.933E+01-0.668E+00
CGA:  18    -0.708232723118E+03   -0.46958E+02   -0.47530E+02  5064   0.195E+03 0.112E+02
 gam= 0.684 trial= 0.383  step= 0.376 mean= 0.383
 gam= 0.721 g(H,U,f)=  0.986E+02 0.417E+02 0.212E+00 ort(H,U,f) =-0.308E+02 0.367E+02-0.129E+00
CGA:  19    -0.746309424925E+03   -0.38077E+02   -0.38097E+02  5064   0.140E+03 0.569E+01
 gam= 0.721 trial= 0.382  step= 0.388 mean= 0.382
 gam= 0.772 g(H,U,f)=  0.756E+02 0.328E+02 0.119E+00 ort(H,U,f) =-0.270E+02 0.304E+02-0.181E+00
CGA:  20    -0.774362667664E+03   -0.28053E+02   -0.28049E+02  5064   0.108E+03 0.317E+01
 gam= 0.772 trial= 0.383  step= 0.367 mean= 0.383
 gam= 0.715 g(H,U,f)=  0.537E+02 0.232E+02 0.629E+00 ort(H,U,f) =-0.207E+02 0.241E+02 0.207E+00
CGA:  21    -0.794712837516E+03   -0.20350E+02   -0.20371E+02  5064   0.775E+02 0.363E+01
 gam= 0.715 trial= 0.382  step= 0.342 mean= 0.382
 gam= 0.621 g(H,U,f)=  0.378E+02 0.103E+02 0.191E-01 ort(H,U,f) =-0.665E+01 0.102E+02-0.266E-01
CGA:  22    -0.808318017254E+03   -0.13605E+02   -0.13694E+02  5064   0.481E+02 0.356E+01
 gam= 0.621 trial= 0.380  step= 0.370 mean= 0.380
 gam= 0.681 g(H,U,f)=  0.216E+02 0.100E+02 0.116E+01 ort(H,U,f) = 0.189E+01 0.100E+01-0.781E+00
CGA:  23    -0.817608650251E+03   -0.92906E+01   -0.93025E+01  5064   0.328E+02 0.211E+01
 gam= 0.681 trial= 0.379  step= 0.362 mean= 0.379
 gam= 0.602 g(H,U,f)=  0.135E+02 0.608E+01 0.120E+00 ort(H,U,f) =-0.108E+01 0.213E+01 0.230E+00
CGA:  24    -0.823784632474E+03   -0.61760E+01   -0.61897E+01  5064   0.197E+02 0.128E+01
 gam= 0.602 trial= 0.378  step= 0.381 mean= 0.378
 gam= 0.703 g(H,U,f)=  0.960E+01 0.425E+01 0.982E-02 ort(H,U,f) =-0.411E+00 0.140E+01-0.140E-01
CGA:  25    -0.827694175329E+03   -0.39095E+01   -0.39076E+01  5064   0.139E+02 0.978E+00
 gam= 0.703 trial= 0.379  step= 0.409 mean= 0.379
 gam= 0.725 g(H,U,f)=  0.684E+01 0.320E+01 0.302E-02 ort(H,U,f) =-0.155E+01 0.186E+01 0.252E-02
CGA:  26    -0.830672400754E+03   -0.29782E+01   -0.29727E+01  5064   0.101E+02 0.319E+00
 gam= 0.725 trial= 0.380  step= 0.397 mean= 0.380
 gam= 0.671 g(H,U,f)=  0.484E+01 0.190E+01 0.217E-02 ort(H,U,f) =-0.172E+01 0.185E+01-0.274E-02
CGA:  27    -0.832716602947E+03   -0.20442E+01   -0.20431E+01  5064   0.674E+01 0.127E+00
 gam= 0.671 trial= 0.381  step= 0.396 mean= 0.381
 gam= 0.665 g(H,U,f)=  0.326E+01 0.122E+01 0.310E-02 ort(H,U,f) =-0.112E+01 0.117E+01-0.329E-02
CGA:  28    -0.834067587097E+03   -0.13510E+01   -0.13507E+01  5064   0.448E+01 0.475E-01
 gam= 0.665 trial= 0.382  step= 0.420 mean= 0.382
 gam= 0.682 g(H,U,f)=  0.232E+01 0.732E+00 0.153E-02 ort(H,U,f) =-0.497E+00 0.519E+00 0.315E-02
CGA:  29    -0.835016830148E+03   -0.94924E+00   -0.94890E+00  5064   0.306E+01 0.257E-01
 gam= 0.682 trial= 0.384  step= 0.422 mean= 0.384
 gam= 0.634 g(H,U,f)=  0.135E+01 0.575E+00 0.145E-01 ort(H,U,f) =-0.864E-01 0.116E+00-0.169E-01
CGA:  30    -0.835665223596E+03   -0.64839E+00   -0.64829E+00  5064   0.194E+01 0.124E-01
 gam= 0.634 trial= 0.386  step= 0.433 mean= 0.386
 gam= 0.663 g(H,U,f)=  0.867E+00 0.410E+00 0.929E-02 ort(H,U,f) =-0.112E+00 0.122E+00 0.305E-02
CGA:  31    -0.836086574327E+03   -0.42135E+00   -0.42103E+00  5064   0.129E+01 0.130E-01
 gam= 0.663 trial= 0.388  step= 0.445 mean= 0.388
 gam= 0.760 g(H,U,f)=  0.672E+00 0.305E+00 0.740E-03 ort(H,U,f) =-0.921E-01 0.105E+00-0.268E-02
CGA:  32    -0.836375224314E+03   -0.28865E+00   -0.28829E+00  5064   0.978E+00 0.103E-01
 gam= 0.760 trial= 0.391  step= 0.437 mean= 0.391
 gam= 0.733 g(H,U,f)=  0.485E+00 0.230E+00 0.222E-02 ort(H,U,f) =-0.101E+00 0.107E+00-0.205E-02
CGA:  33    -0.836590592463E+03   -0.21537E+00   -0.21524E+00  5064   0.717E+00 0.483E-02
 gam= 0.733 trial= 0.393  step= 0.401 mean= 0.393
 gam= 0.683 g(H,U,f)=  0.352E+00 0.138E+00 0.329E-03 ort(H,U,f) =-0.826E-01 0.841E-01 0.271E-03
CGA:  34    -0.836734921086E+03   -0.14433E+00   -0.14432E+00  5064   0.490E+00 0.184E-02
 gam= 0.683 trial= 0.393  step= 0.403 mean= 0.393
 gam= 0.693 g(H,U,f)=  0.233E+00 0.106E+00 0.726E-03 ort(H,U,f) =-0.426E-01 0.439E-01-0.207E-03
CGA:  35    -0.836833872908E+03   -0.98952E-01   -0.98946E-01  5064   0.339E+00 0.114E-02
 gam= 0.693 trial= 0.394  step= 0.422 mean= 0.394
 gam= 0.681 g(H,U,f)=  0.159E+00 0.716E-01 0.208E-03 ort(H,U,f) =-0.372E-01 0.382E-01 0.377E-04
CGA:  36    -0.836905632025E+03   -0.71759E-01   -0.71743E-01  5064   0.231E+00 0.106E-02
 gam= 0.681 trial= 0.395  step= 0.436 mean= 0.395
 gam= 0.000 g(H,U,f)=  0.105E+00 0.464E-01 0.125E-03 ort(H,U,f) =-0.234E-01 0.244E-01-0.122E-03
SDA:  37    -0.836956136543E+03   -0.50505E-01   -0.50485E-01  5064   0.152E+00 0.884E-03
 gam= 0.000 trial= 0.397  step= 0.954 mean= 0.397
 gam= 0.495 g(H,U,f)=  0.494E-01 0.254E-01 0.195E-03 ort(H,U,f) =-0.182E-01 0.183E-01-0.161E-03
CGA:  38    -0.837028423834E+03   -0.72287E-01   -0.72286E-01  5064   0.751E-01 0.314E-05
 gam= 0.495 trial= 0.425  step= 0.781 mean= 0.425
 gam= 0.310 g(H,U,f)=  0.167E-01 0.648E-02 0.104E-03 ort(H,U,f) =-0.895E-02 0.902E-02-0.489E-04
CGA:  39    -0.837057739617E+03   -0.29316E-01   -0.29312E-01  5064   0.233E-01 0.182E-04
 gam= 0.310 trial= 0.443  step= 0.699 mean= 0.443
 gam= 0.245 g(H,U,f)=  0.480E-02 0.879E-03 0.117E-04 ort(H,U,f) =-0.199E-02 0.199E-02-0.298E-04
CGA:  40    -0.837065863110E+03   -0.81235E-02   -0.81279E-02  5064   0.569E-02-0.303E-04
 gam= 0.245 trial= 0.456  step= 0.698 mean= 0.456
 gam= 0.248 g(H,U,f)=  0.130E-02 0.113E-03 0.110E-05 ort(H,U,f) =-0.409E-03 0.367E-03-0.944E-06
CGA:  41    -0.837067841450E+03   -0.19783E-02   -0.19846E-02  5064   0.141E-02-0.429E-04
 gam= 0.248 trial= 0.468  step= 0.668 mean= 0.468
 gam= 0.230 g(H,U,f)=  0.296E-03 0.274E-04 0.864E-06 ort(H,U,f) =-0.635E-04 0.532E-04 0.709E-06
CGA:  42    -0.837068307912E+03   -0.46646E-03   -0.46773E-03  5064   0.325E-03-0.959E-05
 gam= 0.230 trial= 0.478  step= 0.710 mean= 0.478
 gam= 0.360 g(H,U,f)=  0.101E-03 0.151E-04 0.336E-06 ort(H,U,f) = 0.636E-05 0.706E-07-0.478E-06
CGA:  43    -0.837068423234E+03   -0.11532E-03   -0.11450E-03  5064   0.117E-03 0.596E-05
 gam= 0.360 trial= 0.490  step= 0.692 mean= 0.490
 gam= 0.338 g(H,U,f)=  0.367E-04 0.286E-05 0.869E-09 ort(H,U,f) = 0.288E-05 0.871E-06 0.336E-08
CGA:  44    -0.837068464875E+03   -0.41641E-04   -0.41190E-04  5064   0.395E-04 0.376E-05
 gam= 0.338 trial= 0.500  step= 0.791 mean= 0.500
 gam= 0.480 g(H,U,f)=  0.179E-04 0.983E-06 0.285E-07 ort(H,U,f) =-0.826E-07 0.665E-06 0.116E-07
CGA:  45    -0.837068481114E+03   -0.16239E-04   -0.16144E-04  5064   0.190E-04 0.594E-06
 gam= 0.480 trial= 0.514  step= 0.788 mean= 0.514
 gam= 0.495 g(H,U,f)=  0.865E-05 0.721E-06 0.193E-07 ort(H,U,f) = 0.121E-06 0.854E-07 0.218E-07
CGA:  46    -0.837068488733E+03   -0.76191E-05   -0.75793E-05  5064   0.939E-05 0.228E-06
 gam= 0.495 trial= 0.528  step= 0.782 mean= 0.528
 final diagonalization
   1 F= -.83706849E+03 E0= -.83706454E+03  d E =-.789146E-02
 writing wavefunctions
Warning: ieee_invalid is signaling
Warning: ieee_divide_by_zero is signaling
Warning: ieee_underflow is signaling
Warning: ieee_inexact is signaling
FORTRAN STOP
Warning: ieee_invalid is signaling
Warning: ieee_divide_by_zero is signaling
Warning: ieee_underflow is signaling
Warning: ieee_inexact is signaling
FORTRAN STOP
Warning: ieee_invalid is signaling
Warning: ieee_divide_by_zero is signaling
Warning: ieee_underflow is signaling
Warning: ieee_inexact is signaling
FORTRAN STOP
Warning: ieee_invalid is signaling
Warning: ieee_divide_by_zero is signaling
Warning: ieee_underflow is signaling
Warning: ieee_inexact is signaling
FORTRAN STOP
