 running    4 mpi-ranks, on    1 nodes
 distrk:  each k-point on    1 cores,    4 groups
 distr:  one band on    1 cores,    1 groups
 OpenACC runtime initialized ...    4 GPUs detected
 vasp.6.4.2 20Jul23 (build Nov 12 2023 22:16:35) complex                         
 POSCAR found type information on POSCAR GaO P 
 POSCAR found :  3 types and     119 ions
 scaLAPACK will be used selectively (only on CPU)
 LDA part: xc-table for Pade appr. of Perdew
 POSCAR, INCAR and KPOINTS ok, starting setup
 FFT: planning ... GRIDC
 FFT: planning ... GRID_SOFT
 FFT: planning ... GRID
 WAVECAR not read
 initial charge from wavefunction
 entering main loop
       N       E                     dE             d eps       ncg     rms          ort
DAV:   1    -0.183173265981E+05   -0.18317E+05   -0.54298E+05  5000   0.750E+03
DAV:   2    -0.628870137788E+05   -0.44570E+05   -0.43065E+05  5000   0.124E+03
DAV:   3    -0.679649610411E+05   -0.50779E+04   -0.46079E+04  5000   0.376E+02
DAV:   4    -0.686660016807E+05   -0.70104E+03   -0.63206E+03  5000   0.118E+02
DAV:   5    -0.390750110361E+05    0.29591E+05   -0.70444E+02  5000   0.578E+01
 gam= 0.000 g(H,U,f)=  0.780E+05 0.146E+05 0.531E+04 ort(H,U,f) = 0.000E+00 0.000E+00 0.000E+00
SDA:   6     0.301725364950E+05    0.69248E+05   -0.70444E+02  5000   0.978E+05 0.000E+00
 gam= 0.000 trial= 0.400  step= 0.465 mean= 0.400
 gam= 0.542 g(H,U,f)=  0.324E+05 0.191E+05 0.147E+04 ort(H,U,f) =-0.101E+05-0.121E+05-0.153E+04
CGA:   7     0.971634854602E+04   -0.20456E+05   -0.22762E+05  5000   0.530E+05-0.237E+05
 gam= 0.542 trial= 0.403  step= 0.255 mean= 0.403
 gam= 0.383 g(H,U,f)=  0.154E+05 0.489E+04 0.549E+02 ort(H,U,f) =-0.523E+03 0.545E+03-0.108E+03
CGA:   8     0.475687275649E+04   -0.49595E+04   -0.51212E+04  5000   0.203E+05-0.864E+02
 gam= 0.383 trial= 0.396  step= 0.276 mean= 0.396
 gam= 0.402 g(H,U,f)=  0.674E+04 0.139E+04 0.367E+02 ort(H,U,f) = 0.178E+04 0.431E+03 0.180E+02
CGA:   9     0.240100591296E+04   -0.23559E+04   -0.27996E+04  5000   0.817E+04 0.223E+04
 gam= 0.402 trial= 0.390  step= 0.343 mean= 0.390
 gam= 0.438 g(H,U,f)=  0.321E+04 0.358E+03 0.120E+02 ort(H,U,f) = 0.671E+03 0.463E+03 0.686E+01
CGA:  10     0.914639188804E+03   -0.14864E+04   -0.15534E+04  5000   0.358E+04 0.114E+04
 gam= 0.438 trial= 0.388  step= 0.460 mean= 0.388
 gam= 0.385 g(H,U,f)=  0.123E+04 0.139E+03 0.492E+01 ort(H,U,f) = 0.207E+03 0.157E+03 0.876E+01
CGA:  11    -0.479952805760E+02   -0.96263E+03   -0.93778E+03  5000   0.138E+04 0.373E+03
 gam= 0.385 trial= 0.391  step= 0.569 mean= 0.391
 gam= 0.529 g(H,U,f)=  0.623E+03 0.103E+03 0.161E+01 ort(H,U,f) =-0.723E+02 0.137E+03 0.155E+01
CGA:  12    -0.492350543106E+03   -0.44436E+03   -0.43306E+03  5000   0.728E+03 0.660E+02
 gam= 0.529 trial= 0.400  step= 0.618 mean= 0.400
 gam= 0.522 g(H,U,f)=  0.333E+03 0.458E+02 0.117E+01 ort(H,U,f) =-0.158E+03 0.108E+03 0.618E+01
CGA:  13    -0.722448026874E+03   -0.23010E+03   -0.23570E+03  5000   0.380E+03-0.443E+02
 gam= 0.522 trial= 0.411  step= 0.583 mean= 0.411
 gam= 0.542 g(H,U,f)=  0.182E+03 0.227E+02 0.844E+00 ort(H,U,f) =-0.373E+02 0.165E+02 0.111E+01
CGA:  14    -0.824414776897E+03   -0.10197E+03   -0.10398E+03  5000   0.206E+03-0.197E+02
 gam= 0.542 trial= 0.420  step= 0.515 mean= 0.420
 gam= 0.486 g(H,U,f)=  0.823E+02 0.176E+02 0.143E+00 ort(H,U,f) = 0.167E+01-0.859E+01 0.186E+00
CGA:  15    -0.874346787136E+03   -0.49932E+02   -0.50310E+02  5000   0.100E+03-0.673E+01
 gam= 0.486 trial= 0.424  step= 0.575 mean= 0.424
 gam= 0.615 g(H,U,f)=  0.481E+02 0.134E+02 0.404E-01 ort(H,U,f) =-0.111E+02 0.129E+01 0.171E+00
CGA:  16    -0.901042530805E+03   -0.26696E+02   -0.27834E+02  5000   0.615E+02-0.961E+01
 gam= 0.615 trial= 0.432  step= 0.563 mean= 0.432
 gam= 0.621 g(H,U,f)=  0.296E+02 0.855E+01 0.160E-02 ort(H,U,f) =-0.742E+01 0.590E+01 0.271E-03
CGA:  17    -0.916496475862E+03   -0.15454E+02   -0.15643E+02  5000   0.382E+02-0.152E+01
 gam= 0.621 trial= 0.438  step= 0.514 mean= 0.438
 gam= 0.592 g(H,U,f)=  0.176E+02 0.505E+01 0.122E-03 ort(H,U,f) =-0.476E+01 0.494E+01-0.127E-02
CGA:  18    -0.926076024969E+03   -0.95795E+01   -0.95773E+01  5000   0.226E+02 0.188E+00
 gam= 0.592 trial= 0.442  step= 0.537 mean= 0.442
 gam= 0.589 g(H,U,f)=  0.104E+02 0.289E+01 0.209E-02 ort(H,U,f) =-0.271E+01 0.305E+01-0.279E-02
CGA:  19    -0.932195354719E+03   -0.61193E+01   -0.61035E+01  5000   0.133E+02 0.337E+00
 gam= 0.589 trial= 0.447  step= 0.530 mean= 0.447
 gam= 0.524 g(H,U,f)=  0.577E+01 0.121E+01 0.125E-03 ort(H,U,f) =-0.125E+01 0.153E+01 0.121E-02
CGA:  20    -0.935790492327E+03   -0.35951E+01   -0.35818E+01  5000   0.698E+01 0.281E+00
 gam= 0.524 trial= 0.451  step= 0.533 mean= 0.451
 gam= 0.573 g(H,U,f)=  0.338E+01 0.607E+00 0.853E-02 ort(H,U,f) =-0.304E+00 0.446E+00-0.111E-01
CGA:  21    -0.937696199185E+03   -0.19057E+01   -0.18995E+01  5000   0.400E+01 0.131E+00
 gam= 0.573 trial= 0.455  step= 0.535 mean= 0.455
 gam= 0.573 g(H,U,f)=  0.191E+01 0.371E+00 0.581E-02 ort(H,U,f) =-0.120E+00 0.166E+00 0.301E-02
CGA:  22    -0.938788367018E+03   -0.10922E+01   -0.10899E+01  5000   0.229E+01 0.489E-01
 gam= 0.573 trial= 0.459  step= 0.467 mean= 0.459
 gam= 0.496 g(H,U,f)=  0.890E+00 0.243E+00 0.657E-03 ort(H,U,f) =-0.154E+00 0.162E+00 0.262E-02
CGA:  23    -0.939328894126E+03   -0.54053E+00   -0.54049E+00  5000   0.113E+01 0.106E-01
 gam= 0.496 trial= 0.460  step= 0.544 mean= 0.460
 gam= 0.608 g(H,U,f)=  0.543E+00 0.146E+00 0.148E-03 ort(H,U,f) =-0.148E+00 0.150E+00 0.408E-03
CGA:  24    -0.939639257523E+03   -0.31036E+00   -0.31024E+00  5000   0.690E+00 0.292E-02
 gam= 0.608 trial= 0.464  step= 0.552 mean= 0.464
 gam= 0.526 g(H,U,f)=  0.292E+00 0.706E-01 0.165E-03 ort(H,U,f) =-0.933E-01 0.937E-01 0.449E-03
CGA:  25    -0.939830012469E+03   -0.19075E+00   -0.19073E+00  5000   0.363E+00 0.820E-03
 gam= 0.526 trial= 0.468  step= 0.567 mean= 0.468
 gam= 0.583 g(H,U,f)=  0.175E+00 0.366E-01 0.146E-03 ort(H,U,f) =-0.372E-01 0.372E-01 0.124E-03
CGA:  26    -0.939932869855E+03   -0.10286E+00   -0.10285E+00  5000   0.211E+00 0.182E-03
 gam= 0.583 trial= 0.473  step= 0.573 mean= 0.473
 gam= 0.603 g(H,U,f)=  0.107E+00 0.209E-01 0.363E-04 ort(H,U,f) =-0.113E-01 0.113E-01-0.238E-04
CGA:  27    -0.939993409426E+03   -0.60540E-01   -0.60546E-01  5000   0.128E+00-0.647E-04
 gam= 0.603 trial= 0.478  step= 0.504 mean= 0.478
 gam= 0.524 g(H,U,f)=  0.538E-01 0.130E-01 0.551E-04 ort(H,U,f) =-0.387E-02 0.392E-02-0.767E-04
CGA:  28    -0.940025541404E+03   -0.32132E-01   -0.32133E-01  5000   0.668E-01-0.232E-04
 gam= 0.524 trial= 0.479  step= 0.500 mean= 0.479
 gam= 0.582 g(H,U,f)=  0.303E-01 0.854E-02 0.403E-04 ort(H,U,f) =-0.444E-02 0.451E-02 0.790E-05
CGA:  29    -0.940042228094E+03   -0.16687E-01   -0.16686E-01  5000   0.389E-01 0.784E-04
 gam= 0.582 trial= 0.480  step= 0.532 mean= 0.480
 gam= 0.556 g(H,U,f)=  0.167E-01 0.493E-02 0.168E-05 ort(H,U,f) =-0.443E-02 0.453E-02 0.930E-05
CGA:  30    -0.940052591640E+03   -0.10364E-01   -0.10361E-01  5000   0.216E-01 0.104E-03
 gam= 0.556 trial= 0.483  step= 0.558 mean= 0.483
 gam= 0.578 g(H,U,f)=  0.100E-01 0.245E-02 0.456E-05 ort(H,U,f) =-0.304E-02 0.311E-02-0.502E-05
CGA:  31    -0.940058639665E+03   -0.60480E-02   -0.60457E-02  5000   0.125E-01 0.605E-04
 gam= 0.578 trial= 0.487  step= 0.602 mean= 0.487
 gam= 0.613 g(H,U,f)=  0.652E-02 0.114E-02 0.111E-05 ort(H,U,f) =-0.126E-02 0.127E-02 0.264E-05
CGA:  32    -0.940062415559E+03   -0.37759E-02   -0.37753E-02  5000   0.766E-02 0.981E-05
 gam= 0.613 trial= 0.493  step= 0.552 mean= 0.493
 gam= 0.572 g(H,U,f)=  0.375E-02 0.630E-03 0.193E-05 ort(H,U,f) =-0.284E-03 0.273E-03 0.180E-05
CGA:  33    -0.940064530783E+03   -0.21152E-02   -0.21155E-02  5000   0.438E-02-0.972E-05
 gam= 0.572 trial= 0.495  step= 0.513 mean= 0.495
 gam= 0.562 g(H,U,f)=  0.199E-02 0.468E-03 0.104E-05 ort(H,U,f) =-0.679E-04 0.685E-04 0.113E-05
CGA:  34    -0.940065653472E+03   -0.11227E-02   -0.11227E-02  5000   0.246E-02 0.175E-05
 gam= 0.562 trial= 0.496  step= 0.516 mean= 0.496
 gam= 0.549 g(H,U,f)=  0.102E-02 0.332E-03 0.373E-06 ort(H,U,f) =-0.153E-03 0.163E-03-0.108E-05
CGA:  35    -0.940066288844E+03   -0.63537E-03   -0.63529E-03  5000   0.135E-02 0.861E-05
 gam= 0.549 trial= 0.497  step= 0.549 mean= 0.497
 gam= 0.577 g(H,U,f)=  0.595E-03 0.185E-03 0.875E-06 ort(H,U,f) =-0.176E-03 0.181E-03-0.600E-06
CGA:  36    -0.940066661339E+03   -0.37250E-03   -0.37238E-03  5000   0.780E-03 0.426E-05
 gam= 0.577 trial= 0.500  step= 0.595 mean= 0.500
 gam= 0.000 g(H,U,f)=  0.416E-03 0.901E-04 0.196E-06 ort(H,U,f) =-0.108E-03 0.104E-03 0.260E-06
SDA:  37    -0.940066893923E+03   -0.23258E-03   -0.23277E-03  5000   0.506E-03-0.395E-05
 gam= 0.000 trial= 0.505  step= 0.856 mean= 0.505
 gam= 0.442 g(H,U,f)=  0.183E-03 0.406E-04 0.476E-07 ort(H,U,f) =-0.563E-04 0.500E-04 0.602E-07
CGA:  38    -0.940067109420E+03   -0.21550E-03   -0.21659E-03  5000   0.224E-03-0.624E-05
 gam= 0.442 trial= 0.522  step= 0.616 mean= 0.522
 gam= 0.437 g(H,U,f)=  0.833E-04 0.144E-04 0.108E-07 ort(H,U,f) =-0.386E-04 0.375E-04 0.341E-07
CGA:  39    -0.940067177417E+03   -0.67997E-04   -0.68047E-04  5000   0.978E-04-0.106E-05
 gam= 0.437 trial= 0.527  step= 0.523 mean= 0.527
 gam= 0.390 g(H,U,f)=  0.339E-04 0.418E-05 0.470E-08 ort(H,U,f) =-0.152E-04 0.157E-04 0.139E-07
CGA:  40    -0.940067202836E+03   -0.25419E-04   -0.25420E-04  5000   0.381E-04 0.516E-06
 gam= 0.390 trial= 0.527  step= 0.560 mean= 0.527
 gam= 0.384 g(H,U,f)=  0.135E-04 0.118E-05 0.654E-08 ort(H,U,f) =-0.462E-05 0.445E-05 0.102E-07
CGA:  41    -0.940067213570E+03   -0.10734E-04   -0.10736E-04  5000   0.147E-04-0.160E-06
 gam= 0.384 trial= 0.528  step= 0.586 mean= 0.528
 gam= 0.411 g(H,U,f)=  0.591E-05 0.975E-07 0.294E-08 ort(H,U,f) =-0.191E-05 0.745E-06 0.724E-08
CGA:  42    -0.940067217810E+03   -0.42402E-05   -0.42740E-05  5000   0.602E-05-0.116E-05
 gam= 0.411 trial= 0.531  step= 0.463 mean= 0.531
 final diagonalization
   1 F= -.94006722E+03 E0= -.94006332E+03  d E =-.780252E-02
 writing wavefunctions
Warning: ieee_invalid is signaling
Warning: ieee_divide_by_zero is signaling
Warning: ieee_underflow is signaling
Warning: ieee_inexact is signaling
FORTRAN STOP
Warning: ieee_invalid is signaling
Warning: ieee_divide_by_zero is signaling
Warning: ieee_underflow is signaling
Warning: ieee_inexact is signaling
FORTRAN STOP
Warning: ieee_invalid is signaling
Warning: ieee_divide_by_zero is signaling
Warning: ieee_underflow is signaling
Warning: ieee_inexact is signaling
FORTRAN STOP
Warning: ieee_invalid is signaling
Warning: ieee_divide_by_zero is signaling
Warning: ieee_underflow is signaling
Warning: ieee_inexact is signaling
FORTRAN STOP
