       N       E                     dE             d eps       ncg     rms          ort
DAV:   1    -0.176197370003E+05   -0.17620E+05   -0.54046E+05  5064   0.749E+03
DAV:   2    -0.634500648873E+05   -0.45830E+05   -0.44171E+05  5064   0.125E+03
DAV:   3    -0.691452102955E+05   -0.56951E+04   -0.51692E+04  5064   0.390E+02
DAV:   4    -0.700292998894E+05   -0.88409E+03   -0.80931E+03  5064   0.129E+02
DAV:   5    -0.404343317151E+05    0.29595E+05   -0.70481E+02  5064   0.579E+01
SDA:   6     0.404442536875E+05    0.80879E+05   -0.70481E+02  5064   0.110E+06 0.000E+00
CGA:   7     0.167347363914E+05   -0.23710E+05   -0.36334E+05  5064   0.744E+05-0.237E+05
CGA:   8     0.908421886366E+04   -0.76505E+04   -0.87431E+04  5064   0.294E+05 0.773E+04
CGA:   9     0.573693126352E+04   -0.33473E+04   -0.39333E+04  5064   0.218E+05 0.242E+04
CGA:  10     0.367670993419E+04   -0.20602E+04   -0.29790E+04  5064   0.120E+05 0.242E+04
CGA:  11     0.202109881634E+04   -0.16556E+04   -0.18804E+04  5064   0.666E+04 0.104E+04
CGA:  12     0.824049831490E+03   -0.11970E+04   -0.12441E+04  5064   0.255E+04 0.879E+03
CGA:  13     0.682887262144E+02   -0.75576E+03   -0.74576E+03  5064   0.149E+04 0.886E+02
CGA:  14    -0.362505464976E+03   -0.43079E+03   -0.43530E+03  5064   0.874E+03-0.927E+02
CGA:  15    -0.519192097273E+03   -0.15669E+03   -0.15335E+03  5064   0.647E+03-0.112E+03
CGA:  16    -0.599831640184E+03   -0.80640E+02   -0.80084E+02  5064   0.528E+03-0.494E+01
CGA:  17    -0.661274362263E+03   -0.61443E+02   -0.65313E+02  5064   0.285E+03 0.446E+01
CGA:  18    -0.708232723118E+03   -0.46958E+02   -0.47530E+02  5064   0.195E+03 0.112E+02
CGA:  19    -0.746309424925E+03   -0.38077E+02   -0.38097E+02  5064   0.140E+03 0.569E+01
CGA:  20    -0.774362667664E+03   -0.28053E+02   -0.28049E+02  5064   0.108E+03 0.317E+01
CGA:  21    -0.794712837516E+03   -0.20350E+02   -0.20371E+02  5064   0.775E+02 0.363E+01
CGA:  22    -0.808318017254E+03   -0.13605E+02   -0.13694E+02  5064   0.481E+02 0.356E+01
CGA:  23    -0.817608650251E+03   -0.92906E+01   -0.93025E+01  5064   0.328E+02 0.211E+01
CGA:  24    -0.823784632474E+03   -0.61760E+01   -0.61897E+01  5064   0.197E+02 0.128E+01
CGA:  25    -0.827694175329E+03   -0.39095E+01   -0.39076E+01  5064   0.139E+02 0.978E+00
CGA:  26    -0.830672400754E+03   -0.29782E+01   -0.29727E+01  5064   0.101E+02 0.319E+00
CGA:  27    -0.832716602947E+03   -0.20442E+01   -0.20431E+01  5064   0.674E+01 0.127E+00
CGA:  28    -0.834067587097E+03   -0.13510E+01   -0.13507E+01  5064   0.448E+01 0.475E-01
CGA:  29    -0.835016830148E+03   -0.94924E+00   -0.94890E+00  5064   0.306E+01 0.257E-01
CGA:  30    -0.835665223596E+03   -0.64839E+00   -0.64829E+00  5064   0.194E+01 0.124E-01
CGA:  31    -0.836086574327E+03   -0.42135E+00   -0.42103E+00  5064   0.129E+01 0.130E-01
CGA:  32    -0.836375224314E+03   -0.28865E+00   -0.28829E+00  5064   0.978E+00 0.103E-01
CGA:  33    -0.836590592463E+03   -0.21537E+00   -0.21524E+00  5064   0.717E+00 0.483E-02
CGA:  34    -0.836734921086E+03   -0.14433E+00   -0.14432E+00  5064   0.490E+00 0.184E-02
CGA:  35    -0.836833872908E+03   -0.98952E-01   -0.98946E-01  5064   0.339E+00 0.114E-02
CGA:  36    -0.836905632025E+03   -0.71759E-01   -0.71743E-01  5064   0.231E+00 0.106E-02
SDA:  37    -0.836956136543E+03   -0.50505E-01   -0.50485E-01  5064   0.152E+00 0.884E-03
CGA:  38    -0.837028423834E+03   -0.72287E-01   -0.72286E-01  5064   0.751E-01 0.314E-05
CGA:  39    -0.837057739617E+03   -0.29316E-01   -0.29312E-01  5064   0.233E-01 0.182E-04
CGA:  40    -0.837065863110E+03   -0.81235E-02   -0.81279E-02  5064   0.569E-02-0.303E-04
CGA:  41    -0.837067841450E+03   -0.19783E-02   -0.19846E-02  5064   0.141E-02-0.429E-04
CGA:  42    -0.837068307912E+03   -0.46646E-03   -0.46773E-03  5064   0.325E-03-0.959E-05
CGA:  43    -0.837068423234E+03   -0.11532E-03   -0.11450E-03  5064   0.117E-03 0.596E-05
CGA:  44    -0.837068464875E+03   -0.41641E-04   -0.41190E-04  5064   0.395E-04 0.376E-05
CGA:  45    -0.837068481114E+03   -0.16239E-04   -0.16144E-04  5064   0.190E-04 0.594E-06
CGA:  46    -0.837068488733E+03   -0.76191E-05   -0.75793E-05  5064   0.939E-05 0.228E-06
   1 F= -.83706849E+03 E0= -.83706454E+03  d E =-.789146E-02
