       N       E                     dE             d eps       ncg     rms          ort
DAV:   1    -0.183173265981E+05   -0.18317E+05   -0.54298E+05  5000   0.750E+03
DAV:   2    -0.628870137788E+05   -0.44570E+05   -0.43065E+05  5000   0.124E+03
DAV:   3    -0.679649610411E+05   -0.50779E+04   -0.46079E+04  5000   0.376E+02
DAV:   4    -0.686660016807E+05   -0.70104E+03   -0.63206E+03  5000   0.118E+02
DAV:   5    -0.390750110361E+05    0.29591E+05   -0.70444E+02  5000   0.578E+01
SDA:   6     0.301725364950E+05    0.69248E+05   -0.70444E+02  5000   0.978E+05 0.000E+00
CGA:   7     0.971634854602E+04   -0.20456E+05   -0.22762E+05  5000   0.530E+05-0.237E+05
CGA:   8     0.475687275649E+04   -0.49595E+04   -0.51212E+04  5000   0.203E+05-0.864E+02
CGA:   9     0.240100591296E+04   -0.23559E+04   -0.27996E+04  5000   0.817E+04 0.223E+04
CGA:  10     0.914639188804E+03   -0.14864E+04   -0.15534E+04  5000   0.358E+04 0.114E+04
CGA:  11    -0.479952805760E+02   -0.96263E+03   -0.93778E+03  5000   0.138E+04 0.373E+03
CGA:  12    -0.492350543106E+03   -0.44436E+03   -0.43306E+03  5000   0.728E+03 0.660E+02
CGA:  13    -0.722448026874E+03   -0.23010E+03   -0.23570E+03  5000   0.380E+03-0.443E+02
CGA:  14    -0.824414776897E+03   -0.10197E+03   -0.10398E+03  5000   0.206E+03-0.197E+02
CGA:  15    -0.874346787136E+03   -0.49932E+02   -0.50310E+02  5000   0.100E+03-0.673E+01
CGA:  16    -0.901042530805E+03   -0.26696E+02   -0.27834E+02  5000   0.615E+02-0.961E+01
CGA:  17    -0.916496475862E+03   -0.15454E+02   -0.15643E+02  5000   0.382E+02-0.152E+01
CGA:  18    -0.926076024969E+03   -0.95795E+01   -0.95773E+01  5000   0.226E+02 0.188E+00
CGA:  19    -0.932195354719E+03   -0.61193E+01   -0.61035E+01  5000   0.133E+02 0.337E+00
CGA:  20    -0.935790492327E+03   -0.35951E+01   -0.35818E+01  5000   0.698E+01 0.281E+00
CGA:  21    -0.937696199185E+03   -0.19057E+01   -0.18995E+01  5000   0.400E+01 0.131E+00
CGA:  22    -0.938788367018E+03   -0.10922E+01   -0.10899E+01  5000   0.229E+01 0.489E-01
CGA:  23    -0.939328894126E+03   -0.54053E+00   -0.54049E+00  5000   0.113E+01 0.106E-01
CGA:  24    -0.939639257523E+03   -0.31036E+00   -0.31024E+00  5000   0.690E+00 0.292E-02
CGA:  25    -0.939830012469E+03   -0.19075E+00   -0.19073E+00  5000   0.363E+00 0.820E-03
CGA:  26    -0.939932869855E+03   -0.10286E+00   -0.10285E+00  5000   0.211E+00 0.182E-03
CGA:  27    -0.939993409426E+03   -0.60540E-01   -0.60546E-01  5000   0.128E+00-0.647E-04
CGA:  28    -0.940025541404E+03   -0.32132E-01   -0.32133E-01  5000   0.668E-01-0.232E-04
CGA:  29    -0.940042228094E+03   -0.16687E-01   -0.16686E-01  5000   0.389E-01 0.784E-04
CGA:  30    -0.940052591640E+03   -0.10364E-01   -0.10361E-01  5000   0.216E-01 0.104E-03
CGA:  31    -0.940058639665E+03   -0.60480E-02   -0.60457E-02  5000   0.125E-01 0.605E-04
CGA:  32    -0.940062415559E+03   -0.37759E-02   -0.37753E-02  5000   0.766E-02 0.981E-05
CGA:  33    -0.940064530783E+03   -0.21152E-02   -0.21155E-02  5000   0.438E-02-0.972E-05
CGA:  34    -0.940065653472E+03   -0.11227E-02   -0.11227E-02  5000   0.246E-02 0.175E-05
CGA:  35    -0.940066288844E+03   -0.63537E-03   -0.63529E-03  5000   0.135E-02 0.861E-05
CGA:  36    -0.940066661339E+03   -0.37250E-03   -0.37238E-03  5000   0.780E-03 0.426E-05
SDA:  37    -0.940066893923E+03   -0.23258E-03   -0.23277E-03  5000   0.506E-03-0.395E-05
CGA:  38    -0.940067109420E+03   -0.21550E-03   -0.21659E-03  5000   0.224E-03-0.624E-05
CGA:  39    -0.940067177417E+03   -0.67997E-04   -0.68047E-04  5000   0.978E-04-0.106E-05
CGA:  40    -0.940067202836E+03   -0.25419E-04   -0.25420E-04  5000   0.381E-04 0.516E-06
CGA:  41    -0.940067213570E+03   -0.10734E-04   -0.10736E-04  5000   0.147E-04-0.160E-06
CGA:  42    -0.940067217810E+03   -0.42402E-05   -0.42740E-05  5000   0.602E-05-0.116E-05
   1 F= -.94006722E+03 E0= -.94006332E+03  d E =-.780252E-02
