 vasp.6.4.2 20Jul23 (build Nov 12 2023 22:16:35) complex                         
 executed on              LinuxNV date 2025.03.29  00:39:08
 running    4 mpi-ranks, on    1 nodes
 distrk:  each k-point on    1 cores,    4 groups
 distr:  one band on NCORE=   1 cores,    1 groups
 OpenACC runtime initialized ...    4 GPUs detected


--------------------------------------------------------------------------------------------------------


 INCAR:
   PREC = Normal
   ENCUT = 450
   NELM = 500
   IBRION = -1
   ISPIN = 1
   NSW = 0
   ISIF = 2
   EDIFF = 1E-5
   EDIFFG = -5E-3
   ISTART = 0
   ICHARG = 0
   ISMEAR = 0
   SIGMA = 0.05
   LWAVE = .T.
   LCHARG = .T.
   LREAL = Auto
   LPLANE = .TRUE.
   NPAR = 1
   KPAR = 4
   NCORE = 1
   ALGO = All
   LHFCALC = .TRUE.
   HSE06 = .TRUE.
   HFSCREEN = 0.2
   TIME = 0.4
   AEXX = 0.32
   LMAXFOCK = 4
   PRECFOCK = Fast
   NELECT = 1043

 POTCAR:    PAW_PBE Ga_d 06Jul2010                
 POTCAR:     PAW_PBE O 08Apr2002                  
 POTCAR:    PAW_PBE P 06Sep2000                   
 POTCAR:    PAW_PBE Ga_d 06Jul2010                
   SHA256 =  a60ddf36e14f00ea098d9e3914b3745f1b7105e68786148f49ae384e44b4226c Ga_d/POTCAR           
   COPYR  = (c) Copyright 06Jul2010 Georg Kresse                                                    
   COPYR  = This file is part of the software VASP. Any use, copying, and all other rights are regul
   COPYR  = If you do not have a valid VASP license, you may not use, copy or distribute this file. 
   VRHFIN =Ga: s2p1                                                                                 
   LEXCH  = PE                                                                                      
   EATOM  =  2148.8298 eV,  157.9345 Ry                                                             
                                                                                                    
   TITEL  = PAW_PBE Ga_d 06Jul2010                                                                  
   LULTRA =        F    use ultrasoft PP ?                                                          
   IUNSCR =        1    unscreen: 0-lin 1-nonlin 2-no                                               
   RPACOR =    1.700    partial core radius                                                         
   POMASS =   69.723; ZVAL   =   13.000    mass and valenz                                          
   RCORE  =    2.300    outmost cutoff radius                                                       
   RWIGS  =    2.300; RWIGS  =    1.217    wigner-seitz radius (au A)                               
   ENMAX  =  282.691; ENMIN  =  212.018 eV                                                          
   ICORE  =        3    local potential                                                             
   LCOR   =        T    correct aug charges                                                         
   LPAW   =        T    paw PP                                                                      
   EAUG   =  490.690                                                                                
   DEXC   =    0.000                                                                                
   RMAX   =    2.341    core radius for proj-oper                                                   
   RAUG   =    1.300    factor for augmentation sphere                                              
   RDEP   =    2.413    radius for radial grids                                                     
   RDEPT  =    1.856    core radius for aug-charge                                                  
                                                                                                    
   Atomic configuration                                                                             
    9 entries                                                                                       
     n  l   j            E        occ.                                                              
     1  0  0.50    -10228.7831   2.0000                                                             
     2  0  0.50     -1262.1604   2.0000                                                             
     2  1  1.50     -1098.6333   6.0000                                                             
     3  0  0.50      -148.1110   2.0000                                                             
     3  1  1.50       -98.8436   6.0000                                                             
     3  2  2.50       -19.1549  10.0000                                                             
     4  0  0.50        -8.9483   2.0000                                                             
     4  1  0.50        -2.5791   1.0000                                                             
     4  3  2.50        -2.7416   0.0000                                                             
   Description                                                                                      
     l       E           TYP  RCUT    TYP  RCUT                                                     
     2    -19.1549037     23  2.300                                                                 
     2     -5.4423304     23  2.300                                                                 
     0     -8.9483111     23  2.300                                                                 
     0     68.0291300     23  2.300                                                                 
     1     -2.5790802     23  2.100                                                                 
     1     81.6349560     23  2.300                                                                 
     3      6.8029130     23  2.300                                                                 
  local pseudopotential read in
  partial core-charges read in
  partial kinetic energy density read in
  atomic valenz-charges read in
  non local Contribution for L=            2  read in
    real space projection operators read in
  non local Contribution for L=            2  read in
    real space projection operators read in
  non local Contribution for L=            0  read in
    real space projection operators read in
  non local Contribution for L=            0  read in
    real space projection operators read in
  non local Contribution for L=            1  read in
    real space projection operators read in
  non local Contribution for L=            1  read in
    real space projection operators read in
    PAW grid and wavefunctions read in
 
   number of l-projection  operators is LMAX  =            6
   number of lm-projection operators is LMMAX =           18
 
 POTCAR:     PAW_PBE O 08Apr2002                  
   SHA256 =  818f92134a0a090dccd8ba1447fa70422a3b330e708bb4f08108d8ae51209ddf O/POTCAR              
   COPYR  = (c) Copyright 08Apr2002 Georg Kresse                                                    
   COPYR  = This file is part of the software VASP. Any use, copying, and all other rights are regul
   COPYR  = If you do not have a valid VASP license, you may not use, copy or distribute this file. 
   VRHFIN =O: s2p4                                                                                  
   LEXCH  = PE                                                                                      
   EATOM  =   432.3788 eV,   31.7789 Ry                                                             
                                                                                                    
   TITEL  = PAW_PBE O 08Apr2002                                                                     
   LULTRA =        F    use ultrasoft PP ?                                                          
   IUNSCR =        1    unscreen: 0-lin 1-nonlin 2-no                                               
   RPACOR =    1.200    partial core radius                                                         
   POMASS =   16.000; ZVAL   =    6.000    mass and valenz                                          
   RCORE  =    1.520    outmost cutoff radius                                                       
   RWIGS  =    1.550; RWIGS  =    0.820    wigner-seitz radius (au A)                               
   ENMAX  =  400.000; ENMIN  =  300.000 eV                                                          
   ICORE  =        2    local potential                                                             
   LCOR   =        T    correct aug charges                                                         
   LPAW   =        T    paw PP                                                                      
   EAUG   =  605.392                                                                                
   DEXC   =    0.000                                                                                
   RMAX   =    1.553    core radius for proj-oper                                                   
   RAUG   =    1.300    factor for augmentation sphere                                              
   RDEP   =    1.550    radius for radial grids                                                     
   RDEPT  =    1.329    core radius for aug-charge                                                  
                                                                                                    
   Atomic configuration                                                                             
    4 entries                                                                                       
     n  l   j            E        occ.                                                              
     1  0  0.50      -514.6923   2.0000                                                             
     2  0  0.50       -23.9615   2.0000                                                             
     2  1  0.50        -9.0305   4.0000                                                             
     3  2  1.50        -9.5241   0.0000                                                             
   Description                                                                                      
     l       E           TYP  RCUT    TYP  RCUT                                                     
     0    -23.9615318     23  1.200                                                                 
     0     -9.5240782     23  1.200                                                                 
     1     -9.0304911     23  1.520                                                                 
     1      8.1634956     23  1.520                                                                 
     2     -9.5240782      7  1.500                                                                 
  local pseudopotential read in
  partial core-charges read in
  partial kinetic energy density read in
  kinetic energy density of atom read in
  atomic valenz-charges read in
  non local Contribution for L=            0  read in
    real space projection operators read in
  non local Contribution for L=            0  read in
    real space projection operators read in
  non local Contribution for L=            1  read in
    real space projection operators read in
  non local Contribution for L=            1  read in
    real space projection operators read in
    PAW grid and wavefunctions read in
 
   number of l-projection  operators is LMAX  =            4
   number of lm-projection operators is LMMAX =            8
 
 POTCAR:    PAW_PBE P 06Sep2000                   
   SHA256 =  df60c54a93efe35c9e85ae94c010c75e9f6960a95d5595d7cdba4096d109af88 P/POTCAR              
   COPYR  = (c) Copyright 06Sep2000 Georg Kresse                                                    
   COPYR  = This file is part of the software VASP. Any use, copying, and all other rights are regul
   COPYR  = If you do not have a valid VASP license, you may not use, copy or distribute this file. 
   VRHFIN =P : s2p3                                                                                 
   LEXCH  = PE                                                                                      
   EATOM  =   176.0430 eV,   12.9388 Ry                                                             
                                                                                                    
   TITEL  = PAW_PBE P 06Sep2000                                                                     
   LULTRA =        F    use ultrasoft PP ?                                                          
   IUNSCR =        1    unscreen: 0-lin 1-nonlin 2-no                                               
   RPACOR =    1.500    partial core radius                                                         
   POMASS =   30.974; ZVAL   =    5.000    mass and valenz                                          
   RCORE  =    1.900    outmost cutoff radius                                                       
   RWIGS  =    2.330; RWIGS  =    1.233    wigner-seitz radius (au A)                               
   ENMAX  =  255.040; ENMIN  =  191.280 eV                                                          
   ICORE  =        2    local potential                                                             
   LCOR   =        T    correct aug charges                                                         
   LPAW   =        T    paw PP                                                                      
   EAUG   =  342.924                                                                                
   DEXC   =    0.000                                                                                
   RMAX   =    1.935    core radius for proj-oper                                                   
   RAUG   =    1.300    factor for augmentation sphere                                              
   RDEP   =    1.931    radius for radial grids                                                     
   RDEPT  =    1.794    core radius for aug-charge                                                  
                                                                                                    
   Atomic configuration                                                                             
    6 entries                                                                                       
     n  l   j            E        occ.                                                              
     1  0  0.50     -2084.0982   2.0000                                                             
     2  0  0.50      -173.9859   2.0000                                                             
     2  1  1.50      -124.4865   6.0000                                                             
     3  0  0.50       -13.9692   2.0000                                                             
     3  1  0.50        -5.5067   3.0000                                                             
     3  2  1.50        -5.4423   0.0000                                                             
   Description                                                                                      
     l       E           TYP  RCUT    TYP  RCUT                                                     
     0    -13.9691527     23  1.900                                                                 
     0    -11.7794650     23  1.900                                                                 
     1     -5.5066937     23  1.900                                                                 
     1     -0.2556953     23  1.900                                                                 
     2     -5.4423304     23  1.900                                                                 
  local pseudopotential read in
  partial core-charges read in
  partial kinetic energy density read in
  atomic valenz-charges read in
  non local Contribution for L=            0  read in
    real space projection operators read in
  non local Contribution for L=            0  read in
    real space projection operators read in
  non local Contribution for L=            1  read in
    real space projection operators read in
  non local Contribution for L=            1  read in
    real space projection operators read in
    PAW grid and wavefunctions read in
 
   number of l-projection  operators is LMAX  =            4
   number of lm-projection operators is LMMAX =            8
 
 Optimization of the real space projectors (new method)

 maximal supplied QI-value         = 16.25
 optimisation between [QCUT,QGAM] = [ 10.73, 21.61] = [ 32.22,130.83] Ry 
 Optimized for a Real-space Cutoff    1.42 Angstroem

   l    n(q)    QCUT    max X(q) W(low)/X(q) W(high)/X(q)  e(spline) 
   2      8    10.726     7.143    0.22E-03    0.16E-03    0.73E-07
   2      8    10.726     5.586    0.40E-03    0.26E-03    0.10E-06
   0      9    10.726    12.382    0.25E-04    0.21E-05    0.37E-07
   0      9    10.726     6.622    0.42E-04    0.48E-05    0.77E-07
   1      9    10.726     7.935    0.27E-03    0.13E-04    0.16E-06
   1      9    10.726     2.425    0.23E-03    0.15E-04    0.14E-06
 Optimization of the real space projectors (new method)

 maximal supplied QI-value         = 24.76
 optimisation between [QCUT,QGAM] = [ 10.64, 21.54] = [ 31.73,129.89] Ry 
 Optimized for a Real-space Cutoff    1.23 Angstroem

   l    n(q)    QCUT    max X(q) W(low)/X(q) W(high)/X(q)  e(spline) 
   0      8    10.645    20.381    0.38E-03    0.60E-03    0.15E-06
   0      8    10.645    15.268    0.40E-03    0.65E-03    0.17E-06
   1      7    10.645     5.964    0.30E-03    0.63E-03    0.18E-06
   1      7    10.645     5.382    0.24E-03    0.53E-03    0.16E-06
 Optimization of the real space projectors (new method)

 maximal supplied QI-value         = 19.84
 optimisation between [QCUT,QGAM] = [ 10.71, 21.63] = [ 32.15,130.99] Ry 
 Optimized for a Real-space Cutoff    1.19 Angstroem

   l    n(q)    QCUT    max X(q) W(low)/X(q) W(high)/X(q)  e(spline) 
   0      8    10.715   160.924    0.37E-03    0.37E-04    0.63E-07
   0      8    10.715   130.086    0.37E-03    0.36E-04    0.63E-07
   1      7    10.715    74.434    0.19E-03    0.56E-03    0.65E-07
   1      7    10.715    49.120    0.19E-03    0.55E-03    0.63E-07
  PAW_PBE Ga_d 06Jul2010                :
 energy of atom  1       EATOM=-2148.8298
 kinetic energy error for atom=    0.0038 (will be added to EATOM!!)
   PAW_PBE O 08Apr2002                  :
 energy of atom  2       EATOM= -432.3788
 kinetic energy error for atom=    0.0389 (will be added to EATOM!!)
  PAW_PBE P 06Sep2000                   :
 energy of atom  3       EATOM= -176.0430
 kinetic energy error for atom=    0.0019 (will be added to EATOM!!)
 
 
 POSCAR: Ga48 O72
  positions in direct lattice
  velocities in cartesian coordinates
 exchange correlation table for  LEXCH =        8
   RHO(1)=    0.500       N(1)  =     2000
   RHO(2)=  100.500       N(2)  =     4000
 


--------------------------------------------------------------------------------------------------------


 ion  position               nearest neighbor table
   1  0.663  0.994  0.152-  82 1.92  66 1.93  78 1.94  84 1.94  64 2.08  60 2.28
   2  0.660  0.999  0.659-  85 1.94  79 1.94  83 1.97  67 2.02  65 2.05  61 2.09
   3  0.663  0.340  0.152-  80 1.92  68 1.93  78 1.94  86 1.94  62 2.08  60 2.28
   4  0.660  0.334  0.659-  87 1.94  79 1.94  81 1.97  69 2.02  63 2.05  61 2.09
   5  0.660  0.667  0.156-  88 1.94  80 1.94  82 1.94  70 2.04  62 2.08  64 2.08
   6  0.661  0.667  0.655-  89 1.94  81 1.96  83 1.96  71 2.01  63 2.08  65 2.08
   7  0.842  0.167  0.846-  73 1.94  75 1.94  90 1.94  61 2.02  67 2.08  69 2.08
   8  0.845  0.501  0.335-  91 1.92  68 1.96  76 1.97  62 2.03  70 2.03  74 2.19
   9  0.843  0.500  0.844-  92 1.94  77 1.94  75 1.96  63 2.03  69 2.07  71 2.09
  10  0.845  0.832  0.335-  93 1.92  66 1.96  76 1.97  64 2.03  70 2.03  72 2.19
  11  0.843  0.833  0.844-  94 1.94  77 1.94  73 1.96  65 2.03  67 2.07  71 2.09
  12  0.590  0.167  0.403-  79 1.83  54 1.83  56 1.83  60 1.93
  13  0.592  0.167  0.900-  55 1.85  57 1.85  78 1.86  61 1.87
  14  0.593  0.500  0.397-  58 1.84  81 1.85  56 1.85  62 1.87
  15  0.589  0.501  0.894-  80 1.83  59 1.84  57 1.84  63 1.87
  16  0.593  0.833  0.397-  58 1.84  83 1.85  54 1.85  64 1.87
  17  0.589  0.832  0.894-  82 1.83  59 1.84  55 1.84  65 1.87
  18  0.912  0.999  0.104-  66 1.84  73 1.84  52 1.85  48 1.85
  19  0.911  0.001  0.607-  53 1.83  49 1.84  67 1.85  72 1.90
  20  0.912  0.335  0.104-  68 1.84  75 1.84  50 1.85  48 1.85
  21  0.911  0.332  0.607-  51 1.83  49 1.84  69 1.85  74 1.90
  22  0.912  0.667  0.100-  77 1.84  50 1.84  52 1.84  70 1.87
  23  0.908  0.667  0.600-  76 1.85  51 1.85  53 1.85  71 1.87
  24  0.162  0.167  0.159- 113 1.95 115 1.95  48 1.97 101 2.03  95 2.06  97 2.06
  25  0.163  0.167  0.656- 114 1.94 116 1.94  49 1.97 102 2.01  96 2.08  98 2.08
  26  0.162  0.500  0.158-  50 1.93 115 1.96 117 1.97 103 2.02  97 2.05  99 2.08
  27  0.160  0.499  0.653- 116 1.92 118 1.94  51 1.96 104 2.03 100 2.10  98 2.10
  28  0.162  0.834  0.158-  52 1.93 113 1.96 117 1.97 105 2.02  95 2.05  99 2.08
  29  0.160  0.834  0.653- 114 1.92 118 1.94  53 1.96 106 2.03 100 2.10  96 2.10
  30  0.341  0.999  0.344- 111 1.94 107 1.95  54 1.97  95 2.00 105 2.08 101 2.08
  31  0.341  1.000  0.844-  55 1.95 112 1.95 108 1.96  96 2.02 102 2.07 106 2.08
  32  0.341  0.334  0.344- 109 1.94 107 1.95  56 1.97  97 2.00 103 2.08 101 2.08
  33  0.341  0.333  0.844-  57 1.95 110 1.95 108 1.96  98 2.02 102 2.07 104 2.08
  34  0.342  0.667  0.344- 109 1.94 111 1.94  58 1.95  99 2.03 103 2.08 105 2.08
  35  0.339  0.667  0.843-  59 1.94 110 1.96 112 1.96 100 2.01 104 2.08 106 2.08
  36  0.087  0.031  0.396- 114 1.90  95 1.94  93 1.95  38 2.47
  37  0.093  0.000  0.898- 113 1.84  94 1.85  90 1.85  96 1.87
  38  0.087  0.302  0.396- 116 1.90  97 1.94  91 1.95  36 2.47
  39  0.093  0.333  0.898- 115 1.84  92 1.85  90 1.85  98 1.87
  40  0.087  0.667  0.396- 118 1.85  99 1.88  91 1.90  93 1.90
  41  0.093  0.667  0.898- 117 1.84  92 1.85  94 1.85 100 1.88
  42  0.413  0.167  0.104- 108 1.84  84 1.86  86 1.86 101 1.87
  43  0.411  0.167  0.604- 107 1.84  85 1.85  87 1.85 102 1.87
  44  0.412  0.499  0.104- 110 1.84  88 1.85  86 1.86 103 1.87
  45  0.410  0.501  0.603- 109 1.84  87 1.85  89 1.85 104 1.87
  46  0.412  0.834  0.104- 112 1.84  88 1.85  84 1.86 105 1.87
  47  0.410  0.833  0.603- 111 1.84  85 1.85  89 1.85 106 1.87
  48  0.998  0.167  0.138-  18 1.85  20 1.85  24 1.97
  49  0.998  0.167  0.622-  19 1.84  21 1.84  25 1.97
  50  1.000  0.501  0.125-  22 1.84  20 1.85  26 1.93
  51  0.995  0.499  0.624-  21 1.83  23 1.85  27 1.96
  52  1.000  0.832  0.125-  22 1.84  18 1.85  28 1.93
  53  0.995  0.834  0.624-  19 1.83  23 1.85  29 1.96
  54  0.505  0.000  0.372-  12 1.83  16 1.85  30 1.97
  55  0.504  0.001  0.874-  17 1.84  13 1.85  31 1.95
  56  0.505  0.333  0.372-  12 1.83  14 1.85  32 1.97
  57  0.504  0.333  0.874-  15 1.84  13 1.85  33 1.95
  58  0.505  0.667  0.373-  14 1.84  16 1.84  34 1.95
  59  0.501  0.667  0.869-  15 1.84  17 1.84  35 1.94
  60  0.692  0.167  0.298- 119 1.73  12 1.93   1 2.28   3 2.28
  61  0.674  0.167  0.783-  13 1.87   7 2.02   2 2.09   4 2.09
  62  0.675  0.501  0.282-  14 1.87   8 2.03   3 2.08   5 2.08
  63  0.674  0.500  0.780-  15 1.87   9 2.03   4 2.05   6 2.08
  64  0.675  0.832  0.282-  16 1.87  10 2.03   1 2.08   5 2.08
  65  0.674  0.833  0.780-  17 1.87  11 2.03   2 2.05   6 2.08
  66  0.824  0.981  0.211-  18 1.84   1 1.93  10 1.96 119 2.44
  67  0.828  0.001  0.721-  19 1.85   2 2.02  11 2.07   7 2.08
  68  0.824  0.353  0.211-  20 1.84   3 1.93   8 1.96 119 2.44
  69  0.828  0.332  0.721-  21 1.85   4 2.02   9 2.07   7 2.08
  70  0.830  0.667  0.216-  22 1.87   8 2.03  10 2.03   5 2.04
  71  0.829  0.667  0.719-  23 1.87   6 2.01   9 2.09  11 2.09
  72  0.826  0.017  0.449- 119 1.71  19 1.90  10 2.19
  73  0.834  1.000  0.947-  18 1.84   7 1.94  11 1.96
  74  0.826  0.316  0.449- 119 1.71  21 1.90   8 2.19
  75  0.834  0.333  0.947-  20 1.84   7 1.94   9 1.96
  76  0.837  0.667  0.441-  23 1.85   8 1.97  10 1.97
  77  0.833  0.667  0.945-  22 1.84   9 1.94  11 1.94
  78  0.669  0.167  0.058-  13 1.86   1 1.94   3 1.94
  79  0.668  0.167  0.558-  12 1.83   2 1.94   4 1.94
  80  0.665  0.504  0.050-  15 1.83   3 1.92   5 1.94
  81  0.672  0.499  0.554-  14 1.85   6 1.96   4 1.97
  82  0.665  0.829  0.050-  17 1.83   1 1.92   5 1.94
  83  0.672  0.834  0.554-  16 1.85   6 1.96   2 1.97
  84  0.502  0.001  0.131-  42 1.86  46 1.86   1 1.94
  85  0.498  0.999  0.628-  47 1.85  43 1.85   2 1.94
  86  0.502  0.333  0.131-  42 1.86  44 1.86   3 1.94
  87  0.498  0.334  0.628-  45 1.85  43 1.85   4 1.94
  88  0.498  0.667  0.128-  44 1.85  46 1.85   5 1.94
  89  0.499  0.667  0.627-  45 1.85  47 1.85   6 1.94
  90  0.004  0.167  0.873-  37 1.85  39 1.85   7 1.94
  91  0.006  0.487  0.375-  40 1.90   8 1.92  38 1.95
  92  0.005  0.500  0.871-  39 1.85  41 1.85   9 1.94
  93  0.006  0.846  0.375-  40 1.90  10 1.92  36 1.95
  94  0.005  0.833  0.871-  37 1.85  41 1.85  11 1.94
  95  0.175  0.999  0.280-  36 1.94  30 2.00  28 2.05  24 2.06
  96  0.173  0.001  0.781-  37 1.87  31 2.02  25 2.08  29 2.10
  97  0.175  0.334  0.280-  38 1.94  32 2.00  26 2.05  24 2.06
  98  0.173  0.333  0.781-  39 1.87  33 2.02  25 2.08  27 2.10
  99  0.173  0.667  0.281-  40 1.88  34 2.03  26 2.08  28 2.08
 100  0.172  0.667  0.779-  41 1.88  35 2.01  27 2.10  29 2.10
 101  0.331  0.167  0.220-  42 1.87  24 2.03  30 2.08  32 2.08
 102  0.330  0.167  0.721-  43 1.87  25 2.01  31 2.07  33 2.07
 103  0.330  0.500  0.221-  44 1.87  26 2.02  34 2.08  32 2.08
 104  0.328  0.500  0.720-  45 1.87  27 2.03  35 2.08  33 2.08
 105  0.330  0.833  0.221-  46 1.87  28 2.02  34 2.08  30 2.08
 106  0.328  0.833  0.720-  47 1.87  29 2.03  35 2.08  31 2.08
 107  0.336  0.167  0.447-  43 1.84  30 1.95  32 1.95
 108  0.335  0.167  0.948-  42 1.84  31 1.96  33 1.96
 109  0.335  0.500  0.446-  45 1.84  34 1.94  32 1.94
 110  0.334  0.499  0.947-  44 1.84  33 1.95  35 1.96
 111  0.335  0.833  0.446-  47 1.84  34 1.94  30 1.94
 112  0.334  0.834  0.947-  46 1.84  31 1.95  35 1.96
 113  0.169  0.001  0.054-  37 1.84  24 1.95  28 1.96
 114  0.169  1.000  0.554-  36 1.90  29 1.92  25 1.94
 115  0.169  0.332  0.054-  39 1.84  24 1.95  26 1.96
 116  0.169  0.333  0.554-  38 1.90  27 1.92  25 1.94
 117  0.171  0.667  0.055-  41 1.84  26 1.97  28 1.97
 118  0.165  0.667  0.552-  40 1.85  27 1.94  29 1.94
 119  0.833  0.167  0.363-  72 1.71  74 1.71  60 1.73  66 2.44  68 2.44
 
  LATTYP: Found a simple monoclinic cell.
 ALAT       =    11.6348202465
 B/A-ratio  =     0.7858051831
 C/A-ratio  =     1.0554931797
 COS(beta)  =    -0.2379290539
  
  Lattice vectors:
  
 A1 = (   0.0000000000,  -2.7682617730, -11.3006977184)
 A2 = (  -9.1427020537,   0.0000000000,   0.0000000000)
 A3 = (   0.0000000000,  12.2804734172,   0.0000000000)


Analysis of symmetry for initial positions (statically):
=====================================================================
 Subroutine PRICEL returns:
 Original cell was already a primitive cell.
 

 Routine SETGRP: Setting up the symmetry group for a 
 simple monoclinic supercell.


 Subroutine GETGRP returns: Found  2 space group operations
 (whereof  1 operations were pure point group operations)
 out of a pool of  4 trial point group operations.


The static configuration has the point symmetry C_1 .
 The point group associated with its full space group is C_1h.


Analysis of symmetry for dynamics (positions and initial velocities):
=====================================================================
 Subroutine PRICEL returns:
 Original cell was already a primitive cell.
 

 Routine SETGRP: Setting up the symmetry group for a 
 simple monoclinic supercell.


 Subroutine GETGRP returns: Found  2 space group operations
 (whereof  1 operations were pure point group operations)
 out of a pool of  4 trial point group operations.


The dynamic configuration has the point symmetry C_1 .
 The point group associated with its full space group is C_1h.


 Subroutine INISYM returns: Found  2 space group operations
 (whereof  1 operations are pure point group operations),
 and found     1 'primitive' translations


----------------------------------------------------------------------------------------

                                     Primitive cell                                     

  volume of cell :    1268.8052

  direct lattice vectors                    reciprocal lattice vectors
     0.000000000 12.280473417  0.000000000     0.000000000  0.081430085 -0.019947423
     9.142702054  0.000000000  0.000000000     0.109376855 -0.000000000  0.000000000
     0.000000000 -2.768261773-11.300697718     0.000000000  0.000000000 -0.088490111

  length of vectors
    12.280473417  9.142702054 11.634820246     0.083837691  0.109376855  0.088490111

  position of ions in fractional coordinates (direct lattice)
     0.663271747  0.993541366  0.152444516
     0.659811662  0.999223485  0.658591682
     0.663271747  0.339791967  0.152444516
     0.659811662  0.334109848  0.658591682
     0.659917775  0.666666667  0.155765617
     0.661319946  0.666666667  0.655264286
     0.841892722  0.166666667  0.845978647
     0.845379441  0.500912749  0.335494929
     0.842635605  0.499886600  0.843939642
     0.845379441  0.832420584  0.335494929
     0.842635605  0.833446734  0.843939642
     0.590328984  0.166666667  0.402505075
     0.592237896  0.166666667  0.899923047
     0.592720096  0.500393056  0.397459824
     0.589347526  0.501288229  0.893992294
     0.592720096  0.832940277  0.397459824
     0.589347526  0.832045104  0.893992294
     0.912131536  0.998786303  0.103551547
     0.911417649  0.000961701  0.607299079
     0.912131536  0.334547031  0.103551547
     0.911417649  0.332371633  0.607299079
     0.912139443  0.666666667  0.099719536
     0.908451734  0.666666667  0.600175794
     0.162288021  0.166666667  0.158723238
     0.163250932  0.166666667  0.655909385
     0.161703417  0.499512034  0.158459745
     0.159547952  0.498936581  0.653277829
     0.161703417  0.833821299  0.158459745
     0.159547952  0.834396752  0.653277829
     0.340925541  0.999492428  0.344080265
     0.341348465  0.999946761  0.843995193
     0.340925541  0.333840905  0.344080265
     0.341348465  0.333386573  0.843995193
     0.341905936  0.666666667  0.344355869
     0.339341965  0.666666667  0.843136887
     0.086635537  0.031430892  0.395698130
     0.092835182  0.000010023  0.898292953
     0.086635537  0.301902441  0.395698130
     0.092835182  0.333323310  0.898292953
     0.087193894  0.666666667  0.395500594
     0.093018598  0.666666667  0.898407831
     0.412603434  0.166666667  0.103932100
     0.410713701  0.166666667  0.603603918
     0.411542461  0.499095527  0.103506864
     0.410034337  0.500644598  0.603141349
     0.411542461  0.834237806  0.103506864
     0.410034337  0.832688736  0.603141349
     0.997889678  0.166666667  0.137608485
     0.998495534  0.166666667  0.622332988
     0.999737948  0.500985955  0.125325078
     0.995331307  0.499282995  0.624414234
     0.999737948  0.832347379  0.125325078
     0.995331307  0.834050338  0.624414234
     0.505437423  0.000003231  0.372101462
     0.504361785  0.000526750  0.873741615
     0.505437423  0.333330103  0.372101462
     0.504361785  0.332806584  0.873741615
     0.505323805  0.666666667  0.373398389
     0.501294034  0.666666667  0.868584134
     0.691534673  0.166666667  0.298180588
     0.673973512  0.166666667  0.783179655
     0.675431776  0.500857443  0.281589095
     0.673950280  0.500094403  0.779704258
     0.675431776  0.832475890  0.281589095
     0.673950280  0.833238930  0.779704258
     0.824223281  0.980636126  0.210945891
     0.828407046  0.001040044  0.721025406
     0.824223281  0.352697207  0.210945891
     0.828407046  0.332293289  0.721025406
     0.830221368  0.666666667  0.216260725
     0.828898758  0.666666667  0.718767534
     0.826328191  0.017204706  0.448786010
     0.834264270  0.999995275  0.946987674
     0.826328191  0.316128628  0.448786010
     0.834264270  0.333338058  0.946987674
     0.837349665  0.666666667  0.441489045
     0.832764447  0.666666667  0.944523662
     0.668809568  0.166666667  0.058264862
     0.667665598  0.166666667  0.557921314
     0.665152441  0.504440971  0.050042642
     0.671803567  0.498947385  0.553715131
     0.665152441  0.828892362  0.050042642
     0.671803567  0.834385948  0.553715131
     0.501876295  0.000615286  0.131189275
     0.497837993  0.999356928  0.628339552
     0.501876295  0.332718048  0.131189275
     0.497837993  0.333976405  0.628339552
     0.498014391  0.666666667  0.128362697
     0.499028059  0.666666667  0.626924537
     0.004335023  0.166666667  0.872589553
     0.006280500  0.487322541  0.374681719
     0.004770170  0.499974276  0.871436755
     0.006280500  0.846010792  0.374681719
     0.004770170  0.833359058  0.871436755
     0.174837049  0.998879078  0.279775753
     0.173417674  0.000504530  0.780546433
     0.174837049  0.334454256  0.279775753
     0.173417674  0.332828804  0.780546433
     0.172867684  0.666666667  0.281379575
     0.172242998  0.666666667  0.778937106
     0.331058402  0.166666667  0.220489780
     0.330252440  0.166666667  0.721295049
     0.330163391  0.500429546  0.220521420
     0.327963497  0.500124702  0.719564440
     0.330163391  0.832903787  0.220521420
     0.327963497  0.833208632  0.719564440
     0.335917581  0.166666667  0.446686620
     0.334898590  0.166666667  0.947613590
     0.335363918  0.500392530  0.446496165
     0.333840238  0.499426418  0.946979482
     0.335363918  0.832940803  0.446496165
     0.333840238  0.833906915  0.946979482
     0.168968516  0.000961241  0.054477956
     0.169069202  0.999978172  0.554165155
     0.168968516  0.332372092  0.054477956
     0.169069202  0.333355161  0.554165155
     0.170572936  0.666666667  0.054856629
     0.165300697  0.666666667  0.552188417
     0.833312055  0.166666667  0.363071526

  ion indices of the primitive-cell ions
   primitive index   ion index
                 1           1
                 2           2
                 3           3
                 4           4
                 5           5
                 6           6
                 7           7
                 8           8
                 9           9
                10          10
                11          11
                12          12
                13          13
                14          14
                15          15
                16          16
                17          17
                18          18
                19          19
                20          20
                21          21
                22          22
                23          23
                24          24
                25          25
                26          26
                27          27
                28          28
                29          29
                30          30
                31          31
                32          32
                33          33
                34          34
                35          35
                36          36
                37          37
                38          38
                39          39
                40          40
                41          41
                42          42
                43          43
                44          44
                45          45
                46          46
                47          47
                48          48
                49          49
                50          50
                51          51
                52          52
                53          53
                54          54
                55          55
                56          56
                57          57
                58          58
                59          59
                60          60
                61          61
                62          62
                63          63
                64          64
                65          65
                66          66
                67          67
                68          68
                69          69
                70          70
                71          71
                72          72
                73          73
                74          74
                75          75
                76          76
                77          77
                78          78
                79          79
                80          80
                81          81
                82          82
                83          83
                84          84
                85          85
                86          86
                87          87
                88          88
                89          89
                90          90
                91          91
                92          92
                93          93
                94          94
                95          95
                96          96
                97          97
                98          98
                99          99
               100         100
               101         101
               102         102
               103         103
               104         104
               105         105
               106         106
               107         107
               108         108
               109         109
               110         110
               111         111
               112         112
               113         113
               114         114
               115         115
               116         116
               117         117
               118         118
               119         119

----------------------------------------------------------------------------------------

 
 
 KPOINTS: Automatic mesh                          

Automatic generation of k-mesh.
 Grid dimensions read from file:
 generate k-points for:    2    2    2

 Generating k-lattice:

  Cartesian coordinates                     Fractional coordinates (reciprocal lattice)
     0.000000000  0.040715043 -0.009973711     0.500000000  0.000000000  0.000000000
     0.054688428 -0.000000000  0.000000000     0.000000000  0.500000000  0.000000000
     0.000000000  0.000000000 -0.044245056     0.000000000  0.000000000  0.500000000

  Length of vectors
     0.041918846  0.054688428  0.044245056

  Shift w.r.t. Gamma in fractional coordinates (k-lattice)
     0.000000000  0.000000000  0.000000000

 
 Subroutine IBZKPT returns following result:
 ===========================================
 
 Found      8 irreducible k-points:
 
 Following reciprocal coordinates:
            Coordinates               Weight
  0.000000  0.000000  0.000000      1.000000
  0.500000  0.000000  0.000000      1.000000
  0.000000  0.500000  0.000000      1.000000
  0.500000  0.500000  0.000000      1.000000
  0.000000  0.000000  0.500000      1.000000
  0.500000  0.000000  0.500000      1.000000
  0.000000  0.500000  0.500000      1.000000
  0.500000  0.500000  0.500000      1.000000
 
 Following cartesian coordinates:
            Coordinates               Weight
  0.000000  0.000000 -0.000000      1.000000
  0.000000  0.040715 -0.009974      1.000000
  0.054688  0.000000 -0.000000      1.000000
  0.054688  0.040715 -0.009974      1.000000
  0.000000  0.000000 -0.044245      1.000000
  0.000000  0.040715 -0.054219      1.000000
  0.054688  0.000000 -0.044245      1.000000
  0.054688  0.040715 -0.054219      1.000000
 
 
 Subroutine IBZKPT_HF returns following result:
 ==============================================
 
 Found      8 k-points in 1st BZ
 the following      8 k-points will be used (e.g. in the exchange kernel)
 Following reciprocal coordinates:   # in IRBZ
  0.000000  0.000000  0.000000    0.12500000   1 t-inv F
  0.500000  0.000000  0.000000    0.12500000   2 t-inv F
  0.000000  0.500000  0.000000    0.12500000   3 t-inv F
  0.500000  0.500000  0.000000    0.12500000   4 t-inv F
  0.000000  0.000000  0.500000    0.12500000   5 t-inv F
  0.500000  0.000000  0.500000    0.12500000   6 t-inv F
  0.000000  0.500000  0.500000    0.12500000   7 t-inv F
  0.500000  0.500000  0.500000    0.12500000   8 t-inv F


--------------------------------------------------------------------------------------------------------




 Dimension of arrays:
   k-points           NKPTS =      8   k-points in BZ     NKDIM =      8   number of bands    NBANDS=    625
   number of dos      NEDOS =    301   number of ions     NIONS =    119
   non local maximal  LDIM  =      6   non local SUM 2l+1 LMDIM =     18
   total plane-waves  NPLWV = 184320
   max r-space proj   IRMAX =   1800   max aug-charges    IRDMAX=   5704
   dimension x,y,z NGX =    64 NGY =   48 NGZ =   60
   dimension x,y,z NGXF=   128 NGYF=   96 NGZF=  120
   support grid    NGXF=   128 NGYF=   96 NGZF=  120
   ions per type =              47  71   1
   NGX,Y,Z   is equivalent  to a cutoff of   8.66,  8.73,  8.57 a.u.
   NGXF,Y,Z  is equivalent  to a cutoff of  17.33, 17.46, 17.15 a.u.

 SYSTEM =  unknown system                          
 POSCAR =  Ga48 O72                                

 Startparameter for this run:
   NWRITE =      2    write-flag & timer
   PREC   = normal    normal or accurate (medium, high low for compatibility)
   ISTART =      0    job   : 0-new  1-cont  2-samecut
   ICHARG =      0    charge: 1-file 2-atom 10-const
   ISPIN  =      1    spin polarized calculation?
   LNONCOLLINEAR =      F non collinear calculations
   LSORBIT =      F    spin-orbit coupling
   INIWAV =      1    electr: 0-lowe 1-rand  2-diag
   LASPH  =      F    aspherical Exc in radial PAW
 Electronic Relaxation 1
   ENCUT  =  450.0 eV  33.07 Ry    5.75 a.u.  21.24 15.81 20.12*2*pi/ulx,y,z
   ENINI  =  450.0     initial cutoff
   ENAUG  =  605.4 eV  augmentation charge cutoff
   NELM   =    500;   NELMIN=  2; NELMDL= -5     # of ELM steps 
   EDIFF  = 0.1E-04   stopping-criterion for ELM
   LREAL  =      T    real-space projection
   NLSPLINE    = F    spline interpolate recip. space projectors
   LCOMPAT=      F    compatible to vasp.4.4
   GGA_COMPAT  = T    GGA compatible to vasp.4.4-vasp.4.6
   LMAXPAW     = -100 max onsite density
   LMAXMIX     =    2 max onsite mixed and CHGCAR
   VOSKOWN=      0    Vosko Wilk Nusair interpolation
   ROPT   =   -0.00050  -0.00050  -0.00050
 Ionic relaxation
   EDIFFG = -.5E-02   stopping-criterion for IOM
   NSW    =      0    number of steps for IOM
   NBLOCK =      1;   KBLOCK =      1    inner block; outer block 
   IBRION =     -1    ionic relax: 0-MD 1-quasi-New 2-CG
   NFREE  =      0    steps in history (QN), initial steepest desc. (CG)
   ISIF   =      2    stress and relaxation
   IWAVPR =     10    prediction:  0-non 1-charg 2-wave 3-comb
   ISYM   =      3    0-nonsym 1-usesym 2-fastsym
   LCORR  =      T    Harris-Foulkes like correction to forces

   POTIM  = 0.5000    time-step for ionic-motion
   TEIN   =    0.0    initial temperature
   TEBEG  =    0.0;   TEEND  =   0.0 temperature during run
   SMASS  =  -3.00    Nose mass-parameter (am)
   estimated Nose-frequenzy (Omega)   =  0.10E-29 period in steps = 0.13E+47 mass=  -0.345E-26a.u.
   SCALEE = 1.0000    scale energy and forces
   NPACO  =    256;   APACO  = 10.0  distance and # of slots for P.C.
   PSTRESS=    0.0 pullay stress

  Mass of Ions in am
   POMASS =  69.72 16.00 30.97
  Ionic Valenz
   ZVAL   =  13.00  6.00  5.00
  Atomic Wigner-Seitz radii
   RWIGS  =  -1.00 -1.00 -1.00
  virtual crystal weights 
   VCA    =   1.00  1.00  1.00
   NELECT =    1043.0000    total number of electrons
   NUPDOWN=      -1.0000    fix difference up-down

 DOS related values:
   EMIN   =  10.00;   EMAX   =-10.00  energy-range for DOS
   EFERMI =   0.00;   METHOD = LEGACY      
   ISMEAR =     0;   SIGMA  =   0.05  broadening in eV -4-tet -1-fermi 0-gaus

 Electronic relaxation 2 (details)
   IALGO  =     58    algorithm
   LDIAG  =      T    sub-space diagonalisation (order eigenvalues)
   LSUBROT=      F    optimize rotation matrix (better conditioning)
   TURBO    =      0    0=normal 1=particle mesh
   IRESTART =      0    0=no restart 2=restart with 2 vectors
   NREBOOT  =      0    no. of reboots
   NMIN     =      0    reboot dimension
   EREF     =   0.00    reference energy to select bands
   IMIX   =      4    mixing-type and parameters
     AMIX     =   0.40;   BMIX     =  1.00
     AMIX_MAG =   1.60;   BMIX_MAG =  1.00
     AMIN     =   0.10
     WC   =   100.;   INIMIX=   1;  MIXPRE=   1;  MAXMIX= -45

 Intra band minimization:
   WEIMIN = 0.0000     energy-eigenvalue tresh-hold
   EBREAK =  0.40E-08  absolut break condition
   DEPER  =   0.30     relativ break condition  

   TIME   =   0.40     timestep for ELM

  volume/ion in A,a.u.               =      10.66        71.95
  Fermi-wavevector in a.u.,A,eV,Ry     =   1.533574  2.898034 31.998834  2.351848
  Thomas-Fermi vector in A             =   2.640622
 
 Write flags
   LWAVE        =      T    write WAVECAR
   LDOWNSAMPLE  =      F    k-point downsampling of WAVECAR
   LCHARG       =      T    write CHGCAR
   LVTOT        =      F    write LOCPOT, total local potential
   LVHAR        =      F    write LOCPOT, Hartree potential only
   LELF         =      F    write electronic localiz. function (ELF)
   LORBIT       =      0    0 simple, 1 ext, 2 COOP (PROOUT), +10 PAW based schemes


 Dipole corrections
   LMONO  =      F    monopole corrections only (constant potential shift)
   LDIPOL =      F    correct potential (dipole corrections)
   IDIPOL =      0    1-x, 2-y, 3-z, 4-all directions 
   EPSILON=  1.0000000 bulk dielectric constant

 Exchange correlation treatment:
   GGA     =    --    GGA type
   LEXCH   =     8    internal setting for exchange type
   LIBXC   =     F    Libxc                    
   VOSKOWN =     0    Vosko Wilk Nusair interpolation
   EXXOEP  =     0    0=HF, 1=EXX-LHF (local Hartree Fock) 2=EXX OEP
   LHFCALC =     T    Hartree Fock is set to
   LSYMGRAD=     F    symmetrize gradient (conserves proper symmetry)
   PRECFOCK=fast      Normal, Fast or Accurate (Low or Medium for compatibility)
   LRHFCALC=     F    long range Hartree Fock
   LRSCOR  =     F    long range correlation only (use DFT for short range part)
   LTHOMAS =     F    Thomas Fermi screening in HF
   LMODELHF=     F    short range full HF, long range fraction AEXX
   FOCKCORR=     1    mode to apply convergence corrections
   LFOCKACE=     T    use Adeptively-Compressed-Exchange operator
   ENCUT4O =  -1.0   cutoff for four orbital integrals eV
   LMAXFOCK=     4    L truncation for augmentation on plane wave grid
   LMAXFOCKAE=  -1    L truncation for all-electron charge restoration on plane wave grid
   NMAXFOCKAE=   1    number of basis functions for all-electron charge restoration
   LFOCKAEDFT=     F  apply the AE augmentation even for DFT
   NKREDX  =     1    reduce k-point grid by
   NKREDY  =     1    reduce k-point grid by
   NKREDZ  =     1    reduce k-point grid by
   SHIFTRED=     F    shift reduced grid of Gamma
   HFKIDENT=     F    idential grid for each k-point
   ODDONLY =     F    use only odd q-grid points
   EVENONLY=     F    use only even q-grid points
   HFALPHA =   -1.0000 decay constant for conv. correction
   MCALPHA =    0.0000 extent of test-charge in conv. correction in multipole expansion
   AEXX    =    0.3200 exact exchange contribution
   HFSCREEN=    0.2000 screening length (either q_TF or 0.3 A-1)
   HFSCREENC=   0.2000 screening length for correlation (either q_TF or 0.3 A-1)
   HFRCUT  =    0.0000 spherical cutoff for potential kernel
   ALDAX   =    0.6800 LDA exchange part
   AGGAX   =    0.6800 GGA exchange part
   ALDAC   =    1.0000 LDA correlation
   AGGAC   =    1.0000 GGA correlation
   ENCUTFOCK=  -1.0 apply spherical cutoff to Coloumb kernel
   NBANDSGWLOW=     1    first orbital included in HF term
   NBLOCK_FOCK=    64    blocking factor in FOCK_ACC

 Linear response parameters
   LEPSILON=     F    determine dielectric tensor
   LRPA    =     F    only Hartree local field effects (RPA)
   LNABLA  =     F    use nabla operator in PAW spheres
   LVEL    =     F    velocity operator in full k-point grid
   CSHIFT  =0.1000    complex shift for real part using Kramers Kronig
   OMEGAMAX=  -1.0    maximum frequency
   DEG_THRESHOLD= 0.2000000E-02 threshold for treating states as degnerate
   RTIME   =   -0.100 relaxation time in fs
  (WPLASMAI=    0.000 imaginary part of plasma frequency in eV, 0.658/RTIME)
   DFIELD  = 0.0000000 0.0000000 0.0000000 field for delta impulse in time
 
  Optional k-point grid parameters
   LKPOINTS_OPT  =     F    use optional k-point grid
   KPOINTS_OPT_MODE=     1    mode for optional k-point grid
 
 Orbital magnetization related:
   ORBITALMAG=     F  switch on orbital magnetization
   LCHIMAG   =     F  perturbation theory with respect to B field
   DQ        =  0.001000  dq finite difference perturbation B field
   LLRAUG    =     F  two centre corrections for induced B field
   LBONE     =     F  B-component reconstruction in AE one-centre
   LVGVCALC  =     T  calculate vGv susceptibility
   LVGVAPPL  =     F  apply vGv susceptibility instead of pGv for G=0

 Random number generation:
   RANDOM_GENERATOR = DEFAULT
   PCG_SEED         = not used


--------------------------------------------------------------------------------------------------------


 Static calculation
 charge density and potential will be updated during run
 non-spin polarized calculation
 Conjugate gradient for all bands (Freysoldt, et al. PRB 79, 241103 (2009))
 preconditioned conjugated gradient                                        
 perform sub-space diagonalisation
    before iterative eigenvector-optimisation
 modified Broyden-mixing scheme, WC =      100.0
 initial mixing is a Kerker type mixing with AMIX =  0.4000 and BMIX =      1.0000
 Hartree-type preconditioning will be used
 using additional bands           103
 real space projection scheme for non local part
 use partial core corrections
 no Harris-corrections to forces 
 use gradient corrections 
 use of overlap-Matrix (Vanderbilt PP)
 Gauss-broadening in eV      SIGMA  =   0.05


--------------------------------------------------------------------------------------------------------


  energy-cutoff  :      450.00
  volume of cell :     1268.81
      direct lattice vectors                 reciprocal lattice vectors
     0.000000000 12.280473417  0.000000000     0.000000000  0.081430085 -0.019947423
     9.142702054  0.000000000  0.000000000     0.109376855 -0.000000000  0.000000000
     0.000000000 -2.768261773-11.300697718     0.000000000  0.000000000 -0.088490111

  length of vectors
    12.280473417  9.142702054 11.634820246     0.083837691  0.109376855  0.088490111


 
 k-points in units of 2pi/SCALE and weight: Automatic mesh                          
   0.00000000  0.00000000 -0.00000000       0.125
   0.00000000  0.04071504 -0.00997371       0.125
   0.05468843  0.00000000 -0.00000000       0.125
   0.05468843  0.04071504 -0.00997371       0.125
   0.00000000  0.00000000 -0.04424506       0.125
   0.00000000  0.04071504 -0.05421877       0.125
   0.05468843  0.00000000 -0.04424506       0.125
   0.05468843  0.04071504 -0.05421877       0.125
 
 k-points in reciprocal lattice and weights: Automatic mesh                          
   0.00000000  0.00000000  0.00000000       0.125
   0.50000000  0.00000000  0.00000000       0.125
   0.00000000  0.50000000  0.00000000       0.125
   0.50000000  0.50000000  0.00000000       0.125
   0.00000000  0.00000000  0.50000000       0.125
   0.50000000  0.00000000  0.50000000       0.125
   0.00000000  0.50000000  0.50000000       0.125
   0.50000000  0.50000000  0.50000000       0.125
 
 position of ions in fractional coordinates (direct lattice) 
   0.66327175  0.99354137  0.15244452
   0.65981166  0.99922349  0.65859168
   0.66327175  0.33979197  0.15244452
   0.65981166  0.33410985  0.65859168
   0.65991778  0.66666667  0.15576562
   0.66131995  0.66666667  0.65526429
   0.84189272  0.16666667  0.84597865
   0.84537944  0.50091275  0.33549493
   0.84263560  0.49988660  0.84393964
   0.84537944  0.83242058  0.33549493
   0.84263560  0.83344673  0.84393964
   0.59032898  0.16666667  0.40250508
   0.59223790  0.16666667  0.89992305
   0.59272010  0.50039306  0.39745982
   0.58934753  0.50128823  0.89399229
   0.59272010  0.83294028  0.39745982
   0.58934753  0.83204510  0.89399229
   0.91213154  0.99878630  0.10355155
   0.91141765  0.00096170  0.60729908
   0.91213154  0.33454703  0.10355155
   0.91141765  0.33237163  0.60729908
   0.91213944  0.66666667  0.09971954
   0.90845173  0.66666667  0.60017579
   0.16228802  0.16666667  0.15872324
   0.16325093  0.16666667  0.65590939
   0.16170342  0.49951203  0.15845975
   0.15954795  0.49893658  0.65327783
   0.16170342  0.83382130  0.15845975
   0.15954795  0.83439675  0.65327783
   0.34092554  0.99949243  0.34408027
   0.34134846  0.99994676  0.84399519
   0.34092554  0.33384090  0.34408027
   0.34134846  0.33338657  0.84399519
   0.34190594  0.66666667  0.34435587
   0.33934196  0.66666667  0.84313689
   0.08663554  0.03143089  0.39569813
   0.09283518  0.00001002  0.89829295
   0.08663554  0.30190244  0.39569813
   0.09283518  0.33332331  0.89829295
   0.08719389  0.66666667  0.39550059
   0.09301860  0.66666667  0.89840783
   0.41260343  0.16666667  0.10393210
   0.41071370  0.16666667  0.60360392
   0.41154246  0.49909553  0.10350686
   0.41003434  0.50064460  0.60314135
   0.41154246  0.83423781  0.10350686
   0.41003434  0.83268874  0.60314135
   0.99788968  0.16666667  0.13760848
   0.99849553  0.16666667  0.62233299
   0.99973795  0.50098595  0.12532508
   0.99533131  0.49928300  0.62441423
   0.99973795  0.83234738  0.12532508
   0.99533131  0.83405034  0.62441423
   0.50543742  0.00000323  0.37210146
   0.50436178  0.00052675  0.87374162
   0.50543742  0.33333010  0.37210146
   0.50436178  0.33280658  0.87374162
   0.50532380  0.66666667  0.37339839
   0.50129403  0.66666667  0.86858413
   0.69153467  0.16666667  0.29818059
   0.67397351  0.16666667  0.78317966
   0.67543178  0.50085744  0.28158910
   0.67395028  0.50009440  0.77970426
   0.67543178  0.83247589  0.28158910
   0.67395028  0.83323893  0.77970426
   0.82422328  0.98063613  0.21094589
   0.82840705  0.00104004  0.72102541
   0.82422328  0.35269721  0.21094589
   0.82840705  0.33229329  0.72102541
   0.83022137  0.66666667  0.21626072
   0.82889876  0.66666667  0.71876753
   0.82632819  0.01720471  0.44878601
   0.83426427  0.99999527  0.94698767
   0.82632819  0.31612863  0.44878601
   0.83426427  0.33333806  0.94698767
   0.83734967  0.66666667  0.44148904
   0.83276445  0.66666667  0.94452366
   0.66880957  0.16666667  0.05826486
   0.66766560  0.16666667  0.55792131
   0.66515244  0.50444097  0.05004264
   0.67180357  0.49894739  0.55371513
   0.66515244  0.82889236  0.05004264
   0.67180357  0.83438595  0.55371513
   0.50187630  0.00061529  0.13118927
   0.49783799  0.99935693  0.62833955
   0.50187630  0.33271805  0.13118927
   0.49783799  0.33397641  0.62833955
   0.49801439  0.66666667  0.12836270
   0.49902806  0.66666667  0.62692454
   0.00433502  0.16666667  0.87258955
   0.00628050  0.48732254  0.37468172
   0.00477017  0.49997428  0.87143675
   0.00628050  0.84601079  0.37468172
   0.00477017  0.83335906  0.87143675
   0.17483705  0.99887908  0.27977575
   0.17341767  0.00050453  0.78054643
   0.17483705  0.33445426  0.27977575
   0.17341767  0.33282880  0.78054643
   0.17286768  0.66666667  0.28137957
   0.17224300  0.66666667  0.77893711
   0.33105840  0.16666667  0.22048978
   0.33025244  0.16666667  0.72129505
   0.33016339  0.50042955  0.22052142
   0.32796350  0.50012470  0.71956444
   0.33016339  0.83290379  0.22052142
   0.32796350  0.83320863  0.71956444
   0.33591758  0.16666667  0.44668662
   0.33489859  0.16666667  0.94761359
   0.33536392  0.50039253  0.44649616
   0.33384024  0.49942642  0.94697948
   0.33536392  0.83294080  0.44649616
   0.33384024  0.83390691  0.94697948
   0.16896852  0.00096124  0.05447796
   0.16906920  0.99997817  0.55416515
   0.16896852  0.33237209  0.05447796
   0.16906920  0.33335516  0.55416515
   0.17057294  0.66666667  0.05485663
   0.16530070  0.66666667  0.55218842
   0.83331206  0.16666667  0.36307153
 
 position of ions in cartesian coordinates  (Angst):
   9.08365269  7.72328473 -1.72272939
   9.13560261  6.27964540 -7.44254552
   3.10661672  7.72328473 -1.72272939
   3.05466680  6.27964540 -7.44254552
   6.09513470  7.67290269 -1.76026016
   6.09513470  6.30737894 -7.40494363
   1.52378368  7.99695084 -9.56014896
   4.57969602  9.45292196 -3.79132678
   4.57031424  8.01171830 -9.53710678
   7.61057338  9.45292196 -3.79132678
   7.61995516  8.01171830 -9.53710678
   1.52378368  6.13527998 -4.54858819
   1.52378368  4.78173917-10.16975833
   4.57494462  6.17861055 -4.49157333
   4.58312892  4.76266193-10.10273668
   7.61532478  6.17861055 -4.49157333
   7.60714048  4.76266193-10.10273668
   9.13160558 10.91474929 -1.17020473
   0.00879254  9.51147738 -6.86290332
   3.05866382 10.91474929 -1.17020473
   3.03877481  9.51147738 -6.86290332
   6.09513470 10.92545441 -1.12690034
   6.09513470  9.49477367 -6.78240523
   1.52378368  1.55358625 -1.79368333
   1.52378368  0.18906985 -7.41223369
   4.56688970  1.54713645 -1.79070568
   4.56162851  0.15088034 -7.38249527
   7.62337971  1.54713645 -1.79070568
   7.62864090  0.15088034 -7.38249527
   9.13806148  3.23422280 -3.88834707
   9.14221530  1.85552112 -9.53773455
   3.05220793  3.23422280 -3.88834707
   3.04805410  1.85552112 -9.53773455
   6.09513470  3.24549957 -3.89146159
   6.09513470  1.83325636 -9.52803510
   0.28736329 -0.03147060 -4.47166496
   0.00009164 -1.34665005-10.15133713
   2.76020407 -0.03147060 -4.47166496
   3.04747571 -1.34665005-10.15133713
   6.09513470 -0.02406687 -4.46943266
   6.09513470 -1.34471563-10.15263533
   1.52378368  4.77925425 -1.17450525
   1.52378368  3.37282504 -6.82114542
   4.56308170  4.76740216 -1.16969978
   4.57724439  3.36576263 -6.81591807
   7.62718770  4.76740216 -1.16969978
   7.61302501  3.36576263 -6.81591807
   1.52378368 11.87362136 -1.55507189
   1.52378368 10.53921724 -7.03279697
   4.58036532 11.93032268 -1.41626083
   4.56479566 10.49459760 -7.05631651
   7.60990409 11.93032268 -1.41626083
   7.62547374 10.49459760 -7.05631651
   0.00002954  5.17693659 -4.20500614
   0.00481591  3.77505598 -9.87388988
   3.04753781  5.17693659 -4.20500614
   3.04275144  3.77505598 -9.87388988
   6.09513470  5.17195106 -4.21966232
   6.09513470  3.75165981 -9.81560674
   1.52378368  7.66693125 -3.36964869
   1.52378368  6.10866750 -8.85047654
   4.57919037  7.51510964 -3.18215325
   4.57221413  6.11800300 -8.81120213
   7.61107903  7.51510964 -3.18215325
   7.61805528  6.11800300 -8.81120213
   8.96566393  9.53789865 -2.38383575
   0.00950881  8.17724364 -8.14809016
   3.22460548  9.53789865 -2.38383575
   3.03805854  8.17724364 -8.14809016
   6.09513470  9.59684514 -2.44389708
   6.09513470  8.18953247 -8.12257463
   0.15729750  8.90534423 -5.07159504
   9.14265885  7.62365042-10.70162145
   2.89026985  8.90534423 -5.07159504
   3.04761055  7.62365042-10.70162145
   6.09513470  9.06089306 -4.98913424
   6.09513470  7.61205290-10.67377639
   1.52378368  8.05200573 -0.65843359
   1.52378368  6.65477738 -6.30490013
   4.61195350  8.02985574 -0.56551677
   4.56172729  6.71723742 -6.25736732
   7.57831590  8.02985574 -0.56551677
   7.62854212  6.71723742 -6.25736732
   0.00562537  5.80011225 -1.48253034
   9.13682264  4.37427788 -7.10067534
   3.04194198  5.80011225 -1.48253034
   3.05344677  4.37427788 -7.10067534
   6.09513470  5.76051094 -1.45058803
   6.09513470  4.39280959 -7.08468469
   1.52378368 -2.36232017 -9.86087077
   4.45544480 -0.96008957 -4.23416485
   4.57111584 -2.35378511 -9.84784335
   7.73482461 -0.96008957 -4.23416485
   7.61915357 -2.35378511 -9.84784335
   9.13245379  1.37258921 -3.16166122
   0.00461276 -0.03110571 -8.82071929
   3.05781561  1.37258921 -3.16166122
   3.04295459 -0.03110571 -8.82071929
   6.09513470  1.34396468 -3.17978552
   6.09513470 -0.04107625 -8.80253278
   1.52378368  3.45518048 -2.49168835
   1.52378368  2.05892280 -8.15113732
   4.57527824  3.44410173 -2.49204591
   4.57249114  2.03560427 -8.13158022
   7.61499117  3.44410173 -2.49204591
   7.61777827  2.03560427 -8.13158022
   1.52378368  2.88868143 -5.04787047
   1.52378368  1.48947075-10.70869474
   4.57493982  2.88240941 -5.04571819
   4.56610694  1.47822907-10.70152887
   7.61532959  2.88240941 -5.04571819
   7.62416246  1.47822907-10.70152887
   0.00878834  1.92420412 -0.61563891
   9.14250249  0.54217563 -6.26245290
   3.03877901  1.92420412 -0.61563891
   3.04776691  0.54217563 -6.26245290
   6.09513470  1.94285890 -0.61991818
   6.09513470  0.50136873 -6.24011438
   1.52378368  9.22838951 -4.10296157
 


--------------------------------------------------------------------------------------------------------


 k-point   1 :   0.0000 0.0000 0.0000  plane waves:   27533
 k-point   2 :   0.5000 0.0000 0.0000  plane waves:   27522
 k-point   3 :   0.0000 0.5000 0.0000  plane waves:   27488
 k-point   4 :   0.5000 0.5000 0.0000  plane waves:   27488
 k-point   5 :   0.0000 0.0000 0.5000  plane waves:   27482
 k-point   6 :   0.5000 0.0000 0.5000  plane waves:   27476
 k-point   7 :   0.0000 0.5000 0.5000  plane waves:   27468
 k-point   8 :   0.5000 0.5000 0.5000  plane waves:   27564

 maximum and minimum number of plane-waves per node :     27564    27468

 maximum number of plane-waves:     27564
 maximum index in each direction: 
   IXMAX=   21   IYMAX=   15   IZMAX=   20
   IXMIN=  -21   IYMIN=  -16   IZMIN=  -20


 serial   3D FFT for wavefunctions
 parallel 3D FFT for charge:
    minimum data exchange during FFTs selected (reduces bandwidth)


 FFT grid for exact exchange (Hartree Fock) 
  NGX = 48; NGY = 36; NGZ = 48

 
 Radii for the augmentation spheres in the non-local exchange
 for species   1 augmentation radius   1.392 (default was   1.031)
       energy cutoff for augmentation   1800.0
 for species   2 augmentation radius   0.974 (default was   0.722)
       energy cutoff for augmentation   1800.0
 for species   3 augmentation radius   1.294 (default was   0.959)
       energy cutoff for augmentation   1800.0
 Maximum index for augmentation-charges in exchange           749
  SETUP_FOCK is finished

 total amount of memory used by VASP MPI-rank0  7175136. kBytes
=======================================================================

   base      :      30000. kBytes
   nonlr-proj:      32467. kBytes
   fftplans  :      51012. kBytes
   grid      :     102973. kBytes
   one-center:       1850. kBytes
   HF        :        194. kBytes
   wavefun   :    6956640. kBytes
 
     INWAV:  cpu time      0.0001: real time      0.0001
 Broyden mixing: mesh for mixing (old mesh)
   NGX = 43   NGY = 31   NGZ = 41
  (NGX  =128   NGY  = 96   NGZ  =120)
  gives a total of  54653 points

 charge density for first step will be calculated from the start-wavefunctions


--------------------------------------------------------------------------------------------------------


 Maximum index for non-local projection operator          1715
 Maximum index for augmentation-charges          5354 (set IRDMAX)


--------------------------------------------------------------------------------------------------------


 initial charge from wavefunction
 First call to EWALD:  gamma=   0.164
 Maximum number of real-space cells 3x 3x 3
 Maximum number of reciprocal cells 3x 2x 3

    FEWALD:  cpu time      0.0719: real time      0.0718


--------------------------------------- Ionic step        1  -------------------------------------------




--------------------------------------- Iteration      1(   1)  ---------------------------------------


    POTLOK:  cpu time      0.0325: real time      0.0325
    SETDIJ:  cpu time      0.1489: real time      0.1489
    TRIAL :  cpu time      2.8739: real time      2.8939
    CORREC:  cpu time      0.0015: real time      0.0015
    --------------------------------------------
      LOOP:  cpu time      3.9452: real time      3.9650

 eigenvalue-minimisations  : 10440
 total energy-change (2. order) :-0.1831733E+05  (-0.5429755E+05)
 number of electron    1042.9999502 magnetization 
 augmentation part      118.4842802 magnetization 

 Free energy of the ion-electron system (eV)
  ---------------------------------------------------
  alpha Z        PSCENC =      5376.25786726
  Ewald energy   TEWEN  =    -86680.01120101
  -Hartree energ DENC   =     -2076.10427674
  -exchange      EXHF   =         0.00000000
  -V(xc)+E(xc)   XCENC  =      2756.10346893
  PAW double counting   =    331884.64498368  -360634.79018049
  entropy T*S    EENTRO =        -0.01508521
  eigenvalues    EBANDS =    -40443.65113566
  atomic energy  EATOM  =    131500.23896116
  ---------------------------------------------------
  free energy    TOTEN  =    -18317.32659810 eV

  energy without entropy =   -18317.31151288  energy(sigma->0) =   -18317.31905549
  exchange ACFDT corr.  =         0.00000000  see jH, gK, PRB 81, 115126


--------------------------------------------------------------------------------------------------------




--------------------------------------- Iteration      1(   2)  ---------------------------------------


    TRIAL :  cpu time      3.1186: real time      3.1182
    CORREC:  cpu time      0.0016: real time      0.0016
    --------------------------------------------
      LOOP:  cpu time      3.1204: real time      3.1209

 eigenvalue-minimisations  : 13240
 total energy-change (2. order) :-0.4456969E+05  (-0.4306507E+05)
 number of electron    1042.9999502 magnetization 
 augmentation part      118.4842802 magnetization 

 Free energy of the ion-electron system (eV)
  ---------------------------------------------------
  alpha Z        PSCENC =      5376.25786726
  Ewald energy   TEWEN  =    -86680.01120101
  -Hartree energ DENC   =     -2076.10427674
  -exchange      EXHF   =         0.00000000
  -V(xc)+E(xc)   XCENC  =      2756.10346893
  PAW double counting   =    331884.64498368  -360634.79018049
  entropy T*S    EENTRO =        -0.01267114
  eigenvalues    EBANDS =    -85013.34073041
  atomic energy  EATOM  =    131500.23896116
  ---------------------------------------------------
  free energy    TOTEN  =    -62887.01377878 eV

  energy without entropy =   -62887.00110764  energy(sigma->0) =   -62887.00744321
  exchange ACFDT corr.  =         0.00000000  see jH, gK, PRB 81, 115126


--------------------------------------------------------------------------------------------------------




--------------------------------------- Iteration      1(   3)  ---------------------------------------


    TRIAL :  cpu time      3.3313: real time      3.3309
    CORREC:  cpu time      0.0016: real time      0.0016
    --------------------------------------------
      LOOP:  cpu time      3.3331: real time      3.3332

 eigenvalue-minimisations  : 14599
 total energy-change (2. order) :-0.5077947E+04  (-0.4607917E+04)
 number of electron    1042.9999502 magnetization 
 augmentation part      118.4842802 magnetization 

 Free energy of the ion-electron system (eV)
  ---------------------------------------------------
  alpha Z        PSCENC =      5376.25786726
  Ewald energy   TEWEN  =    -86680.01120101
  -Hartree energ DENC   =     -2076.10427674
  -exchange      EXHF   =         0.00000000
  -V(xc)+E(xc)   XCENC  =      2756.10346893
  PAW double counting   =    331884.64498368  -360634.79018049
  entropy T*S    EENTRO =        -0.02686824
  eigenvalues    EBANDS =    -90091.27379562
  atomic energy  EATOM  =    131500.23896116
  ---------------------------------------------------
  free energy    TOTEN  =    -67964.96104109 eV

  energy without entropy =   -67964.93417285  energy(sigma->0) =   -67964.94760697
  exchange ACFDT corr.  =         0.00000000  see jH, gK, PRB 81, 115126


--------------------------------------------------------------------------------------------------------




--------------------------------------- Iteration      1(   4)  ---------------------------------------


    TRIAL :  cpu time      3.7874: real time      3.7870
    CORREC:  cpu time      0.0016: real time      0.0016
    --------------------------------------------
      LOOP:  cpu time      3.7891: real time      3.7892

 eigenvalue-minimisations  : 17664
 total energy-change (2. order) :-0.7010406E+03  (-0.6320571E+03)
 number of electron    1042.9999502 magnetization 
 augmentation part      118.4842802 magnetization 

 Free energy of the ion-electron system (eV)
  ---------------------------------------------------
  alpha Z        PSCENC =      5376.25786726
  Ewald energy   TEWEN  =    -86680.01120101
  -Hartree energ DENC   =     -2076.10427674
  -exchange      EXHF   =         0.00000000
  -V(xc)+E(xc)   XCENC  =      2756.10346893
  PAW double counting   =    331884.64498368  -360634.79018049
  entropy T*S    EENTRO =        -0.04857486
  eigenvalues    EBANDS =    -90792.29272858
  atomic energy  EATOM  =    131500.23896116
  ---------------------------------------------------
  free energy    TOTEN  =    -68666.00168066 eV

  energy without entropy =   -68665.95310580  energy(sigma->0) =   -68665.97739323
  exchange ACFDT corr.  =         0.00000000  see jH, gK, PRB 81, 115126


--------------------------------------------------------------------------------------------------------




--------------------------------------- Iteration      1(   5)  ---------------------------------------


    POTLOK:  cpu time      1.4016: real time      1.4015
    SETDIJ:  cpu time      0.4462: real time      0.4461
    TRIAL :  cpu time    229.0025: real time    229.0415
    CORREC:  cpu time      0.0015: real time      0.0015
    CHARGE:  cpu time      0.2061: real time      0.2061
    --------------------------------------------
      LOOP:  cpu time    231.0581: real time    231.0974

 eigenvalue-minimisations  : 17824
 total energy-change (2. order) : 0.2959099E+05  (-0.7044430E+02)
 number of electron    1042.9998788 magnetization 
 augmentation part      476.4747686 magnetization 

 Free energy of the ion-electron system (eV)
  ---------------------------------------------------
  alpha Z        PSCENC =      5376.25786726
  Ewald energy   TEWEN  =    -86680.01120101
  -Hartree energ DENC   =     -2076.10427674
  -exchange      EXHF   =      4714.49640036
  -V(xc)+E(xc)   XCENC  =      1905.21782242
  PAW double counting   =    333094.03978665  -335086.60222562
  entropy T*S    EENTRO =        -0.02910803
  eigenvalues    EBANDS =    -91822.51506258
  atomic energy  EATOM  =    131500.23896116
  ---------------------------------------------------
  free energy    TOTEN  =    -39075.01103614 eV

  energy without entropy =   -39074.98192810  energy(sigma->0) =   -39074.99648212
  exchange ACFDT corr.  =        -0.64771912  see jH, gK, PRB 81, 115126


--------------------------------------------------------------------------------------------------------




--------------------------------------- Iteration      1(   6)  ---------------------------------------


    POTLOK:  cpu time      1.4256: real time      1.4254
    SETDIJ:  cpu time      0.4237: real time      0.4236
    TRIAL :  cpu time    227.6351: real time    227.6522
    CORREC:  cpu time    230.8944: real time    230.9028
    CHARGE:  cpu time      0.2066: real time      0.2066
    --------------------------------------------
      LOOP:  cpu time    460.5856: real time    460.6112

 eigenvalue-minimisations  :     0
 total energy-change (2. order) : 0.6924755E+05  (-0.2276174E+05)
 number of electron    1042.9998053 magnetization 
 augmentation part      453.9766220 magnetization 

 Free energy of the ion-electron system (eV)
  ---------------------------------------------------
  alpha Z        PSCENC =      5376.25786726
  Ewald energy   TEWEN  =    -86680.01120101
  -Hartree energ DENC   =    -78860.60770075
  -exchange      EXHF   =      4812.00902103
  -V(xc)+E(xc)   XCENC  =      3733.71907196
  PAW double counting   =    149950.83393919  -174770.78220810
  entropy T*S    EENTRO =        -0.03540420
  eigenvalues    EBANDS =     75110.90785233
  atomic energy  EATOM  =    131500.23896116
  ---------------------------------------------------
  free energy    TOTEN  =     30172.53649504 eV

  energy without entropy =    30172.57189924  energy(sigma->0) =    30172.55419714
  exchange ACFDT corr.  =        -0.60718826  see jH, gK, PRB 81, 115126


--------------------------------------------------------------------------------------------------------




--------------------------------------- Iteration      1(   7)  ---------------------------------------


    POTLOK:  cpu time      1.4798: real time      1.4796
    SETDIJ:  cpu time      0.4650: real time      0.4649
    TRIAL :  cpu time    228.8605: real time    228.8790
    CORREC:  cpu time    230.0513: real time    230.0669
    CHARGE:  cpu time      0.2045: real time      0.2045
    --------------------------------------------
      LOOP:  cpu time    461.0613: real time    461.0955

 eigenvalue-minimisations  :     0
 total energy-change (2. order) :-0.2045619E+05  (-0.5121156E+04)
 number of electron    1042.9998179 magnetization 
 augmentation part      423.0004966 magnetization 

 Free energy of the ion-electron system (eV)
  ---------------------------------------------------
  alpha Z        PSCENC =      5376.25786726
  Ewald energy   TEWEN  =    -86680.01120101
  -Hartree energ DENC   =    -39668.59839172
  -exchange      EXHF   =      3664.51736526
  -V(xc)+E(xc)   XCENC  =      2848.20351777
  PAW double counting   =    149955.38504608  -167064.55201304
  entropy T*S    EENTRO =        -0.02427527
  eigenvalues    EBANDS =      9784.94279847
  atomic energy  EATOM  =    131500.23896116
  ---------------------------------------------------
  free energy    TOTEN  =      9716.34854602 eV

  energy without entropy =     9716.37282130  energy(sigma->0) =     9716.36068366
  exchange ACFDT corr.  =      -145.55961520  see jH, gK, PRB 81, 115126


--------------------------------------------------------------------------------------------------------




--------------------------------------- Iteration      1(   8)  ---------------------------------------


    POTLOK:  cpu time      1.5207: real time      1.5206
    SETDIJ:  cpu time      0.4235: real time      0.4234
    TRIAL :  cpu time    228.7393: real time    228.7306
    CORREC:  cpu time    230.1853: real time    230.1795
    CHARGE:  cpu time      0.2072: real time      0.2072
    --------------------------------------------
      LOOP:  cpu time    461.0764: real time    461.0670

 eigenvalue-minimisations  :     0
 total energy-change (2. order) :-0.4959476E+04  (-0.2799641E+04)
 number of electron    1042.9998131 magnetization 
 augmentation part      433.3318789 magnetization 

 Free energy of the ion-electron system (eV)
  ---------------------------------------------------
  alpha Z        PSCENC =      5376.25786726
  Ewald energy   TEWEN  =    -86680.01120101
  -Hartree energ DENC   =    -29938.17398654
  -exchange      EXHF   =      3401.90914126
  -V(xc)+E(xc)   XCENC  =      2647.13358421
  PAW double counting   =    140066.58656833  -154190.75259330
  entropy T*S    EENTRO =        -0.02215753
  eigenvalues    EBANDS =     -7426.29130961
  atomic energy  EATOM  =    131500.23896116
  ---------------------------------------------------
  free energy    TOTEN  =      4756.87275649 eV

  energy without entropy =     4756.89491402  energy(sigma->0) =     4756.88383526
  exchange ACFDT corr.  =      -105.60269566  see jH, gK, PRB 81, 115126


--------------------------------------------------------------------------------------------------------




--------------------------------------- Iteration      1(   9)  ---------------------------------------


    POTLOK:  cpu time      1.4672: real time      1.4670
    SETDIJ:  cpu time      0.4628: real time      0.4627
    TRIAL :  cpu time    228.3266: real time    228.3293
    CORREC:  cpu time    230.0713: real time    230.0839
    CHARGE:  cpu time      0.2052: real time      0.2052
    --------------------------------------------
      LOOP:  cpu time    460.5334: real time    460.5489

 eigenvalue-minimisations  :     0
 total energy-change (2. order) :-0.2355867E+04  (-0.1553353E+04)
 number of electron    1042.9998127 magnetization 
 augmentation part      449.4824377 magnetization 

 Free energy of the ion-electron system (eV)
  ---------------------------------------------------
  alpha Z        PSCENC =      5376.25786726
  Ewald energy   TEWEN  =    -86680.01120101
  -Hartree energ DENC   =    -30216.15243527
  -exchange      EXHF   =      3449.97026818
  -V(xc)+E(xc)   XCENC  =      2681.00429664
  PAW double counting   =    139334.97072966  -154005.01849166
  entropy T*S    EENTRO =        -0.02141680
  eigenvalues    EBANDS =     -9040.23192446
  atomic energy  EATOM  =    131500.23896116
  ---------------------------------------------------
  free energy    TOTEN  =      2401.00591296 eV

  energy without entropy =     2401.02732976  energy(sigma->0) =     2401.01662136
  exchange ACFDT corr.  =       -31.37941968  see jH, gK, PRB 81, 115126


--------------------------------------------------------------------------------------------------------




--------------------------------------- Iteration      1(  10)  ---------------------------------------


    POTLOK:  cpu time      1.5173: real time      1.5171
    SETDIJ:  cpu time      0.4259: real time      0.4258
    TRIAL :  cpu time    228.0722: real time    228.0846
    CORREC:  cpu time    229.9183: real time    229.9424
    CHARGE:  cpu time      0.2094: real time      0.2093
    --------------------------------------------
      LOOP:  cpu time    460.1434: real time    460.1799

 eigenvalue-minimisations  :     0
 total energy-change (2. order) :-0.1486367E+04  (-0.9377817E+03)
 number of electron    1042.9998142 magnetization 
 augmentation part      452.8594313 magnetization 

 Free energy of the ion-electron system (eV)
  ---------------------------------------------------
  alpha Z        PSCENC =      5376.25786726
  Ewald energy   TEWEN  =    -86680.01120101
  -Hartree energ DENC   =    -32497.02950964
  -exchange      EXHF   =      3603.82271944
  -V(xc)+E(xc)   XCENC  =      2785.96931969
  PAW double counting   =    142573.11275935  -158224.68406994
  entropy T*S    EENTRO =        -0.00393825
  eigenvalues    EBANDS =     -7523.01624070
  atomic energy  EATOM  =    131500.23896116
  ---------------------------------------------------
  free energy    TOTEN  =       914.63918880 eV

  energy without entropy =      914.64312706  energy(sigma->0) =      914.64115793
  exchange ACFDT corr.  =        -0.50622857  see jH, gK, PRB 81, 115126


--------------------------------------------------------------------------------------------------------




--------------------------------------- Iteration      1(  11)  ---------------------------------------


    POTLOK:  cpu time      1.5101: real time      1.5099
    SETDIJ:  cpu time      0.4376: real time      0.4376
    TRIAL :  cpu time    228.0398: real time    228.0408
    CORREC:  cpu time    229.6764: real time    229.6885
    CHARGE:  cpu time      0.2047: real time      0.2046
    --------------------------------------------
[...]
   -.298E-04 0.623E+02 -.573E+02   0.576E-10 -.606E+02 0.591E+02   0.000E+00 -.156E+01 -.172E+01
   0.225E+02 0.377E+02 -.116E+02   -.212E+02 -.366E+02 0.130E+02   -.112E+01 -.100E+01 -.130E+01
   0.237E+01 0.705E+02 -.595E+02   -.252E+01 -.689E+02 0.617E+02   0.115E+00 -.145E+01 -.200E+01
   -.225E+02 0.377E+02 -.116E+02   0.212E+02 -.366E+02 0.130E+02   0.112E+01 -.100E+01 -.130E+01
   -.237E+01 0.705E+02 -.595E+02   0.252E+01 -.689E+02 0.617E+02   -.115E+00 -.145E+01 -.200E+01
   0.410E-04 0.444E+02 0.106E+03   0.653E-11 -.371E+02 -.113E+03   0.000E+00 -.620E+01 0.627E+01
   0.870E-05 -.202E+02 -.831E+02   0.321E-10 0.302E+02 0.817E+02   0.000E+00 -.867E+01 0.122E+01
   0.216E+02 -.807E+01 0.457E+02   -.219E+02 0.155E+02 -.489E+02   0.220E+00 -.638E+01 0.272E+01
   0.839E+01 -.223E+02 -.344E+02   -.679E+01 0.312E+02 0.312E+02   -.138E+01 -.770E+01 0.273E+01
   -.216E+02 -.807E+01 0.457E+02   0.219E+02 0.155E+02 -.489E+02   -.220E+00 -.638E+01 0.272E+01
   -.839E+01 -.223E+02 -.344E+02   0.679E+01 0.312E+02 0.312E+02   0.138E+01 -.770E+01 0.273E+01
   -.527E+01 -.805E+01 -.316E+02   0.418E+01 -.413E+00 0.367E+02   0.951E+00 0.730E+01 -.439E+01
   -.809E+01 0.146E+02 -.192E+01   0.842E+01 -.221E+02 0.534E+01   -.283E+00 0.648E+01 -.295E+01
   0.527E+01 -.805E+01 -.316E+02   -.418E+01 -.413E+00 0.367E+02   -.951E+00 0.730E+01 -.439E+01
   0.809E+01 0.146E+02 -.192E+01   -.842E+01 -.221E+02 0.534E+01   0.283E+00 0.648E+01 -.295E+01
   0.136E-05 0.837E+01 -.147E+02   0.862E-11 -.165E+02 0.185E+02   0.000E+00 0.701E+01 -.327E+01
   0.341E-04 0.196E+02 -.120E+02   0.344E-11 -.273E+02 0.162E+02   0.000E+00 0.655E+01 -.367E+01
   -.264E-04 -.982E+02 0.322E+02   0.126E-10 0.881E+02 -.187E+02   0.000E+00 0.873E+01 -.117E+02
   0.471E-05 0.546E+02 0.379E+02   0.232E-10 -.527E+02 -.329E+02   0.000E+00 -.164E+01 -.434E+01
   0.402E+02 0.316E+02 0.730E+02   -.404E+02 -.294E+02 -.690E+02   0.163E+00 -.193E+01 -.348E+01
   -.821E+00 0.505E+02 0.395E+02   0.157E+01 -.482E+02 -.356E+02   -.649E+00 -.207E+01 -.335E+01
   -.402E+02 0.316E+02 0.730E+02   0.404E+02 -.294E+02 -.690E+02   -.163E+00 -.193E+01 -.348E+01
   0.821E+00 0.505E+02 0.395E+02   -.157E+01 -.482E+02 -.356E+02   0.649E+00 -.207E+01 -.335E+01
   -.162E+03 -.804E+02 0.924E+02   0.168E+03 0.795E+02 -.991E+02   -.494E+01 0.759E+00 0.577E+01
   -.783E+01 -.756E+02 -.599E+02   0.801E+01 0.724E+02 0.545E+02   -.147E+00 0.279E+01 0.464E+01
   0.162E+03 -.804E+02 0.924E+02   -.168E+03 0.795E+02 -.991E+02   0.494E+01 0.759E+00 0.577E+01
   0.783E+01 -.756E+02 -.599E+02   -.801E+01 0.724E+02 0.545E+02   0.147E+00 0.279E+01 0.464E+01
   -.137E-04 -.692E+02 -.155E+02   0.196E-10 0.666E+02 0.128E+02   0.000E+00 0.228E+01 0.225E+01
   -.623E-04 -.828E+02 -.512E+02   0.219E-10 0.811E+02 0.457E+02   0.000E+00 0.139E+01 0.474E+01
   -.665E+02 0.254E+02 -.689E+02   0.519E+02 -.388E+02 0.666E+02   0.127E+02 0.115E+02 0.198E+01
   -.108E+02 0.119E+03 0.917E+02   0.103E+02 -.131E+03 -.888E+02   0.458E+00 0.108E+02 -.248E+01
   0.665E+02 0.254E+02 -.689E+02   -.519E+02 -.388E+02 0.666E+02   -.127E+02 0.115E+02 0.198E+01
   0.108E+02 0.119E+03 0.917E+02   -.103E+02 -.131E+03 -.888E+02   -.458E+00 0.108E+02 -.248E+01
   -.439E-04 0.964E+02 0.542E+02   0.241E-10 -.108E+03 -.504E+02   0.000E+00 0.978E+01 -.326E+01
   -.526E-04 0.123E+03 0.726E+02   0.220E-10 -.137E+03 -.694E+02   0.000E+00 0.116E+02 -.282E+01
   0.255E-04 -.140E+03 0.135E+02   0.292E-10 0.152E+03 -.160E+02   0.000E+00 -.102E+02 0.216E+01
   -.508E-05 -.157E+03 -.948E+02   0.275E-10 0.170E+03 0.909E+02   0.000E+00 -.108E+02 0.340E+01
   0.101E+02 -.127E+03 -.453E+02   -.910E+01 0.139E+03 0.430E+02   -.839E+00 -.105E+02 0.194E+01
   0.129E+02 -.154E+03 -.873E+02   -.135E+02 0.166E+03 0.837E+02   0.459E+00 -.110E+02 0.308E+01
   -.101E+02 -.127E+03 -.453E+02   0.910E+01 0.139E+03 0.430E+02   0.839E+00 -.105E+02 0.194E+01
   -.129E+02 -.154E+03 -.873E+02   0.135E+02 0.166E+03 0.837E+02   -.459E+00 -.110E+02 0.308E+01
   -.216E+02 -.386E+02 0.497E+02   0.214E+02 0.447E+02 -.542E+02   0.124E+00 -.525E+01 0.393E+01
   -.736E+00 -.170E+02 0.659E+00   0.667E+00 0.236E+02 -.428E+01   0.621E-01 -.568E+01 0.313E+01
   0.216E+02 -.386E+02 0.497E+02   -.214E+02 0.447E+02 -.542E+02   -.124E+00 -.525E+01 0.393E+01
   0.736E+00 -.170E+02 0.659E+00   -.667E+00 0.236E+02 -.428E+01   -.621E-01 -.568E+01 0.313E+01
   -.108E-06 -.175E+02 0.281E+02   0.110E-10 0.242E+02 -.318E+02   0.000E+00 -.574E+01 0.319E+01
   0.337E-04 -.193E+02 -.220E+01   0.356E-10 0.263E+02 -.124E+01   0.000E+00 -.601E+01 0.297E+01
   0.659E-05 0.184E+02 -.153E+02   0.307E-10 -.253E+02 0.192E+02   0.000E+00 0.587E+01 -.339E+01
   0.760E+02 -.886E+00 0.124E+02   -.788E+02 0.434E+00 -.120E+02   0.247E+01 0.353E+00 -.365E+00
   0.324E+01 0.130E+02 -.246E+02   -.308E+01 -.196E+02 0.290E+02   -.141E+00 0.563E+01 -.375E+01
   -.760E+02 -.886E+00 0.124E+02   0.788E+02 0.434E+00 -.120E+02   -.247E+01 0.353E+00 -.365E+00
   -.324E+01 0.130E+02 -.246E+02   0.308E+01 -.196E+02 0.290E+02   0.141E+00 0.563E+01 -.375E+01
   0.147E+02 0.134E+03 0.772E+02   -.164E+02 -.136E+03 -.762E+02   0.146E+01 0.160E+01 -.797E+00
   0.920E+00 0.819E+02 0.146E+02   -.131E+01 -.802E+02 -.923E+01   0.340E+00 -.147E+01 -.461E+01
   -.147E+02 0.134E+03 0.772E+02   0.164E+02 -.136E+03 -.762E+02   -.146E+01 0.160E+01 -.797E+00
   -.920E+00 0.819E+02 0.146E+02   0.131E+01 -.802E+02 -.923E+01   -.340E+00 -.147E+01 -.461E+01
   -.250E-04 0.947E+02 0.651E+02   0.609E-11 -.927E+02 -.611E+02   0.000E+00 -.169E+01 -.345E+01
   0.562E-04 0.820E+02 0.102E+02   0.232E-10 -.809E+02 -.447E+01   0.000E+00 -.933E+00 -.492E+01
   -.473E-05 -.656E+02 -.301E+02   -.260E-12 0.635E+02 0.252E+02   0.000E+00 0.179E+01 0.429E+01
   -.591E-04 -.567E+02 -.455E+02   0.135E-10 0.553E+02 0.405E+02   0.000E+00 0.123E+01 0.436E+01
   0.251E+01 -.596E+02 -.300E+02   -.240E+01 0.577E+02 0.253E+02   -.927E-01 0.160E+01 0.402E+01
   0.160E+01 -.473E+02 -.508E+02   -.167E+01 0.450E+02 0.459E+02   0.646E-01 0.198E+01 0.419E+01
   -.251E+01 -.596E+02 -.300E+02   0.240E+01 0.577E+02 0.253E+02   0.927E-01 0.160E+01 0.402E+01
   -.160E+01 -.473E+02 -.508E+02   0.167E+01 0.450E+02 0.459E+02   -.646E-01 0.198E+01 0.419E+01
   -.928E-05 0.132E+03 0.533E+02   0.508E-11 -.144E+03 -.498E+02   0.000E+00 0.103E+02 -.299E+01
   -.249E-04 0.123E+03 0.709E+02   0.164E-11 -.135E+03 -.675E+02   0.000E+00 0.105E+02 -.298E+01
   0.429E+01 0.146E+03 0.546E+02   -.443E+01 -.158E+03 -.511E+02   0.123E+00 0.107E+02 -.295E+01
   0.338E+00 0.124E+03 0.675E+02   -.721E-02 -.136E+03 -.643E+02   -.287E+00 0.105E+02 -.278E+01
   -.429E+01 0.146E+03 0.546E+02   0.443E+01 -.158E+03 -.511E+02   -.123E+00 0.107E+02 -.295E+01
   -.338E+00 0.124E+03 0.675E+02   0.721E-02 -.136E+03 -.643E+02   0.287E+00 0.105E+02 -.278E+01
   -.569E+01 -.103E+03 -.499E+02   0.545E+01 0.116E+03 0.459E+02   0.210E+00 -.105E+02 0.343E+01
   0.166E+02 -.778E+02 -.132E+03   -.180E+02 0.895E+02 0.134E+03   0.119E+01 -.101E+02 -.182E+01
   0.569E+01 -.103E+03 -.499E+02   -.545E+01 0.116E+03 0.459E+02   -.210E+00 -.105E+02 0.343E+01
   -.166E+02 -.778E+02 -.132E+03   0.180E+02 0.895E+02 0.134E+03   -.119E+01 -.101E+02 -.182E+01
   0.109E-05 -.114E+03 -.518E+02   0.114E-10 0.126E+03 0.479E+02   0.000E+00 -.107E+02 0.331E+01
   -.432E-04 -.979E+02 -.959E+02   0.258E-10 0.110E+03 0.934E+02   0.000E+00 -.104E+02 0.219E+01
   -.310E-04 -.141E+03 -.243E+02   0.100E-10 0.161E+03 0.333E+02   0.000E+00 -.198E+02 -.899E+01
 -----------------------------------------------------------------------------------------------
   -.496E-03 0.331E+02 0.657E+01   -.977E-13 -.682E-12 0.405E-12   -.222E-15 -.305E+02 -.749E+01
 
 
 POSITION                                       TOTAL-FORCE (eV/Angst)
 -----------------------------------------------------------------------------------
      9.08365      7.72328     -1.72273        -0.147995      0.174640      0.100735
      9.13560      6.27965     -7.44255        -0.000605      0.056764     -0.012257
      3.10662      7.72328     -1.72273         0.147995      0.174640      0.100735
      3.05467      6.27965     -7.44255         0.000605      0.056764     -0.012257
      6.09513      7.67290     -1.76026         0.000000      0.046713      0.064163
      6.09513      6.30738     -7.40494         0.000000      0.065499     -0.023071
      1.52378      7.99695     -9.56015         0.000000     -0.072903     -0.022145
      4.57970      9.45292     -3.79133         0.080960     -0.012261      0.223431
      4.57031      8.01172     -9.53711         0.008808     -0.062140     -0.026152
      7.61057      9.45292     -3.79133        -0.080960     -0.012261      0.223431
      7.61996      8.01172     -9.53711        -0.008808     -0.062140     -0.026152
      1.52378      6.13528     -4.54859         0.000000     -0.057197     -0.087885
      1.52378      4.78174    -10.16976         0.000000     -0.040103      0.046441
      4.57494      6.17861     -4.49157         0.012161     -0.019657      0.026355
      4.58313      4.76266    -10.10274         0.005456     -0.020670     -0.017425
      7.61532      6.17861     -4.49157        -0.012161     -0.019657      0.026355
      7.60714      4.76266    -10.10274        -0.005456     -0.020670     -0.017425
      9.13161     10.91475     -1.17020        -0.046477     -0.041822     -0.053567
      0.00879      9.51148     -6.86290         0.019398      0.047462     -0.095342
      3.05866     10.91475     -1.17020         0.046477     -0.041822     -0.053567
      3.03877      9.51148     -6.86290        -0.019398      0.047462     -0.095342
      6.09513     10.92545     -1.12690         0.000000      0.022198     -0.005124
      6.09513      9.49477     -6.78241         0.000000      0.067520     -0.034857
      1.52378      1.55359     -1.79368         0.000000      0.070267     -0.052701
      1.52378      0.18907     -7.41223         0.000000      0.097348      0.086710
      4.56689      1.54714     -1.79071        -0.022267      0.044983     -0.028104
      4.56163      0.15088     -7.38250        -0.023724      0.099327      0.080450
      7.62338      1.54714     -1.79071         0.022267      0.044983     -0.028104
      7.62864      0.15088     -7.38250         0.023724      0.099327      0.080450
      9.13806      3.23422     -3.88835        -0.010222     -0.131039     -0.001008
      9.14222      1.85552     -9.53773        -0.000299     -0.071019     -0.000208
      3.05221      3.23422     -3.88835         0.010222     -0.131039     -0.001008
      3.04805      1.85552     -9.53773         0.000299     -0.071019     -0.000208
      6.09513      3.24550     -3.89146         0.000000     -0.075833     -0.019065
      6.09513      1.83326     -9.52804         0.000000     -0.058376      0.018497
      0.28736     -0.03147     -4.47166        -0.357376      0.359516     -0.113296
      0.00009     -1.34665    -10.15134        -0.003953     -0.006081      0.014319
      2.76020     -0.03147     -4.47166         0.357376      0.359516     -0.113296
      3.04748     -1.34665    -10.15134         0.003953     -0.006081      0.014319
      6.09513     -0.02407     -4.46943         0.000000      0.148544     -0.067884
      6.09513     -1.34472    -10.15264         0.000000     -0.013171      0.037690
      1.52378      4.77925     -1.17451         0.000000     -0.012231     -0.018834
      1.52378      3.37283     -6.82115         0.000000      0.002002     -0.007245
      4.56308      4.76740     -1.16970         0.041956     -0.004317     -0.020902
      4.57724      3.36576     -6.81592        -0.010010      0.003473      0.007921
      7.62719      4.76740     -1.16970        -0.041956     -0.004317     -0.020902
      7.61303      3.36576     -6.81592         0.010010      0.003473      0.007921
      1.52378     11.87362     -1.55507         0.000000     -0.156157      0.242372
      1.52378     10.53922     -7.03280         0.000000     -0.290294      0.041656
      4.58037     11.93032     -1.41626         0.007794     -0.185538      0.100244
      4.56480     10.49460     -7.05632        -0.038216     -0.231475      0.097115
      7.60990     11.93032     -1.41626        -0.007794     -0.185538      0.100244
      7.62547     10.49460     -7.05632         0.038216     -0.231475      0.097115
      0.00003      5.17694     -4.20501         0.039961      0.227656     -0.152158
      0.00482      3.77506     -9.87389        -0.011092      0.176074     -0.107282
      3.04754      5.17694     -4.20501        -0.039961      0.227656     -0.152158
      3.04275      3.77506     -9.87389         0.011092      0.176074     -0.107282
      6.09513      5.17195     -4.21966         0.000000      0.211019     -0.121740
      6.09513      3.75166     -9.81561         0.000000      0.188628     -0.129785
      1.52378      7.66693     -3.36965         0.000000      0.397137     -0.435899
      1.52378      6.10867     -8.85048         0.000000     -0.036793     -0.119709
      4.57919      7.51511     -3.18215         0.009008     -0.051717     -0.098185
      4.57221      6.11800     -8.81120        -0.022968     -0.051360     -0.080720
      7.61108      7.51511     -3.18215        -0.009008     -0.051717     -0.098185
      7.61806      6.11800     -8.81120         0.022968     -0.051360     -0.080720
      8.96566      9.53790     -2.38384        -0.266701     -0.030656      0.198096
      0.00951      8.17724     -8.14809        -0.006489      0.079882      0.140163
      3.22461      9.53790     -2.38384         0.266701     -0.030656      0.198096
      3.03806      8.17724     -8.14809         0.006489      0.079882      0.140163
      6.09513      9.59685     -2.44390         0.000000      0.058438      0.039136
      6.09513      8.18953     -8.12257         0.000000      0.022992      0.148942
      0.15730      8.90534     -5.07160         0.492121      0.394054      0.139644
      9.14266      7.62365    -10.70162         0.014397      0.399517     -0.052948
      2.89027      8.90534     -5.07160        -0.492121      0.394054      0.139644
      3.04761      7.62365    -10.70162        -0.014397      0.399517     -0.052948
      6.09513      9.06089     -4.98913         0.000000      0.352745     -0.068879
      6.09513      7.61205    -10.67378         0.000000      0.426441     -0.067394
      1.52378      8.05201     -0.65843         0.000000     -0.384286      0.055476
      1.52378      6.65478     -6.30490         0.000000     -0.381390      0.112523
      4.61195      8.02986     -0.56552        -0.036260     -0.378387      0.027866
      4.56173      6.71724     -6.25737         0.016598     -0.411915      0.079358
      7.57832      8.02986     -0.56552         0.036260     -0.378387      0.027866
      7.62854      6.71724     -6.25737        -0.016598     -0.411915      0.079358
      0.00563      5.80011     -1.48253         0.007665     -0.149456      0.137896
      9.13682      4.37428     -7.10068         0.004878     -0.141577      0.112239
      3.04194      5.80011     -1.48253        -0.007665     -0.149456      0.137896
      3.05345      4.37428     -7.10068        -0.004878     -0.141577      0.112239
      6.09513      5.76051     -1.45059         0.000000     -0.149869      0.107561
      6.09513      4.39281     -7.08468         0.000000     -0.163722      0.105894
      1.52378     -2.36232     -9.86087         0.000000      0.162011     -0.118743
      4.45544     -0.96009     -4.23416         0.085277     -0.041297     -0.016454
      4.57112     -2.35379     -9.84784        -0.007281      0.149784     -0.134505
      7.73482     -0.96009     -4.23416        -0.085277     -0.041297     -0.016454
      7.61915     -2.35379     -9.84784         0.007281      0.149784     -0.134505
      9.13245      1.37259     -3.16166         0.040851      0.088646      0.013542
      0.00461     -0.03111     -8.82072         0.013040     -0.032558     -0.131931
      3.05782      1.37259     -3.16166        -0.040851      0.088646      0.013542
      3.04295     -0.03111     -8.82072        -0.013040     -0.032558     -0.131931
      6.09513      1.34396     -3.17979         0.000000     -0.036613     -0.080796
      6.09513     -0.04108     -8.80253         0.000000     -0.009452     -0.150023
      1.52378      3.45518     -2.49169         0.000000      0.049833      0.123555
      1.52378      2.05892     -8.15114         0.000000      0.019387      0.121140
      4.57528      3.44410     -2.49205        -0.004514      0.045051      0.117163
      4.57249      2.03560     -8.13158         0.003576      0.052678      0.115600
      7.61499      3.44410     -2.49205         0.004514      0.045051      0.117163
      7.61778      2.03560     -8.13158        -0.003576      0.052678      0.115600
      1.52378      2.88868     -5.04787         0.000000      0.388465     -0.072753
      1.52378      1.48947    -10.70869         0.000000      0.381504     -0.079492
      4.57494      2.88241     -5.04572         0.007615      0.399590     -0.071654
      4.56611      1.47823    -10.70153        -0.009952      0.385706     -0.068612
      7.61533      2.88241     -5.04572        -0.007615      0.399590     -0.071654
      7.62416      1.47823    -10.70153         0.009952      0.385706     -0.068612
      0.00879      1.92420     -0.61564         0.008060     -0.384428      0.085635
      9.14250      0.54218     -6.26245         0.022784     -0.376598     -0.111774
      3.03878      1.92420     -0.61564        -0.008060     -0.384428      0.085635
      3.04777      0.54218     -6.26245        -0.022784     -0.376598     -0.111774
      6.09513      1.94286     -0.61992         0.000000     -0.399380      0.085503
      6.09513      0.50137     -6.24011         0.000000     -0.382943      0.042705
      1.52378      9.22839     -4.10296         0.000000     -1.155647     -0.542510
 -----------------------------------------------------------------------------------
    total drift:                               -0.000496      0.119140     -0.095872


--------------------------------------------------------------------------------------------------------



  FREE ENERGIE OF THE ION-ELECTRON SYSTEM (eV)
  ---------------------------------------------------
  free  energy   TOTEN  =      -940.06721781 eV

  energy  without entropy=     -940.05941529  energy(sigma->0) =     -940.06331655
 


--------------------------------------------------------------------------------------------------------


    POTLOK:  cpu time      1.9378: real time      1.9454


--------------------------------------------------------------------------------------------------------


 writing wavefunctions
     LOOP+:  cpu time  18056.8562: real time  18059.6647
    4ORBIT:  cpu time      0.0000: real time      0.0000

 total amount of memory used by VASP MPI-rank0  7418463. kBytes
=======================================================================

   base      :      30000. kBytes
   nonlr-proj:      46561. kBytes
   fftplans  :      51012. kBytes
   grid      :     102973. kBytes
   one-center:       1850. kBytes
   HF        :        194. kBytes
   wavefun   :    6956640. kBytes
   fock_wrk  :     229233. kBytes
 
  
  
 General timing and accounting informations for this job:
 ========================================================
  
                  Total CPU time used (sec):    18088.297
                            User time (sec):    18074.037
                          System time (sec):       14.260
                         Elapsed time (sec):    18093.481
  
                   Maximum memory used (kb):    13197504.
                   Average memory used (kb):          N/A
  
                          Minor page faults:      4717246
                          Major page faults:            4
                 Voluntary context switches:       348697
