<?xml version="1.0" encoding="ISO-8859-1"?>
<modeling>
 <generator>
  <i name="program" type="string">vasp </i>
  <i name="version" type="string">6.4.2  </i>
  <i name="subversion" type="string">20Jul23 (build Nov 12 2023 22:16:35) complex                          parallel </i>
  <i name="platform" type="string">LinuxNV </i>
  <i name="date" type="string">2025 03 29 </i>
  <i name="time" type="string">00:39:08 </i>
 </generator>
 <incar>
  <i type="int" name="ISTART">     0</i>
  <i type="string" name="PREC">Normal</i>
  <i type="string" name="ALGO">All</i>
  <i type="int" name="ISPIN">     1</i>
  <i type="int" name="ICHARG">     0</i>
  <i type="int" name="NELM">   500</i>
  <i type="int" name="IBRION">    -1</i>
  <i name="EDIFF">      0.00001000</i>
  <i name="EDIFFG">     -0.00500000</i>
  <i type="int" name="NSW">     0</i>
  <i type="int" name="ISIF">     2</i>
  <i name="ENCUT">    450.00000000</i>
  <i name="NELECT">   1043.00000000</i>
  <i type="string" name="LREAL">Auto</i>
  <i type="logical" name="LPLANE"> T  </i>
  <i name="TIME">      0.40000000</i>
  <i type="int" name="ISMEAR">     0</i>
  <i name="SIGMA">      0.05000000</i>
  <i type="logical" name="LWAVE"> T  </i>
  <i type="logical" name="LCHARG"> T  </i>
  <i name="HFSCREEN">      0.20000000</i>
  <i type="logical" name="LHFCALC"> T  </i>
  <i type="int" name="LMAXFOCK">     4</i>
  <i name="AEXX">      0.32000000</i>
  <i type="string" name="PRECFOCK">Fast</i>
 </incar>
 <primitive_cell>
  <structure name="primitive_cell" >
   <crystal>
    <varray name="basis" >
     <v>       0.00000000      12.28047342       0.00000000 </v>
     <v>       9.14270205       0.00000000       0.00000000 </v>
     <v>       0.00000000      -2.76826177     -11.30069772 </v>
    </varray>
    <i name="volume">   1268.80515525 </i>
    <varray name="rec_basis" >
     <v>       0.00000000       0.08143009      -0.01994742 </v>
     <v>       0.10937686      -0.00000000       0.00000000 </v>
     <v>       0.00000000       0.00000000      -0.08849011 </v>
    </varray>
   </crystal>
   <varray name="positions" >
    <v>       0.66327175       0.99354137       0.15244452 </v>
    <v>       0.65981166       0.99922349       0.65859168 </v>
    <v>       0.66327175       0.33979197       0.15244452 </v>
    <v>       0.65981166       0.33410985       0.65859168 </v>
    <v>       0.65991778       0.66666667       0.15576562 </v>
    <v>       0.66131995       0.66666667       0.65526429 </v>
    <v>       0.84189272       0.16666667       0.84597865 </v>
    <v>       0.84537944       0.50091275       0.33549493 </v>
    <v>       0.84263560       0.49988660       0.84393964 </v>
    <v>       0.84537944       0.83242058       0.33549493 </v>
    <v>       0.84263560       0.83344673       0.84393964 </v>
    <v>       0.59032898       0.16666667       0.40250508 </v>
    <v>       0.59223790       0.16666667       0.89992305 </v>
    <v>       0.59272010       0.50039306       0.39745982 </v>
    <v>       0.58934753       0.50128823       0.89399229 </v>
    <v>       0.59272010       0.83294028       0.39745982 </v>
    <v>       0.58934753       0.83204510       0.89399229 </v>
    <v>       0.91213154       0.99878630       0.10355155 </v>
    <v>       0.91141765       0.00096170       0.60729908 </v>
    <v>       0.91213154       0.33454703       0.10355155 </v>
    <v>       0.91141765       0.33237163       0.60729908 </v>
    <v>       0.91213944       0.66666667       0.09971954 </v>
    <v>       0.90845173       0.66666667       0.60017579 </v>
    <v>       0.16228802       0.16666667       0.15872324 </v>
    <v>       0.16325093       0.16666667       0.65590939 </v>
    <v>       0.16170342       0.49951203       0.15845975 </v>
    <v>       0.15954795       0.49893658       0.65327783 </v>
    <v>       0.16170342       0.83382130       0.15845975 </v>
    <v>       0.15954795       0.83439675       0.65327783 </v>
    <v>       0.34092554       0.99949243       0.34408027 </v>
    <v>       0.34134846       0.99994676       0.84399519 </v>
    <v>       0.34092554       0.33384090       0.34408027 </v>
    <v>       0.34134846       0.33338657       0.84399519 </v>
    <v>       0.34190594       0.66666667       0.34435587 </v>
    <v>       0.33934196       0.66666667       0.84313689 </v>
    <v>       0.08663554       0.03143089       0.39569813 </v>
    <v>       0.09283518       0.00001002       0.89829295 </v>
    <v>       0.08663554       0.30190244       0.39569813 </v>
    <v>       0.09283518       0.33332331       0.89829295 </v>
    <v>       0.08719389       0.66666667       0.39550059 </v>
    <v>       0.09301860       0.66666667       0.89840783 </v>
    <v>       0.41260343       0.16666667       0.10393210 </v>
    <v>       0.41071370       0.16666667       0.60360392 </v>
    <v>       0.41154246       0.49909553       0.10350686 </v>
    <v>       0.41003434       0.50064460       0.60314135 </v>
    <v>       0.41154246       0.83423781       0.10350686 </v>
    <v>       0.41003434       0.83268874       0.60314135 </v>
    <v>       0.99788968       0.16666667       0.13760848 </v>
    <v>       0.99849553       0.16666667       0.62233299 </v>
    <v>       0.99973795       0.50098595       0.12532508 </v>
    <v>       0.99533131       0.49928300       0.62441423 </v>
    <v>       0.99973795       0.83234738       0.12532508 </v>
    <v>       0.99533131       0.83405034       0.62441423 </v>
    <v>       0.50543742       0.00000323       0.37210146 </v>
    <v>       0.50436178       0.00052675       0.87374162 </v>
    <v>       0.50543742       0.33333010       0.37210146 </v>
    <v>       0.50436178       0.33280658       0.87374162 </v>
    <v>       0.50532380       0.66666667       0.37339839 </v>
    <v>       0.50129403       0.66666667       0.86858413 </v>
    <v>       0.69153467       0.16666667       0.29818059 </v>
    <v>       0.67397351       0.16666667       0.78317966 </v>
    <v>       0.67543178       0.50085744       0.28158910 </v>
    <v>       0.67395028       0.50009440       0.77970426 </v>
    <v>       0.67543178       0.83247589       0.28158910 </v>
    <v>       0.67395028       0.83323893       0.77970426 </v>
    <v>       0.82422328       0.98063613       0.21094589 </v>
    <v>       0.82840705       0.00104004       0.72102541 </v>
    <v>       0.82422328       0.35269721       0.21094589 </v>
    <v>       0.82840705       0.33229329       0.72102541 </v>
    <v>       0.83022137       0.66666667       0.21626072 </v>
    <v>       0.82889876       0.66666667       0.71876753 </v>
    <v>       0.82632819       0.01720471       0.44878601 </v>
    <v>       0.83426427       0.99999527       0.94698767 </v>
    <v>       0.82632819       0.31612863       0.44878601 </v>
    <v>       0.83426427       0.33333806       0.94698767 </v>
    <v>       0.83734967       0.66666667       0.44148904 </v>
    <v>       0.83276445       0.66666667       0.94452366 </v>
    <v>       0.66880957       0.16666667       0.05826486 </v>
    <v>       0.66766560       0.16666667       0.55792131 </v>
    <v>       0.66515244       0.50444097       0.05004264 </v>
    <v>       0.67180357       0.49894739       0.55371513 </v>
    <v>       0.66515244       0.82889236       0.05004264 </v>
    <v>       0.67180357       0.83438595       0.55371513 </v>
    <v>       0.50187630       0.00061529       0.13118927 </v>
    <v>       0.49783799       0.99935693       0.62833955 </v>
    <v>       0.50187630       0.33271805       0.13118927 </v>
    <v>       0.49783799       0.33397641       0.62833955 </v>
    <v>       0.49801439       0.66666667       0.12836270 </v>
    <v>       0.49902806       0.66666667       0.62692454 </v>
    <v>       0.00433502       0.16666667       0.87258955 </v>
    <v>       0.00628050       0.48732254       0.37468172 </v>
    <v>       0.00477017       0.49997428       0.87143675 </v>
    <v>       0.00628050       0.84601079       0.37468172 </v>
    <v>       0.00477017       0.83335906       0.87143675 </v>
    <v>       0.17483705       0.99887908       0.27977575 </v>
    <v>       0.17341767       0.00050453       0.78054643 </v>
    <v>       0.17483705       0.33445426       0.27977575 </v>
    <v>       0.17341767       0.33282880       0.78054643 </v>
    <v>       0.17286768       0.66666667       0.28137957 </v>
    <v>       0.17224300       0.66666667       0.77893711 </v>
    <v>       0.33105840       0.16666667       0.22048978 </v>
    <v>       0.33025244       0.16666667       0.72129505 </v>
    <v>       0.33016339       0.50042955       0.22052142 </v>
    <v>       0.32796350       0.50012470       0.71956444 </v>
    <v>       0.33016339       0.83290379       0.22052142 </v>
    <v>       0.32796350       0.83320863       0.71956444 </v>
    <v>       0.33591758       0.16666667       0.44668662 </v>
    <v>       0.33489859       0.16666667       0.94761359 </v>
    <v>       0.33536392       0.50039253       0.44649616 </v>
    <v>       0.33384024       0.49942642       0.94697948 </v>
    <v>       0.33536392       0.83294080       0.44649616 </v>
    <v>       0.33384024       0.83390691       0.94697948 </v>
    <v>       0.16896852       0.00096124       0.05447796 </v>
    <v>       0.16906920       0.99997817       0.55416515 </v>
    <v>       0.16896852       0.33237209       0.05447796 </v>
    <v>       0.16906920       0.33335516       0.55416515 </v>
    <v>       0.17057294       0.66666667       0.05485663 </v>
    <v>       0.16530070       0.66666667       0.55218842 </v>
    <v>       0.83331206       0.16666667       0.36307153 </v>
   </varray>
  </structure>
  <varray name="primitive_index" >
   <v type="int" >        1 </v>
   <v type="int" >        2 </v>
   <v type="int" >        3 </v>
   <v type="int" >        4 </v>
   <v type="int" >        5 </v>
   <v type="int" >        6 </v>
   <v type="int" >        7 </v>
   <v type="int" >        8 </v>
   <v type="int" >        9 </v>
   <v type="int" >       10 </v>
   <v type="int" >       11 </v>
   <v type="int" >       12 </v>
   <v type="int" >       13 </v>
   <v type="int" >       14 </v>
   <v type="int" >       15 </v>
   <v type="int" >       16 </v>
   <v type="int" >       17 </v>
   <v type="int" >       18 </v>
   <v type="int" >       19 </v>
   <v type="int" >       20 </v>
   <v type="int" >       21 </v>
   <v type="int" >       22 </v>
   <v type="int" >       23 </v>
   <v type="int" >       24 </v>
   <v type="int" >       25 </v>
   <v type="int" >       26 </v>
   <v type="int" >       27 </v>
   <v type="int" >       28 </v>
   <v type="int" >       29 </v>
   <v type="int" >       30 </v>
   <v type="int" >       31 </v>
   <v type="int" >       32 </v>
   <v type="int" >       33 </v>
   <v type="int" >       34 </v>
   <v type="int" >       35 </v>
   <v type="int" >       36 </v>
   <v type="int" >       37 </v>
   <v type="int" >       38 </v>
   <v type="int" >       39 </v>
   <v type="int" >       40 </v>
   <v type="int" >       41 </v>
   <v type="int" >       42 </v>
   <v type="int" >       43 </v>
   <v type="int" >       44 </v>
   <v type="int" >       45 </v>
   <v type="int" >       46 </v>
   <v type="int" >       47 </v>
   <v type="int" >       48 </v>
   <v type="int" >       49 </v>
   <v type="int" >       50 </v>
   <v type="int" >       51 </v>
   <v type="int" >       52 </v>
   <v type="int" >       53 </v>
   <v type="int" >       54 </v>
   <v type="int" >       55 </v>
   <v type="int" >       56 </v>
   <v type="int" >       57 </v>
   <v type="int" >       58 </v>
   <v type="int" >       59 </v>
   <v type="int" >       60 </v>
   <v type="int" >       61 </v>
   <v type="int" >       62 </v>
   <v type="int" >       63 </v>
   <v type="int" >       64 </v>
   <v type="int" >       65 </v>
   <v type="int" >       66 </v>
   <v type="int" >       67 </v>
   <v type="int" >       68 </v>
   <v type="int" >       69 </v>
   <v type="int" >       70 </v>
   <v type="int" >       71 </v>
   <v type="int" >       72 </v>
   <v type="int" >       73 </v>
   <v type="int" >       74 </v>
   <v type="int" >       75 </v>
   <v type="int" >       76 </v>
   <v type="int" >       77 </v>
   <v type="int" >       78 </v>
   <v type="int" >       79 </v>
   <v type="int" >       80 </v>
   <v type="int" >       81 </v>
   <v type="int" >       82 </v>
   <v type="int" >       83 </v>
   <v type="int" >       84 </v>
   <v type="int" >       85 </v>
   <v type="int" >       86 </v>
   <v type="int" >       87 </v>
   <v type="int" >       88 </v>
   <v type="int" >       89 </v>
   <v type="int" >       90 </v>
   <v type="int" >       91 </v>
   <v type="int" >       92 </v>
   <v type="int" >       93 </v>
   <v type="int" >       94 </v>
   <v type="int" >       95 </v>
   <v type="int" >       96 </v>
   <v type="int" >       97 </v>
   <v type="int" >       98 </v>
   <v type="int" >       99 </v>
   <v type="int" >      100 </v>
   <v type="int" >      101 </v>
   <v type="int" >      102 </v>
   <v type="int" >      103 </v>
   <v type="int" >      104 </v>
   <v type="int" >      105 </v>
   <v type="int" >      106 </v>
   <v type="int" >      107 </v>
   <v type="int" >      108 </v>
   <v type="int" >      109 </v>
   <v type="int" >      110 </v>
   <v type="int" >      111 </v>
   <v type="int" >      112 </v>
   <v type="int" >      113 </v>
   <v type="int" >      114 </v>
   <v type="int" >      115 </v>
   <v type="int" >      116 </v>
   <v type="int" >      117 </v>
   <v type="int" >      118 </v>
   <v type="int" >      119 </v>
  </varray>
 </primitive_cell>
 <kpoints>
  <generation param="Gamma">
   <v type="int" name="divisions">       2        2        2 </v>
   <v name="usershift">      0.00000000       0.00000000       0.00000000 </v>
   <v name="genvec1">      0.50000000       0.00000000       0.00000000 </v>
   <v name="genvec2">      0.00000000       0.50000000       0.00000000 </v>
   <v name="genvec3">      0.00000000       0.00000000       0.50000000 </v>
   <v name="shift">      0.00000000       0.00000000       0.00000000 </v>
  </generation>
  <varray name="kpointlist" >
   <v>       0.00000000       0.00000000       0.00000000 </v>
   <v>       0.50000000       0.00000000       0.00000000 </v>
   <v>       0.00000000       0.50000000       0.00000000 </v>
   <v>       0.50000000       0.50000000       0.00000000 </v>
   <v>       0.00000000       0.00000000       0.50000000 </v>
   <v>       0.50000000       0.00000000       0.50000000 </v>
   <v>       0.00000000       0.50000000       0.50000000 </v>
   <v>       0.50000000       0.50000000       0.50000000 </v>
  </varray>
  <varray name="weights" >
   <v>       0.12500000 </v>
   <v>       0.12500000 </v>
   <v>       0.12500000 </v>
   <v>       0.12500000 </v>
   <v>       0.12500000 </v>
   <v>       0.12500000 </v>
   <v>       0.12500000 </v>
   <v>       0.12500000 </v>
  </varray>
 </kpoints>
 <parameters>
  <separator name="general" >
   <i type="string" name="SYSTEM">unknown system</i>
   <i type="logical" name="LCOMPAT"> F  </i>
  </separator>
  <separator name="electronic" >
   <i type="string" name="PREC">normal</i>
   <i name="ENMAX">    450.00000000</i>
   <i name="ENAUG">    605.39200000</i>
   <i name="EDIFF">      0.00001000</i>
   <i type="int" name="IALGO">    58</i>
   <i type="int" name="IWAVPR">    10</i>
   <i type="int" name="NBANDS">   625</i>
   <i type="int" name="NBANDSLOW">    -1</i>
   <i type="int" name="NBANDSHIGH">    -1</i>
   <i name="NELECT">   1043.00000000</i>
   <i type="int" name="TURBO">     0</i>
   <i type="int" name="IRESTART">     0</i>
   <i type="int" name="NREBOOT">     0</i>
   <i type="int" name="NMIN">     0</i>
   <i name="EREF">      0.00000000</i>
   <separator name="electronic smearing" >
    <i type="int" name="ISMEAR">     0</i>
    <i name="SIGMA">      0.05000000</i>
    <i name="KSPACING">      0.50000000</i>
    <i type="logical" name="KGAMMA"> T  </i>
    <i type="logical" name="KBLOWUP"> T  </i>
   </separator>
   <separator name="electronic projectors" >
    <i type="logical" name="LREAL"> T  </i>
    <v name="ROPT">     -0.00050000     -0.00050000     -0.00050000</v>
    <i type="int" name="LMAXPAW">  -100</i>
    <i type="int" name="LMAXMIX">     2</i>
    <i type="logical" name="NLSPLINE"> F  </i>
   </separator>
   <separator name="electronic startup" >
    <i type="int" name="ISTART">     0</i>
    <i type="int" name="ICHARG">     0</i>
    <i type="int" name="INIWAV">     1</i>
   </separator>
   <separator name="electronic spin" >
    <i type="int" name="ISPIN">     1</i>
    <i type="logical" name="LNONCOLLINEAR"> F  </i>
    <v name="MAGMOM">      1.00000000      1.00000000      1.00000000      1.00000000      1.00000000      1.00000000      1.00000000      1.00000000      1.00000000      1.00000000      1.00000000      1.00000000      1.00000000      1.00000000      1.00000000      1.00000000      1.00000000      1.00000000      1.00000000      1.00000000
      1.00000000      1.00000000      1.00000000      1.00000000      1.00000000      1.00000000      1.00000000      1.00000000      1.00000000      1.00000000      1.00000000      1.00000000      1.00000000      1.00000000      1.00000000      1.00000000      1.00000000      1.00000000      1.00000000      1.00000000
      1.00000000      1.00000000      1.00000000      1.00000000      1.00000000      1.00000000      1.00000000      1.00000000      1.00000000      1.00000000      1.00000000      1.00000000      1.00000000      1.00000000      1.00000000      1.00000000      1.00000000      1.00000000      1.00000000      1.00000000
      1.00000000      1.00000000      1.00000000      1.00000000      1.00000000      1.00000000      1.00000000      1.00000000      1.00000000      1.00000000      1.00000000      1.00000000      1.00000000      1.00000000      1.00000000      1.00000000      1.00000000      1.00000000      1.00000000      1.00000000
      1.00000000      1.00000000      1.00000000      1.00000000      1.00000000      1.00000000      1.00000000      1.00000000      1.00000000      1.00000000      1.00000000      1.00000000      1.00000000      1.00000000      1.00000000      1.00000000      1.00000000      1.00000000      1.00000000      1.00000000
      1.00000000      1.00000000      1.00000000      1.00000000      1.00000000      1.00000000      1.00000000      1.00000000      1.00000000      1.00000000      1.00000000      1.00000000      1.00000000      1.00000000      1.00000000      1.00000000      1.00000000      1.00000000      1.00000000</v>
    <i name="NUPDOWN">     -1.00000000</i>
    <i type="logical" name="LSORBIT"> F  </i>
    <v name="SAXIS">      0.00000000      0.00000000      1.00000000</v>
    <i type="logical" name="LSPIRAL"> F  </i>
    <v name="QSPIRAL">      0.00000000      0.00000000      0.00000000</v>
    <i type="logical" name="LZEROZ"> F  </i>
   </separator>
   <separator name="electronic exchange-correlation" >
    <i type="logical" name="LASPH"> F  </i>
    <i type="logical" name="LMETAGGA"> F  </i>
   </separator>
   <separator name="electronic convergence" >
    <i type="int" name="NELM">   500</i>
    <i type="int" name="NELMDL">    -5</i>
    <i type="int" name="NELMIN">     2</i>
    <i name="ENINI">    450.00000000</i>
    <separator name="electronic convergence detail" >
     <i type="logical" name="LDIAG"> T  </i>
     <i type="logical" name="LSUBROT"> F  </i>
     <i name="WEIMIN">      0.00000000</i>
     <i name="EBREAK">      0.00000000</i>
     <i name="DEPER">      0.30000000</i>
     <i type="int" name="NRMM">     4</i>
     <i name="TIME">      0.40000000</i>
    </separator>
   </separator>
   <separator name="electronic mixer" >
    <i name="AMIX">      0.40000000</i>
    <i name="BMIX">      1.00000000</i>
    <i name="AMIN">      0.10000000</i>
    <i name="AMIX_MAG">      1.60000000</i>
    <i name="BMIX_MAG">      1.00000000</i>
    <separator name="electronic mixer details" >
     <i type="int" name="IMIX">     4</i>
     <i type="logical" name="MIXFIRST"> F  </i>
     <i type="int" name="MAXMIX">   -45</i>
     <i name="WC">    100.00000000</i>
     <i type="int" name="INIMIX">     1</i>
     <i type="int" name="MIXPRE">     1</i>
     <i type="int" name="MREMOVE">     5</i>
    </separator>
   </separator>
   <separator name="electronic dipolcorrection" >
    <i type="logical" name="LDIPOL"> F  </i>
    <i type="logical" name="LMONO"> F  </i>
    <i type="int" name="IDIPOL">     0</i>
    <i name="EPSILON">      1.00000000</i>
    <v name="DIPOL">   -100.00000000   -100.00000000   -100.00000000</v>
    <i name="EFIELD">      0.00000000</i>
   </separator>
  </separator>
  <separator name="grids" >
   <i type="int" name="NGX">    64</i>
   <i type="int" name="NGY">    48</i>
   <i type="int" name="NGZ">    60</i>
   <i type="int" name="NGXF">   128</i>
   <i type="int" name="NGYF">    96</i>
   <i type="int" name="NGZF">   120</i>
   <i type="logical" name="ADDGRID"> F  </i>
  </separator>
  <separator name="ionic" >
   <i type="int" name="NSW">     0</i>
   <i type="int" name="IBRION">    -1</i>
   <i type="int" name="MDALGO">     0</i>
   <i type="int" name="ISIF">     2</i>
   <i name="PSTRESS">      0.00000000</i>
   <i name="EDIFFG">     -0.00500000</i>
   <i type="int" name="NFREE">     0</i>
   <i name="POTIM">      0.50000000</i>
   <i name="SMASS">     -3.00000000</i>
   <i name="SCALEE">      1.00000000</i>
  </separator>
  <separator name="ionic md" >
   <i name="TEBEG">      0.00010000</i>
   <i name="TEEND">      0.00010000</i>
   <i type="int" name="NBLOCK">     1</i>
   <i type="int" name="KBLOCK">     1</i>
   <i type="int" name="NPACO">   256</i>
   <i name="APACO">     10.00000000</i>
  </separator>
  <separator name="symmetry" >
   <i type="int" name="ISYM">     3</i>
   <i name="SYMPREC">      0.00001000</i>
  </separator>
  <separator name="dos" >
   <i type="int" name="LORBIT">     0</i>
   <v name="RWIGS">     -1.00000000     -1.00000000     -1.00000000</v>
   <i type="int" name="NEDOS">   301</i>
   <i name="EMIN">     10.00000000</i>
   <i name="EMAX">    -10.00000000</i>
   <i name="EFERMI">      0.00000000</i>
  </separator>
  <separator name="writing" >
   <i type="int" name="NWRITE">     2</i>
   <i type="logical" name="LWAVE"> T  </i>
   <i type="logical" name="LDOWNSAMPLE"> F  </i>
   <i type="logical" name="LCHARG"> T  </i>
   <i type="logical" name="LPARD"> F  </i>
   <i type="logical" name="LVTOT"> F  </i>
   <i type="logical" name="LVHAR"> F  </i>
   <i type="logical" name="LELF"> F  </i>
   <i type="logical" name="LOPTICS"> F  </i>
   <v name="STM">      0.00000000      0.00000000      0.00000000      0.00000000      0.00000000      0.00000000      0.00000000</v>
  </separator>
  <separator name="performance" >
   <i type="int" name="NPAR">     1</i>
   <i type="int" name="NSIM">     4</i>
   <i type="int" name="NBLK">    -1</i>
   <i type="logical" name="LPLANE"> T  </i>
   <i type="logical" name="LSCALAPACK"> T  </i>
   <i type="logical" name="LSCAAWARE"> F  </i>
   <i type="logical" name="LSCALU"> F  </i>
   <i type="logical" name="LASYNC"> F  </i>
   <i type="logical" name="LORBITALREAL"> F  </i>
  </separator>
  <separator name="miscellaneous" >
   <i type="int" name="IDIOT">     3</i>
   <i type="int" name="PHON_NSTRUCT">    -1</i>
   <i type="logical" name="LMUSIC"> F  </i>
   <v name="POMASS">     69.72300000     16.00000000     30.97400000</v>
   <v name="DARWINR">      0.00000000      0.00000000      0.00000000</v>
   <v name="DARWINV">      1.00000000      1.00000000      1.00000000</v>
   <i type="logical" name="LCORR"> T  </i>
  </separator>
  <i type="logical" name="GGA_COMPAT"> T  </i>
  <i type="logical" name="LBERRY"> F  </i>
  <i type="int" name="ICORELEVEL">     0</i>
  <i type="logical" name="LDAU"> F  </i>
  <i type="int" name="I_CONSTRAINED_M">     0</i>
  <separator name="electronic exchange-correlation" >
   <i type="string" name="GGA">--</i>
   <i type="int" name="VOSKOWN">     0</i>
   <i type="logical" name="LHFCALC"> T  </i>
   <i type="string" name="PRECFOCK">fast</i>
   <i type="logical" name="LSYMGRAD"> F  </i>
   <i type="logical" name="LHFONE"> F  </i>
   <i type="logical" name="LRHFCALC"> F  </i>
   <i type="logical" name="LTHOMAS"> F  </i>
   <i type="logical" name="LMODELHF"> F  </i>
   <i type="logical" name="LFOCKACE"> T  </i>
   <i name="ENCUT4O">     -1.00000000</i>
   <i type="int" name="EXXOEP">     0</i>
   <i type="int" name="FOURORBIT">     0</i>
   <i name="AEXX">      0.32000000</i>
   <i name="HFALPHA">     -1.00000000</i>
   <i name="MCALPHA">      0.00000000</i>
   <i name="ALDAX">      0.68000000</i>
   <i name="AGGAX">      0.68000000</i>
   <i name="ALDAC">      1.00000000</i>
   <i name="AGGAC">      1.00000000</i>
   <i type="int" name="NKREDX">     1</i>
   <i type="int" name="NKREDY">     1</i>
   <i type="int" name="NKREDZ">     1</i>
   <i type="logical" name="SHIFTRED"> F  </i>
   <i type="logical" name="ODDONLY"> F  </i>
   <i type="logical" name="EVENONLY"> F  </i>
   <i type="int" name="LMAXFOCK">     4</i>
   <i type="int" name="NMAXFOCKAE">     1</i>
   <i type="logical" name="LFOCKAEDFT"> F  </i>
   <i name="HFSCREEN">      0.20000000</i>
   <i name="HFSCREENC">      0.20000000</i>
   <i type="int" name="NBANDSGWLOW">     1</i>
  </separator>
  <separator name="vdW DFT" >
   <i type="logical" name="LUSE_VDW"> F  </i>
   <i type="int" name="IVDW_NL">     1</i>
   <i type="logical" name="LSPIN_VDW"> F  </i>
   <i name="Zab_VDW">     -0.84910000</i>
   <i name="PARAM1">      0.12340000</i>
   <i name="PARAM2">      1.00000000</i>
   <i name="PARAM3">      0.00000000</i>
  </separator>
  <separator name="model GW" >
   <i type="int" name="MODEL_GW">     0</i>
   <i name="MODEL_EPS0">      6.39733692</i>
   <i name="MODEL_ALPHA">      1.00000000</i>
  </separator>
  <separator name="linear response parameters" >
   <i type="logical" name="LEPSILON"> F  </i>
   <i type="logical" name="LRPA"> F  </i>
   <i type="logical" name="LNABLA"> F  </i>
   <i type="logical" name="LVEL"> F  </i>
   <i name="CSHIFT">      0.10000000</i>
   <i name="OMEGAMAX">     -1.00000000</i>
   <i name="DEG_THRESHOLD">      0.00200000</i>
   <i name="RTIME">     -0.10000000</i>
   <i name="WPLASMAI">      0.00000000</i>
   <v name="DFIELD">      0.00000000      0.00000000      0.00000000</v>
   <v name="WPLASMA">      0.00000000      0.00000000      0.00000000      0.00000000      0.00000000      0.00000000      0.00000000      0.00000000      0.00000000</v>
  </separator>
  <separator name="orbital magnetization" >
   <i type="logical" name="NUCIND"> F  </i>
   <v name="MAGPOS">      0.00000000      0.00000000      0.00000000</v>
   <i type="logical" name="LNICSALL"> T  </i>
   <i type="logical" name="ORBITALMAG"> F  </i>
   <i type="logical" name="LMAGBLOCH"> F  </i>
   <i type="logical" name="LCHIMAG"> F  </i>
   <i type="logical" name="LGAUGE"> T  </i>
   <i type="int" name="MAGATOM">     0</i>
   <v name="MAGDIPOL">      0.00000000      0.00000000      0.00000000</v>
   <v name="AVECCONST">      0.00000000      0.00000000      0.00000000</v>
  </separator>
  <separator name="response functions" >
   <i type="logical" name="LALL_IN_ONE"> F  </i>
   <i type="int" name="IALL_IN_ONE">    -1</i>
   <i type="int" name="NBANDS_WAVE">    -1</i>
   <i type="logical" name="LFINITE_TEMPERATURE"> F  </i>
   <i type="logical" name="LADDER"> F  </i>
   <i type="logical" name="LRPAFORCE"> F  </i>
   <i type="logical" name="LFXC"> F  </i>
   <i type="logical" name="LHARTREE"> T  </i>
   <i type="int" name="IBSE">     0</i>
   <v type="int" name="KPOINT">    -1     0     0     0</v>
   <i type="logical" name="LTCTC"> F  </i>
   <i type="logical" name="LTCTE"> F  </i>
   <i type="logical" name="LTETE"> F  </i>
   <i type="logical" name="LTRIPLET"> F  </i>
   <i type="logical" name="LFXCEPS"> F  </i>
   <i type="logical" name="LFXHEG"> F  </i>
   <i type="int" name="NATURALO">     2</i>
   <i type="logical" name="LHOLEGF"> F  </i>
   <i type="logical" name="L2ORDER"> F  </i>
   <i type="logical" name="LDMP1"> F  </i>
   <i type="logical" name="LMP2LT"> F  </i>
   <i type="logical" name="LSMP2LT"> F  </i>
   <i type="logical" name="LGWLF"> F  </i>
   <i name="ENCUTGW">     -1.60000002</i>
   <i name="ENCUTGWSOFT">     -1.60000002</i>
   <i name="ENCUTLF">     -1.00000000</i>
   <i type="logical" name="LESF_SPLINES"> F  </i>
   <i type="int" name="LMAXMP2">    -1</i>
   <i name="SCISSOR">      0.00000000</i>
   <i type="int" name="NOMEGA">     0</i>
   <i type="int" name="NOMEGAR">     0</i>
   <i type="int" name="NBANDSGW">    -1</i>
   <i type="int" name="NBANDSO">    -1</i>
   <i type="int" name="NBANDSV">    -1</i>
   <i type="int" name="NELMGW">     1</i>
   <i type="int" name="NELMHF">     1</i>
   <i type="int" name="DIM">     3</i>
   <i type="int" name="IESPILON">     4</i>
   <i type="int" name="ANTIRES">     0</i>
   <i name="OMEGAMAX">    -30.00000000</i>
   <i name="OMEGAMIN">    -30.00000000</i>
   <i name="OMEGATL">   -200.00000000</i>
   <i type="int" name="OMEGAGRID">     0</i>
   <i name="CSHIFT">     -0.10000000</i>
   <i type="logical" name="LSELFENERGY"> F  </i>
   <i type="logical" name="LSPECTRAL"> F  </i>
   <i type="logical" name="LSPECTRALGW"> F  </i>
   <i type="logical" name="LSINGLES"> F  </i>
   <i type="logical" name="LFERMIGW"> F  </i>
   <i type="logical" name="ODDONLYGW"> F  </i>
   <i type="logical" name="EVENONLYGW"> F  </i>
   <i type="int" name="NKREDLFX">     1</i>
   <i type="int" name="NKREDLFY">     1</i>
   <i type="int" name="NKREDLFZ">     1</i>
   <i type="int" name="MAXMEM">  2800</i>
   <i type="int" name="TELESCOPE">     0</i>
   <i type="int" name="NTAUPAR">    -1</i>
   <i type="int" name="NOMEGAPAR">    -1</i>
   <i name="DAMP_NEWTON">      0.80000001</i>
   <i name="LAMBDA">      1.00000000</i>
  </separator>
  <separator name="External order field" >
   <i name="OFIELD_KAPPA">      0.00000000</i>
   <v name="OFIELD_K">      0.00000000      0.00000000      0.00000000</v>
   <i name="OFIELD_Q6_NEAR">      0.00000000</i>
   <i name="OFIELD_Q6_FAR">      0.00000000</i>
   <i name="OFIELD_A">      0.00000000</i>
  </separator>
  <separator name="optional k-points parameters" >
   <i type="int" name="KPOINTS_OPT_MODE">     1</i>
   <i type="logical" name="LKPOINTS_OPT"> F  </i>
  </separator>
 </parameters>
 <atominfo>
  <atoms>     119 </atoms>
  <types>       3 </types>
  <array name="atoms" >
   <dimension dim="1">ion</dimension>
   <field type="string">element</field>
   <field type="int">atomtype</field>
   <set>
    <rc><c>Ga</c><c>   1</c></rc>
    <rc><c>Ga</c><c>   1</c></rc>
    <rc><c>Ga</c><c>   1</c></rc>
    <rc><c>Ga</c><c>   1</c></rc>
    <rc><c>Ga</c><c>   1</c></rc>
    <rc><c>Ga</c><c>   1</c></rc>
    <rc><c>Ga</c><c>   1</c></rc>
    <rc><c>Ga</c><c>   1</c></rc>
    <rc><c>Ga</c><c>   1</c></rc>
    <rc><c>Ga</c><c>   1</c></rc>
    <rc><c>Ga</c><c>   1</c></rc>
    <rc><c>Ga</c><c>   1</c></rc>
    <rc><c>Ga</c><c>   1</c></rc>
    <rc><c>Ga</c><c>   1</c></rc>
    <rc><c>Ga</c><c>   1</c></rc>
    <rc><c>Ga</c><c>   1</c></rc>
    <rc><c>Ga</c><c>   1</c></rc>
    <rc><c>Ga</c><c>   1</c></rc>
    <rc><c>Ga</c><c>   1</c></rc>
    <rc><c>Ga</c><c>   1</c></rc>
    <rc><c>Ga</c><c>   1</c></rc>
    <rc><c>Ga</c><c>   1</c></rc>
    <rc><c>Ga</c><c>   1</c></rc>
    <rc><c>Ga</c><c>   1</c></rc>
    <rc><c>Ga</c><c>   1</c></rc>
    <rc><c>Ga</c><c>   1</c></rc>
    <rc><c>Ga</c><c>   1</c></rc>
    <rc><c>Ga</c><c>   1</c></rc>
    <rc><c>Ga</c><c>   1</c></rc>
    <rc><c>Ga</c><c>   1</c></rc>
    <rc><c>Ga</c><c>   1</c></rc>
    <rc><c>Ga</c><c>   1</c></rc>
    <rc><c>Ga</c><c>   1</c></rc>
    <rc><c>Ga</c><c>   1</c></rc>
    <rc><c>Ga</c><c>   1</c></rc>
    <rc><c>Ga</c><c>   1</c></rc>
    <rc><c>Ga</c><c>   1</c></rc>
    <rc><c>Ga</c><c>   1</c></rc>
    <rc><c>Ga</c><c>   1</c></rc>
    <rc><c>Ga</c><c>   1</c></rc>
    <rc><c>Ga</c><c>   1</c></rc>
    <rc><c>Ga</c><c>   1</c></rc>
    <rc><c>Ga</c><c>   1</c></rc>
    <rc><c>Ga</c><c>   1</c></rc>
    <rc><c>Ga</c><c>   1</c></rc>
    <rc><c>Ga</c><c>   1</c></rc>
    <rc><c>Ga</c><c>   1</c></rc>
    <rc><c>O </c><c>   2</c></rc>
    <rc><c>O </c><c>   2</c></rc>
    <rc><c>O </c><c>   2</c></rc>
    <rc><c>O </c><c>   2</c></rc>
    <rc><c>O </c><c>   2</c></rc>
    <rc><c>O </c><c>   2</c></rc>
    <rc><c>O </c><c>   2</c></rc>
    <rc><c>O </c><c>   2</c></rc>
    <rc><c>O </c><c>   2</c></rc>
    <rc><c>O </c><c>   2</c></rc>
    <rc><c>O </c><c>   2</c></rc>
    <rc><c>O </c><c>   2</c></rc>
    <rc><c>O </c><c>   2</c></rc>
    <rc><c>O </c><c>   2</c></rc>
    <rc><c>O </c><c>   2</c></rc>
    <rc><c>O </c><c>   2</c></rc>
    <rc><c>O </c><c>   2</c></rc>
    <rc><c>O </c><c>   2</c></rc>
    <rc><c>O </c><c>   2</c></rc>
    <rc><c>O </c><c>   2</c></rc>
    <rc><c>O </c><c>   2</c></rc>
    <rc><c>O </c><c>   2</c></rc>
    <rc><c>O </c><c>   2</c></rc>
    <rc><c>O </c><c>   2</c></rc>
    <rc><c>O </c><c>   2</c></rc>
    <rc><c>O </c><c>   2</c></rc>
    <rc><c>O </c><c>   2</c></rc>
    <rc><c>O </c><c>   2</c></rc>
    <rc><c>O </c><c>   2</c></rc>
    <rc><c>O </c><c>   2</c></rc>
    <rc><c>O </c><c>   2</c></rc>
    <rc><c>O </c><c>   2</c></rc>
    <rc><c>O </c><c>   2</c></rc>
    <rc><c>O </c><c>   2</c></rc>
    <rc><c>O </c><c>   2</c></rc>
    <rc><c>O </c><c>   2</c></rc>
    <rc><c>O </c><c>   2</c></rc>
    <rc><c>O </c><c>   2</c></rc>
    <rc><c>O </c><c>   2</c></rc>
    <rc><c>O </c><c>   2</c></rc>
    <rc><c>O </c><c>   2</c></rc>
    <rc><c>O </c><c>   2</c></rc>
    <rc><c>O </c><c>   2</c></rc>
    <rc><c>O </c><c>   2</c></rc>
    <rc><c>O </c><c>   2</c></rc>
    <rc><c>O </c><c>   2</c></rc>
    <rc><c>O </c><c>   2</c></rc>
    <rc><c>O </c><c>   2</c></rc>
    <rc><c>O </c><c>   2</c></rc>
    <rc><c>O </c><c>   2</c></rc>
    <rc><c>O </c><c>   2</c></rc>
    <rc><c>O </c><c>   2</c></rc>
    <rc><c>O </c><c>   2</c></rc>
    <rc><c>O </c><c>   2</c></rc>
    <rc><c>O </c><c>   2</c></rc>
    <rc><c>O </c><c>   2</c></rc>
    <rc><c>O </c><c>   2</c></rc>
    <rc><c>O </c><c>   2</c></rc>
    <rc><c>O </c><c>   2</c></rc>
    <rc><c>O </c><c>   2</c></rc>
    <rc><c>O </c><c>   2</c></rc>
    <rc><c>O </c><c>   2</c></rc>
    <rc><c>O </c><c>   2</c></rc>
    <rc><c>O </c><c>   2</c></rc>
    <rc><c>O </c><c>   2</c></rc>
    <rc><c>O </c><c>   2</c></rc>
    <rc><c>O </c><c>   2</c></rc>
    <rc><c>O </c><c>   2</c></rc>
    <rc><c>O </c><c>   2</c></rc>
    <rc><c>O </c><c>   2</c></rc>
    <rc><c>O </c><c>   2</c></rc>
    <rc><c>P </c><c>   3</c></rc>
   </set>
  </array>
  <array name="atomtypes" >
   <dimension dim="1">type</dimension>
   <field type="int">atomspertype</field>
   <field type="string">element</field>
   <field>mass</field>
   <field>valence</field>
   <field type="string">pseudopotential</field>
   <set>
    <rc><c>  47</c><c>Ga</c><c>     69.72300000</c><c>     13.00000000</c><c>  PAW_PBE Ga_d 06Jul2010                </c></rc>
    <rc><c>  71</c><c>O </c><c>     16.00000000</c><c>      6.00000000</c><c>   PAW_PBE O 08Apr2002                  </c></rc>
    <rc><c>   1</c><c>P </c><c>     30.97400000</c><c>      5.00000000</c><c>  PAW_PBE P 06Sep2000                   </c></rc>
   </set>
  </array>
 </atominfo>
 <structure name="initialpos" >
  <crystal>
   <varray name="basis" >
    <v>       0.00000000      12.28047342       0.00000000 </v>
    <v>       9.14270205       0.00000000       0.00000000 </v>
    <v>       0.00000000      -2.76826177     -11.30069772 </v>
   </varray>
   <i name="volume">   1268.80515525 </i>
   <varray name="rec_basis" >
    <v>       0.00000000       0.08143009      -0.01994742 </v>
    <v>       0.10937686      -0.00000000       0.00000000 </v>
    <v>       0.00000000       0.00000000      -0.08849011 </v>
   </varray>
  </crystal>
  <varray name="positions" >
   <v>       0.66327175       0.99354137       0.15244452 </v>
   <v>       0.65981166       0.99922349       0.65859168 </v>
   <v>       0.66327175       0.33979197       0.15244452 </v>
   <v>       0.65981166       0.33410985       0.65859168 </v>
   <v>       0.65991778       0.66666667       0.15576562 </v>
   <v>       0.66131995       0.66666667       0.65526429 </v>
   <v>       0.84189272       0.16666667       0.84597865 </v>
   <v>       0.84537944       0.50091275       0.33549493 </v>
   <v>       0.84263560       0.49988660       0.84393964 </v>
   <v>       0.84537944       0.83242058       0.33549493 </v>
   <v>       0.84263560       0.83344673       0.84393964 </v>
   <v>       0.59032898       0.16666667       0.40250508 </v>
   <v>       0.59223790       0.16666667       0.89992305 </v>
   <v>       0.59272010       0.50039306       0.39745982 </v>
   <v>       0.58934753       0.50128823       0.89399229 </v>
   <v>       0.59272010       0.83294028       0.39745982 </v>
   <v>       0.58934753       0.83204510       0.89399229 </v>
   <v>       0.91213154       0.99878630       0.10355155 </v>
   <v>       0.91141765       0.00096170       0.60729908 </v>
   <v>       0.91213154       0.33454703       0.10355155 </v>
   <v>       0.91141765       0.33237163       0.60729908 </v>
   <v>       0.91213944       0.66666667       0.09971954 </v>
   <v>       0.90845173       0.66666667       0.60017579 </v>
   <v>       0.16228802       0.16666667       0.15872324 </v>
   <v>       0.16325093       0.16666667       0.65590939 </v>
   <v>       0.16170342       0.49951203       0.15845975 </v>
   <v>       0.15954795       0.49893658       0.65327783 </v>
   <v>       0.16170342       0.83382130       0.15845975 </v>
   <v>       0.15954795       0.83439675       0.65327783 </v>
   <v>       0.34092554       0.99949243       0.34408027 </v>
   <v>       0.34134846       0.99994676       0.84399519 </v>
   <v>       0.34092554       0.33384090       0.34408027 </v>
   <v>       0.34134846       0.33338657       0.84399519 </v>
   <v>       0.34190594       0.66666667       0.34435587 </v>
   <v>       0.33934196       0.66666667       0.84313689 </v>
   <v>       0.08663554       0.03143089       0.39569813 </v>
   <v>       0.09283518       0.00001002       0.89829295 </v>
   <v>       0.08663554       0.30190244       0.39569813 </v>
   <v>       0.09283518       0.33332331       0.89829295 </v>
   <v>       0.08719389       0.66666667       0.39550059 </v>
   <v>       0.09301860       0.66666667       0.89840783 </v>
   <v>       0.41260343       0.16666667       0.10393210 </v>
   <v>       0.41071370       0.16666667       0.60360392 </v>
   <v>       0.41154246       0.49909553       0.10350686 </v>
   <v>       0.41003434       0.50064460       0.60314135 </v>
   <v>       0.41154246       0.83423781       0.10350686 </v>
   <v>       0.41003434       0.83268874       0.60314135 </v>
   <v>       0.99788968       0.16666667       0.13760848 </v>
   <v>       0.99849553       0.16666667       0.62233299 </v>
   <v>       0.99973795       0.50098595       0.12532508 </v>
   <v>       0.99533131       0.49928300       0.62441423 </v>
   <v>       0.99973795       0.83234738       0.12532508 </v>
   <v>       0.99533131       0.83405034       0.62441423 </v>
   <v>       0.50543742       0.00000323       0.37210146 </v>
   <v>       0.50436178       0.00052675       0.87374162 </v>
   <v>       0.50543742       0.33333010       0.37210146 </v>
   <v>       0.50436178       0.33280658       0.87374162 </v>
   <v>       0.50532380       0.66666667       0.37339839 </v>
   <v>       0.50129403       0.66666667       0.86858413 </v>
   <v>       0.69153467       0.16666667       0.29818059 </v>
   <v>       0.67397351       0.16666667       0.78317966 </v>
   <v>       0.67543178       0.50085744       0.28158910 </v>
   <v>       0.67395028       0.50009440       0.77970426 </v>
   <v>       0.67543178       0.83247589       0.28158910 </v>
   <v>       0.67395028       0.83323893       0.77970426 </v>
   <v>       0.82422328       0.98063613       0.21094589 </v>
   <v>       0.82840705       0.00104004       0.72102541 </v>
   <v>       0.82422328       0.35269721       0.21094589 </v>
   <v>       0.82840705       0.33229329       0.72102541 </v>
   <v>       0.83022137       0.66666667       0.21626072 </v>
   <v>       0.82889876       0.66666667       0.71876753 </v>
   <v>       0.82632819       0.01720471       0.44878601 </v>
   <v>       0.83426427       0.99999527       0.94698767 </v>
   <v>       0.82632819       0.31612863       0.44878601 </v>
   <v>       0.83426427       0.33333806       0.94698767 </v>
   <v>       0.83734967       0.66666667       0.44148904 </v>
   <v>       0.83276445       0.66666667       0.94452366 </v>
   <v>       0.66880957       0.16666667       0.05826486 </v>
   <v>       0.66766560       0.16666667       0.55792131 </v>
   <v>       0.66515244       0.50444097       0.05004264 </v>
   <v>       0.67180357       0.49894739       0.55371513 </v>
   <v>       0.66515244       0.82889236       0.05004264 </v>
   <v>       0.67180357       0.83438595       0.55371513 </v>
   <v>       0.50187630       0.00061529       0.13118927 </v>
   <v>       0.49783799       0.99935693       0.62833955 </v>
   <v>       0.50187630       0.33271805       0.13118927 </v>
   <v>       0.49783799       0.33397641       0.62833955 </v>
   <v>       0.49801439       0.66666667       0.12836270 </v>
   <v>       0.49902806       0.66666667       0.62692454 </v>
   <v>       0.00433502       0.16666667       0.87258955 </v>
   <v>       0.00628050       0.48732254       0.37468172 </v>
   <v>       0.00477017       0.49997428       0.87143675 </v>
   <v>       0.00628050       0.84601079       0.37468172 </v>
   <v>       0.00477017       0.83335906       0.87143675 </v>
   <v>       0.17483705       0.99887908       0.27977575 </v>
   <v>       0.17341767       0.00050453       0.78054643 </v>
   <v>       0.17483705       0.33445426       0.27977575 </v>
   <v>       0.17341767       0.33282880       0.78054643 </v>
   <v>       0.17286768       0.66666667       0.28137957 </v>
   <v>       0.17224300       0.66666667       0.77893711 </v>
   <v>       0.33105840       0.16666667       0.22048978 </v>
   <v>       0.33025244       0.16666667       0.72129505 </v>
   <v>       0.33016339       0.50042955       0.22052142 </v>
   <v>       0.32796350       0.50012470       0.71956444 </v>
   <v>       0.33016339       0.83290379       0.22052142 </v>
   <v>       0.32796350       0.83320863       0.71956444 </v>
   <v>       0.33591758       0.16666667       0.44668662 </v>
   <v>       0.33489859       0.16666667       0.94761359 </v>
   <v>       0.33536392       0.50039253       0.44649616 </v>
   <v>       0.33384024       0.49942642       0.94697948 </v>
   <v>       0.33536392       0.83294080       0.44649616 </v>
   <v>       0.33384024       0.83390691       0.94697948 </v>
   <v>       0.16896852       0.00096124       0.05447796 </v>
   <v>       0.16906920       0.99997817       0.55416515 </v>
   <v>       0.16896852       0.33237209       0.05447796 </v>
   <v>       0.16906920       0.33335516       0.55416515 </v>
   <v>       0.17057294       0.66666667       0.05485663 </v>
   <v>       0.16530070       0.66666667       0.55218842 </v>
   <v>       0.83331206       0.16666667       0.36307153 </v>
  </varray>
 </structure>
 <calculation>
  <scstep>
   <time name="total">    3.95    3.96</time>
   <energy>
    <i name="alphaZ">   5376.25786726 </i>
    <i name="ewald"> -86680.01120101 </i>
    <i name="hartreedc">  -2076.10427674 </i>
    <i name="XCdc">   2756.10346893 </i>
    <i name="pawpsdc"> 331884.64498368 </i>
    <i name="pawaedc">-360634.79018049 </i>
    <i name="eentropy">     -0.01508521 </i>
    <i name="bandstr"> -40443.65113566 </i>
    <i name="atom"> 131500.23896116 </i>
    <i name="e_fr_energy"> -18317.32659810 </i>
    <i name="e_wo_entrp"> -18317.31151288 </i>
    <i name="e_0_energy"> -18317.31905549 </i>
   </energy>
  </scstep>
  <scstep>
   <time name="total">    3.12    3.12</time>
   <energy>
    <i name="e_fr_energy"> -62887.01377878 </i>
    <i name="e_wo_entrp"> -62887.00110764 </i>
    <i name="e_0_energy"> -62887.00744321 </i>
   </energy>
  </scstep>
  <scstep>
   <time name="total">    3.33    3.33</time>
   <energy>
    <i name="e_fr_energy"> -67964.96104109 </i>
    <i name="e_wo_entrp"> -67964.93417285 </i>
    <i name="e_0_energy"> -67964.94760697 </i>
   </energy>
  </scstep>
  <scstep>
   <time name="total">    3.79    3.79</time>
   <energy>
    <i name="e_fr_energy"> -68666.00168066 </i>
    <i name="e_wo_entrp"> -68665.95310580 </i>
    <i name="e_0_energy"> -68665.97739323 </i>
   </energy>
  </scstep>
  <scstep>
   <time name="total">  231.06  231.10</time>
   <energy>
    <i name="e_fr_energy"> -39075.01103614 </i>
    <i name="e_wo_entrp"> -39074.98192810 </i>
    <i name="e_0_energy"> -39074.99648212 </i>
   </energy>
  </scstep>
  <scstep>
   <time name="total">  460.59  460.61</time>
   <energy>
    <i name="e_fr_energy">  30172.53649504 </i>
    <i name="e_wo_entrp">  30172.57189924 </i>
    <i name="e_0_energy">  30172.55419714 </i>
   </energy>
  </scstep>
  <scstep>
   <time name="total">  461.06  461.10</time>
   <energy>
    <i name="e_fr_energy">   9716.34854602 </i>
    <i name="e_wo_entrp">   9716.37282130 </i>
    <i name="e_0_energy">   9716.36068366 </i>
   </energy>
  </scstep>
  <scstep>
   <time name="total">  461.08  461.07</time>
   <energy>
    <i name="e_fr_energy">   4756.87275649 </i>
    <i name="e_wo_entrp">   4756.89491402 </i>
    <i name="e_0_energy">   4756.88383526 </i>
   </energy>
  </scstep>
  <scstep>
   <time name="total">  460.53  460.55</time>
   <energy>
    <i name="e_fr_energy">   2401.00591296 </i>
    <i name="e_wo_entrp">   2401.02732976 </i>
    <i name="e_0_energy">   2401.01662136 </i>
   </energy>
  </scstep>
  <scstep>
   <time name="total">  460.14  460.18</time>
   <energy>
    <i name="e_fr_energy">    914.63918880 </i>
    <i name="e_wo_entrp">    914.64312706 </i>
    <i name="e_0_energy">    914.64115793 </i>
   </energy>
  </scstep>
  <scstep>
   <time name="total">  459.87  459.88</time>
   <energy>
    <i name="e_fr_energy">    -47.99528058 </i>
    <i name="e_wo_entrp">    -47.98461502 </i>
    <i name="e_0_energy">    -47.98994780 </i>
   </energy>
  </scstep>
  <scstep>
   <time name="total">  460.20  460.19</time>
   <energy>
    <i name="e_fr_energy">   -492.35054311 </i>
    <i name="e_wo_entrp">   -492.34111542 </i>
    <i name="e_0_energy">   -492.34582926 </i>
   </energy>
  </scstep>
  <scstep>
   <time name="total">  460.14  460.18</time>
   <energy>
    <i name="e_fr_energy">   -722.44802687 </i>
    <i name="e_wo_entrp">   -722.43946424 </i>
    <i name="e_0_energy">   -722.44374556 </i>
   </energy>
  </scstep>
  <scstep>
   <time name="total">  460.03  460.04</time>
   <energy>
    <i name="e_fr_energy">   -824.41477690 </i>
    <i name="e_wo_entrp">   -824.41274641 </i>
    <i name="e_0_energy">   -824.41376165 </i>
   </energy>
  </scstep>
  <scstep>
   <time name="total">  459.38  459.45</time>
   <energy>
    <i name="e_fr_energy">   -874.34678714 </i>
    <i name="e_wo_entrp">   -874.34591712 </i>
    <i name="e_0_energy">   -874.34635213 </i>
   </energy>
  </scstep>
  <scstep>
   <time name="total">  459.93  459.91</time>
   <energy>
    <i name="e_fr_energy">   -901.04253080 </i>
    <i name="e_wo_entrp">   -901.03965803 </i>
    <i name="e_0_energy">   -901.04109442 </i>
   </energy>
  </scstep>
  <scstep>
   <time name="total">  459.65  459.64</time>
   <energy>
    <i name="e_fr_energy">   -916.49647586 </i>
    <i name="e_wo_entrp">   -916.49045697 </i>
    <i name="e_0_energy">   -916.49346642 </i>
   </energy>
  </scstep>
  <scstep>
   <time name="total">  459.50  459.51</time>
   <energy>
    <i name="e_fr_energy">   -926.07602497 </i>
    <i name="e_wo_entrp">   -926.06892943 </i>
    <i name="e_0_energy">   -926.07247720 </i>
   </energy>
  </scstep>
  <scstep>
   <time name="total">  459.48  459.48</time>
   <energy>
    <i name="e_fr_energy">   -932.19535472 </i>
    <i name="e_wo_entrp">   -932.18903691 </i>
    <i name="e_0_energy">   -932.19219582 </i>
   </energy>
  </scstep>
  <scstep>
   <time name="total">  459.61  459.62</time>
   <energy>
    <i name="e_fr_energy">   -935.79049233 </i>
    <i name="e_wo_entrp">   -935.78628138 </i>
    <i name="e_0_energy">   -935.78838685 </i>
   </energy>
  </scstep>
  <scstep>
   <time name="total">  459.82  459.85</time>
   <energy>
    <i name="e_fr_energy">   -937.69619918 </i>
    <i name="e_wo_entrp">   -937.69128287 </i>
    <i name="e_0_energy">   -937.69374103 </i>
   </energy>
  </scstep>
  <scstep>
   <time name="total">  459.53  459.53</time>
   <energy>
    <i name="e_fr_energy">   -938.78836702 </i>
    <i name="e_wo_entrp">   -938.78185235 </i>
    <i name="e_0_energy">   -938.78510968 </i>
   </energy>
  </scstep>
  <scstep>
   <time name="total">  459.89  459.88</time>
   <energy>
    <i name="e_fr_energy">   -939.32889413 </i>
    <i name="e_wo_entrp">   -939.32160001 </i>
    <i name="e_0_energy">   -939.32524707 </i>
   </energy>
  </scstep>
  <scstep>
   <time name="total">  459.47  459.51</time>
   <energy>
    <i name="e_fr_energy">   -939.63925752 </i>
    <i name="e_wo_entrp">   -939.63159534 </i>
    <i name="e_0_energy">   -939.63542643 </i>
   </energy>
  </scstep>
  <scstep>
   <time name="total">  459.32  459.30</time>
   <energy>
    <i name="e_fr_energy">   -939.83001247 </i>
    <i name="e_wo_entrp">   -939.82209218 </i>
    <i name="e_0_energy">   -939.82605232 </i>
   </energy>
  </scstep>
  <scstep>
   <time name="total">  459.72  459.72</time>
   <energy>
    <i name="e_fr_energy">   -939.93286986 </i>
    <i name="e_wo_entrp">   -939.92493868 </i>
    <i name="e_0_energy">   -939.92890427 </i>
   </energy>
  </scstep>
  <scstep>
   <time name="total">  459.43  459.46</time>
   <energy>
    <i name="e_fr_energy">   -939.99340943 </i>
    <i name="e_wo_entrp">   -939.98558186 </i>
    <i name="e_0_energy">   -939.98949564 </i>
   </energy>
  </scstep>
  <scstep>
   <time name="total">  459.70  459.69</time>
   <energy>
    <i name="e_fr_energy">   -940.02554140 </i>
    <i name="e_wo_entrp">   -940.01774348 </i>
    <i name="e_0_energy">   -940.02164244 </i>
   </energy>
  </scstep>
  <scstep>
   <time name="total">  459.56  459.55</time>
   <energy>
    <i name="e_fr_energy">   -940.04222809 </i>
    <i name="e_wo_entrp">   -940.03440032 </i>
    <i name="e_0_energy">   -940.03831421 </i>
   </energy>
  </scstep>
  <scstep>
   <time name="total">  459.78  459.78</time>
   <energy>
    <i name="e_fr_energy">   -940.05259164 </i>
    <i name="e_wo_entrp">   -940.04475097 </i>
    <i name="e_0_energy">   -940.04867131 </i>
   </energy>
  </scstep>
  <scstep>
   <time name="total">  459.72  459.72</time>
   <energy>
    <i name="e_fr_energy">   -940.05863966 </i>
    <i name="e_wo_entrp">   -940.05082660 </i>
    <i name="e_0_energy">   -940.05473313 </i>
   </energy>
  </scstep>
  <scstep>
   <time name="total">  459.67  459.70</time>
   <energy>
    <i name="e_fr_energy">   -940.06241556 </i>
    <i name="e_wo_entrp">   -940.05463222 </i>
    <i name="e_0_energy">   -940.05852389 </i>
   </energy>
  </scstep>
  <scstep>
   <time name="total">  459.80  459.81</time>
   <energy>
    <i name="e_fr_energy">   -940.06453078 </i>
    <i name="e_wo_entrp">   -940.05675401 </i>
    <i name="e_0_energy">   -940.06064240 </i>
   </energy>
  </scstep>
  <scstep>
   <time name="total">  459.68  459.68</time>
   <energy>
    <i name="e_fr_energy">   -940.06565347 </i>
    <i name="e_wo_entrp">   -940.05786856 </i>
    <i name="e_0_energy">   -940.06176102 </i>
   </energy>
  </scstep>
  <scstep>
   <time name="total">  459.91  459.95</time>
   <energy>
    <i name="e_fr_energy">   -940.06628884 </i>
    <i name="e_wo_entrp">   -940.05849575 </i>
    <i name="e_0_energy">   -940.06239230 </i>
   </energy>
  </scstep>
  <scstep>
   <time name="total">  459.96  459.95</time>
   <energy>
    <i name="e_fr_energy">   -940.06666134 </i>
    <i name="e_wo_entrp">   -940.05886527 </i>
    <i name="e_0_energy">   -940.06276330 </i>
   </energy>
  </scstep>
  <scstep>
   <time name="total">  459.60  459.60</time>
   <energy>
    <i name="e_fr_energy">   -940.06689392 </i>
    <i name="e_wo_entrp">   -940.05909752 </i>
    <i name="e_0_energy">   -940.06299572 </i>
   </energy>
  </scstep>
  <scstep>
   <time name="total">  459.79  459.83</time>
   <energy>
    <i name="e_fr_energy">   -940.06710942 </i>
    <i name="e_wo_entrp">   -940.05931013 </i>
    <i name="e_0_energy">   -940.06320978 </i>
   </energy>
  </scstep>
  <scstep>
   <time name="total">  459.55  459.52</time>
   <energy>
    <i name="e_fr_energy">   -940.06717742 </i>
    <i name="e_wo_entrp">   -940.05937594 </i>
    <i name="e_0_energy">   -940.06327668 </i>
   </energy>
  </scstep>
  <scstep>
   <time name="total">  459.52  459.50</time>
   <energy>
    <i name="e_fr_energy">   -940.06720284 </i>
    <i name="e_wo_entrp">   -940.05940045 </i>
    <i name="e_0_energy">   -940.06330164 </i>
   </energy>
  </scstep>
  <scstep>
   <time name="total">  459.74  459.77</time>
   <energy>
    <i name="e_fr_energy">   -940.06721357 </i>
    <i name="e_wo_entrp">   -940.05941109 </i>
    <i name="e_0_energy">   -940.06331233 </i>
   </energy>
  </scstep>
  <scstep>
   <time name="total">  685.45  685.50</time>
   <energy>
    <i name="alphaZ">   5376.25786726 </i>
    <i name="ewald"> -86680.01120101 </i>
    <i name="hartreedc"> -33869.47325930 </i>
    <i name="XCdc">   2872.01553924 </i>
    <i name="pawpsdc"> 120408.81847225 </i>
    <i name="pawaedc">-135648.29364404 </i>
    <i name="eentropy">     -0.00780252 </i>
    <i name="bandstr">  -8736.39313901 </i>
    <i name="atom"> 131500.23896116 </i>
    <i name="e_fr_energy">   -940.06721781 </i>
    <i name="e_wo_entrp">   -940.05941529 </i>
    <i name="e_0_energy">   -940.06331655 </i>
   </energy>
  </scstep>
  <structure>
   <crystal>
    <varray name="basis" >
     <v>       0.00000000      12.28047342       0.00000000 </v>
     <v>       9.14270205       0.00000000       0.00000000 </v>
     <v>       0.00000000      -2.76826177     -11.30069772 </v>
    </varray>
    <i name="volume">   1268.80515525 </i>
    <varray name="rec_basis" >
     <v>       0.00000000       0.08143009      -0.01994742 </v>
     <v>       0.10937686      -0.00000000       0.00000000 </v>
     <v>       0.00000000       0.00000000      -0.08849011 </v>
    </varray>
   </crystal>
   <varray name="positions" >
    <v>       0.66327175       0.99354137       0.15244452 </v>
    <v>       0.65981166       0.99922349       0.65859168 </v>
    <v>       0.66327175       0.33979197       0.15244452 </v>
    <v>       0.65981166       0.33410985       0.65859168 </v>
    <v>       0.65991778       0.66666667       0.15576562 </v>
    <v>       0.66131995       0.66666667       0.65526429 </v>
    <v>       0.84189272       0.16666667       0.84597865 </v>
    <v>       0.84537944       0.50091275       0.33549493 </v>
    <v>       0.84263560       0.49988660       0.84393964 </v>
    <v>       0.84537944       0.83242058       0.33549493 </v>
    <v>       0.84263560       0.83344673       0.84393964 </v>
    <v>       0.59032898       0.16666667       0.40250508 </v>
    <v>       0.59223790       0.16666667       0.89992305 </v>
    <v>       0.59272010       0.50039306       0.39745982 </v>
    <v>       0.58934753       0.50128823       0.89399229 </v>
    <v>       0.59272010       0.83294028       0.39745982 </v>
    <v>       0.58934753       0.83204510       0.89399229 </v>
    <v>       0.91213154       0.99878630       0.10355155 </v>
    <v>       0.91141765       0.00096170       0.60729908 </v>
    <v>       0.91213154       0.33454703       0.10355155 </v>
    <v>       0.91141765       0.33237163       0.60729908 </v>
    <v>       0.91213944       0.66666667       0.09971954 </v>
    <v>       0.90845173       0.66666667       0.60017579 </v>
    <v>       0.16228802       0.16666667       0.15872324 </v>
    <v>       0.16325093       0.16666667       0.65590939 </v>
    <v>       0.16170342       0.49951203       0.15845975 </v>
    <v>       0.15954795       0.49893658       0.65327783 </v>
    <v>       0.16170342       0.83382130       0.15845975 </v>
    <v>       0.15954795       0.83439675       0.65327783 </v>
    <v>       0.34092554       0.99949243       0.34408027 </v>
    <v>       0.34134846       0.99994676       0.84399519 </v>
    <v>       0.34092554       0.33384090       0.34408027 </v>
    <v>       0.34134846       0.33338657       0.84399519 </v>
    <v>       0.34190594       0.66666667       0.34435587 </v>
    <v>       0.33934196       0.66666667       0.84313689 </v>
    <v>       0.08663554       0.03143089       0.39569813 </v>
    <v>       0.09283518       0.00001002       0.89829295 </v>
    <v>       0.08663554       0.30190244       0.39569813 </v>
    <v>       0.09283518       0.33332331       0.89829295 </v>
    <v>       0.08719389       0.66666667       0.39550059 </v>
    <v>       0.09301860       0.66666667       0.89840783 </v>
    <v>       0.41260343       0.16666667       0.10393210 </v>
    <v>       0.41071370       0.16666667       0.60360392 </v>
    <v>       0.41154246       0.49909553       0.10350686 </v>
    <v>       0.41003434       0.50064460       0.60314135 </v>
    <v>       0.41154246       0.83423781       0.10350686 </v>
    <v>       0.41003434       0.83268874       0.60314135 </v>
    <v>       0.99788968       0.16666667       0.13760848 </v>
    <v>       0.99849553       0.16666667       0.62233299 </v>
    <v>       0.99973795       0.50098595       0.12532508 </v>
    <v>       0.99533131       0.49928300       0.62441423 </v>
    <v>       0.99973795       0.83234738       0.12532508 </v>
    <v>       0.99533131       0.83405034       0.62441423 </v>
    <v>       0.50543742       0.00000323       0.37210146 </v>
    <v>       0.50436178       0.00052675       0.87374162 </v>
    <v>       0.50543742       0.33333010       0.37210146 </v>
    <v>       0.50436178       0.33280658       0.87374162 </v>
    <v>       0.50532380       0.66666667       0.37339839 </v>
    <v>       0.50129403       0.66666667       0.86858413 </v>
    <v>       0.69153467       0.16666667       0.29818059 </v>
    <v>       0.67397351       0.16666667       0.78317966 </v>
    <v>       0.67543178       0.50085744       0.28158910 </v>
    <v>       0.67395028       0.50009440       0.77970426 </v>
    <v>       0.67543178       0.83247589       0.28158910 </v>
    <v>       0.67395028       0.83323893       0.77970426 </v>
    <v>       0.82422328       0.98063613       0.21094589 </v>
    <v>       0.82840705       0.00104004       0.72102541 </v>
    <v>       0.82422328       0.35269721       0.21094589 </v>
    <v>       0.82840705       0.33229329       0.72102541 </v>
    <v>       0.83022137       0.66666667       0.21626072 </v>
    <v>       0.82889876       0.66666667       0.71876753 </v>
    <v>       0.82632819       0.01720471       0.44878601 </v>
    <v>       0.83426427       0.99999527       0.94698767 </v>
    <v>       0.82632819       0.31612863       0.44878601 </v>
    <v>       0.83426427       0.33333806       0.94698767 </v>
    <v>       0.83734967       0.66666667       0.44148904 </v>
    <v>       0.83276445       0.66666667       0.94452366 </v>
    <v>       0.66880957       0.16666667       0.05826486 </v>
    <v>       0.66766560       0.16666667       0.55792131 </v>
    <v>       0.66515244       0.50444097       0.05004264 </v>
    <v>       0.67180357       0.49894739       0.55371513 </v>
    <v>       0.66515244       0.82889236       0.05004264 </v>
    <v>       0.67180357       0.83438595       0.55371513 </v>
    <v>       0.50187630       0.00061529       0.13118927 </v>
    <v>       0.49783799       0.99935693       0.62833955 </v>
    <v>       0.50187630       0.33271805       0.13118927 </v>
    <v>       0.49783799       0.33397641       0.62833955 </v>
    <v>       0.49801439       0.66666667       0.12836270 </v>
    <v>       0.49902806       0.66666667       0.62692454 </v>
    <v>       0.00433502       0.16666667       0.87258955 </v>
    <v>       0.00628050       0.48732254       0.37468172 </v>
    <v>       0.00477017       0.49997428       0.87143675 </v>
    <v>       0.00628050       0.84601079       0.37468172 </v>
    <v>       0.00477017       0.83335906       0.87143675 </v>
    <v>       0.17483705       0.99887908       0.27977575 </v>
    <v>       0.17341767       0.00050453       0.78054643 </v>
    <v>       0.17483705       0.33445426       0.27977575 </v>
    <v>       0.17341767       0.33282880       0.78054643 </v>
    <v>       0.17286768       0.66666667       0.28137957 </v>
    <v>       0.17224300       0.66666667       0.77893711 </v>
    <v>       0.33105840       0.16666667       0.22048978 </v>
    <v>       0.33025244       0.16666667       0.72129505 </v>
    <v>       0.33016339       0.50042955       0.22052142 </v>
    <v>       0.32796350       0.50012470       0.71956444 </v>
    <v>       0.33016339       0.83290379       0.22052142 </v>
    <v>       0.32796350       0.83320863       0.71956444 </v>
    <v>       0.33591758       0.16666667       0.44668662 </v>
    <v>       0.33489859       0.16666667       0.94761359 </v>
    <v>       0.33536392       0.50039253       0.44649616 </v>
    <v>       0.33384024       0.49942642       0.94697948 </v>
    <v>       0.33536392       0.83294080       0.44649616 </v>
    <v>       0.33384024       0.83390691       0.94697948 </v>
    <v>       0.16896852       0.00096124       0.05447796 </v>
    <v>       0.16906920       0.99997817       0.55416515 </v>
    <v>       0.16896852       0.33237209       0.05447796 </v>
    <v>       0.16906920       0.33335516       0.55416515 </v>
    <v>       0.17057294       0.66666667       0.05485663 </v>
    <v>       0.16530070       0.66666667       0.55218842 </v>
    <v>       0.83331206       0.16666667       0.36307153 </v>
   </varray>
  </structure>
  <varray name="forces" >
   <v>      -0.14799537       0.17464029       0.10073492 </v>
   <v>      -0.00060510       0.05676365      -0.01225660 </v>
   <v>       0.14799537       0.17464029       0.10073492 </v>
   <v>       0.00060510       0.05676365      -0.01225660 </v>
   <v>       0.00000000       0.04671298       0.06416286 </v>
   <v>       0.00000000       0.06549947      -0.02307095 </v>
   <v>       0.00000000      -0.07290277      -0.02214495 </v>
   <v>       0.08095959      -0.01226135       0.22343088 </v>
   <v>       0.00880758      -0.06214016      -0.02615248 </v>
   <v>      -0.08095959      -0.01226135       0.22343088 </v>
   <v>      -0.00880758      -0.06214016      -0.02615248 </v>
   <v>       0.00000000      -0.05719725      -0.08788513 </v>
   <v>       0.00000000      -0.04010346       0.04644128 </v>
   <v>       0.01216077      -0.01965733       0.02635469 </v>
   <v>       0.00545585      -0.02066995      -0.01742544 </v>
   <v>      -0.01216077      -0.01965733       0.02635469 </v>
   <v>      -0.00545585      -0.02066995      -0.01742544 </v>
   <v>      -0.04647712      -0.04182164      -0.05356662 </v>
   <v>       0.01939804       0.04746161      -0.09534215 </v>
   <v>       0.04647712      -0.04182164      -0.05356662 </v>
   <v>      -0.01939804       0.04746161      -0.09534215 </v>
   <v>       0.00000000       0.02219792      -0.00512415 </v>
   <v>       0.00000000       0.06751979      -0.03485706 </v>
   <v>       0.00000000       0.07026719      -0.05270133 </v>
   <v>       0.00000000       0.09734845       0.08670953 </v>
   <v>      -0.02226740       0.04498314      -0.02810407 </v>
   <v>      -0.02372403       0.09932694       0.08045042 </v>
   <v>       0.02226740       0.04498314      -0.02810407 </v>
   <v>       0.02372403       0.09932694       0.08045042 </v>
   <v>      -0.01022228      -0.13103857      -0.00100807 </v>
   <v>      -0.00029859      -0.07101923      -0.00020763 </v>
   <v>       0.01022228      -0.13103857      -0.00100807 </v>
   <v>       0.00029859      -0.07101923      -0.00020763 </v>
   <v>       0.00000000      -0.07583323      -0.01906454 </v>
   <v>       0.00000000      -0.05837647       0.01849699 </v>
   <v>      -0.35737624       0.35951553      -0.11329643 </v>
   <v>      -0.00395285      -0.00608104       0.01431950 </v>
   <v>       0.35737624       0.35951553      -0.11329643 </v>
   <v>       0.00395285      -0.00608104       0.01431950 </v>
   <v>       0.00000000       0.14854413      -0.06788448 </v>
   <v>       0.00000000      -0.01317119       0.03768960 </v>
   <v>       0.00000000      -0.01223075      -0.01883440 </v>
   <v>       0.00000000       0.00200165      -0.00724507 </v>
   <v>       0.04195595      -0.00431683      -0.02090223 </v>
   <v>      -0.01000964       0.00347284       0.00792084 </v>
   <v>      -0.04195595      -0.00431683      -0.02090223 </v>
   <v>       0.01000964       0.00347284       0.00792084 </v>
   <v>       0.00000000      -0.15615686       0.24237188 </v>
   <v>       0.00000000      -0.29029359       0.04165639 </v>
   <v>       0.00779422      -0.18553775       0.10024366 </v>
   <v>      -0.03821627      -0.23147496       0.09711548 </v>
   <v>      -0.00779422      -0.18553775       0.10024366 </v>
   <v>       0.03821627      -0.23147496       0.09711548 </v>
   <v>       0.03996130       0.22765643      -0.15215835 </v>
   <v>      -0.01109201       0.17607437      -0.10728193 </v>
   <v>      -0.03996130       0.22765643      -0.15215835 </v>
   <v>       0.01109201       0.17607437      -0.10728193 </v>
   <v>       0.00000000       0.21101882      -0.12173997 </v>
   <v>       0.00000000       0.18862814      -0.12978453 </v>
   <v>       0.00000000       0.39713664      -0.43589867 </v>
   <v>       0.00000000      -0.03679349      -0.11970949 </v>
   <v>       0.00900770      -0.05171686      -0.09818461 </v>
   <v>      -0.02296790      -0.05135976      -0.08072032 </v>
   <v>      -0.00900770      -0.05171686      -0.09818461 </v>
   <v>       0.02296790      -0.05135976      -0.08072032 </v>
   <v>      -0.26670138      -0.03065650       0.19809596 </v>
   <v>      -0.00648939       0.07988177       0.14016282 </v>
   <v>       0.26670138      -0.03065650       0.19809596 </v>
   <v>       0.00648939       0.07988177       0.14016282 </v>
   <v>       0.00000000       0.05843819       0.03913623 </v>
   <v>       0.00000000       0.02299191       0.14894175 </v>
   <v>       0.49212130       0.39405398       0.13964439 </v>
   <v>       0.01439660       0.39951720      -0.05294829 </v>
   <v>      -0.49212130       0.39405398       0.13964439 </v>
   <v>      -0.01439660       0.39951720      -0.05294829 </v>
   <v>       0.00000000       0.35274499      -0.06887877 </v>
   <v>       0.00000000       0.42644070      -0.06739358 </v>
   <v>       0.00000000      -0.38428593       0.05547637 </v>
   <v>       0.00000000      -0.38139047       0.11252344 </v>
   <v>      -0.03625965      -0.37838702       0.02786574 </v>
   <v>       0.01659813      -0.41191509       0.07935752 </v>
   <v>       0.03625965      -0.37838702       0.02786574 </v>
   <v>      -0.01659813      -0.41191509       0.07935752 </v>
   <v>       0.00766519      -0.14945551       0.13789639 </v>
   <v>       0.00487791      -0.14157705       0.11223859 </v>
   <v>      -0.00766519      -0.14945551       0.13789639 </v>
   <v>      -0.00487791      -0.14157705       0.11223859 </v>
   <v>       0.00000000      -0.14986873       0.10756121 </v>
   <v>       0.00000000      -0.16372237       0.10589419 </v>
   <v>       0.00000000       0.16201079      -0.11874330 </v>
   <v>       0.08527690      -0.04129725      -0.01645367 </v>
   <v>      -0.00728145       0.14978426      -0.13450533 </v>
   <v>      -0.08527690      -0.04129725      -0.01645367 </v>
   <v>       0.00728145       0.14978426      -0.13450533 </v>
   <v>       0.04085139       0.08864605       0.01354171 </v>
   <v>       0.01304021      -0.03255793      -0.13193100 </v>
   <v>      -0.04085139       0.08864605       0.01354171 </v>
   <v>      -0.01304021      -0.03255793      -0.13193100 </v>
   <v>       0.00000000      -0.03661274      -0.08079632 </v>
   <v>       0.00000000      -0.00945211      -0.15002341 </v>
   <v>       0.00000000       0.04983339       0.12355459 </v>
   <v>       0.00000000       0.01938681       0.12113981 </v>
   <v>      -0.00451383       0.04505055       0.11716274 </v>
   <v>       0.00357596       0.05267830       0.11560022 </v>
   <v>       0.00451383       0.04505055       0.11716274 </v>
   <v>      -0.00357596       0.05267830       0.11560022 </v>
   <v>       0.00000000       0.38846475      -0.07275347 </v>
   <v>       0.00000000       0.38150437      -0.07949238 </v>
   <v>       0.00761476       0.39958999      -0.07165391 </v>
   <v>      -0.00995223       0.38570619      -0.06861191 </v>
   <v>      -0.00761476       0.39958999      -0.07165391 </v>
   <v>       0.00995223       0.38570619      -0.06861191 </v>
   <v>       0.00806010      -0.38442811       0.08563492 </v>
   <v>       0.02278428      -0.37659806      -0.11177421 </v>
   <v>      -0.00806010      -0.38442811       0.08563492 </v>
   <v>      -0.02278428      -0.37659806      -0.11177421 </v>
   <v>       0.00000000      -0.39938038       0.08550298 </v>
   <v>       0.00000000      -0.38294300       0.04270465 </v>
   <v>       0.00000000      -1.15564654      -0.54251009 </v>
  </varray>
  <varray name="stress" >
   <v>     -35.37567337       0.00000000       0.00000000 </v>
   <v>       0.00000000     -21.72988069       3.20562657 </v>
   <v>       0.00000000       3.20562640     -16.34853492 </v>
  </varray>
  <energy>
   <i name="e_fr_energy">   -940.06721781 </i>
   <i name="e_wo_entrp">   -940.05941529 </i>
   <i name="e_0_energy">   -940.06331655 </i>
  </energy>
  <time name="totalsc">18056.8618059.66</time>
  <eigenvalues>
   <array>
    <dimension dim="1">band</dimension>
    <dimension dim="2">kpoint</dimension>
    <dimension dim="3">spin</dimension>
    <field>eigene</field>
    <field>occ</field>
    <set>
     <set comment="spin 1">
      <set comment="kpoint 1">
       <r>  -19.5984    1.0000 </r>
       <r>  -18.6355    1.0000 </r>
       <r>  -18.3876    1.0000 </r>
       <r>  -18.3013    1.0000 </r>
       <r>  -18.1937    1.0000 </r>
       <r>  -18.1849    1.0000 </r>
       <r>  -18.1641    1.0000 </r>
       <r>  -18.0177    1.0000 </r>
       <r>  -17.9634    1.0000 </r>
       <r>  -17.9515    1.0000 </r>
       <r>  -17.9009    1.0000 </r>
       <r>  -17.8264    1.0000 </r>
       <r>  -17.8014    1.0000 </r>
       <r>  -17.7518    1.0000 </r>
       <r>  -17.7412    1.0000 </r>
       <r>  -17.7314    1.0000 </r>
       <r>  -17.6756    1.0000 </r>
       <r>  -17.6697    1.0000 </r>
       <r>  -17.6675    1.0000 </r>
       <r>  -17.6236    1.0000 </r>
       <r>  -17.5830    1.0000 </r>
       <r>  -17.5647    1.0000 </r>
       <r>  -17.5500    1.0000 </r>
       <r>  -17.5405    1.0000 </r>
       <r>  -17.5275    1.0000 </r>
       <r>  -17.4977    1.0000 </r>
       <r>  -17.4495    1.0000 </r>
       <r>  -17.4171    1.0000 </r>
       <r>  -17.4045    1.0000 </r>
       <r>  -17.3869    1.0000 </r>
       <r>  -17.3619    1.0000 </r>
       <r>  -17.3598    1.0000 </r>
       <r>  -17.3430    1.0000 </r>
       <r>  -17.3326    1.0000 </r>
       <r>  -17.3115    1.0000 </r>
       <r>  -17.2896    1.0000 </r>
       <r>  -17.2720    1.0000 </r>
       <r>  -17.2547    1.0000 </r>
       <r>  -17.2461    1.0000 </r>
       <r>  -17.2427    1.0000 </r>
       <r>  -17.1948    1.0000 </r>
       <r>  -17.1757    1.0000 </r>
       <r>  -17.1413    1.0000 </r>
       <r>  -17.1256    1.0000 </r>
       <r>  -17.1199    1.0000 </r>
       <r>  -17.0978    1.0000 </r>
       <r>  -17.0858    1.0000 </r>
       <r>  -17.0786    1.0000 </r>
       <r>  -17.0505    1.0000 </r>
       <r>  -17.0144    1.0000 </r>
       <r>  -17.0144    1.0000 </r>
       <r>  -16.9833    1.0000 </r>
       <r>  -16.9806    1.0000 </r>
       <r>  -16.9699    1.0000 </r>
       <r>  -16.9601    1.0000 </r>
       <r>  -16.9569    1.0000 </r>
       <r>  -16.9499    1.0000 </r>
       <r>  -16.9440    1.0000 </r>
       <r>  -16.9378    1.0000 </r>
       <r>  -16.9043    1.0000 </r>
       <r>  -16.8865    1.0000 </r>
       <r>  -16.8829    1.0000 </r>
       <r>  -16.8826    1.0000 </r>
       <r>  -16.8751    1.0000 </r>
       <r>  -16.8390    1.0000 </r>
       <r>  -16.8105    1.0000 </r>
       <r>  -16.7675    1.0000 </r>
       <r>  -16.7527    1.0000 </r>
       <r>  -16.6583    1.0000 </r>
       <r>  -16.5463    1.0000 </r>
       <r>  -16.5379    1.0000 </r>
       <r>  -13.3174    1.0000 </r>
       <r>  -13.2260    1.0000 </r>
       <r>  -13.1955    1.0000 </r>
       <r>  -13.1846    1.0000 </r>
       <r>  -13.1628    1.0000 </r>
       <r>  -13.1573    1.0000 </r>
       <r>  -13.1458    1.0000 </r>
       <r>  -13.1384    1.0000 </r>
       <r>  -13.1216    1.0000 </r>
       <r>  -13.1008    1.0000 </r>
       <r>  -13.0976    1.0000 </r>
       <r>  -13.0902    1.0000 </r>
       <r>  -13.0660    1.0000 </r>
       <r>  -13.0554    1.0000 </r>
       <r>  -13.0423    1.0000 </r>
       <r>  -13.0360    1.0000 </r>
       <r>  -13.0312    1.0000 </r>
       <r>  -13.0194    1.0000 </r>
       <r>  -13.0102    1.0000 </r>
       <r>  -13.0092    1.0000 </r>
       <r>  -13.0039    1.0000 </r>
       <r>  -12.9884    1.0000 </r>
       <r>  -12.9867    1.0000 </r>
       <r>  -12.9849    1.0000 </r>
       <r>  -12.9756    1.0000 </r>
       <r>  -12.9719    1.0000 </r>
       <r>  -12.9612    1.0000 </r>
       <r>  -12.9578    1.0000 </r>
       <r>  -12.9569    1.0000 </r>
       <r>  -12.9498    1.0000 </r>
       <r>  -12.9492    1.0000 </r>
       <r>  -12.9416    1.0000 </r>
       <r>  -12.9395    1.0000 </r>
       <r>  -12.9344    1.0000 </r>
       <r>  -12.9337    1.0000 </r>
       <r>  -12.9294    1.0000 </r>
       <r>  -12.9270    1.0000 </r>
       <r>  -12.9194    1.0000 </r>
       <r>  -12.9169    1.0000 </r>
       <r>  -12.9154    1.0000 </r>
       <r>  -12.9144    1.0000 </r>
       <r>  -12.9105    1.0000 </r>
       <r>  -12.9085    1.0000 </r>
       <r>  -12.9032    1.0000 </r>
       <r>  -12.9031    1.0000 </r>
       <r>  -12.8973    1.0000 </r>
       <r>  -12.8931    1.0000 </r>
       <r>  -12.8929    1.0000 </r>
       <r>  -12.8911    1.0000 </r>
       <r>  -12.8891    1.0000 </r>
       <r>  -12.8855    1.0000 </r>
       <r>  -12.8811    1.0000 </r>
       <r>  -12.8806    1.0000 </r>
       <r>  -12.8772    1.0000 </r>
       <r>  -12.8674    1.0000 </r>
       <r>  -12.8667    1.0000 </r>
       <r>  -12.8631    1.0000 </r>
       <r>  -12.8557    1.0000 </r>
       <r>  -12.8546    1.0000 </r>
       <r>  -12.8457    1.0000 </r>
       <r>  -12.8453    1.0000 </r>
       <r>  -12.8394    1.0000 </r>
       <r>  -12.8365    1.0000 </r>
       <r>  -12.8365    1.0000 </r>
       <r>  -12.8301    1.0000 </r>
       <r>  -12.8254    1.0000 </r>
       <r>  -12.8226    1.0000 </r>
       <r>  -12.8193    1.0000 </r>
       <r>  -12.8175    1.0000 </r>
       <r>  -12.8141    1.0000 </r>
       <r>  -12.8126    1.0000 </r>
       <r>  -12.8023    1.0000 </r>
       <r>  -12.7993    1.0000 </r>
       <r>  -12.7990    1.0000 </r>
       <r>  -12.7940    1.0000 </r>
       <r>  -12.7927    1.0000 </r>
       <r>  -12.7888    1.0000 </r>
       <r>  -12.7862    1.0000 </r>
       <r>  -12.7856    1.0000 </r>
       <r>  -12.7828    1.0000 </r>
       <r>  -12.7809    1.0000 </r>
       <r>  -12.7793    1.0000 </r>
       <r>  -12.7754    1.0000 </r>
       <r>  -12.7750    1.0000 </r>
       <r>  -12.7684    1.0000 </r>
       <r>  -12.7677    1.0000 </r>
       <r>  -12.7626    1.0000 </r>
       <r>  -12.7625    1.0000 </r>
       <r>  -12.7600    1.0000 </r>
       <r>  -12.7550    1.0000 </r>
       <r>  -12.7543    1.0000 </r>
       <r>  -12.7520    1.0000 </r>
       <r>  -12.7499    1.0000 </r>
       <r>  -12.7490    1.0000 </r>
       <r>  -12.7469    1.0000 </r>
       <r>  -12.7443    1.0000 </r>
       <r>  -12.7361    1.0000 </r>
       <r>  -12.7300    1.0000 </r>
       <r>  -12.7287    1.0000 </r>
       <r>  -12.7280    1.0000 </r>
       <r>  -12.7260    1.0000 </r>
       <r>  -12.7243    1.0000 </r>
       <r>  -12.7217    1.0000 </r>
       <r>  -12.7198    1.0000 </r>
       <r>  -12.7166    1.0000 </r>
       <r>  -12.7160    1.0000 </r>
       <r>  -12.7131    1.0000 </r>
       <r>  -12.7120    1.0000 </r>
       <r>  -12.7084    1.0000 </r>
       <r>  -12.7064    1.0000 </r>
       <r>  -12.7055    1.0000 </r>
       <r>  -12.7033    1.0000 </r>
       <r>  -12.6983    1.0000 </r>
       <r>  -12.6947    1.0000 </r>
       <r>  -12.6905    1.0000 </r>
       <r>  -12.6816    1.0000 </r>
       <r>  -12.6795    1.0000 </r>
       <r>  -12.6781    1.0000 </r>
       <r>  -12.6761    1.0000 </r>
       <r>  -12.6710    1.0000 </r>
       <r>  -12.6700    1.0000 </r>
       <r>  -12.6664    1.0000 </r>
       <r>  -12.6642    1.0000 </r>
       <r>  -12.6587    1.0000 </r>
       <r>  -12.6519    1.0000 </r>
       <r>  -12.6500    1.0000 </r>
       <r>  -12.6469    1.0000 </r>
       <r>  -12.6444    1.0000 </r>
       <r>  -12.6407    1.0000 </r>
       <r>  -12.6395    1.0000 </r>
       <r>  -12.6390    1.0000 </r>
       <r>  -12.6338    1.0000 </r>
       <r>  -12.6272    1.0000 </r>
       <r>  -12.6267    1.0000 </r>
       <r>  -12.6246    1.0000 </r>
       <r>  -12.6216    1.0000 </r>
       <r>  -12.6203    1.0000 </r>
       <r>  -12.6175    1.0000 </r>
       <r>  -12.6163    1.0000 </r>
       <r>  -12.6122    1.0000 </r>
       <r>  -12.6116    1.0000 </r>
       <r>  -12.6061    1.0000 </r>
       <r>  -12.6055    1.0000 </r>
       <r>  -12.6042    1.0000 </r>
       <r>  -12.6023    1.0000 </r>
       <r>  -12.5992    1.0000 </r>
       <r>  -12.5944    1.0000 </r>
       <r>  -12.5904    1.0000 </r>
       <r>  -12.5877    1.0000 </r>
       <r>  -12.5781    1.0000 </r>
       <r>  -12.5714    1.0000 </r>
       <r>  -12.5711    1.0000 </r>
       <r>  -12.5646    1.0000 </r>
       <r>  -12.5612    1.0000 </r>
       <r>  -12.5592    1.0000 </r>
       <r>  -12.5531    1.0000 </r>
       <r>  -12.5526    1.0000 </r>
       <r>  -12.5515    1.0000 </r>
       <r>  -12.5420    1.0000 </r>
       <r>  -12.5381    1.0000 </r>
       <r>  -12.5327    1.0000 </r>
       <r>  -12.5246    1.0000 </r>
       <r>  -12.5215    1.0000 </r>
       <r>  -12.5206    1.0000 </r>
       <r>  -12.5191    1.0000 </r>
       <r>  -12.5117    1.0000 </r>
       <r>  -12.5100    1.0000 </r>
       <r>  -12.5036    1.0000 </r>
       <r>  -12.5001    1.0000 </r>
       <r>  -12.4997    1.0000 </r>
       <r>  -12.4961    1.0000 </r>
       <r>  -12.4892    1.0000 </r>
       <r>  -12.4851    1.0000 </r>
       <r>  -12.4816    1.0000 </r>
       <r>  -12.4763    1.0000 </r>
       <r>  -12.4756    1.0000 </r>
       <r>  -12.4677    1.0000 </r>
       <r>  -12.4600    1.0000 </r>
       <r>  -12.4584    1.0000 </r>
       <r>  -12.4503    1.0000 </r>
       <r>  -12.4481    1.0000 </r>
       <r>  -12.4435    1.0000 </r>
       <r>  -12.4431    1.0000 </r>
[...]
       <r>   -13.1413    82.5168   155.4708 </r>
       <r>   -13.0049   199.0967   182.6140 </r>
       <r>   -12.8686   496.0522   250.2417 </r>
       <r>   -12.7323   653.2513   339.3007 </r>
       <r>   -12.5959   666.3508   430.1455 </r>
       <r>   -12.4596   487.0991   496.5526 </r>
       <r>   -12.3233   274.8134   534.0184 </r>
       <r>   -12.1869   145.1455   553.8064 </r>
       <r>   -12.0506   111.7644   569.0434 </r>
       <r>   -11.9143    95.4077   582.0505 </r>
       <r>   -11.7780   104.5829   596.3085 </r>
       <r>   -11.6416    85.8119   608.0074 </r>
       <r>   -11.5053    28.2158   611.8541 </r>
       <r>   -11.3690     1.0701   612.0000 </r>
       <r>   -11.2326     0.0000   612.0000 </r>
       <r>   -11.0963     0.0000   612.0000 </r>
       <r>   -10.9600     0.0000   612.0000 </r>
       <r>   -10.8236     0.0000   612.0000 </r>
       <r>   -10.6873     0.0000   612.0000 </r>
       <r>   -10.5510     0.0000   612.0000 </r>
       <r>   -10.4146     0.0000   612.0000 </r>
       <r>   -10.2783     0.0000   612.0000 </r>
       <r>   -10.1420     0.0000   612.0000 </r>
       <r>   -10.0056     0.0000   612.0000 </r>
       <r>    -9.8693     0.0000   612.0000 </r>
       <r>    -9.7330     0.0000   612.0000 </r>
       <r>    -9.5966     0.0000   612.0000 </r>
       <r>    -9.4603     0.0000   612.0000 </r>
       <r>    -9.3240     0.0000   612.0000 </r>
       <r>    -9.1876     0.0000   612.0000 </r>
       <r>    -9.0513     0.0000   612.0000 </r>
       <r>    -8.9150     0.0000   612.0000 </r>
       <r>    -8.7787     0.0000   612.0000 </r>
       <r>    -8.6423     0.0000   612.0000 </r>
       <r>    -8.5060     0.0000   612.0000 </r>
       <r>    -8.3697     0.0000   612.0000 </r>
       <r>    -8.2333     0.0000   612.0000 </r>
       <r>    -8.0970     0.0000   612.0000 </r>
       <r>    -7.9607     0.0000   612.0000 </r>
       <r>    -7.8243     0.0000   612.0000 </r>
       <r>    -7.6880     0.0000   612.0000 </r>
       <r>    -7.5517     0.0000   612.0000 </r>
       <r>    -7.4153     0.0000   612.0000 </r>
       <r>    -7.2790     0.0300   612.0041 </r>
       <r>    -7.1427    12.0797   613.6509 </r>
       <r>    -7.0063     2.5603   614.0000 </r>
       <r>    -6.8700     0.0000   614.0000 </r>
       <r>    -6.7337     0.0000   614.0000 </r>
       <r>    -6.5973     0.0000   614.0000 </r>
       <r>    -6.4610     0.0000   614.0000 </r>
       <r>    -6.3247     0.0000   614.0000 </r>
       <r>    -6.1883     0.0000   614.0000 </r>
       <r>    -6.0520     0.0000   614.0000 </r>
       <r>    -5.9157     0.0000   614.0000 </r>
       <r>    -5.7794     0.0000   614.0000 </r>
       <r>    -5.6430     0.0000   614.0000 </r>
       <r>    -5.5067     0.0000   614.0000 </r>
       <r>    -5.3704     0.0000   614.0000 </r>
       <r>    -5.2340     0.4884   614.0666 </r>
       <r>    -5.0977     7.0360   615.0258 </r>
       <r>    -4.9614    20.7985   617.8613 </r>
       <r>    -4.8250    21.5018   620.7927 </r>
       <r>    -4.6887    31.2988   625.0597 </r>
       <r>    -4.5524    28.1608   628.8989 </r>
       <r>    -4.4160    45.6644   635.1245 </r>
       <r>    -4.2797    40.2030   640.6054 </r>
       <r>    -4.1434    51.6435   647.6461 </r>
       <r>    -4.0070    53.8472   654.9871 </r>
       <r>    -3.8707    41.7328   660.6767 </r>
       <r>    -3.7344    44.2792   666.7133 </r>
       <r>    -3.5980    42.8754   672.5586 </r>
       <r>    -3.4617    32.5649   676.9982 </r>
       <r>    -3.3254    31.2326   681.2562 </r>
       <r>    -3.1890    36.4265   686.2223 </r>
       <r>    -3.0527    41.2337   691.8438 </r>
       <r>    -2.9164    38.8489   697.1401 </r>
       <r>    -2.7801    35.1814   701.9365 </r>
       <r>    -2.6437    31.1802   706.1873 </r>
       <r>    -2.5074    43.1850   712.0748 </r>
       <r>    -2.3711    32.9908   716.5725 </r>
       <r>    -2.2347    38.1197   721.7694 </r>
       <r>    -2.0984    49.2174   728.4793 </r>
       <r>    -1.9621    37.9489   733.6530 </r>
       <r>    -1.8257    51.6987   740.7012 </r>
       <r>    -1.6894    69.0469   750.1144 </r>
       <r>    -1.5531    57.0813   757.8964 </r>
       <r>    -1.4167    60.3681   766.1265 </r>
       <r>    -1.2804    65.3746   775.0392 </r>
       <r>    -1.1441    55.6401   782.6247 </r>
       <r>    -1.0077    52.7330   789.8139 </r>
       <r>    -0.8714    62.2718   798.3035 </r>
       <r>    -0.7351    69.9002   807.8332 </r>
       <r>    -0.5987    70.6334   817.4627 </r>
       <r>    -0.4624    71.3703   827.1928 </r>
       <r>    -0.3261    65.1585   836.0759 </r>
       <r>    -0.1897    63.6443   844.7527 </r>
       <r>    -0.0534    66.1923   853.7768 </r>
       <r>     0.0829    73.1301   863.7468 </r>
       <r>     0.2192    84.1249   875.2157 </r>
       <r>     0.3556    66.1942   884.2400 </r>
       <r>     0.4919    75.9636   894.5963 </r>
       <r>     0.6282    78.0381   905.2354 </r>
       <r>     0.7646    88.5657   917.3097 </r>
       <r>     0.9009    89.5365   929.5164 </r>
       <r>     1.0372    88.0356   941.5184 </r>
       <r>     1.1736    99.1969   955.0421 </r>
       <r>     1.3099   118.9140   971.2539 </r>
       <r>     1.4462   117.8024   987.3141 </r>
       <r>     1.5826   120.1112  1003.6891 </r>
       <r>     1.7189    97.5774  1016.9920 </r>
       <r>     1.8552    69.2383  1026.4313 </r>
       <r>     1.9916    45.3798  1032.6181 </r>
       <r>     2.1279    37.5282  1037.7343 </r>
       <r>     2.2642     1.9485  1038.0000 </r>
       <r>     2.4006     0.0000  1038.0000 </r>
       <r>     2.5369     0.0000  1038.0000 </r>
       <r>     2.6732     0.0000  1038.0000 </r>
       <r>     2.8096     0.5456  1038.0744 </r>
       <r>     2.9459     5.3565  1038.8046 </r>
       <r>     3.0822     8.5307  1039.9676 </r>
       <r>     3.2185     0.2373  1040.0000 </r>
       <r>     3.3549     0.0000  1040.0000 </r>
       <r>     3.4912     0.0000  1040.0000 </r>
       <r>     3.6275     0.0000  1040.0000 </r>
       <r>     3.7639     0.0000  1040.0000 </r>
       <r>     3.9002     0.0000  1040.0000 </r>
       <r>     4.0365     0.0000  1040.0000 </r>
       <r>     4.1729     0.0000  1040.0000 </r>
       <r>     4.3092     0.1656  1040.0226 </r>
       <r>     4.4455     7.6830  1041.0700 </r>
       <r>     4.5819     6.8040  1041.9976 </r>
       <r>     4.7182     0.0175  1042.0000 </r>
       <r>     4.8545     0.0000  1042.0000 </r>
       <r>     4.9909     0.0000  1042.0000 </r>
       <r>     5.1272     0.0000  1042.0000 </r>
       <r>     5.2635     0.0000  1042.0000 </r>
       <r>     5.3999     0.0000  1042.0000 </r>
       <r>     5.5362     0.0000  1042.0000 </r>
       <r>     5.6725     0.0000  1042.0000 </r>
       <r>     5.8089     0.0000  1042.0000 </r>
       <r>     5.9452     0.0000  1042.0000 </r>
       <r>     6.0815     0.0000  1042.0000 </r>
       <r>     6.2178     0.0000  1042.0000 </r>
       <r>     6.3542     0.0000  1042.0000 </r>
       <r>     6.4905     0.0000  1042.0000 </r>
       <r>     6.6268     0.0000  1042.0000 </r>
       <r>     6.7632     0.5347  1042.0729 </r>
       <r>     6.8995     1.2982  1042.2499 </r>
       <r>     7.0358     0.0009  1042.2500 </r>
       <r>     7.1722     0.0000  1042.2500 </r>
       <r>     7.3085     0.0001  1042.2500 </r>
       <r>     7.4448     1.0506  1042.3932 </r>
       <r>     7.5812     2.6100  1042.7491 </r>
       <r>     7.7175     2.6440  1043.1095 </r>
       <r>     7.8538     4.6302  1043.7408 </r>
       <r>     7.9902     1.8081  1043.9873 </r>
       <r>     8.1265     4.4723  1044.5970 </r>
       <r>     8.2628     2.4157  1044.9263 </r>
       <r>     8.3992     2.5864  1045.2789 </r>
       <r>     8.5355     5.5485  1046.0354 </r>
       <r>     8.6718     3.6717  1046.5359 </r>
       <r>     8.8082     6.2422  1047.3870 </r>
       <r>     8.9445     6.7580  1048.3083 </r>
       <r>     9.0808     5.4273  1049.0482 </r>
       <r>     9.2171    10.3690  1050.4618 </r>
       <r>     9.3535    12.7855  1052.2049 </r>
       <r>     9.4898     7.8380  1053.2734 </r>
       <r>     9.6261    13.8748  1055.1650 </r>
       <r>     9.7625     9.5383  1056.4654 </r>
       <r>     9.8988    13.4812  1058.3033 </r>
       <r>    10.0351    12.9400  1060.0675 </r>
       <r>    10.1715    13.6796  1061.9324 </r>
       <r>    10.3078    25.4398  1065.4007 </r>
       <r>    10.4441    20.2630  1068.1632 </r>
       <r>    10.5805    35.0961  1072.9479 </r>
       <r>    10.7168    41.0474  1078.5440 </r>
       <r>    10.8531    30.2990  1082.6747 </r>
       <r>    10.9895    31.0911  1086.9134 </r>
       <r>    11.1258    32.3234  1091.3201 </r>
       <r>    11.2621    31.7792  1095.6526 </r>
       <r>    11.3985    31.1319  1099.8969 </r>
       <r>    11.5348    35.4510  1104.7300 </r>
       <r>    11.6711    33.9969  1109.3648 </r>
       <r>    11.8075    34.1137  1114.0156 </r>
       <r>    11.9438    36.7162  1119.0212 </r>
       <r>    12.0801    29.4137  1123.0312 </r>
       <r>    12.2164    34.2788  1127.7045 </r>
       <r>    12.3528    38.9090  1133.0090 </r>
       <r>    12.4891    46.9599  1139.4112 </r>
       <r>    12.6254    35.8146  1144.2938 </r>
       <r>    12.7618    23.8278  1147.5423 </r>
       <r>    12.8981    33.0614  1152.0496 </r>
       <r>    13.0344    28.5054  1155.9358 </r>
       <r>    13.1708    37.9548  1161.1103 </r>
       <r>    13.3071    38.5198  1166.3618 </r>
       <r>    13.4434    32.7389  1170.8251 </r>
       <r>    13.5798    29.9451  1174.9076 </r>
       <r>    13.7161    30.5904  1179.0780 </r>
       <r>    13.8524    26.1783  1182.6470 </r>
       <r>    13.9888    27.5276  1186.3999 </r>
       <r>    14.1251    32.0464  1190.7688 </r>
       <r>    14.2614    25.6532  1194.2661 </r>
       <r>    14.3978    21.9176  1197.2542 </r>
       <r>    14.5341    27.7879  1201.0426 </r>
       <r>    14.6704    29.4129  1205.0525 </r>
       <r>    14.8068    27.4765  1208.7984 </r>
       <r>    14.9431    23.1508  1211.9546 </r>
       <r>    15.0794    19.7743  1214.6505 </r>
       <r>    15.2157    20.7086  1217.4737 </r>
       <r>    15.3521    23.4913  1220.6763 </r>
       <r>    15.4884    22.9866  1223.8101 </r>
       <r>    15.6247    22.8544  1226.9259 </r>
       <r>    15.7611    18.9528  1229.5098 </r>
       <r>    15.8974    19.4530  1232.1619 </r>
       <r>    16.0337    18.4850  1234.6819 </r>
       <r>    16.1701    20.1132  1237.4240 </r>
       <r>    16.3064    17.5017  1239.8101 </r>
       <r>    16.4427    13.3709  1241.6329 </r>
       <r>    16.5791    17.1311  1243.9684 </r>
       <r>    16.7154    12.0234  1245.6076 </r>
       <r>    16.8517    10.6763  1247.0631 </r>
       <r>    16.9881     5.4095  1247.8006 </r>
       <r>    17.1244     7.2483  1248.7888 </r>
       <r>    17.2607     3.7806  1249.3042 </r>
       <r>    17.3971     1.4352  1249.4999 </r>
       <r>    17.5334     1.4792  1249.7015 </r>
       <r>    17.6697     2.1763  1249.9982 </r>
       <r>    17.8061     0.0130  1250.0000 </r>
       <r>    17.9424     0.0000  1250.0000 </r>
       <r>    18.0787     0.0000  1250.0000 </r>
       <r>    18.2150     0.0000  1250.0000 </r>
       <r>    18.3514     0.0000  1250.0000 </r>
       <r>    18.4877     0.0000  1250.0000 </r>
       <r>    18.6240     0.0000  1250.0000 </r>
       <r>    18.7604     0.0000  1250.0000 </r>
       <r>    18.8967     0.0000  1250.0000 </r>
       <r>    19.0330     0.0000  1250.0000 </r>
       <r>    19.1694     0.0000  1250.0000 </r>
       <r>    19.3057     0.0000  1250.0000 </r>
       <r>    19.4420     0.0000  1250.0000 </r>
      </set>
     </set>
    </array>
   </total>
  </dos>
 </calculation>
 <structure name="finalpos" >
  <crystal>
   <varray name="basis" >
    <v>       0.00000000      12.28047342       0.00000000 </v>
    <v>       9.14270205       0.00000000       0.00000000 </v>
    <v>       0.00000000      -2.76826177     -11.30069772 </v>
   </varray>
   <i name="volume">   1268.80515525 </i>
   <varray name="rec_basis" >
    <v>       0.00000000       0.08143009      -0.01994742 </v>
    <v>       0.10937686      -0.00000000       0.00000000 </v>
    <v>       0.00000000       0.00000000      -0.08849011 </v>
   </varray>
  </crystal>
  <varray name="positions" >
   <v>       0.66327175       0.99354137       0.15244452 </v>
   <v>       0.65981166       0.99922349       0.65859168 </v>
   <v>       0.66327175       0.33979197       0.15244452 </v>
   <v>       0.65981166       0.33410985       0.65859168 </v>
   <v>       0.65991778       0.66666667       0.15576562 </v>
   <v>       0.66131995       0.66666667       0.65526429 </v>
   <v>       0.84189272       0.16666667       0.84597865 </v>
   <v>       0.84537944       0.50091275       0.33549493 </v>
   <v>       0.84263560       0.49988660       0.84393964 </v>
   <v>       0.84537944       0.83242058       0.33549493 </v>
   <v>       0.84263560       0.83344673       0.84393964 </v>
   <v>       0.59032898       0.16666667       0.40250508 </v>
   <v>       0.59223790       0.16666667       0.89992305 </v>
   <v>       0.59272010       0.50039306       0.39745982 </v>
   <v>       0.58934753       0.50128823       0.89399229 </v>
   <v>       0.59272010       0.83294028       0.39745982 </v>
   <v>       0.58934753       0.83204510       0.89399229 </v>
   <v>       0.91213154       0.99878630       0.10355155 </v>
   <v>       0.91141765       0.00096170       0.60729908 </v>
   <v>       0.91213154       0.33454703       0.10355155 </v>
   <v>       0.91141765       0.33237163       0.60729908 </v>
   <v>       0.91213944       0.66666667       0.09971954 </v>
   <v>       0.90845173       0.66666667       0.60017579 </v>
   <v>       0.16228802       0.16666667       0.15872324 </v>
   <v>       0.16325093       0.16666667       0.65590939 </v>
   <v>       0.16170342       0.49951203       0.15845975 </v>
   <v>       0.15954795       0.49893658       0.65327783 </v>
   <v>       0.16170342       0.83382130       0.15845975 </v>
   <v>       0.15954795       0.83439675       0.65327783 </v>
   <v>       0.34092554       0.99949243       0.34408027 </v>
   <v>       0.34134846       0.99994676       0.84399519 </v>
   <v>       0.34092554       0.33384090       0.34408027 </v>
   <v>       0.34134846       0.33338657       0.84399519 </v>
   <v>       0.34190594       0.66666667       0.34435587 </v>
   <v>       0.33934196       0.66666667       0.84313689 </v>
   <v>       0.08663554       0.03143089       0.39569813 </v>
   <v>       0.09283518       0.00001002       0.89829295 </v>
   <v>       0.08663554       0.30190244       0.39569813 </v>
   <v>       0.09283518       0.33332331       0.89829295 </v>
   <v>       0.08719389       0.66666667       0.39550059 </v>
   <v>       0.09301860       0.66666667       0.89840783 </v>
   <v>       0.41260343       0.16666667       0.10393210 </v>
   <v>       0.41071370       0.16666667       0.60360392 </v>
   <v>       0.41154246       0.49909553       0.10350686 </v>
   <v>       0.41003434       0.50064460       0.60314135 </v>
   <v>       0.41154246       0.83423781       0.10350686 </v>
   <v>       0.41003434       0.83268874       0.60314135 </v>
   <v>       0.99788968       0.16666667       0.13760848 </v>
   <v>       0.99849553       0.16666667       0.62233299 </v>
   <v>       0.99973795       0.50098595       0.12532508 </v>
   <v>       0.99533131       0.49928300       0.62441423 </v>
   <v>       0.99973795       0.83234738       0.12532508 </v>
   <v>       0.99533131       0.83405034       0.62441423 </v>
   <v>       0.50543742       0.00000323       0.37210146 </v>
   <v>       0.50436178       0.00052675       0.87374162 </v>
   <v>       0.50543742       0.33333010       0.37210146 </v>
   <v>       0.50436178       0.33280658       0.87374162 </v>
   <v>       0.50532380       0.66666667       0.37339839 </v>
   <v>       0.50129403       0.66666667       0.86858413 </v>
   <v>       0.69153467       0.16666667       0.29818059 </v>
   <v>       0.67397351       0.16666667       0.78317966 </v>
   <v>       0.67543178       0.50085744       0.28158910 </v>
   <v>       0.67395028       0.50009440       0.77970426 </v>
   <v>       0.67543178       0.83247589       0.28158910 </v>
   <v>       0.67395028       0.83323893       0.77970426 </v>
   <v>       0.82422328       0.98063613       0.21094589 </v>
   <v>       0.82840705       0.00104004       0.72102541 </v>
   <v>       0.82422328       0.35269721       0.21094589 </v>
   <v>       0.82840705       0.33229329       0.72102541 </v>
   <v>       0.83022137       0.66666667       0.21626072 </v>
   <v>       0.82889876       0.66666667       0.71876753 </v>
   <v>       0.82632819       0.01720471       0.44878601 </v>
   <v>       0.83426427       0.99999527       0.94698767 </v>
   <v>       0.82632819       0.31612863       0.44878601 </v>
   <v>       0.83426427       0.33333806       0.94698767 </v>
   <v>       0.83734967       0.66666667       0.44148904 </v>
   <v>       0.83276445       0.66666667       0.94452366 </v>
   <v>       0.66880957       0.16666667       0.05826486 </v>
   <v>       0.66766560       0.16666667       0.55792131 </v>
   <v>       0.66515244       0.50444097       0.05004264 </v>
   <v>       0.67180357       0.49894739       0.55371513 </v>
   <v>       0.66515244       0.82889236       0.05004264 </v>
   <v>       0.67180357       0.83438595       0.55371513 </v>
   <v>       0.50187630       0.00061529       0.13118927 </v>
   <v>       0.49783799       0.99935693       0.62833955 </v>
   <v>       0.50187630       0.33271805       0.13118927 </v>
   <v>       0.49783799       0.33397641       0.62833955 </v>
   <v>       0.49801439       0.66666667       0.12836270 </v>
   <v>       0.49902806       0.66666667       0.62692454 </v>
   <v>       0.00433502       0.16666667       0.87258955 </v>
   <v>       0.00628050       0.48732254       0.37468172 </v>
   <v>       0.00477017       0.49997428       0.87143675 </v>
   <v>       0.00628050       0.84601079       0.37468172 </v>
   <v>       0.00477017       0.83335906       0.87143675 </v>
   <v>       0.17483705       0.99887908       0.27977575 </v>
   <v>       0.17341767       0.00050453       0.78054643 </v>
   <v>       0.17483705       0.33445426       0.27977575 </v>
   <v>       0.17341767       0.33282880       0.78054643 </v>
   <v>       0.17286768       0.66666667       0.28137957 </v>
   <v>       0.17224300       0.66666667       0.77893711 </v>
   <v>       0.33105840       0.16666667       0.22048978 </v>
   <v>       0.33025244       0.16666667       0.72129505 </v>
   <v>       0.33016339       0.50042955       0.22052142 </v>
   <v>       0.32796350       0.50012470       0.71956444 </v>
   <v>       0.33016339       0.83290379       0.22052142 </v>
   <v>       0.32796350       0.83320863       0.71956444 </v>
   <v>       0.33591758       0.16666667       0.44668662 </v>
   <v>       0.33489859       0.16666667       0.94761359 </v>
   <v>       0.33536392       0.50039253       0.44649616 </v>
   <v>       0.33384024       0.49942642       0.94697948 </v>
   <v>       0.33536392       0.83294080       0.44649616 </v>
   <v>       0.33384024       0.83390691       0.94697948 </v>
   <v>       0.16896852       0.00096124       0.05447796 </v>
   <v>       0.16906920       0.99997817       0.55416515 </v>
   <v>       0.16896852       0.33237209       0.05447796 </v>
   <v>       0.16906920       0.33335516       0.55416515 </v>
   <v>       0.17057294       0.66666667       0.05485663 </v>
   <v>       0.16530070       0.66666667       0.55218842 </v>
   <v>       0.83331206       0.16666667       0.36307153 </v>
  </varray>
 </structure>
</modeling>
