<?xml version="1.0" encoding="ISO-8859-1"?>
<modeling>
 <generator>
  <i name="program" type="string">vasp </i>
  <i name="version" type="string">6.4.2  </i>
  <i name="subversion" type="string">20Jul23 (build Nov 12 2023 22:16:35) complex                          parallel </i>
  <i name="platform" type="string">LinuxNV </i>
  <i name="date" type="string">2025 03 16 </i>
  <i name="time" type="string">12:24:39 </i>
 </generator>
 <incar>
  <i type="int" name="ISTART">     0</i>
  <i type="string" name="PREC">Normal</i>
  <i type="string" name="ALGO">All</i>
  <i type="int" name="ISPIN">     1</i>
  <i type="int" name="ICHARG">     0</i>
  <i type="int" name="NELM">   500</i>
  <i type="int" name="IBRION">    -1</i>
  <i name="EDIFF">      0.00001000</i>
  <i name="EDIFFG">     -0.00500000</i>
  <i type="int" name="NSW">     0</i>
  <i type="int" name="ISIF">     2</i>
  <i name="ENCUT">    450.00000000</i>
  <i name="NELECT">   1056.00000000</i>
  <i type="string" name="LREAL">Auto</i>
  <i type="logical" name="LPLANE"> T  </i>
  <i name="TIME">      0.40000000</i>
  <i type="int" name="ISMEAR">     0</i>
  <i name="SIGMA">      0.05000000</i>
  <i type="logical" name="LWAVE"> T  </i>
  <i type="logical" name="LCHARG"> T  </i>
  <i name="HFSCREEN">      0.20000000</i>
  <i type="logical" name="LHFCALC"> T  </i>
  <i type="int" name="LMAXFOCK">     4</i>
  <i name="AEXX">      0.32000000</i>
  <i type="string" name="PRECFOCK">Fast</i>
 </incar>
 <primitive_cell>
  <structure name="primitive_cell" >
   <crystal>
    <varray name="basis" >
     <v>       0.00000000      12.28047342       0.00000000 </v>
     <v>       9.14270205       0.00000000       0.00000000 </v>
     <v>       0.00000000      -2.76826177     -11.30069772 </v>
    </varray>
    <i name="volume">   1268.80515525 </i>
    <varray name="rec_basis" >
     <v>       0.00000000       0.08143009      -0.01994742 </v>
     <v>       0.10937686      -0.00000000       0.00000000 </v>
     <v>       0.00000000       0.00000000      -0.08849011 </v>
    </varray>
   </crystal>
   <varray name="positions" >
    <v>       0.66571834       0.00154177       0.15555855 </v>
    <v>       0.66206588       0.99927619       0.66387097 </v>
    <v>       0.66571834       0.33179156       0.15555855 </v>
    <v>       0.66206588       0.33405715       0.66387097 </v>
    <v>       0.65868348       0.66666667       0.14796089 </v>
    <v>       0.65599310       0.66666667       0.66855776 </v>
    <v>       0.84157513       0.16666667       0.84368206 </v>
    <v>       0.83770637       0.49609409       0.33848670 </v>
    <v>       0.84260969       0.49851380       0.84448467 </v>
    <v>       0.83770637       0.83723924       0.33848670 </v>
    <v>       0.84260969       0.83481953       0.84448467 </v>
    <v>       0.61826252       0.16666667       0.39805611 </v>
    <v>       0.58748196       0.16666667       0.89979124 </v>
    <v>       0.62103761       0.49282166       0.40542124 </v>
    <v>       0.58100790       0.49918776       0.89529487 </v>
    <v>       0.62103761       0.84051167       0.40542124 </v>
    <v>       0.58100790       0.83414557       0.89529487 </v>
    <v>       0.91487592       0.00125773       0.10689767 </v>
    <v>       0.88796110       0.03815606       0.57506267 </v>
    <v>       0.91487592       0.33207561       0.10689767 </v>
    <v>       0.88796110       0.29517727       0.57506267 </v>
    <v>       0.91473363       0.66666667       0.10626795 </v>
    <v>       0.90621178       0.66666667       0.59643104 </v>
    <v>       0.16899375       0.16666667       0.16411154 </v>
    <v>       0.16280491       0.16666667       0.63913304 </v>
    <v>       0.16861424       0.49976408       0.16422344 </v>
    <v>       0.14309398       0.49645010       0.65176566 </v>
    <v>       0.16861424       0.83356925       0.16422344 </v>
    <v>       0.14309398       0.83688324       0.65176566 </v>
    <v>       0.35734344       0.99942749       0.34862045 </v>
    <v>       0.33223566       0.99758870       0.84211219 </v>
    <v>       0.35734344       0.33390584       0.34862045 </v>
    <v>       0.33223566       0.33574463       0.84211219 </v>
    <v>       0.36603224       0.66666667       0.34816586 </v>
    <v>       0.33037457       0.66666667       0.83765864 </v>
    <v>       0.08559080       0.00454617       0.39562720 </v>
    <v>       0.09395592       0.00238447       0.89995755 </v>
    <v>       0.08559080       0.32878716       0.39562720 </v>
    <v>       0.09395592       0.33094886       0.89995755 </v>
    <v>       0.09501858       0.66666667       0.39587254 </v>
    <v>       0.09296174       0.66666667       0.90294678 </v>
    <v>       0.41011075       0.16666667       0.09824123 </v>
    <v>       0.41177689       0.16666667       0.60731124 </v>
    <v>       0.41054589       0.49762235       0.09879190 </v>
    <v>       0.40712650       0.49800709       0.60716632 </v>
    <v>       0.41054589       0.83571098       0.09879190 </v>
    <v>       0.40712650       0.83532624       0.60716632 </v>
    <v>       0.00576302       0.16666667       0.12596136 </v>
    <v>       0.02527852       0.16666667       0.66364333 </v>
    <v>       0.00499611       0.50020767       0.12731016 </v>
    <v>       0.98032387       0.48189998       0.60923634 </v>
    <v>       0.00499611       0.83312566       0.12731016 </v>
    <v>       0.98032387       0.85143335       0.60923634 </v>
    <v>       0.52030256       0.00080068       0.37699769 </v>
    <v>       0.49405128       0.00222397       0.87217811 </v>
    <v>       0.52030256       0.33253265       0.37699769 </v>
    <v>       0.49405128       0.33110936       0.87217811 </v>
    <v>       0.52817637       0.66666667       0.38074311 </v>
    <v>       0.49350083       0.66666667       0.87217414 </v>
    <v>       0.66384653       0.16666667       0.26068031 </v>
    <v>       0.67265067       0.16666667       0.78588208 </v>
    <v>       0.66132471       0.50773985       0.25984010 </v>
    <v>       0.67254254       0.50256990       0.78946305 </v>
    <v>       0.66132471       0.82559348       0.25984010 </v>
    <v>       0.67254254       0.83076344       0.78946305 </v>
    <v>       0.82394919       0.97015892       0.20684002 </v>
    <v>       0.82614962       0.99637856       0.72544931 </v>
    <v>       0.82394919       0.36317441       0.20684002 </v>
    <v>       0.82614962       0.33695477       0.72544931 </v>
    <v>       0.82830365       0.66666667       0.21712176 </v>
    <v>       0.82729338       0.66666667       0.72187677 </v>
    <v>       0.77215475       0.95684167       0.43900558 </v>
    <v>       0.83650299       0.99948185       0.94975422 </v>
    <v>       0.77215475       0.37649166       0.43900558 </v>
    <v>       0.83650299       0.33385148       0.94975422 </v>
    <v>       0.81963856       0.66666667       0.43830047 </v>
    <v>       0.83878921       0.66666667       0.94875717 </v>
    <v>       0.67901156       0.16666667       0.04947644 </v>
    <v>       0.65544417       0.16666667       0.56162875 </v>
    <v>       0.66678300       0.50188796       0.04508640 </v>
    <v>       0.65522689       0.50494687       0.56886753 </v>
    <v>       0.66678300       0.83144537       0.04508640 </v>
    <v>       0.65522689       0.82838647       0.56886753 </v>
    <v>       0.50004897       0.00090154       0.11435983 </v>
    <v>       0.49925531       0.99913269       0.63942449 </v>
    <v>       0.50004897       0.33243179       0.11435983 </v>
    <v>       0.49925531       0.33420064       0.63942449 </v>
    <v>       0.49444521       0.66666667       0.11473606 </v>
    <v>       0.49304559       0.66666667       0.63898564 </v>
    <v>       0.00321851       0.16666667       0.88717338 </v>
    <v>       0.00187175       0.50600484       0.37020152 </v>
    <v>       0.00490682       0.49906029       0.87520021 </v>
    <v>       0.00187175       0.82732849       0.37020152 </v>
    <v>       0.00490682       0.83427304       0.87520021 </v>
    <v>       0.18141308       0.99694774       0.28642952 </v>
    <v>       0.17199316       0.98477477       0.78171800 </v>
    <v>       0.18141308       0.33638559       0.28642952 </v>
    <v>       0.17199316       0.34855857       0.78171800 </v>
    <v>       0.18175228       0.66666667       0.28291363 </v>
    <v>       0.16175721       0.66666667       0.77489530 </v>
    <v>       0.33878830       0.16666667       0.22517921 </v>
    <v>       0.32204866       0.16666667       0.72064299 </v>
    <v>       0.33985943       0.49989000       0.22479288 </v>
    <v>       0.32239702       0.50279842       0.72040611 </v>
    <v>       0.33985943       0.83344334       0.22479288 </v>
    <v>       0.32239702       0.83053491       0.72040611 </v>
    <v>       0.34345979       0.16666667       0.44753556 </v>
    <v>       0.32148765       0.16666667       0.94336931 </v>
    <v>       0.34470094       0.50237068       0.44720803 </v>
    <v>       0.32505030       0.50308164       0.94482677 </v>
    <v>       0.34470094       0.83096265       0.44720803 </v>
    <v>       0.32505030       0.83025169       0.94482677 </v>
    <v>       0.17569477       0.99866992       0.05885825 </v>
    <v>       0.18077804       0.99155038       0.55007618 </v>
    <v>       0.17569477       0.33466341       0.05885825 </v>
    <v>       0.18077804       0.34178295       0.55007618 </v>
    <v>       0.17616643       0.66666667       0.05882686 </v>
    <v>       0.16521950       0.66666667       0.55504875 </v>
    <v>       0.95120502       0.16666667       0.37388018 </v>
   </varray>
  </structure>
  <varray name="primitive_index" >
   <v type="int" >        1 </v>
   <v type="int" >        2 </v>
   <v type="int" >        3 </v>
   <v type="int" >        4 </v>
   <v type="int" >        5 </v>
   <v type="int" >        6 </v>
   <v type="int" >        7 </v>
   <v type="int" >        8 </v>
   <v type="int" >        9 </v>
   <v type="int" >       10 </v>
   <v type="int" >       11 </v>
   <v type="int" >       12 </v>
   <v type="int" >       13 </v>
   <v type="int" >       14 </v>
   <v type="int" >       15 </v>
   <v type="int" >       16 </v>
   <v type="int" >       17 </v>
   <v type="int" >       18 </v>
   <v type="int" >       19 </v>
   <v type="int" >       20 </v>
   <v type="int" >       21 </v>
   <v type="int" >       22 </v>
   <v type="int" >       23 </v>
   <v type="int" >       24 </v>
   <v type="int" >       25 </v>
   <v type="int" >       26 </v>
   <v type="int" >       27 </v>
   <v type="int" >       28 </v>
   <v type="int" >       29 </v>
   <v type="int" >       30 </v>
   <v type="int" >       31 </v>
   <v type="int" >       32 </v>
   <v type="int" >       33 </v>
   <v type="int" >       34 </v>
   <v type="int" >       35 </v>
   <v type="int" >       36 </v>
   <v type="int" >       37 </v>
   <v type="int" >       38 </v>
   <v type="int" >       39 </v>
   <v type="int" >       40 </v>
   <v type="int" >       41 </v>
   <v type="int" >       42 </v>
   <v type="int" >       43 </v>
   <v type="int" >       44 </v>
   <v type="int" >       45 </v>
   <v type="int" >       46 </v>
   <v type="int" >       47 </v>
   <v type="int" >       48 </v>
   <v type="int" >       49 </v>
   <v type="int" >       50 </v>
   <v type="int" >       51 </v>
   <v type="int" >       52 </v>
   <v type="int" >       53 </v>
   <v type="int" >       54 </v>
   <v type="int" >       55 </v>
   <v type="int" >       56 </v>
   <v type="int" >       57 </v>
   <v type="int" >       58 </v>
   <v type="int" >       59 </v>
   <v type="int" >       60 </v>
   <v type="int" >       61 </v>
   <v type="int" >       62 </v>
   <v type="int" >       63 </v>
   <v type="int" >       64 </v>
   <v type="int" >       65 </v>
   <v type="int" >       66 </v>
   <v type="int" >       67 </v>
   <v type="int" >       68 </v>
   <v type="int" >       69 </v>
   <v type="int" >       70 </v>
   <v type="int" >       71 </v>
   <v type="int" >       72 </v>
   <v type="int" >       73 </v>
   <v type="int" >       74 </v>
   <v type="int" >       75 </v>
   <v type="int" >       76 </v>
   <v type="int" >       77 </v>
   <v type="int" >       78 </v>
   <v type="int" >       79 </v>
   <v type="int" >       80 </v>
   <v type="int" >       81 </v>
   <v type="int" >       82 </v>
   <v type="int" >       83 </v>
   <v type="int" >       84 </v>
   <v type="int" >       85 </v>
   <v type="int" >       86 </v>
   <v type="int" >       87 </v>
   <v type="int" >       88 </v>
   <v type="int" >       89 </v>
   <v type="int" >       90 </v>
   <v type="int" >       91 </v>
   <v type="int" >       92 </v>
   <v type="int" >       93 </v>
   <v type="int" >       94 </v>
   <v type="int" >       95 </v>
   <v type="int" >       96 </v>
   <v type="int" >       97 </v>
   <v type="int" >       98 </v>
   <v type="int" >       99 </v>
   <v type="int" >      100 </v>
   <v type="int" >      101 </v>
   <v type="int" >      102 </v>
   <v type="int" >      103 </v>
   <v type="int" >      104 </v>
   <v type="int" >      105 </v>
   <v type="int" >      106 </v>
   <v type="int" >      107 </v>
   <v type="int" >      108 </v>
   <v type="int" >      109 </v>
   <v type="int" >      110 </v>
   <v type="int" >      111 </v>
   <v type="int" >      112 </v>
   <v type="int" >      113 </v>
   <v type="int" >      114 </v>
   <v type="int" >      115 </v>
   <v type="int" >      116 </v>
   <v type="int" >      117 </v>
   <v type="int" >      118 </v>
   <v type="int" >      119 </v>
  </varray>
 </primitive_cell>
 <kpoints>
  <generation param="Gamma">
   <v type="int" name="divisions">       2        2        2 </v>
   <v name="usershift">      0.00000000       0.00000000       0.00000000 </v>
   <v name="genvec1">      0.50000000       0.00000000       0.00000000 </v>
   <v name="genvec2">      0.00000000       0.50000000       0.00000000 </v>
   <v name="genvec3">      0.00000000       0.00000000       0.50000000 </v>
   <v name="shift">      0.00000000       0.00000000       0.00000000 </v>
  </generation>
  <varray name="kpointlist" >
   <v>       0.00000000       0.00000000       0.00000000 </v>
   <v>       0.50000000       0.00000000       0.00000000 </v>
   <v>       0.00000000       0.50000000       0.00000000 </v>
   <v>       0.50000000       0.50000000       0.00000000 </v>
   <v>       0.00000000       0.00000000       0.50000000 </v>
   <v>       0.50000000       0.00000000       0.50000000 </v>
   <v>       0.00000000       0.50000000       0.50000000 </v>
   <v>       0.50000000       0.50000000       0.50000000 </v>
  </varray>
  <varray name="weights" >
   <v>       0.12500000 </v>
   <v>       0.12500000 </v>
   <v>       0.12500000 </v>
   <v>       0.12500000 </v>
   <v>       0.12500000 </v>
   <v>       0.12500000 </v>
   <v>       0.12500000 </v>
   <v>       0.12500000 </v>
  </varray>
 </kpoints>
 <parameters>
  <separator name="general" >
   <i type="string" name="SYSTEM">unknown system</i>
   <i type="logical" name="LCOMPAT"> F  </i>
  </separator>
  <separator name="electronic" >
   <i type="string" name="PREC">normal</i>
   <i name="ENMAX">    450.00000000</i>
   <i name="ENAUG">    605.39200000</i>
   <i name="EDIFF">      0.00001000</i>
   <i type="int" name="IALGO">    58</i>
   <i type="int" name="IWAVPR">    10</i>
   <i type="int" name="NBANDS">   633</i>
   <i type="int" name="NBANDSLOW">    -1</i>
   <i type="int" name="NBANDSHIGH">    -1</i>
   <i name="NELECT">   1056.00000000</i>
   <i type="int" name="TURBO">     0</i>
   <i type="int" name="IRESTART">     0</i>
   <i type="int" name="NREBOOT">     0</i>
   <i type="int" name="NMIN">     0</i>
   <i name="EREF">      0.00000000</i>
   <separator name="electronic smearing" >
    <i type="int" name="ISMEAR">     0</i>
    <i name="SIGMA">      0.05000000</i>
    <i name="KSPACING">      0.50000000</i>
    <i type="logical" name="KGAMMA"> T  </i>
    <i type="logical" name="KBLOWUP"> T  </i>
   </separator>
   <separator name="electronic projectors" >
    <i type="logical" name="LREAL"> T  </i>
    <v name="ROPT">     -0.00050000     -0.00050000     -0.00050000</v>
    <i type="int" name="LMAXPAW">  -100</i>
    <i type="int" name="LMAXMIX">     2</i>
    <i type="logical" name="NLSPLINE"> F  </i>
   </separator>
   <separator name="electronic startup" >
    <i type="int" name="ISTART">     0</i>
    <i type="int" name="ICHARG">     0</i>
    <i type="int" name="INIWAV">     1</i>
   </separator>
   <separator name="electronic spin" >
    <i type="int" name="ISPIN">     1</i>
    <i type="logical" name="LNONCOLLINEAR"> F  </i>
    <v name="MAGMOM">      1.00000000      1.00000000      1.00000000      1.00000000      1.00000000      1.00000000      1.00000000      1.00000000      1.00000000      1.00000000      1.00000000      1.00000000      1.00000000      1.00000000      1.00000000      1.00000000      1.00000000      1.00000000      1.00000000      1.00000000
      1.00000000      1.00000000      1.00000000      1.00000000      1.00000000      1.00000000      1.00000000      1.00000000      1.00000000      1.00000000      1.00000000      1.00000000      1.00000000      1.00000000      1.00000000      1.00000000      1.00000000      1.00000000      1.00000000      1.00000000
      1.00000000      1.00000000      1.00000000      1.00000000      1.00000000      1.00000000      1.00000000      1.00000000      1.00000000      1.00000000      1.00000000      1.00000000      1.00000000      1.00000000      1.00000000      1.00000000      1.00000000      1.00000000      1.00000000      1.00000000
      1.00000000      1.00000000      1.00000000      1.00000000      1.00000000      1.00000000      1.00000000      1.00000000      1.00000000      1.00000000      1.00000000      1.00000000      1.00000000      1.00000000      1.00000000      1.00000000      1.00000000      1.00000000      1.00000000      1.00000000
      1.00000000      1.00000000      1.00000000      1.00000000      1.00000000      1.00000000      1.00000000      1.00000000      1.00000000      1.00000000      1.00000000      1.00000000      1.00000000      1.00000000      1.00000000      1.00000000      1.00000000      1.00000000      1.00000000      1.00000000
      1.00000000      1.00000000      1.00000000      1.00000000      1.00000000      1.00000000      1.00000000      1.00000000      1.00000000      1.00000000      1.00000000      1.00000000      1.00000000      1.00000000      1.00000000      1.00000000      1.00000000      1.00000000      1.00000000</v>
    <i name="NUPDOWN">     -1.00000000</i>
    <i type="logical" name="LSORBIT"> F  </i>
    <v name="SAXIS">      0.00000000      0.00000000      1.00000000</v>
    <i type="logical" name="LSPIRAL"> F  </i>
    <v name="QSPIRAL">      0.00000000      0.00000000      0.00000000</v>
    <i type="logical" name="LZEROZ"> F  </i>
   </separator>
   <separator name="electronic exchange-correlation" >
    <i type="logical" name="LASPH"> F  </i>
    <i type="logical" name="LMETAGGA"> F  </i>
   </separator>
   <separator name="electronic convergence" >
    <i type="int" name="NELM">   500</i>
    <i type="int" name="NELMDL">    -5</i>
    <i type="int" name="NELMIN">     2</i>
    <i name="ENINI">    450.00000000</i>
    <separator name="electronic convergence detail" >
     <i type="logical" name="LDIAG"> T  </i>
     <i type="logical" name="LSUBROT"> F  </i>
     <i name="WEIMIN">      0.00000000</i>
     <i name="EBREAK">      0.00000000</i>
     <i name="DEPER">      0.30000000</i>
     <i type="int" name="NRMM">     4</i>
     <i name="TIME">      0.40000000</i>
    </separator>
   </separator>
   <separator name="electronic mixer" >
    <i name="AMIX">      0.40000000</i>
    <i name="BMIX">      1.00000000</i>
    <i name="AMIN">      0.10000000</i>
    <i name="AMIX_MAG">      1.60000000</i>
    <i name="BMIX_MAG">      1.00000000</i>
    <separator name="electronic mixer details" >
     <i type="int" name="IMIX">     4</i>
     <i type="logical" name="MIXFIRST"> F  </i>
     <i type="int" name="MAXMIX">   -45</i>
     <i name="WC">    100.00000000</i>
     <i type="int" name="INIMIX">     1</i>
     <i type="int" name="MIXPRE">     1</i>
     <i type="int" name="MREMOVE">     5</i>
    </separator>
   </separator>
   <separator name="electronic dipolcorrection" >
    <i type="logical" name="LDIPOL"> F  </i>
    <i type="logical" name="LMONO"> F  </i>
    <i type="int" name="IDIPOL">     0</i>
    <i name="EPSILON">      1.00000000</i>
    <v name="DIPOL">   -100.00000000   -100.00000000   -100.00000000</v>
    <i name="EFIELD">      0.00000000</i>
   </separator>
  </separator>
  <separator name="grids" >
   <i type="int" name="NGX">    64</i>
   <i type="int" name="NGY">    48</i>
   <i type="int" name="NGZ">    60</i>
   <i type="int" name="NGXF">   128</i>
   <i type="int" name="NGYF">    96</i>
   <i type="int" name="NGZF">   120</i>
   <i type="logical" name="ADDGRID"> F  </i>
  </separator>
  <separator name="ionic" >
   <i type="int" name="NSW">     0</i>
   <i type="int" name="IBRION">    -1</i>
   <i type="int" name="MDALGO">     0</i>
   <i type="int" name="ISIF">     2</i>
   <i name="PSTRESS">      0.00000000</i>
   <i name="EDIFFG">     -0.00500000</i>
   <i type="int" name="NFREE">     0</i>
   <i name="POTIM">      0.50000000</i>
   <i name="SMASS">     -3.00000000</i>
   <i name="SCALEE">      1.00000000</i>
  </separator>
  <separator name="ionic md" >
   <i name="TEBEG">      0.00010000</i>
   <i name="TEEND">      0.00010000</i>
   <i type="int" name="NBLOCK">     1</i>
   <i type="int" name="KBLOCK">     1</i>
   <i type="int" name="NPACO">   256</i>
   <i name="APACO">     10.00000000</i>
  </separator>
  <separator name="symmetry" >
   <i type="int" name="ISYM">     3</i>
   <i name="SYMPREC">      0.00001000</i>
  </separator>
  <separator name="dos" >
   <i type="int" name="LORBIT">     0</i>
   <v name="RWIGS">     -1.00000000     -1.00000000     -1.00000000</v>
   <i type="int" name="NEDOS">   301</i>
   <i name="EMIN">     10.00000000</i>
   <i name="EMAX">    -10.00000000</i>
   <i name="EFERMI">      0.00000000</i>
  </separator>
  <separator name="writing" >
   <i type="int" name="NWRITE">     2</i>
   <i type="logical" name="LWAVE"> T  </i>
   <i type="logical" name="LDOWNSAMPLE"> F  </i>
   <i type="logical" name="LCHARG"> T  </i>
   <i type="logical" name="LPARD"> F  </i>
   <i type="logical" name="LVTOT"> F  </i>
   <i type="logical" name="LVHAR"> F  </i>
   <i type="logical" name="LELF"> F  </i>
   <i type="logical" name="LOPTICS"> F  </i>
   <v name="STM">      0.00000000      0.00000000      0.00000000      0.00000000      0.00000000      0.00000000      0.00000000</v>
  </separator>
  <separator name="performance" >
   <i type="int" name="NPAR">     1</i>
   <i type="int" name="NSIM">     4</i>
   <i type="int" name="NBLK">    -1</i>
   <i type="logical" name="LPLANE"> T  </i>
   <i type="logical" name="LSCALAPACK"> T  </i>
   <i type="logical" name="LSCAAWARE"> F  </i>
   <i type="logical" name="LSCALU"> F  </i>
   <i type="logical" name="LASYNC"> F  </i>
   <i type="logical" name="LORBITALREAL"> F  </i>
  </separator>
  <separator name="miscellaneous" >
   <i type="int" name="IDIOT">     3</i>
   <i type="int" name="PHON_NSTRUCT">    -1</i>
   <i type="logical" name="LMUSIC"> F  </i>
   <v name="POMASS">     69.72300000     16.00000000     30.97400000</v>
   <v name="DARWINR">      0.00000000      0.00000000      0.00000000</v>
   <v name="DARWINV">      1.00000000      1.00000000      1.00000000</v>
   <i type="logical" name="LCORR"> T  </i>
  </separator>
  <i type="logical" name="GGA_COMPAT"> T  </i>
  <i type="logical" name="LBERRY"> F  </i>
  <i type="int" name="ICORELEVEL">     0</i>
  <i type="logical" name="LDAU"> F  </i>
  <i type="int" name="I_CONSTRAINED_M">     0</i>
  <separator name="electronic exchange-correlation" >
   <i type="string" name="GGA">--</i>
   <i type="int" name="VOSKOWN">     0</i>
   <i type="logical" name="LHFCALC"> T  </i>
   <i type="string" name="PRECFOCK">fast</i>
   <i type="logical" name="LSYMGRAD"> F  </i>
   <i type="logical" name="LHFONE"> F  </i>
   <i type="logical" name="LRHFCALC"> F  </i>
   <i type="logical" name="LTHOMAS"> F  </i>
   <i type="logical" name="LMODELHF"> F  </i>
   <i type="logical" name="LFOCKACE"> T  </i>
   <i name="ENCUT4O">     -1.00000000</i>
   <i type="int" name="EXXOEP">     0</i>
   <i type="int" name="FOURORBIT">     0</i>
   <i name="AEXX">      0.32000000</i>
   <i name="HFALPHA">     -1.00000000</i>
   <i name="MCALPHA">      0.00000000</i>
   <i name="ALDAX">      0.68000000</i>
   <i name="AGGAX">      0.68000000</i>
   <i name="ALDAC">      1.00000000</i>
   <i name="AGGAC">      1.00000000</i>
   <i type="int" name="NKREDX">     1</i>
   <i type="int" name="NKREDY">     1</i>
   <i type="int" name="NKREDZ">     1</i>
   <i type="logical" name="SHIFTRED"> F  </i>
   <i type="logical" name="ODDONLY"> F  </i>
   <i type="logical" name="EVENONLY"> F  </i>
   <i type="int" name="LMAXFOCK">     4</i>
   <i type="int" name="NMAXFOCKAE">     1</i>
   <i type="logical" name="LFOCKAEDFT"> F  </i>
   <i name="HFSCREEN">      0.20000000</i>
   <i name="HFSCREENC">      0.20000000</i>
   <i type="int" name="NBANDSGWLOW">     1</i>
  </separator>
  <separator name="vdW DFT" >
   <i type="logical" name="LUSE_VDW"> F  </i>
   <i type="int" name="IVDW_NL">     1</i>
   <i type="logical" name="LSPIN_VDW"> F  </i>
   <i name="Zab_VDW">     -0.84910000</i>
   <i name="PARAM1">      0.12340000</i>
   <i name="PARAM2">      1.00000000</i>
   <i name="PARAM3">      0.00000000</i>
  </separator>
  <separator name="model GW" >
   <i type="int" name="MODEL_GW">     0</i>
   <i name="MODEL_EPS0">      6.39733692</i>
   <i name="MODEL_ALPHA">      1.00000000</i>
  </separator>
  <separator name="linear response parameters" >
   <i type="logical" name="LEPSILON"> F  </i>
   <i type="logical" name="LRPA"> F  </i>
   <i type="logical" name="LNABLA"> F  </i>
   <i type="logical" name="LVEL"> F  </i>
   <i name="CSHIFT">      0.10000000</i>
   <i name="OMEGAMAX">     -1.00000000</i>
   <i name="DEG_THRESHOLD">      0.00200000</i>
   <i name="RTIME">     -0.10000000</i>
   <i name="WPLASMAI">      0.00000000</i>
   <v name="DFIELD">      0.00000000      0.00000000      0.00000000</v>
   <v name="WPLASMA">      0.00000000      0.00000000      0.00000000      0.00000000      0.00000000      0.00000000      0.00000000      0.00000000      0.00000000</v>
  </separator>
  <separator name="orbital magnetization" >
   <i type="logical" name="NUCIND"> F  </i>
   <v name="MAGPOS">      0.00000000      0.00000000      0.00000000</v>
   <i type="logical" name="LNICSALL"> T  </i>
   <i type="logical" name="ORBITALMAG"> F  </i>
   <i type="logical" name="LMAGBLOCH"> F  </i>
   <i type="logical" name="LCHIMAG"> F  </i>
   <i type="logical" name="LGAUGE"> T  </i>
   <i type="int" name="MAGATOM">     0</i>
   <v name="MAGDIPOL">      0.00000000      0.00000000      0.00000000</v>
   <v name="AVECCONST">      0.00000000      0.00000000      0.00000000</v>
  </separator>
  <separator name="response functions" >
   <i type="logical" name="LALL_IN_ONE"> F  </i>
   <i type="int" name="IALL_IN_ONE">    -1</i>
   <i type="int" name="NBANDS_WAVE">    -1</i>
   <i type="logical" name="LFINITE_TEMPERATURE"> F  </i>
   <i type="logical" name="LADDER"> F  </i>
   <i type="logical" name="LRPAFORCE"> F  </i>
   <i type="logical" name="LFXC"> F  </i>
   <i type="logical" name="LHARTREE"> T  </i>
   <i type="int" name="IBSE">     0</i>
   <v type="int" name="KPOINT">    -1     0     0     0</v>
   <i type="logical" name="LTCTC"> F  </i>
   <i type="logical" name="LTCTE"> F  </i>
   <i type="logical" name="LTETE"> F  </i>
   <i type="logical" name="LTRIPLET"> F  </i>
   <i type="logical" name="LFXCEPS"> F  </i>
   <i type="logical" name="LFXHEG"> F  </i>
   <i type="int" name="NATURALO">     2</i>
   <i type="logical" name="LHOLEGF"> F  </i>
   <i type="logical" name="L2ORDER"> F  </i>
   <i type="logical" name="LDMP1"> F  </i>
   <i type="logical" name="LMP2LT"> F  </i>
   <i type="logical" name="LSMP2LT"> F  </i>
   <i type="logical" name="LGWLF"> F  </i>
   <i name="ENCUTGW">     -1.60000002</i>
   <i name="ENCUTGWSOFT">     -1.60000002</i>
   <i name="ENCUTLF">     -1.00000000</i>
   <i type="logical" name="LESF_SPLINES"> F  </i>
   <i type="int" name="LMAXMP2">    -1</i>
   <i name="SCISSOR">      0.00000000</i>
   <i type="int" name="NOMEGA">     0</i>
   <i type="int" name="NOMEGAR">     0</i>
   <i type="int" name="NBANDSGW">    -1</i>
   <i type="int" name="NBANDSO">    -1</i>
   <i type="int" name="NBANDSV">    -1</i>
   <i type="int" name="NELMGW">     1</i>
   <i type="int" name="NELMHF">     1</i>
   <i type="int" name="DIM">     3</i>
   <i type="int" name="IESPILON">     4</i>
   <i type="int" name="ANTIRES">     0</i>
   <i name="OMEGAMAX">    -30.00000000</i>
   <i name="OMEGAMIN">    -30.00000000</i>
   <i name="OMEGATL">   -200.00000000</i>
   <i type="int" name="OMEGAGRID">     0</i>
   <i name="CSHIFT">     -0.10000000</i>
   <i type="logical" name="LSELFENERGY"> F  </i>
   <i type="logical" name="LSPECTRAL"> F  </i>
   <i type="logical" name="LSPECTRALGW"> F  </i>
   <i type="logical" name="LSINGLES"> F  </i>
   <i type="logical" name="LFERMIGW"> F  </i>
   <i type="logical" name="ODDONLYGW"> F  </i>
   <i type="logical" name="EVENONLYGW"> F  </i>
   <i type="int" name="NKREDLFX">     1</i>
   <i type="int" name="NKREDLFY">     1</i>
   <i type="int" name="NKREDLFZ">     1</i>
   <i type="int" name="MAXMEM">  2800</i>
   <i type="int" name="TELESCOPE">     0</i>
   <i type="int" name="NTAUPAR">    -1</i>
   <i type="int" name="NOMEGAPAR">    -1</i>
   <i name="DAMP_NEWTON">      0.80000001</i>
   <i name="LAMBDA">      1.00000000</i>
  </separator>
  <separator name="External order field" >
   <i name="OFIELD_KAPPA">      0.00000000</i>
   <v name="OFIELD_K">      0.00000000      0.00000000      0.00000000</v>
   <i name="OFIELD_Q6_NEAR">      0.00000000</i>
   <i name="OFIELD_Q6_FAR">      0.00000000</i>
   <i name="OFIELD_A">      0.00000000</i>
  </separator>
  <separator name="optional k-points parameters" >
   <i type="int" name="KPOINTS_OPT_MODE">     1</i>
   <i type="logical" name="LKPOINTS_OPT"> F  </i>
  </separator>
 </parameters>
 <atominfo>
  <atoms>     119 </atoms>
  <types>       3 </types>
  <array name="atoms" >
   <dimension dim="1">ion</dimension>
   <field type="string">element</field>
   <field type="int">atomtype</field>
   <set>
    <rc><c>Ga</c><c>   1</c></rc>
    <rc><c>Ga</c><c>   1</c></rc>
    <rc><c>Ga</c><c>   1</c></rc>
    <rc><c>Ga</c><c>   1</c></rc>
    <rc><c>Ga</c><c>   1</c></rc>
    <rc><c>Ga</c><c>   1</c></rc>
    <rc><c>Ga</c><c>   1</c></rc>
    <rc><c>Ga</c><c>   1</c></rc>
    <rc><c>Ga</c><c>   1</c></rc>
    <rc><c>Ga</c><c>   1</c></rc>
    <rc><c>Ga</c><c>   1</c></rc>
    <rc><c>Ga</c><c>   1</c></rc>
    <rc><c>Ga</c><c>   1</c></rc>
    <rc><c>Ga</c><c>   1</c></rc>
    <rc><c>Ga</c><c>   1</c></rc>
    <rc><c>Ga</c><c>   1</c></rc>
    <rc><c>Ga</c><c>   1</c></rc>
    <rc><c>Ga</c><c>   1</c></rc>
    <rc><c>Ga</c><c>   1</c></rc>
    <rc><c>Ga</c><c>   1</c></rc>
    <rc><c>Ga</c><c>   1</c></rc>
    <rc><c>Ga</c><c>   1</c></rc>
    <rc><c>Ga</c><c>   1</c></rc>
    <rc><c>Ga</c><c>   1</c></rc>
    <rc><c>Ga</c><c>   1</c></rc>
    <rc><c>Ga</c><c>   1</c></rc>
    <rc><c>Ga</c><c>   1</c></rc>
    <rc><c>Ga</c><c>   1</c></rc>
    <rc><c>Ga</c><c>   1</c></rc>
    <rc><c>Ga</c><c>   1</c></rc>
    <rc><c>Ga</c><c>   1</c></rc>
    <rc><c>Ga</c><c>   1</c></rc>
    <rc><c>Ga</c><c>   1</c></rc>
    <rc><c>Ga</c><c>   1</c></rc>
    <rc><c>Ga</c><c>   1</c></rc>
    <rc><c>Ga</c><c>   1</c></rc>
    <rc><c>Ga</c><c>   1</c></rc>
    <rc><c>Ga</c><c>   1</c></rc>
    <rc><c>Ga</c><c>   1</c></rc>
    <rc><c>Ga</c><c>   1</c></rc>
    <rc><c>Ga</c><c>   1</c></rc>
    <rc><c>Ga</c><c>   1</c></rc>
    <rc><c>Ga</c><c>   1</c></rc>
    <rc><c>Ga</c><c>   1</c></rc>
    <rc><c>Ga</c><c>   1</c></rc>
    <rc><c>Ga</c><c>   1</c></rc>
    <rc><c>Ga</c><c>   1</c></rc>
    <rc><c>O </c><c>   2</c></rc>
    <rc><c>O </c><c>   2</c></rc>
    <rc><c>O </c><c>   2</c></rc>
    <rc><c>O </c><c>   2</c></rc>
    <rc><c>O </c><c>   2</c></rc>
    <rc><c>O </c><c>   2</c></rc>
    <rc><c>O </c><c>   2</c></rc>
    <rc><c>O </c><c>   2</c></rc>
    <rc><c>O </c><c>   2</c></rc>
    <rc><c>O </c><c>   2</c></rc>
    <rc><c>O </c><c>   2</c></rc>
    <rc><c>O </c><c>   2</c></rc>
    <rc><c>O </c><c>   2</c></rc>
    <rc><c>O </c><c>   2</c></rc>
    <rc><c>O </c><c>   2</c></rc>
    <rc><c>O </c><c>   2</c></rc>
    <rc><c>O </c><c>   2</c></rc>
    <rc><c>O </c><c>   2</c></rc>
    <rc><c>O </c><c>   2</c></rc>
    <rc><c>O </c><c>   2</c></rc>
    <rc><c>O </c><c>   2</c></rc>
    <rc><c>O </c><c>   2</c></rc>
    <rc><c>O </c><c>   2</c></rc>
    <rc><c>O </c><c>   2</c></rc>
    <rc><c>O </c><c>   2</c></rc>
    <rc><c>O </c><c>   2</c></rc>
    <rc><c>O </c><c>   2</c></rc>
    <rc><c>O </c><c>   2</c></rc>
    <rc><c>O </c><c>   2</c></rc>
    <rc><c>O </c><c>   2</c></rc>
    <rc><c>O </c><c>   2</c></rc>
    <rc><c>O </c><c>   2</c></rc>
    <rc><c>O </c><c>   2</c></rc>
    <rc><c>O </c><c>   2</c></rc>
    <rc><c>O </c><c>   2</c></rc>
    <rc><c>O </c><c>   2</c></rc>
    <rc><c>O </c><c>   2</c></rc>
    <rc><c>O </c><c>   2</c></rc>
    <rc><c>O </c><c>   2</c></rc>
    <rc><c>O </c><c>   2</c></rc>
    <rc><c>O </c><c>   2</c></rc>
    <rc><c>O </c><c>   2</c></rc>
    <rc><c>O </c><c>   2</c></rc>
    <rc><c>O </c><c>   2</c></rc>
    <rc><c>O </c><c>   2</c></rc>
    <rc><c>O </c><c>   2</c></rc>
    <rc><c>O </c><c>   2</c></rc>
    <rc><c>O </c><c>   2</c></rc>
    <rc><c>O </c><c>   2</c></rc>
    <rc><c>O </c><c>   2</c></rc>
    <rc><c>O </c><c>   2</c></rc>
    <rc><c>O </c><c>   2</c></rc>
    <rc><c>O </c><c>   2</c></rc>
    <rc><c>O </c><c>   2</c></rc>
    <rc><c>O </c><c>   2</c></rc>
    <rc><c>O </c><c>   2</c></rc>
    <rc><c>O </c><c>   2</c></rc>
    <rc><c>O </c><c>   2</c></rc>
    <rc><c>O </c><c>   2</c></rc>
    <rc><c>O </c><c>   2</c></rc>
    <rc><c>O </c><c>   2</c></rc>
    <rc><c>O </c><c>   2</c></rc>
    <rc><c>O </c><c>   2</c></rc>
    <rc><c>O </c><c>   2</c></rc>
    <rc><c>O </c><c>   2</c></rc>
    <rc><c>O </c><c>   2</c></rc>
    <rc><c>O </c><c>   2</c></rc>
    <rc><c>O </c><c>   2</c></rc>
    <rc><c>O </c><c>   2</c></rc>
    <rc><c>O </c><c>   2</c></rc>
    <rc><c>O </c><c>   2</c></rc>
    <rc><c>P </c><c>   3</c></rc>
   </set>
  </array>
  <array name="atomtypes" >
   <dimension dim="1">type</dimension>
   <field type="int">atomspertype</field>
   <field type="string">element</field>
   <field>mass</field>
   <field>valence</field>
   <field type="string">pseudopotential</field>
   <set>
    <rc><c>  47</c><c>Ga</c><c>     69.72300000</c><c>     13.00000000</c><c>  PAW_PBE Ga_d 06Jul2010                </c></rc>
    <rc><c>  71</c><c>O </c><c>     16.00000000</c><c>      6.00000000</c><c>   PAW_PBE O 08Apr2002                  </c></rc>
    <rc><c>   1</c><c>P </c><c>     30.97400000</c><c>      5.00000000</c><c>  PAW_PBE P 06Sep2000                   </c></rc>
   </set>
  </array>
 </atominfo>
 <structure name="initialpos" >
  <crystal>
   <varray name="basis" >
    <v>       0.00000000      12.28047342       0.00000000 </v>
    <v>       9.14270205       0.00000000       0.00000000 </v>
    <v>       0.00000000      -2.76826177     -11.30069772 </v>
   </varray>
   <i name="volume">   1268.80515525 </i>
   <varray name="rec_basis" >
    <v>       0.00000000       0.08143009      -0.01994742 </v>
    <v>       0.10937686      -0.00000000       0.00000000 </v>
    <v>       0.00000000       0.00000000      -0.08849011 </v>
   </varray>
  </crystal>
  <varray name="positions" >
   <v>       0.66571834       0.00154177       0.15555855 </v>
   <v>       0.66206588       0.99927619       0.66387097 </v>
   <v>       0.66571834       0.33179156       0.15555855 </v>
   <v>       0.66206588       0.33405715       0.66387097 </v>
   <v>       0.65868348       0.66666667       0.14796089 </v>
   <v>       0.65599310       0.66666667       0.66855776 </v>
   <v>       0.84157513       0.16666667       0.84368206 </v>
   <v>       0.83770637       0.49609409       0.33848670 </v>
   <v>       0.84260969       0.49851380       0.84448467 </v>
   <v>       0.83770637       0.83723924       0.33848670 </v>
   <v>       0.84260969       0.83481953       0.84448467 </v>
   <v>       0.61826252       0.16666667       0.39805611 </v>
   <v>       0.58748196       0.16666667       0.89979124 </v>
   <v>       0.62103761       0.49282166       0.40542124 </v>
   <v>       0.58100790       0.49918776       0.89529487 </v>
   <v>       0.62103761       0.84051167       0.40542124 </v>
   <v>       0.58100790       0.83414557       0.89529487 </v>
   <v>       0.91487592       0.00125773       0.10689767 </v>
   <v>       0.88796110       0.03815606       0.57506267 </v>
   <v>       0.91487592       0.33207561       0.10689767 </v>
   <v>       0.88796110       0.29517727       0.57506267 </v>
   <v>       0.91473363       0.66666667       0.10626795 </v>
   <v>       0.90621178       0.66666667       0.59643104 </v>
   <v>       0.16899375       0.16666667       0.16411154 </v>
   <v>       0.16280491       0.16666667       0.63913304 </v>
   <v>       0.16861424       0.49976408       0.16422344 </v>
   <v>       0.14309398       0.49645010       0.65176566 </v>
   <v>       0.16861424       0.83356925       0.16422344 </v>
   <v>       0.14309398       0.83688324       0.65176566 </v>
   <v>       0.35734344       0.99942749       0.34862045 </v>
   <v>       0.33223566       0.99758870       0.84211219 </v>
   <v>       0.35734344       0.33390584       0.34862045 </v>
   <v>       0.33223566       0.33574463       0.84211219 </v>
   <v>       0.36603224       0.66666667       0.34816586 </v>
   <v>       0.33037457       0.66666667       0.83765864 </v>
   <v>       0.08559080       0.00454617       0.39562720 </v>
   <v>       0.09395592       0.00238447       0.89995755 </v>
   <v>       0.08559080       0.32878716       0.39562720 </v>
   <v>       0.09395592       0.33094886       0.89995755 </v>
   <v>       0.09501858       0.66666667       0.39587254 </v>
   <v>       0.09296174       0.66666667       0.90294678 </v>
   <v>       0.41011075       0.16666667       0.09824123 </v>
   <v>       0.41177689       0.16666667       0.60731124 </v>
   <v>       0.41054589       0.49762235       0.09879190 </v>
   <v>       0.40712650       0.49800709       0.60716632 </v>
   <v>       0.41054589       0.83571098       0.09879190 </v>
   <v>       0.40712650       0.83532624       0.60716632 </v>
   <v>       0.00576302       0.16666667       0.12596136 </v>
   <v>       0.02527852       0.16666667       0.66364333 </v>
   <v>       0.00499611       0.50020767       0.12731016 </v>
   <v>       0.98032387       0.48189998       0.60923634 </v>
   <v>       0.00499611       0.83312566       0.12731016 </v>
   <v>       0.98032387       0.85143335       0.60923634 </v>
   <v>       0.52030256       0.00080068       0.37699769 </v>
   <v>       0.49405128       0.00222397       0.87217811 </v>
   <v>       0.52030256       0.33253265       0.37699769 </v>
   <v>       0.49405128       0.33110936       0.87217811 </v>
   <v>       0.52817637       0.66666667       0.38074311 </v>
   <v>       0.49350083       0.66666667       0.87217414 </v>
   <v>       0.66384653       0.16666667       0.26068031 </v>
   <v>       0.67265067       0.16666667       0.78588208 </v>
   <v>       0.66132471       0.50773985       0.25984010 </v>
   <v>       0.67254254       0.50256990       0.78946305 </v>
   <v>       0.66132471       0.82559348       0.25984010 </v>
   <v>       0.67254254       0.83076344       0.78946305 </v>
   <v>       0.82394919       0.97015892       0.20684002 </v>
   <v>       0.82614962       0.99637856       0.72544931 </v>
   <v>       0.82394919       0.36317441       0.20684002 </v>
   <v>       0.82614962       0.33695477       0.72544931 </v>
   <v>       0.82830365       0.66666667       0.21712176 </v>
   <v>       0.82729338       0.66666667       0.72187677 </v>
   <v>       0.77215475       0.95684167       0.43900558 </v>
   <v>       0.83650299       0.99948185       0.94975422 </v>
   <v>       0.77215475       0.37649166       0.43900558 </v>
   <v>       0.83650299       0.33385148       0.94975422 </v>
   <v>       0.81963856       0.66666667       0.43830047 </v>
   <v>       0.83878921       0.66666667       0.94875717 </v>
   <v>       0.67901156       0.16666667       0.04947644 </v>
   <v>       0.65544417       0.16666667       0.56162875 </v>
   <v>       0.66678300       0.50188796       0.04508640 </v>
   <v>       0.65522689       0.50494687       0.56886753 </v>
   <v>       0.66678300       0.83144537       0.04508640 </v>
   <v>       0.65522689       0.82838647       0.56886753 </v>
   <v>       0.50004897       0.00090154       0.11435983 </v>
   <v>       0.49925531       0.99913269       0.63942449 </v>
   <v>       0.50004897       0.33243179       0.11435983 </v>
   <v>       0.49925531       0.33420064       0.63942449 </v>
   <v>       0.49444521       0.66666667       0.11473606 </v>
   <v>       0.49304559       0.66666667       0.63898564 </v>
   <v>       0.00321851       0.16666667       0.88717338 </v>
   <v>       0.00187175       0.50600484       0.37020152 </v>
   <v>       0.00490682       0.49906029       0.87520021 </v>
   <v>       0.00187175       0.82732849       0.37020152 </v>
   <v>       0.00490682       0.83427304       0.87520021 </v>
   <v>       0.18141308       0.99694774       0.28642952 </v>
   <v>       0.17199316       0.98477477       0.78171800 </v>
   <v>       0.18141308       0.33638559       0.28642952 </v>
   <v>       0.17199316       0.34855857       0.78171800 </v>
   <v>       0.18175228       0.66666667       0.28291363 </v>
   <v>       0.16175721       0.66666667       0.77489530 </v>
   <v>       0.33878830       0.16666667       0.22517921 </v>
   <v>       0.32204866       0.16666667       0.72064299 </v>
   <v>       0.33985943       0.49989000       0.22479288 </v>
   <v>       0.32239702       0.50279842       0.72040611 </v>
   <v>       0.33985943       0.83344334       0.22479288 </v>
   <v>       0.32239702       0.83053491       0.72040611 </v>
   <v>       0.34345979       0.16666667       0.44753556 </v>
   <v>       0.32148765       0.16666667       0.94336931 </v>
   <v>       0.34470094       0.50237068       0.44720803 </v>
   <v>       0.32505030       0.50308164       0.94482677 </v>
   <v>       0.34470094       0.83096265       0.44720803 </v>
   <v>       0.32505030       0.83025169       0.94482677 </v>
   <v>       0.17569477       0.99866992       0.05885825 </v>
   <v>       0.18077804       0.99155038       0.55007618 </v>
   <v>       0.17569477       0.33466341       0.05885825 </v>
   <v>       0.18077804       0.34178295       0.55007618 </v>
   <v>       0.17616643       0.66666667       0.05882686 </v>
   <v>       0.16521950       0.66666667       0.55504875 </v>
   <v>       0.95120502       0.16666667       0.37388018 </v>
  </varray>
 </structure>
 <calculation>
  <scstep>
   <time name="total">    4.08    4.09</time>
   <energy>
    <i name="alphaZ">   5376.25786726 </i>
    <i name="ewald"> -86641.94408478 </i>
    <i name="hartreedc">  -2110.34263279 </i>
    <i name="XCdc">   2816.11558227 </i>
    <i name="pawpsdc"> 342388.71346309 </i>
    <i name="pawaedc">-371192.69367454 </i>
    <i name="eentropy">     -0.00903104 </i>
    <i name="bandstr"> -39756.07345092 </i>
    <i name="atom"> 131500.23896116 </i>
    <i name="e_fr_energy"> -17619.73700029 </i>
    <i name="e_wo_entrp"> -17619.72796925 </i>
    <i name="e_0_energy"> -17619.73248477 </i>
   </energy>
  </scstep>
  <scstep>
   <time name="total">    3.20    3.20</time>
   <energy>
    <i name="e_fr_energy"> -63450.06488729 </i>
    <i name="e_wo_entrp"> -63450.04617995 </i>
    <i name="e_0_energy"> -63450.05553362 </i>
   </energy>
  </scstep>
  <scstep>
   <time name="total">    3.42    3.42</time>
   <energy>
    <i name="e_fr_energy"> -69145.21029546 </i>
    <i name="e_wo_entrp"> -69145.18998892 </i>
    <i name="e_0_energy"> -69145.20014219 </i>
   </energy>
  </scstep>
  <scstep>
   <time name="total">    3.98    4.35</time>
   <energy>
    <i name="e_fr_energy"> -70029.29988945 </i>
    <i name="e_wo_entrp"> -70029.28719682 </i>
    <i name="e_0_energy"> -70029.29354313 </i>
   </energy>
  </scstep>
  <scstep>
   <time name="total">  235.27  235.25</time>
   <energy>
    <i name="e_fr_energy"> -40434.33171510 </i>
    <i name="e_wo_entrp"> -40434.33171510 </i>
    <i name="e_0_energy"> -40434.33171510 </i>
   </energy>
  </scstep>
  <scstep>
   <time name="total">  469.18  469.13</time>
   <energy>
    <i name="e_fr_energy">  40444.25368746 </i>
    <i name="e_wo_entrp">  40444.26431188 </i>
    <i name="e_0_energy">  40444.25899967 </i>
   </energy>
  </scstep>
  <scstep>
   <time name="total">  470.16  470.10</time>
   <energy>
    <i name="e_fr_energy">  16734.73639141 </i>
    <i name="e_wo_entrp">  16734.75969106 </i>
    <i name="e_0_energy">  16734.74804123 </i>
   </energy>
  </scstep>
  <scstep>
   <time name="total">  469.52  469.56</time>
   <energy>
    <i name="e_fr_energy">   9084.21886366 </i>
    <i name="e_wo_entrp">   9084.25443310 </i>
    <i name="e_0_energy">   9084.23664838 </i>
   </energy>
  </scstep>
  <scstep>
   <time name="total">  470.02  469.96</time>
   <energy>
    <i name="e_fr_energy">   5736.93126352 </i>
    <i name="e_wo_entrp">   5736.94975718 </i>
    <i name="e_0_energy">   5736.94051035 </i>
   </energy>
  </scstep>
  <scstep>
   <time name="total">  469.48  469.42</time>
   <energy>
    <i name="e_fr_energy">   3676.70993419 </i>
    <i name="e_wo_entrp">   3676.73438421 </i>
    <i name="e_0_energy">   3676.72215920 </i>
   </energy>
  </scstep>
  <scstep>
   <time name="total">  469.37  469.31</time>
   <energy>
    <i name="e_fr_energy">   2021.09881634 </i>
    <i name="e_wo_entrp">   2021.10947297 </i>
    <i name="e_0_energy">   2021.10414466 </i>
   </energy>
  </scstep>
  <scstep>
   <time name="total">  468.87  468.81</time>
   <energy>
    <i name="e_fr_energy">    824.04983149 </i>
    <i name="e_wo_entrp">    824.06315643 </i>
    <i name="e_0_energy">    824.05649396 </i>
   </energy>
  </scstep>
  <scstep>
   <time name="total">  469.03  468.97</time>
   <energy>
    <i name="e_fr_energy">     68.28872621 </i>
    <i name="e_wo_entrp">     68.30761407 </i>
    <i name="e_0_energy">     68.29817014 </i>
   </energy>
  </scstep>
  <scstep>
   <time name="total">  469.37  469.29</time>
   <energy>
    <i name="e_fr_energy">   -362.50546498 </i>
    <i name="e_wo_entrp">   -362.49047065 </i>
    <i name="e_0_energy">   -362.49796781 </i>
   </energy>
  </scstep>
  <scstep>
   <time name="total">  469.43  469.36</time>
   <energy>
    <i name="e_fr_energy">   -519.19209727 </i>
    <i name="e_wo_entrp">   -519.17454817 </i>
    <i name="e_0_energy">   -519.18332272 </i>
   </energy>
  </scstep>
  <scstep>
   <time name="total">  469.76  469.70</time>
   <energy>
    <i name="e_fr_energy">   -599.83164018 </i>
    <i name="e_wo_entrp">   -599.81454701 </i>
    <i name="e_0_energy">   -599.82309360 </i>
   </energy>
  </scstep>
  <scstep>
   <time name="total">  469.62  469.56</time>
   <energy>
    <i name="e_fr_energy">   -661.27436226 </i>
    <i name="e_wo_entrp">   -661.26149176 </i>
    <i name="e_0_energy">   -661.26792701 </i>
   </energy>
  </scstep>
  <scstep>
   <time name="total">  469.42  469.37</time>
   <energy>
    <i name="e_fr_energy">   -708.23272312 </i>
    <i name="e_wo_entrp">   -708.21871847 </i>
    <i name="e_0_energy">   -708.22572080 </i>
   </energy>
  </scstep>
  <scstep>
   <time name="total">  469.57  469.53</time>
   <energy>
    <i name="e_fr_energy">   -746.30942493 </i>
    <i name="e_wo_entrp">   -746.29812212 </i>
    <i name="e_0_energy">   -746.30377352 </i>
   </energy>
  </scstep>
  <scstep>
   <time name="total">  469.31  469.25</time>
   <energy>
    <i name="e_fr_energy">   -774.36266766 </i>
    <i name="e_wo_entrp">   -774.34820661 </i>
    <i name="e_0_energy">   -774.35543714 </i>
   </energy>
  </scstep>
  <scstep>
   <time name="total">  469.47  469.39</time>
   <energy>
    <i name="e_fr_energy">   -794.71283752 </i>
    <i name="e_wo_entrp">   -794.70123889 </i>
    <i name="e_0_energy">   -794.70703820 </i>
   </energy>
  </scstep>
  <scstep>
   <time name="total">  469.35  469.28</time>
   <energy>
    <i name="e_fr_energy">   -808.31801725 </i>
    <i name="e_wo_entrp">   -808.30442596 </i>
    <i name="e_0_energy">   -808.31122160 </i>
   </energy>
  </scstep>
  <scstep>
   <time name="total">  468.99  468.92</time>
   <energy>
    <i name="e_fr_energy">   -817.60865025 </i>
    <i name="e_wo_entrp">   -817.59319928 </i>
    <i name="e_0_energy">   -817.60092477 </i>
   </energy>
  </scstep>
  <scstep>
   <time name="total">  469.27  469.19</time>
   <energy>
    <i name="e_fr_energy">   -823.78463247 </i>
    <i name="e_wo_entrp">   -823.77490345 </i>
    <i name="e_0_energy">   -823.77976796 </i>
   </energy>
  </scstep>
  <scstep>
   <time name="total">  468.91  468.84</time>
   <energy>
    <i name="e_fr_energy">   -827.69417533 </i>
    <i name="e_wo_entrp">   -827.68495720 </i>
    <i name="e_0_energy">   -827.68956626 </i>
   </energy>
  </scstep>
  <scstep>
   <time name="total">  468.92  468.86</time>
   <energy>
    <i name="e_fr_energy">   -830.67240075 </i>
    <i name="e_wo_entrp">   -830.66427192 </i>
    <i name="e_0_energy">   -830.66833634 </i>
   </energy>
  </scstep>
  <scstep>
   <time name="total">  468.99  468.91</time>
   <energy>
    <i name="e_fr_energy">   -832.71660295 </i>
    <i name="e_wo_entrp">   -832.70924845 </i>
    <i name="e_0_energy">   -832.71292570 </i>
   </energy>
  </scstep>
  <scstep>
   <time name="total">  469.14  469.06</time>
   <energy>
    <i name="e_fr_energy">   -834.06758710 </i>
    <i name="e_wo_entrp">   -834.05981743 </i>
    <i name="e_0_energy">   -834.06370226 </i>
   </energy>
  </scstep>
  <scstep>
   <time name="total">  468.83  468.75</time>
   <energy>
    <i name="e_fr_energy">   -835.01683015 </i>
    <i name="e_wo_entrp">   -835.00767797 </i>
    <i name="e_0_energy">   -835.01225406 </i>
   </energy>
  </scstep>
  <scstep>
   <time name="total">  468.83  468.75</time>
   <energy>
    <i name="e_fr_energy">   -835.66522360 </i>
    <i name="e_wo_entrp">   -835.65622345 </i>
    <i name="e_0_energy">   -835.66072352 </i>
   </energy>
  </scstep>
  <scstep>
   <time name="total">  468.73  468.66</time>
   <energy>
    <i name="e_fr_energy">   -836.08657433 </i>
    <i name="e_wo_entrp">   -836.07886520 </i>
    <i name="e_0_energy">   -836.08271976 </i>
   </energy>
  </scstep>
  <scstep>
   <time name="total">  468.64  468.57</time>
   <energy>
    <i name="e_fr_energy">   -836.37522431 </i>
    <i name="e_wo_entrp">   -836.36826180 </i>
    <i name="e_0_energy">   -836.37174305 </i>
   </energy>
  </scstep>
  <scstep>
   <time name="total">  469.02  468.97</time>
   <energy>
    <i name="e_fr_energy">   -836.59059246 </i>
    <i name="e_wo_entrp">   -836.58337019 </i>
    <i name="e_0_energy">   -836.58698133 </i>
   </energy>
  </scstep>
  <scstep>
   <time name="total">  468.83  468.77</time>
   <energy>
    <i name="e_fr_energy">   -836.73492109 </i>
    <i name="e_wo_entrp">   -836.72723118 </i>
    <i name="e_0_energy">   -836.73107614 </i>
   </energy>
  </scstep>
  <scstep>
   <time name="total">  468.87  468.80</time>
   <energy>
    <i name="e_fr_energy">   -836.83387291 </i>
    <i name="e_wo_entrp">   -836.82608033 </i>
    <i name="e_0_energy">   -836.82997662 </i>
   </energy>
  </scstep>
  <scstep>
   <time name="total">  468.88  468.81</time>
   <energy>
    <i name="e_fr_energy">   -836.90563202 </i>
    <i name="e_wo_entrp">   -836.89796735 </i>
    <i name="e_0_energy">   -836.90179969 </i>
   </energy>
  </scstep>
  <scstep>
   <time name="total">  468.66  468.58</time>
   <energy>
    <i name="e_fr_energy">   -836.95613654 </i>
    <i name="e_wo_entrp">   -836.94844771 </i>
    <i name="e_0_energy">   -836.95229213 </i>
   </energy>
  </scstep>
  <scstep>
   <time name="total">  468.74  468.67</time>
   <energy>
    <i name="e_fr_energy">   -837.02842383 </i>
    <i name="e_wo_entrp">   -837.02068908 </i>
    <i name="e_0_energy">   -837.02455646 </i>
   </energy>
  </scstep>
  <scstep>
   <time name="total">  468.62  468.55</time>
   <energy>
    <i name="e_fr_energy">   -837.05773962 </i>
    <i name="e_wo_entrp">   -837.04988721 </i>
    <i name="e_0_energy">   -837.05381341 </i>
   </energy>
  </scstep>
  <scstep>
   <time name="total">  468.89  468.82</time>
   <energy>
    <i name="e_fr_energy">   -837.06586311 </i>
    <i name="e_wo_entrp">   -837.05803593 </i>
    <i name="e_0_energy">   -837.06194952 </i>
   </energy>
  </scstep>
  <scstep>
   <time name="total">  468.48  468.41</time>
   <energy>
    <i name="e_fr_energy">   -837.06784145 </i>
    <i name="e_wo_entrp">   -837.05999569 </i>
    <i name="e_0_energy">   -837.06391857 </i>
   </energy>
  </scstep>
  <scstep>
   <time name="total">  468.50  468.43</time>
   <energy>
    <i name="e_fr_energy">   -837.06830791 </i>
    <i name="e_wo_entrp">   -837.06043724 </i>
    <i name="e_0_energy">   -837.06437257 </i>
   </energy>
  </scstep>
  <scstep>
   <time name="total">  468.35  468.29</time>
   <energy>
    <i name="e_fr_energy">   -837.06842323 </i>
    <i name="e_wo_entrp">   -837.06054729 </i>
    <i name="e_0_energy">   -837.06448526 </i>
   </energy>
  </scstep>
  <scstep>
   <time name="total">  468.96  468.90</time>
   <energy>
    <i name="e_fr_energy">   -837.06846487 </i>
    <i name="e_wo_entrp">   -837.06058629 </i>
    <i name="e_0_energy">   -837.06452558 </i>
   </energy>
  </scstep>
  <scstep>
   <time name="total">  468.80  468.73</time>
   <energy>
    <i name="e_fr_energy">   -837.06848111 </i>
    <i name="e_wo_entrp">   -837.06059606 </i>
    <i name="e_0_energy">   -837.06453859 </i>
   </energy>
  </scstep>
  <scstep>
   <time name="total">  698.94  698.84</time>
   <energy>
    <i name="alphaZ">   5376.25786726 </i>
    <i name="ewald"> -86641.94408478 </i>
    <i name="hartreedc"> -33939.57275496 </i>
    <i name="XCdc">   2906.34227497 </i>
    <i name="pawpsdc"> 121631.96443776 </i>
    <i name="pawaedc">-136900.08218769 </i>
    <i name="eentropy">     -0.00789146 </i>
    <i name="bandstr">  -8637.70032259 </i>
    <i name="atom"> 131500.23896116 </i>
    <i name="e_fr_energy">   -837.06848873 </i>
    <i name="e_wo_entrp">   -837.06059727 </i>
    <i name="e_0_energy">   -837.06454300 </i>
   </energy>
  </scstep>
  <structure>
   <crystal>
    <varray name="basis" >
     <v>       0.00000000      12.28047342       0.00000000 </v>
     <v>       9.14270205       0.00000000       0.00000000 </v>
     <v>       0.00000000      -2.76826177     -11.30069772 </v>
    </varray>
    <i name="volume">   1268.80515525 </i>
    <varray name="rec_basis" >
     <v>       0.00000000       0.08143009      -0.01994742 </v>
     <v>       0.10937686      -0.00000000       0.00000000 </v>
     <v>       0.00000000       0.00000000      -0.08849011 </v>
    </varray>
   </crystal>
   <varray name="positions" >
    <v>       0.66571834       0.00154177       0.15555855 </v>
    <v>       0.66206588       0.99927619       0.66387097 </v>
    <v>       0.66571834       0.33179156       0.15555855 </v>
    <v>       0.66206588       0.33405715       0.66387097 </v>
    <v>       0.65868348       0.66666667       0.14796089 </v>
    <v>       0.65599310       0.66666667       0.66855776 </v>
    <v>       0.84157513       0.16666667       0.84368206 </v>
    <v>       0.83770637       0.49609409       0.33848670 </v>
    <v>       0.84260969       0.49851380       0.84448467 </v>
    <v>       0.83770637       0.83723924       0.33848670 </v>
    <v>       0.84260969       0.83481953       0.84448467 </v>
    <v>       0.61826252       0.16666667       0.39805611 </v>
    <v>       0.58748196       0.16666667       0.89979124 </v>
    <v>       0.62103761       0.49282166       0.40542124 </v>
    <v>       0.58100790       0.49918776       0.89529487 </v>
    <v>       0.62103761       0.84051167       0.40542124 </v>
    <v>       0.58100790       0.83414557       0.89529487 </v>
    <v>       0.91487592       0.00125773       0.10689767 </v>
    <v>       0.88796110       0.03815606       0.57506267 </v>
    <v>       0.91487592       0.33207561       0.10689767 </v>
    <v>       0.88796110       0.29517727       0.57506267 </v>
    <v>       0.91473363       0.66666667       0.10626795 </v>
    <v>       0.90621178       0.66666667       0.59643104 </v>
    <v>       0.16899375       0.16666667       0.16411154 </v>
    <v>       0.16280491       0.16666667       0.63913304 </v>
    <v>       0.16861424       0.49976408       0.16422344 </v>
    <v>       0.14309398       0.49645010       0.65176566 </v>
    <v>       0.16861424       0.83356925       0.16422344 </v>
    <v>       0.14309398       0.83688324       0.65176566 </v>
    <v>       0.35734344       0.99942749       0.34862045 </v>
    <v>       0.33223566       0.99758870       0.84211219 </v>
    <v>       0.35734344       0.33390584       0.34862045 </v>
    <v>       0.33223566       0.33574463       0.84211219 </v>
    <v>       0.36603224       0.66666667       0.34816586 </v>
    <v>       0.33037457       0.66666667       0.83765864 </v>
    <v>       0.08559080       0.00454617       0.39562720 </v>
    <v>       0.09395592       0.00238447       0.89995755 </v>
    <v>       0.08559080       0.32878716       0.39562720 </v>
    <v>       0.09395592       0.33094886       0.89995755 </v>
    <v>       0.09501858       0.66666667       0.39587254 </v>
    <v>       0.09296174       0.66666667       0.90294678 </v>
    <v>       0.41011075       0.16666667       0.09824123 </v>
    <v>       0.41177689       0.16666667       0.60731124 </v>
    <v>       0.41054589       0.49762235       0.09879190 </v>
    <v>       0.40712650       0.49800709       0.60716632 </v>
    <v>       0.41054589       0.83571098       0.09879190 </v>
    <v>       0.40712650       0.83532624       0.60716632 </v>
    <v>       0.00576302       0.16666667       0.12596136 </v>
    <v>       0.02527852       0.16666667       0.66364333 </v>
    <v>       0.00499611       0.50020767       0.12731016 </v>
    <v>       0.98032387       0.48189998       0.60923634 </v>
    <v>       0.00499611       0.83312566       0.12731016 </v>
    <v>       0.98032387       0.85143335       0.60923634 </v>
    <v>       0.52030256       0.00080068       0.37699769 </v>
    <v>       0.49405128       0.00222397       0.87217811 </v>
    <v>       0.52030256       0.33253265       0.37699769 </v>
    <v>       0.49405128       0.33110936       0.87217811 </v>
    <v>       0.52817637       0.66666667       0.38074311 </v>
    <v>       0.49350083       0.66666667       0.87217414 </v>
    <v>       0.66384653       0.16666667       0.26068031 </v>
    <v>       0.67265067       0.16666667       0.78588208 </v>
    <v>       0.66132471       0.50773985       0.25984010 </v>
    <v>       0.67254254       0.50256990       0.78946305 </v>
    <v>       0.66132471       0.82559348       0.25984010 </v>
    <v>       0.67254254       0.83076344       0.78946305 </v>
    <v>       0.82394919       0.97015892       0.20684002 </v>
    <v>       0.82614962       0.99637856       0.72544931 </v>
    <v>       0.82394919       0.36317441       0.20684002 </v>
    <v>       0.82614962       0.33695477       0.72544931 </v>
    <v>       0.82830365       0.66666667       0.21712176 </v>
    <v>       0.82729338       0.66666667       0.72187677 </v>
    <v>       0.77215475       0.95684167       0.43900558 </v>
    <v>       0.83650299       0.99948185       0.94975422 </v>
    <v>       0.77215475       0.37649166       0.43900558 </v>
    <v>       0.83650299       0.33385148       0.94975422 </v>
    <v>       0.81963856       0.66666667       0.43830047 </v>
    <v>       0.83878921       0.66666667       0.94875717 </v>
    <v>       0.67901156       0.16666667       0.04947644 </v>
    <v>       0.65544417       0.16666667       0.56162875 </v>
    <v>       0.66678300       0.50188796       0.04508640 </v>
    <v>       0.65522689       0.50494687       0.56886753 </v>
    <v>       0.66678300       0.83144537       0.04508640 </v>
    <v>       0.65522689       0.82838647       0.56886753 </v>
    <v>       0.50004897       0.00090154       0.11435983 </v>
    <v>       0.49925531       0.99913269       0.63942449 </v>
    <v>       0.50004897       0.33243179       0.11435983 </v>
    <v>       0.49925531       0.33420064       0.63942449 </v>
    <v>       0.49444521       0.66666667       0.11473606 </v>
    <v>       0.49304559       0.66666667       0.63898564 </v>
    <v>       0.00321851       0.16666667       0.88717338 </v>
    <v>       0.00187175       0.50600484       0.37020152 </v>
    <v>       0.00490682       0.49906029       0.87520021 </v>
    <v>       0.00187175       0.82732849       0.37020152 </v>
    <v>       0.00490682       0.83427304       0.87520021 </v>
    <v>       0.18141308       0.99694774       0.28642952 </v>
    <v>       0.17199316       0.98477477       0.78171800 </v>
    <v>       0.18141308       0.33638559       0.28642952 </v>
    <v>       0.17199316       0.34855857       0.78171800 </v>
    <v>       0.18175228       0.66666667       0.28291363 </v>
    <v>       0.16175721       0.66666667       0.77489530 </v>
    <v>       0.33878830       0.16666667       0.22517921 </v>
    <v>       0.32204866       0.16666667       0.72064299 </v>
    <v>       0.33985943       0.49989000       0.22479288 </v>
    <v>       0.32239702       0.50279842       0.72040611 </v>
    <v>       0.33985943       0.83344334       0.22479288 </v>
    <v>       0.32239702       0.83053491       0.72040611 </v>
    <v>       0.34345979       0.16666667       0.44753556 </v>
    <v>       0.32148765       0.16666667       0.94336931 </v>
    <v>       0.34470094       0.50237068       0.44720803 </v>
    <v>       0.32505030       0.50308164       0.94482677 </v>
    <v>       0.34470094       0.83096265       0.44720803 </v>
    <v>       0.32505030       0.83025169       0.94482677 </v>
    <v>       0.17569477       0.99866992       0.05885825 </v>
    <v>       0.18077804       0.99155038       0.55007618 </v>
    <v>       0.17569477       0.33466341       0.05885825 </v>
    <v>       0.18077804       0.34178295       0.55007618 </v>
    <v>       0.17616643       0.66666667       0.05882686 </v>
    <v>       0.16521950       0.66666667       0.55504875 </v>
    <v>       0.95120502       0.16666667       0.37388018 </v>
   </varray>
  </structure>
  <varray name="forces" >
   <v>       0.02011806       0.09770626      -0.07057676 </v>
   <v>      -0.00352594       0.03561652       0.05150020 </v>
   <v>      -0.02011806       0.09770626      -0.07057676 </v>
   <v>       0.00352594       0.03561652       0.05150020 </v>
   <v>       0.00000000      -0.05015883      -0.11239480 </v>
   <v>       0.00000000       0.06179400       0.10759704 </v>
   <v>       0.00000000      -0.02671521       0.01711756 </v>
   <v>      -0.03314740      -0.13764524      -0.00617062 </v>
   <v>      -0.04748937      -0.01746955       0.08712663 </v>
   <v>       0.03314740      -0.13764524      -0.00617062 </v>
   <v>       0.04748937      -0.01746955       0.08712663 </v>
   <v>       0.00000000      -0.13188673       0.04500922 </v>
   <v>       0.00000000       0.01949550       0.00006072 </v>
   <v>      -0.12157835       0.04615958      -0.00148471 </v>
   <v>      -0.01615662       0.05953346      -0.05610844 </v>
   <v>       0.12157835       0.04615958      -0.00148471 </v>
   <v>       0.01615662       0.05953346      -0.05610844 </v>
   <v>      -0.07326233      -0.06650419       0.01740456 </v>
   <v>      -0.05113110      -0.01561477      -0.10339248 </v>
   <v>       0.07326233      -0.06650419       0.01740456 </v>
   <v>       0.05113110      -0.01561477      -0.10339248 </v>
   <v>       0.00000000      -0.00204910       0.00598229 </v>
   <v>       0.00000000       0.05186124       0.01768131 </v>
   <v>       0.00000000       0.09091967       0.05838751 </v>
   <v>       0.00000000      -0.15069933      -0.05295258 </v>
   <v>       0.00118736       0.08761136      -0.00610791 </v>
   <v>       0.00139366      -0.00317295       0.02566490 </v>
   <v>      -0.00118736       0.08761136      -0.00610791 </v>
   <v>      -0.00139366      -0.00317295       0.02566490 </v>
   <v>       0.00286552      -0.05735731      -0.02297409 </v>
   <v>      -0.01989294      -0.12853081      -0.00657948 </v>
   <v>      -0.00286552      -0.05735731      -0.02297409 </v>
   <v>       0.01989294      -0.12853081      -0.00657948 </v>
   <v>       0.00000000      -0.05784820      -0.05131823 </v>
   <v>       0.00000000      -0.06156053       0.01706445 </v>
   <v>      -0.32529735       0.14426808      -0.10066021 </v>
   <v>      -0.03871002      -0.03531968       0.07437107 </v>
   <v>       0.32529735       0.14426808      -0.10066021 </v>
   <v>       0.03871002      -0.03531968       0.07437107 </v>
   <v>       0.00000000      -0.09302708      -0.10221201 </v>
   <v>       0.00000000      -0.02210236       0.15425328 </v>
   <v>       0.00000000       0.05095325       0.03039644 </v>
   <v>       0.00000000       0.05383815      -0.00988760 </v>
   <v>       0.02527926       0.03772400       0.01897526 </v>
   <v>       0.01790321       0.02017897      -0.02184803 </v>
   <v>      -0.02527926       0.03772400       0.01897526 </v>
   <v>      -0.01790321       0.02017897      -0.02184803 </v>
   <v>       0.00000000      -0.26964774       0.06884444 </v>
   <v>       0.00000000       0.57013090       0.23064688 </v>
   <v>       0.03492522      -0.25052748       0.06178554 </v>
   <v>      -0.13311175       0.03132624       0.07143465 </v>
   <v>      -0.03492522      -0.25052748       0.06178554 </v>
   <v>       0.13311175       0.03132624       0.07143465 </v>
   <v>      -0.00760506       0.22176732      -0.08718757 </v>
   <v>      -0.09264151       0.16335661      -0.09567080 </v>
   <v>       0.00760506       0.22176732      -0.08718757 </v>
   <v>       0.09264151       0.16335661      -0.09567080 </v>
   <v>       0.00000000       0.10633854      -0.06541624 </v>
   <v>       0.00000000       0.22640616      -0.08610423 </v>
   <v>       0.00000000      -0.24815489      -0.11032635 </v>
   <v>       0.00000000       0.06560956      -0.06862494 </v>
   <v>       0.00421630       0.08291912      -0.11107317 </v>
   <v>       0.04473721      -0.05371151      -0.07263883 </v>
   <v>      -0.00421630       0.08291912      -0.11107317 </v>
   <v>      -0.04473721      -0.05371151      -0.07263883 </v>
   <v>      -0.20728096      -0.00062778       0.22993411 </v>
   <v>       0.00927367      -0.35520615      -0.15389904 </v>
   <v>       0.20728096      -0.00062778       0.22993411 </v>
   <v>      -0.00927367      -0.35520615      -0.15389904 </v>
   <v>       0.00000000       0.11539318       0.22059363 </v>
   <v>       0.00000000      -0.21070949      -0.10461206 </v>
   <v>      -0.36161937       0.10027316       0.11508444 </v>
   <v>      -0.03790859       0.36367873      -0.05543996 </v>
   <v>       0.36161937       0.10027316       0.11508444 </v>
   <v>       0.03790859       0.36367873      -0.05543996 </v>
   <v>       0.00000000       0.26543433       0.12882932 </v>
   <v>       0.00000000       0.34671954      -0.13215985 </v>
   <v>       0.00000000      -0.42854735       0.06217300 </v>
   <v>       0.00000000      -0.12554500       0.10959964 </v>
   <v>       0.08903209      -0.39187141       0.10370407 </v>
   <v>      -0.04510989      -0.12629892       0.01601148 </v>
   <v>      -0.08903209      -0.39187141       0.10370407 </v>
   <v>       0.04510989      -0.12629892       0.01601148 </v>
   <v>      -0.02518810      -0.14573743       0.01384055 </v>
   <v>      -0.01007067      -0.14141013       0.13681549 </v>
   <v>       0.02518810      -0.14573743       0.01384055 </v>
   <v>       0.01007067      -0.14141013       0.13681549 </v>
   <v>       0.00000000      -0.13840335       0.06652418 </v>
   <v>       0.00000000      -0.14884341       0.11616557 </v>
   <v>       0.00000000       0.20865275       0.02059282 </v>
   <v>       0.03307655       0.12906391      -0.04821897 </v>
   <v>       0.00366069       0.13612256      -0.16374295 </v>
   <v>      -0.03307655       0.12906391      -0.04821897 </v>
   <v>      -0.00366069       0.13612256      -0.16374295 </v>
   <v>       0.00643308      -0.08976719       0.03972558 </v>
   <v>      -0.11171319       0.04917196      -0.22551344 </v>
   <v>      -0.00643308      -0.08976719       0.03972558 </v>
   <v>       0.11171319       0.04917196      -0.22551344 </v>
   <v>       0.00000000      -0.18602981       0.08124555 </v>
   <v>       0.00000000       0.08318029      -0.29491366 </v>
   <v>       0.00000000      -0.04159378       0.03567086 </v>
   <v>       0.00000000      -0.14290553       0.13630669 </v>
   <v>       0.00334206       0.01569985       0.04160473 </v>
   <v>       0.03260443       0.13928119       0.02638489 </v>
   <v>      -0.00334206       0.01569985       0.04160473 </v>
   <v>      -0.03260443       0.13928119       0.02638489 </v>
   <v>       0.00000000       0.37834336      -0.01655069 </v>
   <v>       0.00000000       0.37393251       0.02500589 </v>
   <v>      -0.02124957       0.40640375      -0.07992906 </v>
   <v>      -0.00467327       0.39477002       0.00771551 </v>
   <v>       0.02124957       0.40640375      -0.07992906 </v>
   <v>       0.00467327       0.39477002       0.00771551 </v>
   <v>      -0.01783037      -0.39641726       0.04006687 </v>
   <v>       0.16954510      -0.52396919      -0.01952327 </v>
   <v>       0.01783037      -0.39641726       0.04006687 </v>
   <v>      -0.16954510      -0.52396919      -0.01952327 </v>
   <v>       0.00000000      -0.42445361       0.08368144 </v>
   <v>       0.00000000      -0.32101284       0.13361033 </v>
   <v>       0.00000000       0.56194386      -0.10638831 </v>
  </varray>
  <varray name="stress" >
   <v>     207.63571559       0.00000000       0.00000000 </v>
   <v>       0.00000000     213.50339251       9.05485782 </v>
   <v>       0.00000000       9.05485746     248.24260489 </v>
  </varray>
  <energy>
   <i name="e_fr_energy">   -837.06848873 </i>
   <i name="e_wo_entrp">   -837.06059727 </i>
   <i name="e_0_energy">   -837.06454300 </i>
  </energy>
  <time name="totalsc">20301.4020299.14</time>
  <eigenvalues>
   <array>
    <dimension dim="1">band</dimension>
    <dimension dim="2">kpoint</dimension>
    <dimension dim="3">spin</dimension>
    <field>eigene</field>
    <field>occ</field>
    <set>
     <set comment="spin 1">
      <set comment="kpoint 1">
       <r>  -18.8275    1.0000 </r>
       <r>  -18.5220    1.0000 </r>
       <r>  -18.4835    1.0000 </r>
       <r>  -18.3099    1.0000 </r>
       <r>  -18.2270    1.0000 </r>
       <r>  -18.1443    1.0000 </r>
       <r>  -18.1407    1.0000 </r>
       <r>  -17.9896    1.0000 </r>
       <r>  -17.9365    1.0000 </r>
       <r>  -17.9317    1.0000 </r>
       <r>  -17.9031    1.0000 </r>
       <r>  -17.8977    1.0000 </r>
       <r>  -17.8828    1.0000 </r>
       <r>  -17.7816    1.0000 </r>
       <r>  -17.7774    1.0000 </r>
       <r>  -17.7308    1.0000 </r>
       <r>  -17.7121    1.0000 </r>
       <r>  -17.6929    1.0000 </r>
       <r>  -17.6648    1.0000 </r>
       <r>  -17.6106    1.0000 </r>
       <r>  -17.6052    1.0000 </r>
       <r>  -17.5994    1.0000 </r>
       <r>  -17.5311    1.0000 </r>
       <r>  -17.5164    1.0000 </r>
       <r>  -17.5037    1.0000 </r>
       <r>  -17.4905    1.0000 </r>
       <r>  -17.4636    1.0000 </r>
       <r>  -17.4185    1.0000 </r>
       <r>  -17.3794    1.0000 </r>
       <r>  -17.3716    1.0000 </r>
       <r>  -17.3286    1.0000 </r>
       <r>  -17.2972    1.0000 </r>
       <r>  -17.2930    1.0000 </r>
       <r>  -17.2762    1.0000 </r>
       <r>  -17.2491    1.0000 </r>
       <r>  -17.2468    1.0000 </r>
       <r>  -17.2162    1.0000 </r>
       <r>  -17.2105    1.0000 </r>
       <r>  -17.2042    1.0000 </r>
       <r>  -17.1811    1.0000 </r>
       <r>  -17.1622    1.0000 </r>
       <r>  -17.1469    1.0000 </r>
       <r>  -17.1337    1.0000 </r>
       <r>  -17.1157    1.0000 </r>
       <r>  -17.1070    1.0000 </r>
       <r>  -17.0794    1.0000 </r>
       <r>  -17.0696    1.0000 </r>
       <r>  -17.0482    1.0000 </r>
       <r>  -17.0346    1.0000 </r>
       <r>  -16.9896    1.0000 </r>
       <r>  -16.9741    1.0000 </r>
       <r>  -16.9724    1.0000 </r>
       <r>  -16.9569    1.0000 </r>
       <r>  -16.9348    1.0000 </r>
       <r>  -16.9336    1.0000 </r>
       <r>  -16.9047    1.0000 </r>
       <r>  -16.9007    1.0000 </r>
       <r>  -16.8945    1.0000 </r>
       <r>  -16.8592    1.0000 </r>
       <r>  -16.8580    1.0000 </r>
       <r>  -16.8365    1.0000 </r>
       <r>  -16.7996    1.0000 </r>
       <r>  -16.7581    1.0000 </r>
       <r>  -16.6895    1.0000 </r>
       <r>  -16.6782    1.0000 </r>
       <r>  -16.5849    1.0000 </r>
       <r>  -16.4881    1.0000 </r>
       <r>  -16.4266    1.0000 </r>
       <r>  -15.8236    1.0000 </r>
       <r>  -15.7963    1.0000 </r>
       <r>  -15.4175    1.0000 </r>
       <r>  -13.2558    1.0000 </r>
       <r>  -13.2282    1.0000 </r>
       <r>  -13.2219    1.0000 </r>
       <r>  -13.2184    1.0000 </r>
       <r>  -13.1914    1.0000 </r>
       <r>  -13.1883    1.0000 </r>
       <r>  -13.1796    1.0000 </r>
       <r>  -13.1760    1.0000 </r>
       <r>  -13.1736    1.0000 </r>
       <r>  -13.1671    1.0000 </r>
       <r>  -13.1397    1.0000 </r>
       <r>  -13.1374    1.0000 </r>
       <r>  -13.1361    1.0000 </r>
       <r>  -13.1309    1.0000 </r>
       <r>  -13.1295    1.0000 </r>
       <r>  -13.1268    1.0000 </r>
       <r>  -13.1230    1.0000 </r>
       <r>  -13.1200    1.0000 </r>
       <r>  -13.1169    1.0000 </r>
       <r>  -13.1120    1.0000 </r>
       <r>  -13.1109    1.0000 </r>
       <r>  -13.1040    1.0000 </r>
       <r>  -13.1037    1.0000 </r>
       <r>  -13.1009    1.0000 </r>
       <r>  -13.0973    1.0000 </r>
       <r>  -13.0923    1.0000 </r>
       <r>  -13.0911    1.0000 </r>
       <r>  -13.0894    1.0000 </r>
       <r>  -13.0866    1.0000 </r>
       <r>  -13.0720    1.0000 </r>
       <r>  -13.0689    1.0000 </r>
       <r>  -13.0601    1.0000 </r>
       <r>  -13.0551    1.0000 </r>
       <r>  -13.0522    1.0000 </r>
       <r>  -13.0515    1.0000 </r>
       <r>  -13.0484    1.0000 </r>
       <r>  -13.0422    1.0000 </r>
       <r>  -13.0340    1.0000 </r>
       <r>  -13.0286    1.0000 </r>
       <r>  -13.0276    1.0000 </r>
       <r>  -13.0234    1.0000 </r>
       <r>  -13.0135    1.0000 </r>
       <r>  -13.0106    1.0000 </r>
       <r>  -13.0036    1.0000 </r>
       <r>  -12.9971    1.0000 </r>
       <r>  -12.9961    1.0000 </r>
       <r>  -12.9930    1.0000 </r>
       <r>  -12.9906    1.0000 </r>
       <r>  -12.9855    1.0000 </r>
       <r>  -12.9853    1.0000 </r>
       <r>  -12.9850    1.0000 </r>
       <r>  -12.9801    1.0000 </r>
       <r>  -12.9794    1.0000 </r>
       <r>  -12.9754    1.0000 </r>
       <r>  -12.9741    1.0000 </r>
       <r>  -12.9667    1.0000 </r>
       <r>  -12.9662    1.0000 </r>
       <r>  -12.9619    1.0000 </r>
       <r>  -12.9576    1.0000 </r>
       <r>  -12.9542    1.0000 </r>
       <r>  -12.9536    1.0000 </r>
       <r>  -12.9524    1.0000 </r>
       <r>  -12.9520    1.0000 </r>
       <r>  -12.9503    1.0000 </r>
       <r>  -12.9448    1.0000 </r>
       <r>  -12.9401    1.0000 </r>
       <r>  -12.9383    1.0000 </r>
       <r>  -12.9378    1.0000 </r>
       <r>  -12.9303    1.0000 </r>
       <r>  -12.9277    1.0000 </r>
       <r>  -12.9253    1.0000 </r>
       <r>  -12.9206    1.0000 </r>
       <r>  -12.9148    1.0000 </r>
       <r>  -12.9093    1.0000 </r>
       <r>  -12.9083    1.0000 </r>
       <r>  -12.9021    1.0000 </r>
       <r>  -12.8998    1.0000 </r>
       <r>  -12.8930    1.0000 </r>
       <r>  -12.8898    1.0000 </r>
       <r>  -12.8805    1.0000 </r>
       <r>  -12.8792    1.0000 </r>
       <r>  -12.8727    1.0000 </r>
       <r>  -12.8698    1.0000 </r>
       <r>  -12.8686    1.0000 </r>
       <r>  -12.8677    1.0000 </r>
       <r>  -12.8621    1.0000 </r>
       <r>  -12.8613    1.0000 </r>
       <r>  -12.8582    1.0000 </r>
       <r>  -12.8534    1.0000 </r>
       <r>  -12.8508    1.0000 </r>
       <r>  -12.8449    1.0000 </r>
       <r>  -12.8426    1.0000 </r>
       <r>  -12.8405    1.0000 </r>
       <r>  -12.8402    1.0000 </r>
       <r>  -12.8392    1.0000 </r>
       <r>  -12.8378    1.0000 </r>
       <r>  -12.8361    1.0000 </r>
       <r>  -12.8328    1.0000 </r>
       <r>  -12.8301    1.0000 </r>
       <r>  -12.8288    1.0000 </r>
       <r>  -12.8250    1.0000 </r>
       <r>  -12.8216    1.0000 </r>
       <r>  -12.8214    1.0000 </r>
       <r>  -12.8180    1.0000 </r>
       <r>  -12.8145    1.0000 </r>
       <r>  -12.8103    1.0000 </r>
       <r>  -12.8098    1.0000 </r>
       <r>  -12.8062    1.0000 </r>
       <r>  -12.8059    1.0000 </r>
       <r>  -12.8045    1.0000 </r>
       <r>  -12.7905    1.0000 </r>
       <r>  -12.7893    1.0000 </r>
       <r>  -12.7838    1.0000 </r>
       <r>  -12.7794    1.0000 </r>
       <r>  -12.7788    1.0000 </r>
       <r>  -12.7744    1.0000 </r>
       <r>  -12.7693    1.0000 </r>
       <r>  -12.7639    1.0000 </r>
       <r>  -12.7614    1.0000 </r>
       <r>  -12.7563    1.0000 </r>
       <r>  -12.7514    1.0000 </r>
       <r>  -12.7501    1.0000 </r>
       <r>  -12.7404    1.0000 </r>
       <r>  -12.7399    1.0000 </r>
       <r>  -12.7379    1.0000 </r>
       <r>  -12.7327    1.0000 </r>
       <r>  -12.7298    1.0000 </r>
       <r>  -12.7296    1.0000 </r>
       <r>  -12.7196    1.0000 </r>
       <r>  -12.7159    1.0000 </r>
       <r>  -12.7103    1.0000 </r>
       <r>  -12.7095    1.0000 </r>
       <r>  -12.7091    1.0000 </r>
       <r>  -12.7007    1.0000 </r>
       <r>  -12.6977    1.0000 </r>
       <r>  -12.6953    1.0000 </r>
       <r>  -12.6935    1.0000 </r>
       <r>  -12.6878    1.0000 </r>
       <r>  -12.6820    1.0000 </r>
       <r>  -12.6779    1.0000 </r>
       <r>  -12.6729    1.0000 </r>
       <r>  -12.6706    1.0000 </r>
       <r>  -12.6554    1.0000 </r>
       <r>  -12.6512    1.0000 </r>
       <r>  -12.6505    1.0000 </r>
       <r>  -12.6445    1.0000 </r>
       <r>  -12.6401    1.0000 </r>
       <r>  -12.6393    1.0000 </r>
       <r>  -12.6359    1.0000 </r>
       <r>  -12.6222    1.0000 </r>
       <r>  -12.6139    1.0000 </r>
       <r>  -12.6126    1.0000 </r>
       <r>  -12.6013    1.0000 </r>
       <r>  -12.5902    1.0000 </r>
       <r>  -12.5777    1.0000 </r>
       <r>  -12.5738    1.0000 </r>
       <r>  -12.5714    1.0000 </r>
[...]
       <r>   -12.6140   421.4484   441.7367 </r>
       <r>   -12.4828   311.0375   482.5411 </r>
       <r>   -12.3516   311.3779   523.3902 </r>
       <r>   -12.2204   149.4831   543.0007 </r>
       <r>   -12.0892   102.7430   556.4793 </r>
       <r>   -11.9580   109.0801   570.7894 </r>
       <r>   -11.8268    80.4260   581.3403 </r>
       <r>   -11.6957    56.0910   588.6988 </r>
       <r>   -11.5645    65.4481   597.2848 </r>
       <r>   -11.4333    51.2195   604.0042 </r>
       <r>   -11.3021    29.4053   607.8618 </r>
       <r>   -11.1709    28.1461   611.5542 </r>
       <r>   -11.0397     3.3978   612.0000 </r>
       <r>   -10.9085     0.0001   612.0000 </r>
       <r>   -10.7773     0.0000   612.0000 </r>
       <r>   -10.6461     0.0000   612.0000 </r>
       <r>   -10.5150     0.0000   612.0000 </r>
       <r>   -10.3838     0.0000   612.0000 </r>
       <r>   -10.2526     0.0000   612.0000 </r>
       <r>   -10.1214     0.0000   612.0000 </r>
       <r>    -9.9902     0.0000   612.0000 </r>
       <r>    -9.8590     0.0000   612.0000 </r>
       <r>    -9.7278     0.0000   612.0000 </r>
       <r>    -9.5966     0.0000   612.0000 </r>
       <r>    -9.4655     0.0000   612.0000 </r>
       <r>    -9.3343     0.0000   612.0000 </r>
       <r>    -9.2031     0.0000   612.0000 </r>
       <r>    -9.0719     0.0000   612.0000 </r>
       <r>    -8.9407     0.0000   612.0000 </r>
       <r>    -8.8095     0.0000   612.0000 </r>
       <r>    -8.6783     0.0000   612.0000 </r>
       <r>    -8.5471     0.0000   612.0000 </r>
       <r>    -8.4159     0.0000   612.0000 </r>
       <r>    -8.2848     0.0000   612.0000 </r>
       <r>    -8.1536     0.0000   612.0000 </r>
       <r>    -8.0224     0.0000   612.0000 </r>
       <r>    -7.8912     0.0000   612.0000 </r>
       <r>    -7.7600     0.0000   612.0000 </r>
       <r>    -7.6288     0.0000   612.0000 </r>
       <r>    -7.4976     0.0000   612.0000 </r>
       <r>    -7.3664     0.0000   612.0000 </r>
       <r>    -7.2353     0.0000   612.0000 </r>
       <r>    -7.1041     0.0000   612.0000 </r>
       <r>    -6.9729     0.0000   612.0000 </r>
       <r>    -6.8417     0.0000   612.0000 </r>
       <r>    -6.7105     0.0000   612.0000 </r>
       <r>    -6.5793     0.0000   612.0000 </r>
       <r>    -6.4481     0.0641   612.0084 </r>
       <r>    -6.3169     9.0185   613.1915 </r>
       <r>    -6.1857     6.1562   613.9992 </r>
       <r>    -6.0546     0.0064   614.0000 </r>
       <r>    -5.9234     0.0000   614.0000 </r>
       <r>    -5.7922     0.0000   614.0000 </r>
       <r>    -5.6610     0.0000   614.0000 </r>
       <r>    -5.5298     0.0000   614.0000 </r>
       <r>    -5.3986     0.1253   614.0164 </r>
       <r>    -5.2674     3.6514   614.4954 </r>
       <r>    -5.1362    11.1914   615.9636 </r>
       <r>    -5.0051    21.2123   618.7464 </r>
       <r>    -4.8739    26.7192   622.2517 </r>
       <r>    -4.7427    27.5161   625.8615 </r>
       <r>    -4.6115    36.3905   630.6355 </r>
       <r>    -4.4803    37.6864   635.5795 </r>
       <r>    -4.3491    43.0519   641.2274 </r>
       <r>    -4.2179    47.0940   647.4055 </r>
       <r>    -4.0867    44.6508   653.2632 </r>
       <r>    -3.9555    41.9986   658.7729 </r>
       <r>    -3.8244    42.8854   664.3990 </r>
       <r>    -3.6932    41.5780   669.8535 </r>
       <r>    -3.5620    30.2885   673.8270 </r>
       <r>    -3.4308    28.7230   677.5952 </r>
       <r>    -3.2996    32.6518   681.8787 </r>
       <r>    -3.1684    31.9837   686.0746 </r>
       <r>    -3.0372    35.1721   690.6887 </r>
       <r>    -2.9060    45.3407   696.6369 </r>
       <r>    -2.7749    35.0146   701.2304 </r>
       <r>    -2.6437    32.0981   705.4413 </r>
       <r>    -2.5125    41.3759   710.8693 </r>
       <r>    -2.3813    33.2250   715.2281 </r>
       <r>    -2.2501    43.3901   720.9203 </r>
       <r>    -2.1189    41.6684   726.3867 </r>
       <r>    -1.9877    49.9230   732.9360 </r>
       <r>    -1.8565    55.9561   740.2768 </r>
       <r>    -1.7253    54.3784   747.4106 </r>
       <r>    -1.5942    59.4842   755.2142 </r>
       <r>    -1.4630    55.7357   762.5261 </r>
       <r>    -1.3318    60.4934   770.4621 </r>
       <r>    -1.2006    56.1374   777.8267 </r>
       <r>    -1.0694    58.7656   785.5360 </r>
       <r>    -0.9382    60.6646   793.4945 </r>
       <r>    -0.8070    63.1132   801.7742 </r>
       <r>    -0.6758    61.2611   809.8109 </r>
       <r>    -0.5447    67.1893   818.6254 </r>
       <r>    -0.4135    59.1025   826.3789 </r>
       <r>    -0.2823    59.5459   834.1906 </r>
       <r>    -0.1511    64.0374   842.5916 </r>
       <r>    -0.0199    72.5167   852.1049 </r>
       <r>     0.1113    69.4271   861.2129 </r>
       <r>     0.2425    71.8859   870.6435 </r>
       <r>     0.3737    75.0079   880.4837 </r>
       <r>     0.5048    77.4970   890.6504 </r>
       <r>     0.6360    84.7918   901.7741 </r>
       <r>     0.7672    84.3167   912.8354 </r>
       <r>     0.8984    90.0841   924.6534 </r>
       <r>     1.0296    86.9290   936.0574 </r>
       <r>     1.1608   101.2594   949.3415 </r>
       <r>     1.2920   100.5281   962.5296 </r>
       <r>     1.4232   116.2065   977.7745 </r>
       <r>     1.5544   110.6014   992.2841 </r>
       <r>     1.6855    89.9757  1004.0879 </r>
       <r>     1.8167    64.9100  1012.6033 </r>
       <r>     1.9479    62.8297  1020.8458 </r>
       <r>     2.0791    57.1929  1028.3488 </r>
       <r>     2.2103    25.8612  1031.7415 </r>
       <r>     2.3415     5.3371  1032.4417 </r>
       <r>     2.4727    22.7697  1035.4288 </r>
       <r>     2.6039    20.2723  1038.0883 </r>
       <r>     2.7350    13.4806  1039.8568 </r>
       <r>     2.8662     1.0917  1040.0000 </r>
       <r>     2.9974     0.0000  1040.0000 </r>
       <r>     3.1286     0.0000  1040.0000 </r>
       <r>     3.2598     0.0425  1040.0056 </r>
       <r>     3.3910     6.5414  1040.8637 </r>
       <r>     3.5222     1.1771  1041.0181 </r>
       <r>     3.6534    12.0236  1042.5955 </r>
       <r>     3.7846    10.6887  1043.9977 </r>
       <r>     3.9157     0.0173  1044.0000 </r>
       <r>     4.0469     0.0000  1044.0000 </r>
       <r>     4.1781     0.0000  1044.0000 </r>
       <r>     4.3093     0.0000  1044.0000 </r>
       <r>     4.4405     0.0000  1044.0000 </r>
       <r>     4.5717     0.0000  1044.0000 </r>
       <r>     4.7029     0.0000  1044.0000 </r>
       <r>     4.8341     0.0019  1044.0003 </r>
       <r>     4.9652     2.8760  1044.3775 </r>
       <r>     5.0964    11.5726  1045.8957 </r>
       <r>     5.2276     0.7947  1046.0000 </r>
       <r>     5.3588     0.0000  1046.0000 </r>
       <r>     5.4900     0.0000  1046.0000 </r>
       <r>     5.6212     0.0000  1046.0000 </r>
       <r>     5.7524     0.0431  1046.0057 </r>
       <r>     5.8836     1.7791  1046.2390 </r>
       <r>     6.0148     0.0835  1046.2500 </r>
       <r>     6.1459     0.0021  1046.2503 </r>
       <r>     6.2771     1.4861  1046.4452 </r>
       <r>     6.4083     5.5935  1047.1790 </r>
       <r>     6.5395     6.0243  1047.9693 </r>
       <r>     6.6707     0.2336  1048.0000 </r>
       <r>     6.8019     0.2130  1048.0279 </r>
       <r>     6.9331     3.5698  1048.4963 </r>
       <r>     7.0643     1.8490  1048.7388 </r>
       <r>     7.1954     0.0851  1048.7500 </r>
       <r>     7.3266     0.7024  1048.8422 </r>
       <r>     7.4578     4.3195  1049.4088 </r>
       <r>     7.5890     3.2836  1049.8396 </r>
       <r>     7.7202     2.4816  1050.1652 </r>
       <r>     7.8514     3.4541  1050.6183 </r>
       <r>     7.9826     1.1191  1050.7651 </r>
       <r>     8.1138     6.0416  1051.5577 </r>
       <r>     8.2450     4.3515  1052.1286 </r>
       <r>     8.3761     5.2472  1052.8169 </r>
       <r>     8.5073     5.3451  1053.5181 </r>
       <r>     8.6385     4.0706  1054.0521 </r>
       <r>     8.7697     7.8320  1055.0796 </r>
       <r>     8.9009     7.7173  1056.0920 </r>
       <r>     9.0321     6.2343  1056.9099 </r>
       <r>     9.1633     5.3940  1057.6175 </r>
       <r>     9.2945     4.5491  1058.2143 </r>
       <r>     9.4256    11.7047  1059.7498 </r>
       <r>     9.5568    16.8239  1061.9569 </r>
       <r>     9.6880    14.7784  1063.8957 </r>
       <r>     9.8192    14.9763  1065.8604 </r>
       <r>     9.9504    10.1285  1067.1892 </r>
       <r>    10.0816    15.8148  1069.2639 </r>
       <r>    10.2128    30.7424  1073.2969 </r>
       <r>    10.3440    32.4382  1077.5524 </r>
       <r>    10.4752    32.3965  1081.8025 </r>
       <r>    10.6063    35.5238  1086.4628 </r>
       <r>    10.7375    26.4200  1089.9288 </r>
       <r>    10.8687    28.2729  1093.6378 </r>
       <r>    10.9999    27.1201  1097.1957 </r>
       <r>    11.1311    32.5407  1101.4646 </r>
       <r>    11.2623    22.5756  1104.4263 </r>
       <r>    11.3935    30.2903  1108.4000 </r>
       <r>    11.5247    40.3021  1113.6872 </r>
       <r>    11.6558    37.6455  1118.6258 </r>
       <r>    11.7870    28.1761  1122.3222 </r>
       <r>    11.9182    32.5692  1126.5949 </r>
       <r>    12.0494    33.8030  1131.0294 </r>
       <r>    12.1806    30.9401  1135.0884 </r>
       <r>    12.3118    35.5474  1139.7518 </r>
       <r>    12.4430    34.4192  1144.2672 </r>
       <r>    12.5742    35.8459  1148.9698 </r>
       <r>    12.7054    31.6272  1153.1189 </r>
       <r>    12.8365    38.0921  1158.1161 </r>
       <r>    12.9677    35.7224  1162.8025 </r>
       <r>    13.0989    32.1948  1167.0260 </r>
       <r>    13.2301    38.2534  1172.0444 </r>
       <r>    13.3613    33.9342  1176.4962 </r>
       <r>    13.4925    27.9348  1180.1609 </r>
       <r>    13.6237    31.6825  1184.3173 </r>
       <r>    13.7549    31.5183  1188.4521 </r>
       <r>    13.8860    19.7401  1191.0418 </r>
       <r>    14.0172     8.0663  1192.1000 </r>
       <r>    14.1484     8.6771  1193.2383 </r>
       <r>    14.2796    21.6261  1196.0754 </r>
       <r>    14.4108    31.7426  1200.2397 </r>
       <r>    14.5420    38.6498  1205.3101 </r>
       <r>    14.6732    59.1675  1213.0721 </r>
       <r>    14.8044    45.2257  1219.0052 </r>
       <r>    14.9356    32.4698  1223.2649 </r>
       <r>    15.0667    31.0984  1227.3446 </r>
       <r>    15.1979    30.1675  1231.3022 </r>
       <r>    15.3291    34.8760  1235.8775 </r>
       <r>    15.4603    28.0092  1239.5520 </r>
       <r>    15.5915    24.4355  1242.7576 </r>
       <r>    15.7227    30.4388  1246.7509 </r>
       <r>    15.8539    20.6932  1249.4656 </r>
       <r>    15.9851    22.0154  1252.3537 </r>
       <r>    16.1162    19.5313  1254.9160 </r>
       <r>    16.2474    22.2045  1257.8290 </r>
       <r>    16.3786    18.5112  1260.2574 </r>
       <r>    16.5098    11.5722  1261.7756 </r>
       <r>    16.6410    11.3489  1263.2644 </r>
       <r>    16.7722    14.0315  1265.1052 </r>
       <r>    16.9034     4.3819  1265.6800 </r>
       <r>    17.0346     2.4216  1265.9977 </r>
       <r>    17.1657     0.0174  1266.0000 </r>
       <r>    17.2969     0.0000  1266.0000 </r>
       <r>    17.4281     0.0000  1266.0000 </r>
       <r>    17.5593     0.0000  1266.0000 </r>
       <r>    17.6905     0.0000  1266.0000 </r>
       <r>    17.8217     0.0000  1266.0000 </r>
       <r>    17.9529     0.0000  1266.0000 </r>
       <r>    18.0841     0.0000  1266.0000 </r>
       <r>    18.2153     0.0000  1266.0000 </r>
       <r>    18.3464     0.0000  1266.0000 </r>
       <r>    18.4776     0.0000  1266.0000 </r>
       <r>    18.6088     0.0000  1266.0000 </r>
       <r>    18.7400     0.0000  1266.0000 </r>
      </set>
     </set>
    </array>
   </total>
  </dos>
 </calculation>
 <structure name="finalpos" >
  <crystal>
   <varray name="basis" >
    <v>       0.00000000      12.28047342       0.00000000 </v>
    <v>       9.14270205       0.00000000       0.00000000 </v>
    <v>       0.00000000      -2.76826177     -11.30069772 </v>
   </varray>
   <i name="volume">   1268.80515525 </i>
   <varray name="rec_basis" >
    <v>       0.00000000       0.08143009      -0.01994742 </v>
    <v>       0.10937686      -0.00000000       0.00000000 </v>
    <v>       0.00000000       0.00000000      -0.08849011 </v>
   </varray>
  </crystal>
  <varray name="positions" >
   <v>       0.66571834       0.00154177       0.15555855 </v>
   <v>       0.66206588       0.99927619       0.66387097 </v>
   <v>       0.66571834       0.33179156       0.15555855 </v>
   <v>       0.66206588       0.33405715       0.66387097 </v>
   <v>       0.65868348       0.66666667       0.14796089 </v>
   <v>       0.65599310       0.66666667       0.66855776 </v>
   <v>       0.84157513       0.16666667       0.84368206 </v>
   <v>       0.83770637       0.49609409       0.33848670 </v>
   <v>       0.84260969       0.49851380       0.84448467 </v>
   <v>       0.83770637       0.83723924       0.33848670 </v>
   <v>       0.84260969       0.83481953       0.84448467 </v>
   <v>       0.61826252       0.16666667       0.39805611 </v>
   <v>       0.58748196       0.16666667       0.89979124 </v>
   <v>       0.62103761       0.49282166       0.40542124 </v>
   <v>       0.58100790       0.49918776       0.89529487 </v>
   <v>       0.62103761       0.84051167       0.40542124 </v>
   <v>       0.58100790       0.83414557       0.89529487 </v>
   <v>       0.91487592       0.00125773       0.10689767 </v>
   <v>       0.88796110       0.03815606       0.57506267 </v>
   <v>       0.91487592       0.33207561       0.10689767 </v>
   <v>       0.88796110       0.29517727       0.57506267 </v>
   <v>       0.91473363       0.66666667       0.10626795 </v>
   <v>       0.90621178       0.66666667       0.59643104 </v>
   <v>       0.16899375       0.16666667       0.16411154 </v>
   <v>       0.16280491       0.16666667       0.63913304 </v>
   <v>       0.16861424       0.49976408       0.16422344 </v>
   <v>       0.14309398       0.49645010       0.65176566 </v>
   <v>       0.16861424       0.83356925       0.16422344 </v>
   <v>       0.14309398       0.83688324       0.65176566 </v>
   <v>       0.35734344       0.99942749       0.34862045 </v>
   <v>       0.33223566       0.99758870       0.84211219 </v>
   <v>       0.35734344       0.33390584       0.34862045 </v>
   <v>       0.33223566       0.33574463       0.84211219 </v>
   <v>       0.36603224       0.66666667       0.34816586 </v>
   <v>       0.33037457       0.66666667       0.83765864 </v>
   <v>       0.08559080       0.00454617       0.39562720 </v>
   <v>       0.09395592       0.00238447       0.89995755 </v>
   <v>       0.08559080       0.32878716       0.39562720 </v>
   <v>       0.09395592       0.33094886       0.89995755 </v>
   <v>       0.09501858       0.66666667       0.39587254 </v>
   <v>       0.09296174       0.66666667       0.90294678 </v>
   <v>       0.41011075       0.16666667       0.09824123 </v>
   <v>       0.41177689       0.16666667       0.60731124 </v>
   <v>       0.41054589       0.49762235       0.09879190 </v>
   <v>       0.40712650       0.49800709       0.60716632 </v>
   <v>       0.41054589       0.83571098       0.09879190 </v>
   <v>       0.40712650       0.83532624       0.60716632 </v>
   <v>       0.00576302       0.16666667       0.12596136 </v>
   <v>       0.02527852       0.16666667       0.66364333 </v>
   <v>       0.00499611       0.50020767       0.12731016 </v>
   <v>       0.98032387       0.48189998       0.60923634 </v>
   <v>       0.00499611       0.83312566       0.12731016 </v>
   <v>       0.98032387       0.85143335       0.60923634 </v>
   <v>       0.52030256       0.00080068       0.37699769 </v>
   <v>       0.49405128       0.00222397       0.87217811 </v>
   <v>       0.52030256       0.33253265       0.37699769 </v>
   <v>       0.49405128       0.33110936       0.87217811 </v>
   <v>       0.52817637       0.66666667       0.38074311 </v>
   <v>       0.49350083       0.66666667       0.87217414 </v>
   <v>       0.66384653       0.16666667       0.26068031 </v>
   <v>       0.67265067       0.16666667       0.78588208 </v>
   <v>       0.66132471       0.50773985       0.25984010 </v>
   <v>       0.67254254       0.50256990       0.78946305 </v>
   <v>       0.66132471       0.82559348       0.25984010 </v>
   <v>       0.67254254       0.83076344       0.78946305 </v>
   <v>       0.82394919       0.97015892       0.20684002 </v>
   <v>       0.82614962       0.99637856       0.72544931 </v>
   <v>       0.82394919       0.36317441       0.20684002 </v>
   <v>       0.82614962       0.33695477       0.72544931 </v>
   <v>       0.82830365       0.66666667       0.21712176 </v>
   <v>       0.82729338       0.66666667       0.72187677 </v>
   <v>       0.77215475       0.95684167       0.43900558 </v>
   <v>       0.83650299       0.99948185       0.94975422 </v>
   <v>       0.77215475       0.37649166       0.43900558 </v>
   <v>       0.83650299       0.33385148       0.94975422 </v>
   <v>       0.81963856       0.66666667       0.43830047 </v>
   <v>       0.83878921       0.66666667       0.94875717 </v>
   <v>       0.67901156       0.16666667       0.04947644 </v>
   <v>       0.65544417       0.16666667       0.56162875 </v>
   <v>       0.66678300       0.50188796       0.04508640 </v>
   <v>       0.65522689       0.50494687       0.56886753 </v>
   <v>       0.66678300       0.83144537       0.04508640 </v>
   <v>       0.65522689       0.82838647       0.56886753 </v>
   <v>       0.50004897       0.00090154       0.11435983 </v>
   <v>       0.49925531       0.99913269       0.63942449 </v>
   <v>       0.50004897       0.33243179       0.11435983 </v>
   <v>       0.49925531       0.33420064       0.63942449 </v>
   <v>       0.49444521       0.66666667       0.11473606 </v>
   <v>       0.49304559       0.66666667       0.63898564 </v>
   <v>       0.00321851       0.16666667       0.88717338 </v>
   <v>       0.00187175       0.50600484       0.37020152 </v>
   <v>       0.00490682       0.49906029       0.87520021 </v>
   <v>       0.00187175       0.82732849       0.37020152 </v>
   <v>       0.00490682       0.83427304       0.87520021 </v>
   <v>       0.18141308       0.99694774       0.28642952 </v>
   <v>       0.17199316       0.98477477       0.78171800 </v>
   <v>       0.18141308       0.33638559       0.28642952 </v>
   <v>       0.17199316       0.34855857       0.78171800 </v>
   <v>       0.18175228       0.66666667       0.28291363 </v>
   <v>       0.16175721       0.66666667       0.77489530 </v>
   <v>       0.33878830       0.16666667       0.22517921 </v>
   <v>       0.32204866       0.16666667       0.72064299 </v>
   <v>       0.33985943       0.49989000       0.22479288 </v>
   <v>       0.32239702       0.50279842       0.72040611 </v>
   <v>       0.33985943       0.83344334       0.22479288 </v>
   <v>       0.32239702       0.83053491       0.72040611 </v>
   <v>       0.34345979       0.16666667       0.44753556 </v>
   <v>       0.32148765       0.16666667       0.94336931 </v>
   <v>       0.34470094       0.50237068       0.44720803 </v>
   <v>       0.32505030       0.50308164       0.94482677 </v>
   <v>       0.34470094       0.83096265       0.44720803 </v>
   <v>       0.32505030       0.83025169       0.94482677 </v>
   <v>       0.17569477       0.99866992       0.05885825 </v>
   <v>       0.18077804       0.99155038       0.55007618 </v>
   <v>       0.17569477       0.33466341       0.05885825 </v>
   <v>       0.18077804       0.34178295       0.55007618 </v>
   <v>       0.17616643       0.66666667       0.05882686 </v>
   <v>       0.16521950       0.66666667       0.55504875 </v>
   <v>       0.95120502       0.16666667       0.37388018 </v>
  </varray>
 </structure>
</modeling>
