       N       E                     dE             d eps       ncg     rms          ort
DAV:   1    -0.216606783157E+05   -0.21661E+05   -0.54431E+05  5064   0.749E+03
DAV:   2    -0.660543381376E+05   -0.44394E+05   -0.43012E+05  5064   0.122E+03
DAV:   3    -0.707643897748E+05   -0.47101E+04   -0.42312E+04  5064   0.360E+02
DAV:   4    -0.713670898726E+05   -0.60270E+03   -0.51989E+03  5064   0.108E+02
DAV:   5    -0.382584846333E+05    0.33109E+05   -0.77217E+02  5064   0.581E+01
SDA:   6     0.225998709234E+05    0.60858E+05   -0.77217E+02  5064   0.995E+05 0.000E+00
CGA:   7     0.547700178583E+04   -0.17123E+05   -0.15471E+05  5064   0.288E+05 0.166E+04
CGA:   8     0.153129277105E+04   -0.39457E+04   -0.33947E+04  5064   0.856E+04-0.229E+04
CGA:   9     0.638264422975E+03   -0.89303E+03   -0.99872E+03  5064   0.554E+04 0.140E+04
CGA:  10     0.253261134460E+03   -0.38500E+03   -0.57219E+03  5064   0.603E+04 0.786E+03
CGA:  11    -0.116219135588E+03   -0.36948E+03   -0.66679E+03  5064   0.444E+04 0.517E+03
CGA:  12    -0.420941976801E+03   -0.30472E+03   -0.49293E+03  5064   0.140E+04 0.887E+02
CGA:  13    -0.692909242873E+03   -0.27197E+03   -0.26942E+03  5064   0.467E+03 0.111E+03
CGA:  14    -0.838063948520E+03   -0.14515E+03   -0.14379E+03  5064   0.241E+03 0.935E+01
CGA:  15    -0.908106612084E+03   -0.70043E+02   -0.70670E+02  5064   0.123E+03-0.104E+02
CGA:  16    -0.944872534036E+03   -0.36766E+02   -0.37461E+02  5064   0.676E+02-0.528E+01
CGA:  17    -0.962254338724E+03   -0.17382E+02   -0.17601E+02  5064   0.321E+02-0.215E+01
CGA:  18    -0.971633297151E+03   -0.93790E+01   -0.94750E+01  5064   0.175E+02-0.104E+01
CGA:  19    -0.976342723487E+03   -0.47094E+01   -0.47383E+01  5064   0.793E+01-0.333E+00
CGA:  20    -0.978625046132E+03   -0.22823E+01   -0.22877E+01  5064   0.420E+01-0.442E-01
CGA:  21    -0.979862921172E+03   -0.12379E+01   -0.12374E+01  5064   0.196E+01 0.934E-02
CGA:  22    -0.980440329407E+03   -0.57741E+00   -0.57709E+00  5064   0.100E+01 0.505E-02
CGA:  23    -0.980730465355E+03   -0.29014E+00   -0.29006E+00  5064   0.503E+00 0.152E-02
CGA:  24    -0.980867591716E+03   -0.13713E+00   -0.13706E+00  5064   0.255E+00 0.142E-02
CGA:  25    -0.980936101703E+03   -0.68510E-01   -0.68500E-01  5064   0.121E+00 0.222E-03
CGA:  26    -0.980970039187E+03   -0.33937E-01   -0.33955E-01  5064   0.608E-01-0.292E-03
CGA:  27    -0.980988109779E+03   -0.18071E-01   -0.18086E-01  5064   0.306E-01-0.201E-03
CGA:  28    -0.980997035471E+03   -0.89257E-02   -0.89280E-02  5064   0.150E-01-0.332E-04
CGA:  29    -0.981001551622E+03   -0.45162E-02   -0.45157E-02  5064   0.751E-02 0.102E-04
CGA:  30    -0.981003807790E+03   -0.22562E-02   -0.22565E-02  5064   0.370E-02-0.522E-05
CGA:  31    -0.981004941810E+03   -0.11340E-02   -0.11345E-02  5064   0.189E-02-0.787E-05
CGA:  32    -0.981005534268E+03   -0.59246E-03   -0.59169E-03  5064   0.980E-03 0.112E-04
CGA:  33    -0.981005840678E+03   -0.30641E-03   -0.30515E-03  5064   0.510E-03 0.210E-04
CGA:  34    -0.981006000871E+03   -0.16019E-03   -0.15942E-03  5064   0.270E-03 0.144E-04
CGA:  35    -0.981006085017E+03   -0.84146E-04   -0.84029E-04  5064   0.138E-03 0.253E-05
CGA:  36    -0.981006127008E+03   -0.41990E-04   -0.42150E-04  5064   0.709E-04-0.354E-05
SDA:  37    -0.981006148257E+03   -0.21249E-04   -0.21392E-04  5064   0.359E-04-0.287E-05
CGA:  38    -0.981006163709E+03   -0.15452E-04   -0.15269E-04  5064   0.123E-04 0.113E-05
CGA:  39    -0.981006168728E+03   -0.50196E-05   -0.51761E-05  5064   0.760E-05-0.115E-05
   1 F= -.98100617E+03 E0= -.98099858E+03  d E =-.151810E-01
