       N       E                     dE             d eps       ncg     rms          ort
DAV:   1    -0.215589026695E+05   -0.21559E+05   -0.54468E+05  5064   0.749E+03
DAV:   2    -0.660339640335E+05   -0.44475E+05   -0.43073E+05  5064   0.123E+03
DAV:   3    -0.709073299290E+05   -0.48734E+04   -0.43566E+04  5064   0.366E+02
DAV:   4    -0.715519624247E+05   -0.64463E+03   -0.57034E+03  5064   0.112E+02
DAV:   5    -0.385026171165E+05    0.33049E+05   -0.94524E+02  5064   0.602E+01
SDA:   6     0.274346892420E+05    0.65937E+05   -0.94524E+02  5064   0.928E+05 0.000E+00
CGA:   7     0.900382171717E+04   -0.18431E+05   -0.18155E+05  5064   0.792E+05-0.320E+05
CGA:   8     0.474796986929E+04   -0.42559E+04   -0.54590E+04  5064   0.285E+05 0.378E+04
CGA:   9     0.294619874090E+04   -0.18018E+04   -0.25085E+04  5064   0.139E+05-0.587E+03
CGA:  10     0.167730589275E+04   -0.12689E+04   -0.15967E+04  5064   0.960E+04 0.795E+03
CGA:  11     0.684496969221E+03   -0.99281E+03   -0.12471E+04  5064   0.431E+04 0.790E+03
CGA:  12    -0.569364674205E+02   -0.74143E+03   -0.76606E+03  5064   0.194E+04 0.588E+03
CGA:  13    -0.503541199000E+03   -0.44660E+03   -0.43931E+03  5064   0.801E+03 0.218E+03
CGA:  14    -0.774825362497E+03   -0.27128E+03   -0.27057E+03  5064   0.382E+03 0.108E+01
CGA:  15    -0.885973443664E+03   -0.11115E+03   -0.11617E+03  5064   0.196E+03-0.337E+02
CGA:  16    -0.933424411494E+03   -0.47451E+02   -0.47919E+02  5064   0.821E+02-0.551E+01
CGA:  17    -0.953547780843E+03   -0.20123E+02   -0.20122E+02  5064   0.385E+02-0.256E+00
CGA:  18    -0.964560017152E+03   -0.11012E+02   -0.10985E+02  5064   0.182E+02 0.201E+00
CGA:  19    -0.969744707667E+03   -0.51847E+01   -0.51803E+01  5064   0.966E+01 0.449E-01
CGA:  20    -0.972744190885E+03   -0.29995E+01   -0.29997E+01  5064   0.468E+01-0.435E-03
CGA:  21    -0.974101506766E+03   -0.13573E+01   -0.13568E+01  5064   0.212E+01 0.969E-02
CGA:  22    -0.974794164486E+03   -0.69266E+00   -0.69143E+00  5064   0.103E+01 0.111E-01
CGA:  23    -0.975086240265E+03   -0.29208E+00   -0.29179E+00  5064   0.507E+00 0.405E-02
CGA:  24    -0.975234735549E+03   -0.14850E+00   -0.14849E+00  5064   0.247E+00-0.153E-03
CGA:  25    -0.975300183261E+03   -0.65448E-01   -0.65479E-01  5064   0.110E+00-0.794E-03
CGA:  26    -0.975336606098E+03   -0.36423E-01   -0.36476E-01  5064   0.602E-01-0.447E-03
CGA:  27    -0.975355288408E+03   -0.18682E-01   -0.18690E-01  5064   0.285E-01-0.731E-04
CGA:  28    -0.975364343258E+03   -0.90549E-02   -0.90572E-02  5064   0.156E-01-0.236E-04
CGA:  29    -0.975368779157E+03   -0.44359E-02   -0.44367E-02  5064   0.693E-02-0.158E-04
CGA:  30    -0.975370801648E+03   -0.20225E-02   -0.20212E-02  5064   0.345E-02 0.276E-04
CGA:  31    -0.975371881766E+03   -0.10801E-02   -0.10776E-02  5064   0.167E-02 0.403E-04
CGA:  32    -0.975372431886E+03   -0.55012E-03   -0.54857E-03  5064   0.899E-03 0.213E-04
CGA:  33    -0.975372733581E+03   -0.30170E-03   -0.30153E-03  5064   0.476E-03 0.235E-05
CGA:  34    -0.975372882288E+03   -0.14871E-03   -0.14888E-03  5064   0.243E-03-0.319E-05
CGA:  35    -0.975372953516E+03   -0.71227E-04   -0.71286E-04  5064   0.117E-03-0.173E-05
CGA:  36    -0.975372988678E+03   -0.35162E-04   -0.35232E-04  5064   0.588E-04-0.168E-05
SDA:  37    -0.975373008072E+03   -0.19394E-04   -0.19560E-04  5064   0.330E-04-0.230E-05
CGA:  38    -0.975373022073E+03   -0.14001E-04   -0.14092E-04  5064   0.147E-04-0.574E-06
CGA:  39    -0.975373027482E+03   -0.54092E-05   -0.54523E-05  5064   0.579E-05-0.426E-06
   1 F= -.97537303E+03 E0= -.97537303E+03  d E =-.539787E-12
