 vasp.6.4.2 20Jul23 (build Nov 12 2023 22:16:35) complex                         
 executed on              LinuxNV date 2025.03.11  17:04:17
 running    4 mpi-ranks, on    1 nodes
 distrk:  each k-point on    1 cores,    4 groups
 distr:  one band on NCORE=   1 cores,    1 groups
 OpenACC runtime initialized ...    4 GPUs detected


--------------------------------------------------------------------------------------------------------


 INCAR:
   PREC = Normal
   ENCUT = 450
   NELM = 500
   IBRION = -1
   ISPIN = 1
   NSW = 0
   ISIF = 2
   EDIFF = 1E-5
   EDIFFG = -5E-3
   ISTART = 0
   ICHARG = 0
   ISMEAR = 0
   SIGMA = 0.05
   LWAVE = .T.
   LCHARG = .T.
   LREAL = Auto
   LPLANE = .TRUE.
   NPAR = 1
   KPAR = 4
   NCORE = 1
   ALGO = All
   LHFCALC = .TRUE.
   HSE06 = .TRUE.
   HFSCREEN = 0.18
   TIME = 0.4
   AEXX = 0.35
   LMAXFOCK = 4
   PRECFOCK = Fast
   NELECT = 1056

 POTCAR:    PAW_PBE Ga_d 06Jul2010                
 POTCAR:     PAW_PBE O 08Apr2002                  
 POTCAR:    PAW_PBE P 06Sep2000                   
 POTCAR:    PAW_PBE Ga_d 06Jul2010                
   SHA256 =  a60ddf36e14f00ea098d9e3914b3745f1b7105e68786148f49ae384e44b4226c Ga_d/POTCAR           
   COPYR  = (c) Copyright 06Jul2010 Georg Kresse                                                    
   COPYR  = This file is part of the software VASP. Any use, copying, and all other rights are regul
   COPYR  = If you do not have a valid VASP license, you may not use, copy or distribute this file. 
   VRHFIN =Ga: s2p1                                                                                 
   LEXCH  = PE                                                                                      
   EATOM  =  2148.8298 eV,  157.9345 Ry                                                             
                                                                                                    
   TITEL  = PAW_PBE Ga_d 06Jul2010                                                                  
   LULTRA =        F    use ultrasoft PP ?                                                          
   IUNSCR =        1    unscreen: 0-lin 1-nonlin 2-no                                               
   RPACOR =    1.700    partial core radius                                                         
   POMASS =   69.723; ZVAL   =   13.000    mass and valenz                                          
   RCORE  =    2.300    outmost cutoff radius                                                       
   RWIGS  =    2.300; RWIGS  =    1.217    wigner-seitz radius (au A)                               
   ENMAX  =  282.691; ENMIN  =  212.018 eV                                                          
   ICORE  =        3    local potential                                                             
   LCOR   =        T    correct aug charges                                                         
   LPAW   =        T    paw PP                                                                      
   EAUG   =  490.690                                                                                
   DEXC   =    0.000                                                                                
   RMAX   =    2.341    core radius for proj-oper                                                   
   RAUG   =    1.300    factor for augmentation sphere                                              
   RDEP   =    2.413    radius for radial grids                                                     
   RDEPT  =    1.856    core radius for aug-charge                                                  
                                                                                                    
   Atomic configuration                                                                             
    9 entries                                                                                       
     n  l   j            E        occ.                                                              
     1  0  0.50    -10228.7831   2.0000                                                             
     2  0  0.50     -1262.1604   2.0000                                                             
     2  1  1.50     -1098.6333   6.0000                                                             
     3  0  0.50      -148.1110   2.0000                                                             
     3  1  1.50       -98.8436   6.0000                                                             
     3  2  2.50       -19.1549  10.0000                                                             
     4  0  0.50        -8.9483   2.0000                                                             
     4  1  0.50        -2.5791   1.0000                                                             
     4  3  2.50        -2.7416   0.0000                                                             
   Description                                                                                      
     l       E           TYP  RCUT    TYP  RCUT                                                     
     2    -19.1549037     23  2.300                                                                 
     2     -5.4423304     23  2.300                                                                 
     0     -8.9483111     23  2.300                                                                 
     0     68.0291300     23  2.300                                                                 
     1     -2.5790802     23  2.100                                                                 
     1     81.6349560     23  2.300                                                                 
     3      6.8029130     23  2.300                                                                 
  local pseudopotential read in
  partial core-charges read in
  partial kinetic energy density read in
  atomic valenz-charges read in
  non local Contribution for L=            2  read in
    real space projection operators read in
  non local Contribution for L=            2  read in
    real space projection operators read in
  non local Contribution for L=            0  read in
    real space projection operators read in
  non local Contribution for L=            0  read in
    real space projection operators read in
  non local Contribution for L=            1  read in
    real space projection operators read in
  non local Contribution for L=            1  read in
    real space projection operators read in
    PAW grid and wavefunctions read in
 
   number of l-projection  operators is LMAX  =            6
   number of lm-projection operators is LMMAX =           18
 
 POTCAR:     PAW_PBE O 08Apr2002                  
   SHA256 =  818f92134a0a090dccd8ba1447fa70422a3b330e708bb4f08108d8ae51209ddf O/POTCAR              
   COPYR  = (c) Copyright 08Apr2002 Georg Kresse                                                    
   COPYR  = This file is part of the software VASP. Any use, copying, and all other rights are regul
   COPYR  = If you do not have a valid VASP license, you may not use, copy or distribute this file. 
   VRHFIN =O: s2p4                                                                                  
   LEXCH  = PE                                                                                      
   EATOM  =   432.3788 eV,   31.7789 Ry                                                             
                                                                                                    
   TITEL  = PAW_PBE O 08Apr2002                                                                     
   LULTRA =        F    use ultrasoft PP ?                                                          
   IUNSCR =        1    unscreen: 0-lin 1-nonlin 2-no                                               
   RPACOR =    1.200    partial core radius                                                         
   POMASS =   16.000; ZVAL   =    6.000    mass and valenz                                          
   RCORE  =    1.520    outmost cutoff radius                                                       
   RWIGS  =    1.550; RWIGS  =    0.820    wigner-seitz radius (au A)                               
   ENMAX  =  400.000; ENMIN  =  300.000 eV                                                          
   ICORE  =        2    local potential                                                             
   LCOR   =        T    correct aug charges                                                         
   LPAW   =        T    paw PP                                                                      
   EAUG   =  605.392                                                                                
   DEXC   =    0.000                                                                                
   RMAX   =    1.553    core radius for proj-oper                                                   
   RAUG   =    1.300    factor for augmentation sphere                                              
   RDEP   =    1.550    radius for radial grids                                                     
   RDEPT  =    1.329    core radius for aug-charge                                                  
                                                                                                    
   Atomic configuration                                                                             
    4 entries                                                                                       
     n  l   j            E        occ.                                                              
     1  0  0.50      -514.6923   2.0000                                                             
     2  0  0.50       -23.9615   2.0000                                                             
     2  1  0.50        -9.0305   4.0000                                                             
     3  2  1.50        -9.5241   0.0000                                                             
   Description                                                                                      
     l       E           TYP  RCUT    TYP  RCUT                                                     
     0    -23.9615318     23  1.200                                                                 
     0     -9.5240782     23  1.200                                                                 
     1     -9.0304911     23  1.520                                                                 
     1      8.1634956     23  1.520                                                                 
     2     -9.5240782      7  1.500                                                                 
  local pseudopotential read in
  partial core-charges read in
  partial kinetic energy density read in
  kinetic energy density of atom read in
  atomic valenz-charges read in
  non local Contribution for L=            0  read in
    real space projection operators read in
  non local Contribution for L=            0  read in
    real space projection operators read in
  non local Contribution for L=            1  read in
    real space projection operators read in
  non local Contribution for L=            1  read in
    real space projection operators read in
    PAW grid and wavefunctions read in
 
   number of l-projection  operators is LMAX  =            4
   number of lm-projection operators is LMMAX =            8
 
 POTCAR:    PAW_PBE P 06Sep2000                   
   SHA256 =  df60c54a93efe35c9e85ae94c010c75e9f6960a95d5595d7cdba4096d109af88 P/POTCAR              
   COPYR  = (c) Copyright 06Sep2000 Georg Kresse                                                    
   COPYR  = This file is part of the software VASP. Any use, copying, and all other rights are regul
   COPYR  = If you do not have a valid VASP license, you may not use, copy or distribute this file. 
   VRHFIN =P : s2p3                                                                                 
   LEXCH  = PE                                                                                      
   EATOM  =   176.0430 eV,   12.9388 Ry                                                             
                                                                                                    
   TITEL  = PAW_PBE P 06Sep2000                                                                     
   LULTRA =        F    use ultrasoft PP ?                                                          
   IUNSCR =        1    unscreen: 0-lin 1-nonlin 2-no                                               
   RPACOR =    1.500    partial core radius                                                         
   POMASS =   30.974; ZVAL   =    5.000    mass and valenz                                          
   RCORE  =    1.900    outmost cutoff radius                                                       
   RWIGS  =    2.330; RWIGS  =    1.233    wigner-seitz radius (au A)                               
   ENMAX  =  255.040; ENMIN  =  191.280 eV                                                          
   ICORE  =        2    local potential                                                             
   LCOR   =        T    correct aug charges                                                         
   LPAW   =        T    paw PP                                                                      
   EAUG   =  342.924                                                                                
   DEXC   =    0.000                                                                                
   RMAX   =    1.935    core radius for proj-oper                                                   
   RAUG   =    1.300    factor for augmentation sphere                                              
   RDEP   =    1.931    radius for radial grids                                                     
   RDEPT  =    1.794    core radius for aug-charge                                                  
                                                                                                    
   Atomic configuration                                                                             
    6 entries                                                                                       
     n  l   j            E        occ.                                                              
     1  0  0.50     -2084.0982   2.0000                                                             
     2  0  0.50      -173.9859   2.0000                                                             
     2  1  1.50      -124.4865   6.0000                                                             
     3  0  0.50       -13.9692   2.0000                                                             
     3  1  0.50        -5.5067   3.0000                                                             
     3  2  1.50        -5.4423   0.0000                                                             
   Description                                                                                      
     l       E           TYP  RCUT    TYP  RCUT                                                     
     0    -13.9691527     23  1.900                                                                 
     0    -11.7794650     23  1.900                                                                 
     1     -5.5066937     23  1.900                                                                 
     1     -0.2556953     23  1.900                                                                 
     2     -5.4423304     23  1.900                                                                 
  local pseudopotential read in
  partial core-charges read in
  partial kinetic energy density read in
  atomic valenz-charges read in
  non local Contribution for L=            0  read in
    real space projection operators read in
  non local Contribution for L=            0  read in
    real space projection operators read in
  non local Contribution for L=            1  read in
    real space projection operators read in
  non local Contribution for L=            1  read in
    real space projection operators read in
    PAW grid and wavefunctions read in
 
   number of l-projection  operators is LMAX  =            4
   number of lm-projection operators is LMMAX =            8
 
 Optimization of the real space projectors (new method)

 maximal supplied QI-value         = 16.25
 optimisation between [QCUT,QGAM] = [ 10.73, 21.61] = [ 32.22,130.83] Ry 
 Optimized for a Real-space Cutoff    1.42 Angstroem

   l    n(q)    QCUT    max X(q) W(low)/X(q) W(high)/X(q)  e(spline) 
   2      8    10.726     7.143    0.22E-03    0.16E-03    0.73E-07
   2      8    10.726     5.586    0.40E-03    0.26E-03    0.10E-06
   0      9    10.726    12.382    0.25E-04    0.21E-05    0.37E-07
   0      9    10.726     6.622    0.42E-04    0.48E-05    0.77E-07
   1      9    10.726     7.935    0.27E-03    0.13E-04    0.16E-06
   1      9    10.726     2.425    0.23E-03    0.15E-04    0.14E-06
 Optimization of the real space projectors (new method)

 maximal supplied QI-value         = 24.76
 optimisation between [QCUT,QGAM] = [ 10.64, 21.54] = [ 31.73,129.89] Ry 
 Optimized for a Real-space Cutoff    1.23 Angstroem

   l    n(q)    QCUT    max X(q) W(low)/X(q) W(high)/X(q)  e(spline) 
   0      8    10.645    20.381    0.38E-03    0.60E-03    0.15E-06
   0      8    10.645    15.268    0.40E-03    0.65E-03    0.17E-06
   1      7    10.645     5.964    0.30E-03    0.63E-03    0.18E-06
   1      7    10.645     5.382    0.24E-03    0.53E-03    0.16E-06
 Optimization of the real space projectors (new method)

 maximal supplied QI-value         = 19.84
 optimisation between [QCUT,QGAM] = [ 10.71, 21.63] = [ 32.15,130.99] Ry 
 Optimized for a Real-space Cutoff    1.19 Angstroem

   l    n(q)    QCUT    max X(q) W(low)/X(q) W(high)/X(q)  e(spline) 
   0      8    10.715   160.924    0.37E-03    0.37E-04    0.63E-07
   0      8    10.715   130.086    0.37E-03    0.36E-04    0.63E-07
   1      7    10.715    74.434    0.19E-03    0.56E-03    0.65E-07
   1      7    10.715    49.120    0.19E-03    0.55E-03    0.63E-07
  PAW_PBE Ga_d 06Jul2010                :
 energy of atom  1       EATOM=-2148.8298
 kinetic energy error for atom=    0.0038 (will be added to EATOM!!)
   PAW_PBE O 08Apr2002                  :
 energy of atom  2       EATOM= -432.3788
 kinetic energy error for atom=    0.0389 (will be added to EATOM!!)
  PAW_PBE P 06Sep2000                   :
 energy of atom  3       EATOM= -176.0430
 kinetic energy error for atom=    0.0019 (will be added to EATOM!!)
 
 
 POSCAR: Ga48 O72
  positions in direct lattice
  velocities in cartesian coordinates
 exchange correlation table for  LEXCH =        8
   RHO(1)=    0.500       N(1)  =     2000
   RHO(2)=  100.500       N(2)  =     4000
 


--------------------------------------------------------------------------------------------------------


 ion  position               nearest neighbor table
   1  0.659  0.996  0.154-  67 1.92  85 1.94  83 1.94  79 1.95  65 2.09  61 2.15
   2  0.660  1.000  0.658-  84 1.94  86 1.95  80 1.96  68 2.02  62 2.07  66 2.08
   3  0.659  0.337  0.154-  69 1.92  87 1.94  81 1.94  79 1.95  63 2.09  61 2.15
   4  0.660  0.333  0.658-  82 1.94  88 1.95  80 1.96  70 2.02  62 2.07  64 2.08
   5  0.658  0.667  0.156-  81 1.94  83 1.94  89 1.94  71 2.03  63 2.06  65 2.06
   6  0.659  0.667  0.659-  82 1.94  84 1.94  90 1.95  72 2.03  64 2.07  66 2.07
   7  0.822  0.167  0.372-  61 1.90  73 1.91  75 1.91 120 2.18
   8  0.843  0.167  0.849-  74 1.94  76 1.94  91 1.96  62 2.04  68 2.10  70 2.10
   9  0.841  0.501  0.341-  92 1.95  77 1.97  69 1.98  75 1.99  71 2.05  63 2.06
  10  0.841  0.499  0.847-  76 1.94  78 1.95  93 1.95  64 2.03  70 2.08  72 2.10
  11  0.841  0.832  0.341-  94 1.95  77 1.97  67 1.98  73 1.99  71 2.05  65 2.06
  12  0.841  0.834  0.847-  74 1.94  78 1.95  95 1.95  66 2.03  68 2.08  72 2.10
  13  0.585  0.167  0.399-  55 1.83  57 1.83  80 1.85  61 1.89
  14  0.592  0.167  0.899-  79 1.84  56 1.85  58 1.85  62 1.87
  15  0.593  0.501  0.399-  82 1.84  59 1.85  57 1.85  63 1.85
  16  0.588  0.501  0.895-  81 1.82  60 1.84  58 1.84  64 1.87
  17  0.593  0.832  0.399-  84 1.84  59 1.85  55 1.85  65 1.85
  18  0.588  0.833  0.895-  83 1.82  60 1.84  56 1.84  66 1.87
  19  0.914  0.004  0.108-  53 1.86  67 1.86  74 1.88  49 1.89 120 2.80
  20  0.909  0.997  0.606-  54 1.84  73 1.85  50 1.86  68 1.86
  21  0.914  0.330  0.108-  51 1.86  69 1.86  76 1.88  49 1.89 120 2.80
  22  0.909  0.336  0.606-  52 1.84  75 1.85  50 1.86  70 1.86
  23  0.912  0.667  0.106-  78 1.85  51 1.85  53 1.85  71 1.87
  24  0.907  0.667  0.601-  77 1.84  52 1.85  54 1.85  72 1.88
  25  0.163  0.167  0.155-  49 1.95 114 1.97 116 1.97 102 2.01  96 2.11  98 2.11
  26  0.159  0.167  0.655- 115 1.96 117 1.96  50 1.97 103 2.02  97 2.08  99 2.08
  27  0.162  0.500  0.157-  51 1.94 118 1.95 116 1.97 104 2.02  98 2.03 100 2.08
  28  0.160  0.500  0.658- 117 1.94  52 1.95 119 1.95 105 2.02  99 2.07 101 2.08
  29  0.162  0.833  0.157-  53 1.94 118 1.95 114 1.97 106 2.02  96 2.03 100 2.08
  30  0.160  0.833  0.658- 115 1.94  54 1.95 119 1.95 107 2.02  97 2.07 101 2.08
  31  0.342  0.999  0.343-  55 1.93 112 1.96 108 1.96  96 1.97 106 2.08 102 2.09
  32  0.340  0.000  0.843-  56 1.94 109 1.95 113 1.95  97 2.02 107 2.06 103 2.07
  33  0.342  0.335  0.343-  57 1.93 110 1.96 108 1.96  98 1.97 104 2.08 102 2.09
  34  0.340  0.333  0.843-  58 1.94 109 1.95 111 1.95  99 2.02 105 2.06 103 2.07
  35  0.343  0.667  0.344-  59 1.93 110 1.96 112 1.96 100 2.02 104 2.06 106 2.06
  36  0.340  0.667  0.844-  60 1.92 111 1.95 113 1.95 101 2.01 105 2.08 107 2.08
  37  0.095  0.995  0.399- 115 1.85  94 1.87  96 1.92 120 2.18
  38  0.091  0.001  0.899- 114 1.84  95 1.85  91 1.85  97 1.88
  39  0.095  0.339  0.399- 117 1.85  92 1.87  98 1.92 120 2.18
  40  0.091  0.332  0.899- 116 1.84  93 1.85  91 1.85  99 1.88
  41  0.095  0.667  0.400-  92 1.82  94 1.82 119 1.85 100 1.87
  42  0.091  0.667  0.899- 118 1.84  93 1.85  95 1.85 101 1.87
  43  0.410  0.167  0.101- 109 1.84  85 1.84  87 1.84 102 1.87
  44  0.409  0.167  0.603- 108 1.84  86 1.85  88 1.85 103 1.87
  45  0.410  0.500  0.102-  89 1.84 111 1.84  87 1.85 104 1.86
  46  0.409  0.500  0.603- 110 1.84  90 1.84  88 1.85 105 1.87
  47  0.410  0.834  0.102-  89 1.84 113 1.84  85 1.85 106 1.86
  48  0.409  0.833  0.603- 112 1.84  90 1.84  86 1.85 107 1.87
  49  0.002  0.167  0.087-  19 1.89  21 1.89  25 1.95
  50  0.994  0.167  0.614-  20 1.86  22 1.86  26 1.97
  51  0.000  0.500  0.128-  23 1.85  21 1.86  27 1.94
  52  0.997  0.501  0.629-  22 1.84  24 1.85  28 1.95
  53  0.000  0.834  0.128-  23 1.85  19 1.86  29 1.94
  54  0.997  0.832  0.629-  20 1.84  24 1.85  30 1.95
  55  0.503  0.997  0.374-  13 1.83  17 1.85  31 1.93
  56  0.503  0.001  0.872-  18 1.84  14 1.85  32 1.94
  57  0.503  0.336  0.374-  13 1.83  15 1.85  33 1.93
  58  0.503  0.332  0.872-  16 1.84  14 1.85  34 1.94
  59  0.504  0.667  0.376-  15 1.85  17 1.85  35 1.93
  60  0.501  0.667  0.868-  16 1.84  18 1.84  36 1.92
  61  0.670  0.167  0.284-  13 1.89   7 1.90   1 2.15   3 2.15
  62  0.674  0.167  0.782-  14 1.87   8 2.04   2 2.07   4 2.07
  63  0.670  0.503  0.280-  15 1.85   9 2.06   5 2.06   3 2.09
  64  0.673  0.500  0.782-  16 1.87  10 2.03   6 2.07   4 2.08
  65  0.670  0.830  0.280-  17 1.85  11 2.06   5 2.06   1 2.09
  66  0.673  0.833  0.782-  18 1.87  12 2.03   6 2.07   2 2.08
  67  0.819  0.976  0.210-  19 1.86   1 1.92  11 1.98
  68  0.827  1.000  0.722-  20 1.86   2 2.02  12 2.08   8 2.10
  69  0.819  0.357  0.210-  21 1.86   3 1.92   9 1.98
  70  0.827  0.333  0.722-  22 1.86   4 2.02  10 2.08   8 2.10
  71  0.827  0.667  0.219-  23 1.87   5 2.03   9 2.05  11 2.05
  72  0.828  0.667  0.721-  24 1.88   6 2.03  10 2.10  12 2.10
  73  0.819  0.986  0.454-  20 1.85   7 1.91  11 1.99
  74  0.833  0.999  0.949-  19 1.88  12 1.94   8 1.94
  75  0.819  0.347  0.454-  22 1.85   7 1.91   9 1.99
  76  0.833  0.334  0.949-  21 1.88  10 1.94   8 1.94
  77  0.829  0.667  0.445-  24 1.84   9 1.97  11 1.97
  78  0.835  0.667  0.948-  23 1.85  10 1.95  12 1.95
  79  0.667  0.167  0.055-  14 1.84   1 1.95   3 1.95
  80  0.666  0.167  0.555-  13 1.85   2 1.96   4 1.96
  81  0.661  0.504  0.051-  16 1.82   5 1.94   3 1.94
  82  0.666  0.501  0.557-  15 1.84   6 1.94   4 1.94
  83  0.661  0.830  0.051-  18 1.82   5 1.94   1 1.94
  84  0.666  0.832  0.557-  17 1.84   6 1.94   2 1.94
  85  0.497  0.001  0.128-  43 1.84  47 1.85   1 1.94
  86  0.497  0.000  0.629-  44 1.85  48 1.85   2 1.95
  87  0.497  0.333  0.128-  43 1.84  45 1.85   3 1.94
  88  0.497  0.333  0.629-  44 1.85  46 1.85   4 1.95
  89  0.495  0.667  0.127-  45 1.84  47 1.84   5 1.94
  90  0.496  0.667  0.629-  46 1.84  48 1.84   6 1.95
  91  0.004  0.167  0.857-  38 1.85  40 1.85   8 1.96
  92  0.005  0.506  0.379-  41 1.82  39 1.87   9 1.95
  93  0.004  0.499  0.874-  42 1.85  40 1.85  10 1.95
  94  0.005  0.828  0.379-  41 1.82  37 1.87  11 1.95
  95  0.004  0.834  0.874-  42 1.85  38 1.85  12 1.95
  96  0.179  0.996  0.279-  37 1.92  31 1.97  29 2.03  25 2.11
  97  0.172  0.000  0.780-  38 1.88  32 2.02  30 2.07  26 2.08
  98  0.179  0.337  0.279-  39 1.92  33 1.97  27 2.03  25 2.11
  99  0.172  0.333  0.780-  40 1.88  34 2.02  28 2.07  26 2.08
 100  0.175  0.667  0.282-  41 1.87  35 2.02  27 2.08  29 2.08
 101  0.173  0.667  0.782-  42 1.87  36 2.01  28 2.08  30 2.08
 102  0.331  0.167  0.220-  43 1.87  25 2.01  31 2.09  33 2.09
 103  0.327  0.167  0.720-  44 1.87  26 2.02  32 2.07  34 2.07
 104  0.331  0.502  0.220-  45 1.86  27 2.02  35 2.06  33 2.08
 105  0.328  0.500  0.721-  46 1.87  28 2.02  34 2.06  36 2.08
 106  0.331  0.831  0.220-  47 1.86  29 2.02  35 2.06  31 2.08
 107  0.328  0.834  0.721-  48 1.87  30 2.02  32 2.06  36 2.08
 108  0.335  0.167  0.446-  44 1.84  31 1.96  33 1.96
 109  0.332  0.167  0.945-  43 1.84  32 1.95  34 1.95
 110  0.332  0.500  0.447-  46 1.84  33 1.96  35 1.96
 111  0.333  0.499  0.946-  45 1.84  36 1.95  34 1.95
 112  0.332  0.833  0.447-  48 1.84  31 1.96  35 1.96
 113  0.333  0.834  0.946-  47 1.84  36 1.95  32 1.95
 114  0.175  0.998  0.053-  38 1.84  29 1.97  25 1.97
 115  0.172  0.998  0.556-  37 1.85  30 1.94  26 1.96
 116  0.175  0.335  0.053-  40 1.84  27 1.97  25 1.97
 117  0.172  0.336  0.556-  39 1.85  28 1.94  26 1.96
 118  0.170  0.667  0.054-  42 1.84  27 1.95  29 1.95
 119  0.172  0.667  0.557-  41 1.85  28 1.95  30 1.95
 120  0.980  0.167  0.317-  37 2.18  39 2.18   7 2.18  19 2.80  21 2.80
 
  LATTYP: Found a simple monoclinic cell.
 ALAT       =    11.6348202465
 B/A-ratio  =     0.7858051831
 C/A-ratio  =     1.0554931797
 COS(beta)  =    -0.2379290539
  
  Lattice vectors:
  
 A1 = (   0.0000000000,  -2.7682617730, -11.3006977184)
 A2 = (  -9.1427020537,   0.0000000000,   0.0000000000)
 A3 = (   0.0000000000,  12.2804734172,   0.0000000000)


Analysis of symmetry for initial positions (statically):
=====================================================================
 Subroutine PRICEL returns:
 Original cell was already a primitive cell.
 

 Routine SETGRP: Setting up the symmetry group for a 
 simple monoclinic supercell.


 Subroutine GETGRP returns: Found  2 space group operations
 (whereof  1 operations were pure point group operations)
 out of a pool of  4 trial point group operations.


The static configuration has the point symmetry C_1 .
 The point group associated with its full space group is C_1h.


Analysis of symmetry for dynamics (positions and initial velocities):
=====================================================================
 Subroutine PRICEL returns:
 Original cell was already a primitive cell.
 

 Routine SETGRP: Setting up the symmetry group for a 
 simple monoclinic supercell.


 Subroutine GETGRP returns: Found  2 space group operations
 (whereof  1 operations were pure point group operations)
 out of a pool of  4 trial point group operations.


The dynamic configuration has the point symmetry C_1 .
 The point group associated with its full space group is C_1h.


 Subroutine INISYM returns: Found  2 space group operations
 (whereof  1 operations are pure point group operations),
 and found     1 'primitive' translations


----------------------------------------------------------------------------------------

                                     Primitive cell                                     

  volume of cell :    1268.8052

  direct lattice vectors                    reciprocal lattice vectors
     0.000000000 12.280473417  0.000000000     0.000000000  0.081430085 -0.019947423
     9.142702054  0.000000000  0.000000000     0.109376855 -0.000000000  0.000000000
     0.000000000 -2.768261773-11.300697718     0.000000000  0.000000000 -0.088490111

  length of vectors
    12.280473417  9.142702054 11.634820246     0.083837691  0.109376855  0.088490111

  position of ions in fractional coordinates (direct lattice)
     0.659171644  0.996374817  0.154164259
     0.659720668  0.999905430  0.658464735
     0.659171644  0.336958517  0.154164259
     0.659720668  0.333427904  0.658464735
     0.657967088  0.666666667  0.156394747
     0.659093798  0.666666667  0.659094106
     0.821986086  0.166666667  0.372117751
     0.843040343  0.166666667  0.849138184
     0.840949212  0.501151858  0.340734011
     0.841444278  0.499478447  0.846850083
     0.840949212  0.832181475  0.340734011
     0.841444278  0.833854887  0.846850083
     0.584953626  0.166666667  0.399187212
     0.591558330  0.166666667  0.898544224
     0.593259269  0.501198464  0.399467890
     0.587892849  0.500581736  0.895449028
     0.593259269  0.832134869  0.399467890
     0.587892849  0.832751597  0.895449028
     0.913874835  0.003582874  0.108283680
     0.909350303  0.997025464  0.606262865
     0.913874835  0.329750459  0.108283680
     0.909350303  0.336307869  0.606262865
     0.912252475  0.666666667  0.105548860
     0.907368665  0.666666667  0.601068002
     0.163130458  0.166666667  0.154998459
     0.158975643  0.166666667  0.655169261
     0.162257711  0.500010916  0.156899594
     0.160039600  0.500462515  0.658133601
     0.162257711  0.833322417  0.156899594
     0.160039600  0.832870818  0.658133601
     0.342084223  0.998688732  0.343447330
     0.340430924  0.000203693  0.842982918
     0.342084223  0.334644602  0.343447330
     0.340430924  0.333129640  0.842982918
     0.342829501  0.666666667  0.343893598
     0.340344455  0.666666667  0.844202131
     0.094745552  0.994598548  0.399248193
     0.091465590  0.001361217  0.898852555
     0.094745552  0.338734785  0.399248193
     0.091465590  0.331972117  0.898852555
     0.094678877  0.666666667  0.399975035
     0.090702314  0.666666667  0.898802863
     0.409724259  0.166666667  0.101408933
     0.409036428  0.166666667  0.603104098
     0.410033092  0.499696258  0.102340063
     0.408938980  0.500045007  0.603100523
     0.410033092  0.833637075  0.102340063
     0.408938980  0.833288326  0.603100523
     0.001862024  0.166666667  0.087251178
     0.993961496  0.166666667  0.613906699
     0.000290592  0.499525511  0.128400540
     0.997379428  0.501455984  0.629033468
     0.000290592  0.833807823  0.128400540
     0.997379428  0.831877349  0.629033468
     0.503444970  0.997374780  0.374095859
     0.502910125  0.001280758  0.871889165
     0.503444970  0.335958553  0.374095859
     0.502910125  0.332052575  0.871889165
     0.504466920  0.666666667  0.375890878
     0.500826007  0.666666667  0.868313165
     0.670100715  0.166666667  0.283635152
     0.673516688  0.166666667  0.782072070
     0.669539457  0.503016516  0.279887428
     0.673012697  0.500389247  0.782183094
     0.669539457  0.830316818  0.279887428
     0.673012697  0.832944086  0.782183094
     0.818963095  0.976436934  0.209888583
     0.827478337  0.999914067  0.722040031
     0.818963095  0.356896399  0.209888583
     0.827478337  0.333419266  0.722040031
     0.827062211  0.666666667  0.218749885
     0.828077551  0.666666667  0.720836238
     0.818857350  0.986441406  0.454305505
     0.833271230  0.999268370  0.948919983
     0.818857350  0.346891927  0.454305505
     0.833271230  0.334064963  0.948919983
     0.829357295  0.666666667  0.445223676
     0.835015086  0.666666667  0.948401374
     0.666768859  0.166666667  0.055434383
     0.666447995  0.166666667  0.554731853
     0.660941832  0.503597323  0.050877337
     0.665575715  0.500854539  0.557110425
     0.660941832  0.829736010  0.050877337
     0.665575715  0.832478794  0.557110425
     0.497044605  0.000578574  0.127731338
     0.496632692  0.000069995  0.628664725
     0.497044605  0.332754759  0.127731338
     0.496632692  0.333263338  0.628664725
     0.495387778  0.666666667  0.126678608
     0.496051954  0.666666667  0.628805279
     0.003934633  0.166666667  0.856850128
     0.004520009  0.505511205  0.378700238
     0.004345968  0.499212964  0.873865431
     0.004520009  0.827822128  0.378700238
     0.004345968  0.834120369  0.873865431
     0.178602127  0.995850119  0.279172876
     0.172039809  0.000445595  0.779950377
     0.178602127  0.337483214  0.279172876
     0.172039809  0.332887738  0.779950377
     0.174998744  0.666666667  0.281718417
     0.172951485  0.666666667  0.782134099
     0.330588485  0.166666667  0.219867198
     0.327214750  0.166666667  0.719569428
     0.330604765  0.502191690  0.220247999
     0.328128996  0.499727631  0.720827819
     0.330604765  0.831141644  0.220247999
     0.328128996  0.833605702  0.720827819
     0.335002496  0.166666667  0.445893651
     0.332489156  0.166666667  0.945242144
     0.332480178  0.500439678  0.446805995
     0.333151077  0.499415887  0.945861981
     0.332480178  0.832893656  0.446805995
     0.333151077  0.833917447  0.945861981
     0.175117379  0.998431334  0.052676444
     0.172239283  0.997595284  0.556256474
     0.175117379  0.334901999  0.052676444
     0.172239283  0.335738050  0.556256474
     0.170252916  0.666666667  0.054326613
     0.171848941  0.666666667  0.556963539
     0.979712581  0.166666667  0.316707993

  ion indices of the primitive-cell ions
   primitive index   ion index
                 1           1
                 2           2
                 3           3
                 4           4
                 5           5
                 6           6
                 7           7
                 8           8
                 9           9
                10          10
                11          11
                12          12
                13          13
                14          14
                15          15
                16          16
                17          17
                18          18
                19          19
                20          20
                21          21
                22          22
                23          23
                24          24
                25          25
                26          26
                27          27
                28          28
                29          29
                30          30
                31          31
                32          32
                33          33
                34          34
                35          35
                36          36
                37          37
                38          38
                39          39
                40          40
                41          41
                42          42
                43          43
                44          44
                45          45
                46          46
                47          47
                48          48
                49          49
                50          50
                51          51
                52          52
                53          53
                54          54
                55          55
                56          56
                57          57
                58          58
                59          59
                60          60
                61          61
                62          62
                63          63
                64          64
                65          65
                66          66
                67          67
                68          68
                69          69
                70          70
                71          71
                72          72
                73          73
                74          74
                75          75
                76          76
                77          77
                78          78
                79          79
                80          80
                81          81
                82          82
                83          83
                84          84
                85          85
                86          86
                87          87
                88          88
                89          89
                90          90
                91          91
                92          92
                93          93
                94          94
                95          95
                96          96
                97          97
                98          98
                99          99
               100         100
               101         101
               102         102
               103         103
               104         104
               105         105
               106         106
               107         107
               108         108
               109         109
               110         110
               111         111
               112         112
               113         113
               114         114
               115         115
               116         116
               117         117
               118         118
               119         119
               120         120

----------------------------------------------------------------------------------------

 
 
 KPOINTS: Automatic mesh                          

Automatic generation of k-mesh.
 Grid dimensions read from file:
 generate k-points for:    2    2    2

 Generating k-lattice:

  Cartesian coordinates                     Fractional coordinates (reciprocal lattice)
     0.000000000  0.040715043 -0.009973711     0.500000000  0.000000000  0.000000000
     0.054688428 -0.000000000  0.000000000     0.000000000  0.500000000  0.000000000
     0.000000000  0.000000000 -0.044245056     0.000000000  0.000000000  0.500000000

  Length of vectors
     0.041918846  0.054688428  0.044245056

  Shift w.r.t. Gamma in fractional coordinates (k-lattice)
     0.000000000  0.000000000  0.000000000

 
 Subroutine IBZKPT returns following result:
 ===========================================
 
 Found      8 irreducible k-points:
 
 Following reciprocal coordinates:
            Coordinates               Weight
  0.000000  0.000000  0.000000      1.000000
  0.500000  0.000000  0.000000      1.000000
  0.000000  0.500000  0.000000      1.000000
  0.500000  0.500000  0.000000      1.000000
  0.000000  0.000000  0.500000      1.000000
  0.500000  0.000000  0.500000      1.000000
  0.000000  0.500000  0.500000      1.000000
  0.500000  0.500000  0.500000      1.000000
 
 Following cartesian coordinates:
            Coordinates               Weight
  0.000000  0.000000 -0.000000      1.000000
  0.000000  0.040715 -0.009974      1.000000
  0.054688  0.000000 -0.000000      1.000000
  0.054688  0.040715 -0.009974      1.000000
  0.000000  0.000000 -0.044245      1.000000
  0.000000  0.040715 -0.054219      1.000000
  0.054688  0.000000 -0.044245      1.000000
  0.054688  0.040715 -0.054219      1.000000
 
 
 Subroutine IBZKPT_HF returns following result:
 ==============================================
 
 Found      8 k-points in 1st BZ
 the following      8 k-points will be used (e.g. in the exchange kernel)
 Following reciprocal coordinates:   # in IRBZ
  0.000000  0.000000  0.000000    0.12500000   1 t-inv F
  0.500000  0.000000  0.000000    0.12500000   2 t-inv F
  0.000000  0.500000  0.000000    0.12500000   3 t-inv F
  0.500000  0.500000  0.000000    0.12500000   4 t-inv F
  0.000000  0.000000  0.500000    0.12500000   5 t-inv F
  0.500000  0.000000  0.500000    0.12500000   6 t-inv F
  0.000000  0.500000  0.500000    0.12500000   7 t-inv F
  0.500000  0.500000  0.500000    0.12500000   8 t-inv F


--------------------------------------------------------------------------------------------------------




 Dimension of arrays:
   k-points           NKPTS =      8   k-points in BZ     NKDIM =      8   number of bands    NBANDS=    633
   number of dos      NEDOS =    301   number of ions     NIONS =    120
   non local maximal  LDIM  =      6   non local SUM 2l+1 LMDIM =     18
   total plane-waves  NPLWV = 184320
   max r-space proj   IRMAX =   1800   max aug-charges    IRDMAX=   5704
   dimension x,y,z NGX =    64 NGY =   48 NGZ =   60
   dimension x,y,z NGXF=   128 NGYF=   96 NGZF=  120
   support grid    NGXF=   128 NGYF=   96 NGZF=  120
   ions per type =              48  71   1
   NGX,Y,Z   is equivalent  to a cutoff of   8.66,  8.73,  8.57 a.u.
   NGXF,Y,Z  is equivalent  to a cutoff of  17.33, 17.46, 17.15 a.u.

 SYSTEM =  unknown system                          
 POSCAR =  Ga48 O72                                

 Startparameter for this run:
   NWRITE =      2    write-flag & timer
   PREC   = normal    normal or accurate (medium, high low for compatibility)
   ISTART =      0    job   : 0-new  1-cont  2-samecut
   ICHARG =      0    charge: 1-file 2-atom 10-const
   ISPIN  =      1    spin polarized calculation?
   LNONCOLLINEAR =      F non collinear calculations
   LSORBIT =      F    spin-orbit coupling
   INIWAV =      1    electr: 0-lowe 1-rand  2-diag
   LASPH  =      F    aspherical Exc in radial PAW
 Electronic Relaxation 1
   ENCUT  =  450.0 eV  33.07 Ry    5.75 a.u.  21.24 15.81 20.12*2*pi/ulx,y,z
   ENINI  =  450.0     initial cutoff
   ENAUG  =  605.4 eV  augmentation charge cutoff
   NELM   =    500;   NELMIN=  2; NELMDL= -5     # of ELM steps 
   EDIFF  = 0.1E-04   stopping-criterion for ELM
   LREAL  =      T    real-space projection
   NLSPLINE    = F    spline interpolate recip. space projectors
   LCOMPAT=      F    compatible to vasp.4.4
   GGA_COMPAT  = T    GGA compatible to vasp.4.4-vasp.4.6
   LMAXPAW     = -100 max onsite density
   LMAXMIX     =    2 max onsite mixed and CHGCAR
   VOSKOWN=      0    Vosko Wilk Nusair interpolation
   ROPT   =   -0.00050  -0.00050  -0.00050
 Ionic relaxation
   EDIFFG = -.5E-02   stopping-criterion for IOM
   NSW    =      0    number of steps for IOM
   NBLOCK =      1;   KBLOCK =      1    inner block; outer block 
   IBRION =     -1    ionic relax: 0-MD 1-quasi-New 2-CG
   NFREE  =      0    steps in history (QN), initial steepest desc. (CG)
   ISIF   =      2    stress and relaxation
   IWAVPR =     10    prediction:  0-non 1-charg 2-wave 3-comb
   ISYM   =      3    0-nonsym 1-usesym 2-fastsym
   LCORR  =      T    Harris-Foulkes like correction to forces

   POTIM  = 0.5000    time-step for ionic-motion
   TEIN   =    0.0    initial temperature
   TEBEG  =    0.0;   TEEND  =   0.0 temperature during run
   SMASS  =  -3.00    Nose mass-parameter (am)
   estimated Nose-frequenzy (Omega)   =  0.10E-29 period in steps = 0.13E+47 mass=  -0.345E-26a.u.
   SCALEE = 1.0000    scale energy and forces
   NPACO  =    256;   APACO  = 10.0  distance and # of slots for P.C.
   PSTRESS=    0.0 pullay stress

  Mass of Ions in am
   POMASS =  69.72 16.00 30.97
  Ionic Valenz
   ZVAL   =  13.00  6.00  5.00
  Atomic Wigner-Seitz radii
   RWIGS  =  -1.00 -1.00 -1.00
  virtual crystal weights 
   VCA    =   1.00  1.00  1.00
   NELECT =    1056.0000    total number of electrons
   NUPDOWN=      -1.0000    fix difference up-down

 DOS related values:
   EMIN   =  10.00;   EMAX   =-10.00  energy-range for DOS
   EFERMI =   0.00;   METHOD = LEGACY      
   ISMEAR =     0;   SIGMA  =   0.05  broadening in eV -4-tet -1-fermi 0-gaus

 Electronic relaxation 2 (details)
   IALGO  =     58    algorithm
   LDIAG  =      T    sub-space diagonalisation (order eigenvalues)
   LSUBROT=      F    optimize rotation matrix (better conditioning)
   TURBO    =      0    0=normal 1=particle mesh
   IRESTART =      0    0=no restart 2=restart with 2 vectors
   NREBOOT  =      0    no. of reboots
   NMIN     =      0    reboot dimension
   EREF     =   0.00    reference energy to select bands
   IMIX   =      4    mixing-type and parameters
     AMIX     =   0.40;   BMIX     =  1.00
     AMIX_MAG =   1.60;   BMIX_MAG =  1.00
     AMIN     =   0.10
     WC   =   100.;   INIMIX=   1;  MIXPRE=   1;  MAXMIX= -45

 Intra band minimization:
   WEIMIN = 0.0000     energy-eigenvalue tresh-hold
   EBREAK =  0.39E-08  absolut break condition
   DEPER  =   0.30     relativ break condition  

   TIME   =   0.40     timestep for ELM

  volume/ion in A,a.u.               =      10.57        71.35
  Fermi-wavevector in a.u.,A,eV,Ry     =   1.539919  2.910025 32.264175  2.371350
  Thomas-Fermi vector in A             =   2.646079
 
 Write flags
   LWAVE        =      T    write WAVECAR
   LDOWNSAMPLE  =      F    k-point downsampling of WAVECAR
   LCHARG       =      T    write CHGCAR
   LVTOT        =      F    write LOCPOT, total local potential
   LVHAR        =      F    write LOCPOT, Hartree potential only
   LELF         =      F    write electronic localiz. function (ELF)
   LORBIT       =      0    0 simple, 1 ext, 2 COOP (PROOUT), +10 PAW based schemes


 Dipole corrections
   LMONO  =      F    monopole corrections only (constant potential shift)
   LDIPOL =      F    correct potential (dipole corrections)
   IDIPOL =      0    1-x, 2-y, 3-z, 4-all directions 
   EPSILON=  1.0000000 bulk dielectric constant

 Exchange correlation treatment:
   GGA     =    --    GGA type
   LEXCH   =     8    internal setting for exchange type
   LIBXC   =     F    Libxc                    
   VOSKOWN =     0    Vosko Wilk Nusair interpolation
   EXXOEP  =     0    0=HF, 1=EXX-LHF (local Hartree Fock) 2=EXX OEP
   LHFCALC =     T    Hartree Fock is set to
   LSYMGRAD=     F    symmetrize gradient (conserves proper symmetry)
   PRECFOCK=fast      Normal, Fast or Accurate (Low or Medium for compatibility)
   LRHFCALC=     F    long range Hartree Fock
   LRSCOR  =     F    long range correlation only (use DFT for short range part)
   LTHOMAS =     F    Thomas Fermi screening in HF
   LMODELHF=     F    short range full HF, long range fraction AEXX
   FOCKCORR=     1    mode to apply convergence corrections
   LFOCKACE=     T    use Adeptively-Compressed-Exchange operator
   ENCUT4O =  -1.0   cutoff for four orbital integrals eV
   LMAXFOCK=     4    L truncation for augmentation on plane wave grid
   LMAXFOCKAE=  -1    L truncation for all-electron charge restoration on plane wave grid
   NMAXFOCKAE=   1    number of basis functions for all-electron charge restoration
   LFOCKAEDFT=     F  apply the AE augmentation even for DFT
   NKREDX  =     1    reduce k-point grid by
   NKREDY  =     1    reduce k-point grid by
   NKREDZ  =     1    reduce k-point grid by
   SHIFTRED=     F    shift reduced grid of Gamma
   HFKIDENT=     F    idential grid for each k-point
   ODDONLY =     F    use only odd q-grid points
   EVENONLY=     F    use only even q-grid points
   HFALPHA =   -1.0000 decay constant for conv. correction
   MCALPHA =    0.0000 extent of test-charge in conv. correction in multipole expansion
   AEXX    =    0.3500 exact exchange contribution
   HFSCREEN=    0.1800 screening length (either q_TF or 0.3 A-1)
   HFSCREENC=   0.1800 screening length for correlation (either q_TF or 0.3 A-1)
   HFRCUT  =    0.0000 spherical cutoff for potential kernel
   ALDAX   =    0.6500 LDA exchange part
   AGGAX   =    0.6500 GGA exchange part
   ALDAC   =    1.0000 LDA correlation
   AGGAC   =    1.0000 GGA correlation
   ENCUTFOCK=  -1.0 apply spherical cutoff to Coloumb kernel
   NBANDSGWLOW=     1    first orbital included in HF term
   NBLOCK_FOCK=    64    blocking factor in FOCK_ACC

 Linear response parameters
   LEPSILON=     F    determine dielectric tensor
   LRPA    =     F    only Hartree local field effects (RPA)
   LNABLA  =     F    use nabla operator in PAW spheres
   LVEL    =     F    velocity operator in full k-point grid
   CSHIFT  =0.1000    complex shift for real part using Kramers Kronig
   OMEGAMAX=  -1.0    maximum frequency
   DEG_THRESHOLD= 0.2000000E-02 threshold for treating states as degnerate
   RTIME   =   -0.100 relaxation time in fs
  (WPLASMAI=    0.000 imaginary part of plasma frequency in eV, 0.658/RTIME)
   DFIELD  = 0.0000000 0.0000000 0.0000000 field for delta impulse in time
 
  Optional k-point grid parameters
   LKPOINTS_OPT  =     F    use optional k-point grid
   KPOINTS_OPT_MODE=     1    mode for optional k-point grid
 
 Orbital magnetization related:
   ORBITALMAG=     F  switch on orbital magnetization
   LCHIMAG   =     F  perturbation theory with respect to B field
   DQ        =  0.001000  dq finite difference perturbation B field
   LLRAUG    =     F  two centre corrections for induced B field
   LBONE     =     F  B-component reconstruction in AE one-centre
   LVGVCALC  =     T  calculate vGv susceptibility
   LVGVAPPL  =     F  apply vGv susceptibility instead of pGv for G=0

 Random number generation:
   RANDOM_GENERATOR = DEFAULT
   PCG_SEED         = not used


--------------------------------------------------------------------------------------------------------


 Static calculation
 charge density and potential will be updated during run
 non-spin polarized calculation
 Conjugate gradient for all bands (Freysoldt, et al. PRB 79, 241103 (2009))
 preconditioned conjugated gradient                                        
 perform sub-space diagonalisation
    before iterative eigenvector-optimisation
 modified Broyden-mixing scheme, WC =      100.0
 initial mixing is a Kerker type mixing with AMIX =  0.4000 and BMIX =      1.0000
 Hartree-type preconditioning will be used
 using additional bands           105
 real space projection scheme for non local part
 use partial core corrections
 no Harris-corrections to forces 
 use gradient corrections 
 use of overlap-Matrix (Vanderbilt PP)
 Gauss-broadening in eV      SIGMA  =   0.05


--------------------------------------------------------------------------------------------------------


  energy-cutoff  :      450.00
  volume of cell :     1268.81
      direct lattice vectors                 reciprocal lattice vectors
     0.000000000 12.280473417  0.000000000     0.000000000  0.081430085 -0.019947423
     9.142702054  0.000000000  0.000000000     0.109376855 -0.000000000  0.000000000
     0.000000000 -2.768261773-11.300697718     0.000000000  0.000000000 -0.088490111

  length of vectors
    12.280473417  9.142702054 11.634820246     0.083837691  0.109376855  0.088490111


 
 k-points in units of 2pi/SCALE and weight: Automatic mesh                          
   0.00000000  0.00000000 -0.00000000       0.125
   0.00000000  0.04071504 -0.00997371       0.125
   0.05468843  0.00000000 -0.00000000       0.125
   0.05468843  0.04071504 -0.00997371       0.125
   0.00000000  0.00000000 -0.04424506       0.125
   0.00000000  0.04071504 -0.05421877       0.125
   0.05468843  0.00000000 -0.04424506       0.125
   0.05468843  0.04071504 -0.05421877       0.125
 
 k-points in reciprocal lattice and weights: Automatic mesh                          
   0.00000000  0.00000000  0.00000000       0.125
   0.50000000  0.00000000  0.00000000       0.125
   0.00000000  0.50000000  0.00000000       0.125
   0.50000000  0.50000000  0.00000000       0.125
   0.00000000  0.00000000  0.50000000       0.125
   0.50000000  0.00000000  0.50000000       0.125
   0.00000000  0.50000000  0.50000000       0.125
   0.50000000  0.50000000  0.50000000       0.125
 
 position of ions in fractional coordinates (direct lattice) 
   0.65917164  0.99637482  0.15416426
   0.65972067  0.99990543  0.65846473
   0.65917164  0.33695852  0.15416426
   0.65972067  0.33342790  0.65846473
   0.65796709  0.66666667  0.15639475
   0.65909380  0.66666667  0.65909411
   0.82198609  0.16666667  0.37211775
   0.84304034  0.16666667  0.84913818
   0.84094921  0.50115186  0.34073401
   0.84144428  0.49947845  0.84685008
   0.84094921  0.83218148  0.34073401
   0.84144428  0.83385489  0.84685008
   0.58495363  0.16666667  0.39918721
   0.59155833  0.16666667  0.89854422
   0.59325927  0.50119846  0.39946789
   0.58789285  0.50058174  0.89544903
   0.59325927  0.83213487  0.39946789
   0.58789285  0.83275160  0.89544903
   0.91387483  0.00358287  0.10828368
   0.90935030  0.99702546  0.60626287
   0.91387483  0.32975046  0.10828368
   0.90935030  0.33630787  0.60626287
   0.91225247  0.66666667  0.10554886
   0.90736866  0.66666667  0.60106800
   0.16313046  0.16666667  0.15499846
   0.15897564  0.16666667  0.65516926
   0.16225771  0.50001092  0.15689959
   0.16003960  0.50046252  0.65813360
   0.16225771  0.83332242  0.15689959
   0.16003960  0.83287082  0.65813360
   0.34208422  0.99868873  0.34344733
   0.34043092  0.00020369  0.84298292
   0.34208422  0.33464460  0.34344733
   0.34043092  0.33312964  0.84298292
   0.34282950  0.66666667  0.34389360
   0.34034445  0.66666667  0.84420213
   0.09474555  0.99459855  0.39924819
   0.09146559  0.00136122  0.89885256
   0.09474555  0.33873478  0.39924819
   0.09146559  0.33197212  0.89885256
   0.09467888  0.66666667  0.39997504
   0.09070231  0.66666667  0.89880286
   0.40972426  0.16666667  0.10140893
   0.40903643  0.16666667  0.60310410
   0.41003309  0.49969626  0.10234006
   0.40893898  0.50004501  0.60310052
   0.41003309  0.83363708  0.10234006
   0.40893898  0.83328833  0.60310052
   0.00186202  0.16666667  0.08725118
   0.99396150  0.16666667  0.61390670
   0.00029059  0.49952551  0.12840054
   0.99737943  0.50145598  0.62903347
   0.00029059  0.83380782  0.12840054
   0.99737943  0.83187735  0.62903347
   0.50344497  0.99737478  0.37409586
   0.50291012  0.00128076  0.87188916
   0.50344497  0.33595855  0.37409586
   0.50291012  0.33205258  0.87188916
   0.50446692  0.66666667  0.37589088
   0.50082601  0.66666667  0.86831317
   0.67010072  0.16666667  0.28363515
   0.67351669  0.16666667  0.78207207
   0.66953946  0.50301652  0.27988743
   0.67301270  0.50038925  0.78218309
   0.66953946  0.83031682  0.27988743
   0.67301270  0.83294409  0.78218309
   0.81896310  0.97643693  0.20988858
   0.82747834  0.99991407  0.72204003
   0.81896310  0.35689640  0.20988858
   0.82747834  0.33341927  0.72204003
   0.82706221  0.66666667  0.21874989
   0.82807755  0.66666667  0.72083624
   0.81885735  0.98644141  0.45430551
   0.83327123  0.99926837  0.94891998
   0.81885735  0.34689193  0.45430551
   0.83327123  0.33406496  0.94891998
   0.82935730  0.66666667  0.44522368
   0.83501509  0.66666667  0.94840137
   0.66676886  0.16666667  0.05543438
   0.66644800  0.16666667  0.55473185
   0.66094183  0.50359732  0.05087734
   0.66557572  0.50085454  0.55711042
   0.66094183  0.82973601  0.05087734
   0.66557572  0.83247879  0.55711042
   0.49704461  0.00057857  0.12773134
   0.49663269  0.00007000  0.62866472
   0.49704461  0.33275476  0.12773134
   0.49663269  0.33326334  0.62866472
   0.49538778  0.66666667  0.12667861
   0.49605195  0.66666667  0.62880528
   0.00393463  0.16666667  0.85685013
   0.00452001  0.50551120  0.37870024
   0.00434597  0.49921296  0.87386543
   0.00452001  0.82782213  0.37870024
   0.00434597  0.83412037  0.87386543
   0.17860213  0.99585012  0.27917288
   0.17203981  0.00044560  0.77995038
   0.17860213  0.33748321  0.27917288
   0.17203981  0.33288774  0.77995038
   0.17499874  0.66666667  0.28171842
   0.17295148  0.66666667  0.78213410
   0.33058848  0.16666667  0.21986720
   0.32721475  0.16666667  0.71956943
   0.33060477  0.50219169  0.22024800
   0.32812900  0.49972763  0.72082782
   0.33060477  0.83114164  0.22024800
   0.32812900  0.83360570  0.72082782
   0.33500250  0.16666667  0.44589365
   0.33248916  0.16666667  0.94524214
   0.33248018  0.50043968  0.44680600
   0.33315108  0.49941589  0.94586198
   0.33248018  0.83289366  0.44680600
   0.33315108  0.83391745  0.94586198
   0.17511738  0.99843133  0.05267644
   0.17223928  0.99759528  0.55625647
   0.17511738  0.33490200  0.05267644
   0.17223928  0.33573805  0.55625647
   0.17025292  0.66666667  0.05432661
   0.17184894  0.66666667  0.55696354
   0.97971258  0.16666667  0.31670799
 
 position of ions in cartesian coordinates  (Angst):
   9.10955808  7.66817283 -1.74216369
   9.14183742  6.27887937 -7.44111093
   3.08071132  7.66817283 -1.74216369
   3.04843198  6.27887937 -7.44111093
   6.09513470  7.64720573 -1.76736976
   6.09513470  6.26943884 -7.44822326
   1.52378368  9.06425894 -4.20519022
   1.52378368  8.00229775 -9.59585394
   4.58188212  9.38401350 -3.85053206
   4.56658262  7.98903137 -9.56999680
   7.60838728  9.38401350 -3.85053206
   7.62368678  7.98903137 -9.56999680
   1.52378368  6.07845275 -4.51109402
   1.52378368  4.77721072-10.15417666
   4.58230823  6.17967299 -4.51426587
   4.57666967  4.74076519-10.11919879
   7.60796117  6.17967299 -4.51426587
   7.61359974  4.74076519-10.11919879
   0.03275715 10.92305804 -1.22368114
   9.11550676  9.48895791 -6.85119338
   3.01481020 10.92305804 -1.22368114
   3.07476264  9.48895791 -6.85119338
   6.09513470 10.91070539 -1.19277576
   6.09513470  9.47900319 -6.79248779
   1.52378368  1.57424295 -1.75159073
   1.52378368  0.13861613 -7.40386978
   4.57145083  1.55826236 -1.77307488
   4.57557967  0.14347596 -7.43736888
   7.61881857  1.55826236 -1.77307488
   7.61468974  0.14347596 -7.43736888
   9.13071352  3.25020409 -3.88119446
   0.00186231  1.84705553 -9.52629514
   3.05955589  3.25020409 -3.88119446
   3.04570505  1.84705553 -9.52629514
   6.09513470  3.25812108 -3.88623759
   6.09513470  1.84261854 -9.54007310
   9.09331819  0.05829672 -4.51178315
   0.01244520 -1.36501843-10.15766102
   3.09695121  0.05829672 -4.51178315
   3.03512215 -1.36501843-10.15766102
   6.09513470  0.05546584 -4.51999697
   6.09513470 -1.37425425-10.15709946
   1.52378368  4.75088140 -1.14599170
   1.52378368  3.35361096 -6.81549710
   4.56857400  4.75209640 -1.15651411
   4.57176251  3.35242416 -6.81545670
   7.62169540  4.75209640 -1.15651411
   7.61850689  3.35242416 -6.81545670
   1.52378368 -0.21866757 -0.98599919
   1.52378368 10.50686329 -6.93757403
   4.56701291 -0.35187770 -1.45101569
   4.58466266 10.50696225 -7.10851707
   7.62325649 -0.35187770 -1.45101569
   7.60560675 10.50696225 -7.10851707
   9.11870045  5.14694730 -4.22754422
   0.01170959  3.76235697 -9.85295589
   3.07156896  5.14694730 -4.22754422
   3.03585776  3.76235697 -9.85295589
   6.09513470  5.15452826 -4.24782919
   6.09513470  3.74666233 -9.81254461
   1.52378368  7.44397767 -3.20527511
   1.52378368  6.10612357 -8.83796006
   4.59893013  7.44745984 -3.16292322
   4.57490980  6.09962698 -8.83921471
   7.59133928  7.44745984 -3.16292322
   7.61535961  6.09962698 -8.83921471
   8.92727197  9.47622798 -2.37188743
   9.14191640  8.16302991 -8.15955613
   3.26299744  9.47622798 -2.37188743
   3.04835301  8.16302991 -8.15955613
   6.09513470  9.55115855 -2.47202633
   6.09513470  8.17372095 -8.14595243
   9.01873987  8.79831936 -5.13396919
   9.13601298  7.60610628-10.72345788
   3.17152953  8.79831936 -5.13396919
   3.05425643  7.60610628-10.72345788
   6.09513470  8.95240453 -5.03133818
   6.09513470  7.62895730-10.71759724
   1.52378368  8.03478037 -0.62644721
   1.52378368  6.64865390 -6.26885699
   4.60424028  7.97583681 -0.57494941
   4.57916382  6.63135739 -6.29573651
   7.58602912  7.97583681 -0.57494941
   7.61110558  6.63135739 -6.29573651
   0.00528973  5.75034928 -1.44345325
   0.00063994  4.35857605 -7.10435002
   3.04227762  5.75034928 -1.44345325
   3.04692741  4.35857605 -7.10435002
   6.09513470  5.73291689 -1.43155666
   6.09513470  4.35105521 -7.10593838
   1.52378368 -2.32366630 -9.68300429
   4.62173833 -0.99283355 -4.27957692
   4.56415539 -2.36571773 -9.87528908
   7.56853107 -0.99283355 -4.27957692
   7.62611401 -2.36571773 -9.87528908
   9.10476093  1.42049507 -3.15484828
   0.00407394 -0.04637652 -8.81398345
   3.08550848  1.42049507 -3.15484828
   3.04349341 -0.04637652 -8.81398345
   6.09513470  1.36919709 -3.18361468
   6.09513470 -0.04122581 -8.83866103
   1.52378368  3.45113314 -2.48465274
   1.52378368  2.02639550 -8.13163659
   4.59138899  3.45027891 -2.48895606
   4.56886084  2.03413932 -8.14585729
   7.59888041  3.45027891 -2.48895606
   7.62140857  2.03413932 -8.14585729
   1.52378368  2.87963890 -5.03890937
   1.52378368  1.46644655-10.68189574
   4.57537087  2.84613803 -5.04921949
   4.56601065  1.47285939-10.68890033
   7.61489854  2.84613803 -5.04921949
   7.62425875  1.47285939-10.68890033
   9.12836021  2.00470213 -0.59528057
   9.12071645  0.57531640 -6.28608627
   3.06190919  2.00470213 -0.59528057
   3.06955296  0.57531640 -6.28608627
   6.09513470  1.94039612 -0.61392864
   6.09513470  0.56856547 -6.29407659
   1.52378368 11.15460367 -3.57902130
 


--------------------------------------------------------------------------------------------------------


 k-point   1 :   0.0000 0.0000 0.0000  plane waves:   27533
 k-point   2 :   0.5000 0.0000 0.0000  plane waves:   27522
 k-point   3 :   0.0000 0.5000 0.0000  plane waves:   27488
 k-point   4 :   0.5000 0.5000 0.0000  plane waves:   27488
 k-point   5 :   0.0000 0.0000 0.5000  plane waves:   27482
 k-point   6 :   0.5000 0.0000 0.5000  plane waves:   27476
 k-point   7 :   0.0000 0.5000 0.5000  plane waves:   27468
 k-point   8 :   0.5000 0.5000 0.5000  plane waves:   27564

 maximum and minimum number of plane-waves per node :     27564    27468

 maximum number of plane-waves:     27564
 maximum index in each direction: 
   IXMAX=   21   IYMAX=   15   IZMAX=   20
   IXMIN=  -21   IYMIN=  -16   IZMIN=  -20


 serial   3D FFT for wavefunctions
 parallel 3D FFT for charge:
    minimum data exchange during FFTs selected (reduces bandwidth)


 FFT grid for exact exchange (Hartree Fock) 
  NGX = 48; NGY = 36; NGZ = 48

 
 Radii for the augmentation spheres in the non-local exchange
 for species   1 augmentation radius   1.392 (default was   1.031)
       energy cutoff for augmentation   1800.0
 for species   2 augmentation radius   0.974 (default was   0.722)
       energy cutoff for augmentation   1800.0
 for species   3 augmentation radius   1.294 (default was   0.959)
       energy cutoff for augmentation   1800.0
 Maximum index for augmentation-charges in exchange           749
  SETUP_FOCK is finished

 total amount of memory used by VASP MPI-rank0  7269058. kBytes
=======================================================================

   base      :      30000. kBytes
   nonlr-proj:      32953. kBytes
   fftplans  :      51012. kBytes
   grid      :     102973. kBytes
   one-center:       1866. kBytes
   HF        :        194. kBytes
   wavefun   :    7050060. kBytes
 
     INWAV:  cpu time      0.0001: real time      0.0001
 Broyden mixing: mesh for mixing (old mesh)
   NGX = 43   NGY = 31   NGZ = 41
  (NGX  =128   NGY  = 96   NGZ  =120)
  gives a total of  54653 points

 charge density for first step will be calculated from the start-wavefunctions


--------------------------------------------------------------------------------------------------------


 Maximum index for non-local projection operator          1717
 Maximum index for augmentation-charges          5372 (set IRDMAX)


--------------------------------------------------------------------------------------------------------


 initial charge from wavefunction
 First call to EWALD:  gamma=   0.164
 Maximum number of real-space cells 3x 3x 3
 Maximum number of reciprocal cells 3x 2x 3

    FEWALD:  cpu time      0.0739: real time      0.0738


--------------------------------------- Ionic step        1  -------------------------------------------




--------------------------------------- Iteration      1(   1)  ---------------------------------------


    POTLOK:  cpu time      0.0338: real time      0.0338
    SETDIJ:  cpu time      0.1213: real time      0.1212
    TRIAL :  cpu time      2.9172: real time      2.9229
    CORREC:  cpu time      0.0015: real time      0.0015
    --------------------------------------------
      LOOP:  cpu time      3.9951: real time      4.0005

 eigenvalue-minimisations  : 10632
 total energy-change (2. order) :-0.2155890E+05  (-0.5446752E+05)
 number of electron    1055.9999543 magnetization 
 augmentation part      121.8844482 magnetization 

 Free energy of the ion-electron system (eV)
  ---------------------------------------------------
  alpha Z        PSCENC =      5529.70323211
  Ewald energy   TEWEN  =    -88745.69390698
  -Hartree energ DENC   =     -2118.39256583
  -exchange      EXHF   =         0.00000000
  -V(xc)+E(xc)   XCENC  =      2796.63294179
  PAW double counting   =    338284.64019713  -370237.93246448
  entropy T*S    EENTRO =        -0.01453555
  eigenvalues    EBANDS =    -40673.65530561
  atomic energy  EATOM  =    133605.80973787
  ---------------------------------------------------
  free energy    TOTEN  =    -21558.90266955 eV

  energy without entropy =   -21558.88813400  energy(sigma->0) =   -21558.89540177
  exchange ACFDT corr.  =         0.00000000  see jH, gK, PRB 81, 115126


--------------------------------------------------------------------------------------------------------




--------------------------------------- Iteration      1(   2)  ---------------------------------------


    TRIAL :  cpu time      3.1409: real time      3.1405
    CORREC:  cpu time      0.0015: real time      0.0015
    --------------------------------------------
      LOOP:  cpu time      3.1427: real time      3.1429

 eigenvalue-minimisations  : 13312
 total energy-change (2. order) :-0.4447506E+05  (-0.4307290E+05)
 number of electron    1055.9999543 magnetization 
 augmentation part      121.8844482 magnetization 

 Free energy of the ion-electron system (eV)
  ---------------------------------------------------
  alpha Z        PSCENC =      5529.70323211
  Ewald energy   TEWEN  =    -88745.69390698
  -Hartree energ DENC   =     -2118.39256583
  -exchange      EXHF   =         0.00000000
  -V(xc)+E(xc)   XCENC  =      2796.63294179
  PAW double counting   =    338284.64019713  -370237.93246448
  entropy T*S    EENTRO =        -0.01884739
  eigenvalues    EBANDS =    -85148.71235769
  atomic energy  EATOM  =    133605.80973787
  ---------------------------------------------------
  free energy    TOTEN  =    -66033.96403347 eV

  energy without entropy =   -66033.94518608  energy(sigma->0) =   -66033.95460977
  exchange ACFDT corr.  =         0.00000000  see jH, gK, PRB 81, 115126


--------------------------------------------------------------------------------------------------------




--------------------------------------- Iteration      1(   3)  ---------------------------------------


    TRIAL :  cpu time      3.3153: real time      3.3149
    CORREC:  cpu time      0.0016: real time      0.0016
    --------------------------------------------
      LOOP:  cpu time      3.3172: real time      3.3170

 eigenvalue-minimisations  : 14433
 total energy-change (2. order) :-0.4873366E+04  (-0.4356578E+04)
 number of electron    1055.9999543 magnetization 
 augmentation part      121.8844482 magnetization 

 Free energy of the ion-electron system (eV)
  ---------------------------------------------------
  alpha Z        PSCENC =      5529.70323211
  Ewald energy   TEWEN  =    -88745.69390698
  -Hartree energ DENC   =     -2118.39256583
  -exchange      EXHF   =         0.00000000
  -V(xc)+E(xc)   XCENC  =      2796.63294179
  PAW double counting   =    338284.64019713  -370237.93246448
  entropy T*S    EENTRO =        -0.03899501
  eigenvalues    EBANDS =    -90022.05810565
  atomic energy  EATOM  =    133605.80973787
  ---------------------------------------------------
  free energy    TOTEN  =    -70907.32992905 eV

  energy without entropy =   -70907.29093404  energy(sigma->0) =   -70907.31043154
  exchange ACFDT corr.  =         0.00000000  see jH, gK, PRB 81, 115126


--------------------------------------------------------------------------------------------------------




--------------------------------------- Iteration      1(   4)  ---------------------------------------


    TRIAL :  cpu time      3.7210: real time      3.7205
    CORREC:  cpu time      0.0016: real time      0.0016
    --------------------------------------------
      LOOP:  cpu time      3.7227: real time      3.7226

 eigenvalue-minimisations  : 17200
 total energy-change (2. order) :-0.6446325E+03  (-0.5703355E+03)
 number of electron    1055.9999543 magnetization 
 augmentation part      121.8844482 magnetization 

 Free energy of the ion-electron system (eV)
  ---------------------------------------------------
  alpha Z        PSCENC =      5529.70323211
  Ewald energy   TEWEN  =    -88745.69390698
  -Hartree energ DENC   =     -2118.39256583
  -exchange      EXHF   =         0.00000000
  -V(xc)+E(xc)   XCENC  =      2796.63294179
  PAW double counting   =    338284.64019713  -370237.93246448
  entropy T*S    EENTRO =        -0.02773500
  eigenvalues    EBANDS =    -90666.70186128
  atomic energy  EATOM  =    133605.80973787
  ---------------------------------------------------
  free energy    TOTEN  =    -71551.96242467 eV

  energy without entropy =   -71551.93468967  energy(sigma->0) =   -71551.94855717
  exchange ACFDT corr.  =         0.00000000  see jH, gK, PRB 81, 115126


--------------------------------------------------------------------------------------------------------




--------------------------------------- Iteration      1(   5)  ---------------------------------------


    POTLOK:  cpu time      1.3948: real time      1.3951
    SETDIJ:  cpu time      0.4652: real time      0.4653
    TRIAL :  cpu time    234.6020: real time    234.5692
    CORREC:  cpu time      0.0013: real time      0.0013
    CHARGE:  cpu time      0.2077: real time      0.2077
    --------------------------------------------
      LOOP:  cpu time    236.6713: real time    236.6392

 eigenvalue-minimisations  : 19360
 total energy-change (2. order) : 0.3304935E+05  (-0.9452376E+02)
 number of electron    1055.9998778 magnetization 
 augmentation part      486.7093690 magnetization 

 Free energy of the ion-electron system (eV)
  ---------------------------------------------------
  alpha Z        PSCENC =      5529.70323211
  Ewald energy   TEWEN  =    -88745.69390698
  -Hartree energ DENC   =     -2118.39256583
  -exchange      EXHF   =      5252.91853302
  -V(xc)+E(xc)   XCENC  =      1853.49573575
  PAW double counting   =    339630.58477912  -341707.60794232
  entropy T*S    EENTRO =        -0.00043993
  eigenvalues    EBANDS =    -91803.43427934
  atomic energy  EATOM  =    133605.80973787
  ---------------------------------------------------
  free energy    TOTEN  =    -38502.61711654 eV

  energy without entropy =   -38502.61667661  energy(sigma->0) =   -38502.61689658
  exchange ACFDT corr.  =        -0.04842811  see jH, gK, PRB 81, 115126


--------------------------------------------------------------------------------------------------------




--------------------------------------- Iteration      1(   6)  ---------------------------------------


    POTLOK:  cpu time      1.3947: real time      1.3945
    SETDIJ:  cpu time      0.4646: real time      0.4645
    TRIAL :  cpu time    233.5556: real time    233.5318
    CORREC:  cpu time    235.3804: real time    235.3508
    CHARGE:  cpu time      0.2054: real time      0.2054
    --------------------------------------------
      LOOP:  cpu time    471.0023: real time    470.9489

 eigenvalue-minimisations  :     0
 total energy-change (2. order) : 0.6593731E+05  (-0.1815534E+05)
 number of electron    1055.9998159 magnetization 
 augmentation part      469.1264126 magnetization 

 Free energy of the ion-electron system (eV)
  ---------------------------------------------------
  alpha Z        PSCENC =      5529.70323211
  Ewald energy   TEWEN  =    -88745.69390698
  -Hartree energ DENC   =    -74894.40664817
  -exchange      EXHF   =      5362.75289174
  -V(xc)+E(xc)   XCENC  =      3599.89156958
  PAW double counting   =    149043.40941871  -173860.57419119
  entropy T*S    EENTRO =        -0.02301467
  eigenvalues    EBANDS =     67793.79757829
  atomic energy  EATOM  =    133605.80973787
  ---------------------------------------------------
  free energy    TOTEN  =     27434.68924202 eV

  energy without entropy =    27434.71225668  energy(sigma->0) =    27434.70074935
  exchange ACFDT corr.  =        -0.00120349  see jH, gK, PRB 81, 115126


--------------------------------------------------------------------------------------------------------




--------------------------------------- Iteration      1(   7)  ---------------------------------------


    POTLOK:  cpu time      1.5159: real time      1.5157
    SETDIJ:  cpu time      0.4641: real time      0.4641
    TRIAL :  cpu time    234.2273: real time    234.2028
    CORREC:  cpu time    235.9259: real time    235.9031
    CHARGE:  cpu time      0.2167: real time      0.2167
    --------------------------------------------
      LOOP:  cpu time    472.3514: real time    472.3114

 eigenvalue-minimisations  :     0
 total energy-change (2. order) :-0.1843087E+05  (-0.5459012E+04)
 number of electron    1055.9998433 magnetization 
 augmentation part      438.6774946 magnetization 

 Free energy of the ion-electron system (eV)
  ---------------------------------------------------
  alpha Z        PSCENC =      5529.70323211
  Ewald energy   TEWEN  =    -88745.69390698
  -Hartree energ DENC   =    -41865.20830875
  -exchange      EXHF   =      4249.34774370
  -V(xc)+E(xc)   XCENC  =      2852.85421264
  PAW double counting   =    145598.76408951  -163938.13759905
  entropy T*S    EENTRO =        -0.01175240
  eigenvalues    EBANDS =     11716.40553079
  atomic energy  EATOM  =    133605.80973787
  ---------------------------------------------------
  free energy    TOTEN  =      9003.82171717 eV

  energy without entropy =     9003.83346956  energy(sigma->0) =     9003.82759336
  exchange ACFDT corr.  =      -210.27747621  see jH, gK, PRB 81, 115126


--------------------------------------------------------------------------------------------------------




--------------------------------------- Iteration      1(   8)  ---------------------------------------


    POTLOK:  cpu time      1.4542: real time      1.4540
    SETDIJ:  cpu time      0.4656: real time      0.4655
    TRIAL :  cpu time    233.5078: real time    233.4760
    CORREC:  cpu time    235.7262: real time    235.6957
    CHARGE:  cpu time      0.2177: real time      0.2176
    --------------------------------------------
      LOOP:  cpu time    471.3717: real time    471.3092

 eigenvalue-minimisations  :     0
 total energy-change (2. order) :-0.4255852E+04  (-0.2508517E+04)
 number of electron    1055.9998663 magnetization 
 augmentation part      438.5612679 magnetization 

 Free energy of the ion-electron system (eV)
  ---------------------------------------------------
  alpha Z        PSCENC =      5529.70323211
  Ewald energy   TEWEN  =    -88745.69390698
  -Hartree energ DENC   =    -31675.26146193
  -exchange      EXHF   =      3901.87157734
  -V(xc)+E(xc)   XCENC  =      2644.05741257
  PAW double counting   =    142230.90780932  -157063.21244398
  entropy T*S    EENTRO =        -0.04283652
  eigenvalues    EBANDS =     -5680.20033464
  atomic energy  EATOM  =    133605.80973787
  ---------------------------------------------------
  free energy    TOTEN  =      4747.96986929 eV

  energy without entropy =     4748.01270581  energy(sigma->0) =     4747.99128755
  exchange ACFDT corr.  =      -128.12531456  see jH, gK, PRB 81, 115126


--------------------------------------------------------------------------------------------------------




--------------------------------------- Iteration      1(   9)  ---------------------------------------


    POTLOK:  cpu time      1.4531: real time      1.4529
    SETDIJ:  cpu time      0.5017: real time      0.5016
    TRIAL :  cpu time    234.5482: real time    234.5174
    CORREC:  cpu time    235.8701: real time    235.8401
    CHARGE:  cpu time      0.2142: real time      0.2141
    --------------------------------------------
      LOOP:  cpu time    472.5888: real time    472.5280

 eigenvalue-minimisations  :     0
 total energy-change (2. order) :-0.1801771E+04  (-0.1596678E+04)
 number of electron    1055.9998570 magnetization 
 augmentation part      453.9377345 magnetization 

 Free energy of the ion-electron system (eV)
  ---------------------------------------------------
  alpha Z        PSCENC =      5529.70323211
  Ewald energy   TEWEN  =    -88745.69390698
  -Hartree energ DENC   =    -29933.21341429
  -exchange      EXHF   =      3858.68657930
  -V(xc)+E(xc)   XCENC  =      2615.88902571
  PAW double counting   =    137366.22925585  -151821.89841417
  entropy T*S    EENTRO =        -0.04057128
  eigenvalues    EBANDS =     -9529.27051796
  atomic energy  EATOM  =    133605.80973787
  ---------------------------------------------------
  free energy    TOTEN  =      2946.19874090 eV

  energy without entropy =     2946.23931218  energy(sigma->0) =     2946.21902654
  exchange ACFDT corr.  =      -126.15092132  see jH, gK, PRB 81, 115126


--------------------------------------------------------------------------------------------------------




--------------------------------------- Iteration      1(  10)  ---------------------------------------


    POTLOK:  cpu time      1.5231: real time      1.5229
    SETDIJ:  cpu time      0.4646: real time      0.4645
    TRIAL :  cpu time    234.5496: real time    234.5236
    CORREC:  cpu time    235.4717: real time    235.4400
    CHARGE:  cpu time      0.2122: real time      0.2122
    --------------------------------------------
      LOOP:  cpu time    472.2222: real time    472.1645

 eigenvalue-minimisations  :     0
 total energy-change (2. order) :-0.1268893E+04  (-0.1247125E+04)
 number of electron    1055.9998424 magnetization 
 augmentation part      466.5410372 magnetization 

 Free energy of the ion-electron system (eV)
  ---------------------------------------------------
  alpha Z        PSCENC =      5529.70323211
  Ewald energy   TEWEN  =    -88745.69390698
  -Hartree energ DENC   =    -32230.56265639
  -exchange      EXHF   =      3968.99301235
  -V(xc)+E(xc)   XCENC  =      2679.67828187
  PAW double counting   =    136775.80113019  -152288.27830535
  entropy T*S    EENTRO =        -0.03078475
  eigenvalues    EBANDS =     -7618.10406164
  atomic energy  EATOM  =    133605.80973787
  ---------------------------------------------------
  free energy    TOTEN  =      1677.30589275 eV

  energy without entropy =     1677.33667750  energy(sigma->0) =     1677.32128513
  exchange ACFDT corr.  =       -69.60846445  see jH, gK, PRB 81, 115126


--------------------------------------------------------------------------------------------------------




--------------------------------------- Iteration      1(  11)  ---------------------------------------


    POTLOK:  cpu time      1.4563: real time      1.4561
    SETDIJ:  cpu time      0.4876: real time      0.4875
[...]
   0.135E+02 0.471E+02 -.278E+02   -.125E+02 -.450E+02 0.287E+02   -.912E+00 -.185E+01 -.871E+00
   0.134E+02 0.562E+02 -.443E+02   -.130E+02 -.541E+02 0.463E+02   -.354E+00 -.188E+01 -.180E+01
   -.135E+02 0.471E+02 -.278E+02   0.125E+02 -.450E+02 0.287E+02   0.912E+00 -.185E+01 -.871E+00
   -.134E+02 0.562E+02 -.443E+02   0.130E+02 -.541E+02 0.463E+02   0.354E+00 -.188E+01 -.180E+01
   -.153E-04 -.435E+01 -.170E+02   0.279E-11 0.115E+02 0.272E+02   0.000E+00 -.605E+01 -.857E+01
   0.139E-04 -.441E+02 -.699E+02   0.387E-10 0.526E+02 0.717E+02   0.000E+00 -.722E+01 -.154E+01
   0.136E+02 -.452E+00 0.260E+02   -.142E+02 0.660E+01 -.288E+02   0.453E+00 -.518E+01 0.237E+01
   0.570E+01 -.239E+02 -.760E+00   -.468E+01 0.316E+02 -.309E+01   -.861E+00 -.647E+01 0.327E+01
   -.136E+02 -.452E+00 0.260E+02   0.142E+02 0.660E+01 -.288E+02   -.453E+00 -.518E+01 0.237E+01
   -.570E+01 -.239E+02 -.760E+00   0.468E+01 0.316E+02 -.309E+01   0.861E+00 -.647E+01 0.327E+01
   0.869E+01 0.989E+01 -.177E+02   -.107E+02 -.166E+02 0.217E+02   0.171E+01 0.565E+01 -.331E+01
   -.923E+01 0.885E+01 -.120E+02   0.963E+01 -.161E+02 0.158E+02   -.338E+00 0.612E+01 -.328E+01
   -.869E+01 0.989E+01 -.177E+02   0.107E+02 -.166E+02 0.217E+02   -.171E+01 0.565E+01 -.331E+01
   0.923E+01 0.885E+01 -.120E+02   -.963E+01 -.161E+02 0.158E+02   0.338E+00 0.612E+01 -.328E+01
   -.133E-04 0.177E+02 -.101E+02   0.835E-11 -.247E+02 0.133E+02   0.000E+00 0.595E+01 -.273E+01
   0.146E-04 0.586E+01 -.168E+02   0.282E-10 -.125E+02 0.216E+02   0.000E+00 0.559E+01 -.402E+01
   -.216E-05 0.264E+02 -.275E+02   0.172E-10 -.285E+02 0.384E+02   0.000E+00 0.174E+01 -.929E+01
   0.824E-05 0.510E+02 0.440E+02   0.248E-10 -.481E+02 -.395E+02   0.000E+00 -.247E+01 -.383E+01
   0.159E+02 0.464E+02 0.355E+02   -.165E+02 -.432E+02 -.305E+02   0.555E+00 -.274E+01 -.432E+01
   0.420E+01 0.472E+02 0.481E+02   -.439E+01 -.444E+02 -.437E+02   0.164E+00 -.232E+01 -.375E+01
   -.159E+02 0.464E+02 0.355E+02   0.165E+02 -.432E+02 -.305E+02   -.555E+00 -.274E+01 -.432E+01
   -.420E+01 0.472E+02 0.481E+02   0.439E+01 -.444E+02 -.437E+02   -.164E+00 -.232E+01 -.375E+01
   -.821E+02 -.101E+03 0.635E+01   0.855E+02 0.100E+03 -.121E+02   -.290E+01 0.332E+00 0.494E+01
   -.756E+01 -.701E+02 -.316E+02   0.833E+01 0.677E+02 0.260E+02   -.657E+00 0.204E+01 0.480E+01
   0.821E+02 -.101E+03 0.635E+01   -.855E+02 0.100E+03 -.121E+02   0.290E+01 0.332E+00 0.494E+01
   0.756E+01 -.701E+02 -.316E+02   -.833E+01 0.677E+02 0.260E+02   0.657E+00 0.204E+01 0.480E+01
   0.270E-04 -.793E+02 -.431E+02   0.249E-10 0.766E+02 0.393E+02   0.000E+00 0.236E+01 0.321E+01
   0.180E-04 -.765E+02 -.298E+02   0.109E-10 0.748E+02 0.246E+02   0.000E+00 0.143E+01 0.441E+01
   0.184E+02 0.700E+02 0.249E+02   -.249E+02 -.845E+02 -.224E+02   0.547E+01 0.122E+02 -.213E+01
   0.525E+01 0.127E+03 0.895E+02   -.566E+01 -.139E+03 -.893E+02   0.340E+00 0.104E+02 -.156E+00
   -.184E+02 0.700E+02 0.249E+02   0.249E+02 -.845E+02 -.224E+02   -.547E+01 0.122E+02 -.213E+01
   -.525E+01 0.127E+03 0.895E+02   0.566E+01 -.139E+03 -.893E+02   -.340E+00 0.104E+02 -.156E+00
   0.147E-04 0.102E+03 0.590E+02   0.296E-10 -.116E+03 -.546E+02   0.000E+00 0.111E+02 -.378E+01
   0.174E-04 0.117E+03 0.743E+02   0.792E-11 -.129E+03 -.718E+02   0.000E+00 0.105E+02 -.217E+01
   0.154E-04 -.146E+03 -.278E+02   0.317E-10 0.159E+03 0.236E+02   0.000E+00 -.105E+02 0.359E+01
   0.168E-04 -.124E+03 -.536E+02   0.267E-10 0.136E+03 0.503E+02   0.000E+00 -.105E+02 0.279E+01
   0.467E+01 -.135E+03 -.573E+02   -.470E+01 0.147E+03 0.531E+02   0.176E-01 -.103E+02 0.357E+01
   0.411E+00 -.120E+03 -.604E+02   -.549E+00 0.132E+03 0.572E+02   0.111E+00 -.999E+01 0.270E+01
   -.467E+01 -.135E+03 -.573E+02   0.470E+01 0.147E+03 0.531E+02   -.176E-01 -.103E+02 0.357E+01
   -.411E+00 -.120E+03 -.604E+02   0.549E+00 0.132E+03 0.572E+02   -.111E+00 -.999E+01 0.270E+01
   -.103E+02 -.278E+02 0.251E+02   0.103E+02 0.351E+02 -.296E+02   -.226E-01 -.618E+01 0.377E+01
   -.345E+01 -.171E+02 0.139E+02   0.333E+01 0.245E+02 -.177E+02   0.108E+00 -.630E+01 0.327E+01
   0.103E+02 -.278E+02 0.251E+02   -.103E+02 0.351E+02 -.296E+02   0.226E-01 -.618E+01 0.377E+01
   0.345E+01 -.171E+02 0.139E+02   -.333E+01 0.245E+02 -.177E+02   -.108E+00 -.630E+01 0.327E+01
   0.144E-04 -.194E+02 0.185E+02   0.105E-10 0.274E+02 -.225E+02   0.000E+00 -.677E+01 0.340E+01
   0.111E-04 -.197E+02 0.105E+02   0.309E-10 0.273E+02 -.143E+02   0.000E+00 -.650E+01 0.321E+01
   -.195E-04 0.140E+02 -.678E+02   0.778E-11 -.201E+02 0.784E+02   0.000E+00 0.515E+01 -.900E+01
   0.527E+02 0.379E+02 -.101E+02   -.546E+02 -.462E+02 0.121E+02   0.171E+01 0.702E+01 -.172E+01
   -.790E+00 0.231E+02 -.167E+02   0.538E+00 -.305E+02 0.208E+02   0.214E+00 0.629E+01 -.344E+01
   -.527E+02 0.379E+02 -.101E+02   0.546E+02 -.462E+02 0.121E+02   -.171E+01 0.702E+01 -.172E+01
   0.790E+00 0.231E+02 -.167E+02   -.538E+00 -.305E+02 0.208E+02   -.214E+00 0.629E+01 -.344E+01
   -.378E+02 0.132E+03 0.548E+02   0.391E+02 -.134E+03 -.519E+02   -.116E+01 0.155E+01 -.246E+01
   -.600E+01 0.794E+02 0.207E+02   0.627E+01 -.782E+02 -.164E+02   -.226E+00 -.108E+01 -.360E+01
   0.378E+02 0.132E+03 0.548E+02   -.391E+02 -.134E+03 -.519E+02   0.116E+01 0.155E+01 -.246E+01
   0.600E+01 0.794E+02 0.207E+02   -.627E+01 -.782E+02 -.164E+02   0.226E+00 -.108E+01 -.360E+01
   0.149E-05 0.920E+02 0.343E+02   0.730E-11 -.905E+02 -.291E+02   0.000E+00 -.130E+01 -.437E+01
   0.117E-04 0.822E+02 0.316E+02   0.194E-10 -.808E+02 -.269E+02   0.000E+00 -.120E+01 -.391E+01
   0.252E-04 -.518E+02 -.200E+02   0.267E-11 0.501E+02 0.143E+02   0.000E+00 0.143E+01 0.484E+01
   -.108E-04 -.539E+02 -.493E+02   0.174E-10 0.517E+02 0.445E+02   0.000E+00 0.186E+01 0.400E+01
   0.246E+01 -.582E+02 -.312E+02   -.255E+01 0.562E+02 0.263E+02   0.800E-01 0.173E+01 0.420E+01
   0.400E+01 -.585E+02 -.449E+02   -.371E+01 0.569E+02 0.403E+02   -.242E+00 0.143E+01 0.388E+01
   -.246E+01 -.582E+02 -.312E+02   0.255E+01 0.562E+02 0.263E+02   -.800E-01 0.173E+01 0.420E+01
   -.400E+01 -.585E+02 -.449E+02   0.371E+01 0.569E+02 0.403E+02   0.242E+00 0.143E+01 0.388E+01
   0.310E-04 0.149E+03 0.523E+02   0.122E-10 -.161E+03 -.481E+02   0.000E+00 0.101E+02 -.350E+01
   -.443E-06 0.120E+03 0.604E+02   0.425E-11 -.133E+03 -.571E+02   0.000E+00 0.108E+02 -.281E+01
   0.698E+01 0.134E+03 0.586E+02   -.690E+01 -.147E+03 -.547E+02   -.663E-01 0.108E+02 -.330E+01
   0.266E+01 0.125E+03 0.622E+02   -.283E+01 -.137E+03 -.590E+02   0.141E+00 0.105E+02 -.269E+01
   -.698E+01 0.134E+03 0.586E+02   0.690E+01 -.147E+03 -.547E+02   0.663E-01 0.108E+02 -.330E+01
   -.266E+01 0.125E+03 0.622E+02   0.283E+01 -.137E+03 -.590E+02   -.141E+00 0.105E+02 -.269E+01
   0.436E+01 -.114E+03 -.500E+02   -.463E+01 0.128E+03 0.459E+02   0.226E+00 -.119E+02 0.347E+01
   -.307E+02 -.902E+02 -.102E+03   0.312E+02 0.103E+03 0.986E+02   -.400E+00 -.110E+02 0.248E+01
   -.436E+01 -.114E+03 -.500E+02   0.463E+01 0.128E+03 0.459E+02   -.226E+00 -.119E+02 0.347E+01
   0.307E+02 -.902E+02 -.102E+03   -.312E+02 0.103E+03 0.986E+02   0.400E+00 -.110E+02 0.248E+01
   0.172E-04 -.106E+03 -.616E+02   0.759E-11 0.119E+03 0.582E+02   0.000E+00 -.109E+02 0.285E+01
   0.130E-04 -.107E+03 -.754E+02   0.255E-10 0.120E+03 0.723E+02   0.000E+00 -.110E+02 0.257E+01
   -.624E-04 -.977E+00 -.205E+02   0.579E-11 0.105E+01 0.234E+02   0.000E+00 -.686E-01 -.293E+01
 -----------------------------------------------------------------------------------------------
   0.220E-04 -.178E+01 0.358E+02   -.209E-12 -.157E-12 -.583E-12   -.888E-15 0.187E+01 -.321E+02
 
 
 POSITION                                       TOTAL-FORCE (eV/Angst)
 -----------------------------------------------------------------------------------
      9.10956      7.66817     -1.74216        -0.100770      0.189465      0.025012
      9.14184      6.27888     -7.44111        -0.021169      0.084892      0.010297
      3.08071      7.66817     -1.74216         0.100770      0.189465      0.025012
      3.04843      6.27888     -7.44111         0.021169      0.084892      0.010297
      6.09513      7.64721     -1.76737         0.000000      0.046623      0.004598
      6.09513      6.26944     -7.44822         0.000000      0.080012      0.031371
      1.52378      9.06426     -4.20519         0.000000     -0.353719     -0.009846
      1.52378      8.00230     -9.59585         0.000000     -0.050882     -0.036115
      4.58188      9.38401     -3.85053         0.039374     -0.105064      0.099889
      4.56658      7.98903     -9.57000        -0.012705     -0.073619     -0.051475
      7.60839      9.38401     -3.85053        -0.039374     -0.105064      0.099889
      7.62369      7.98903     -9.57000         0.012705     -0.073619     -0.051475
      1.52378      6.07845     -4.51109         0.000000     -0.011981      0.025099
      1.52378      4.77721    -10.15418         0.000000     -0.032062      0.007304
      4.58231      6.17967     -4.51427         0.018396     -0.026541      0.045730
      4.57667      4.74077    -10.11920         0.007540     -0.005574     -0.035341
      7.60796      6.17967     -4.51427        -0.018396     -0.026541      0.045730
      7.61360      4.74077    -10.11920        -0.007540     -0.005574     -0.035341
      0.03276     10.92306     -1.22368        -0.127659     -0.007301      0.121727
      9.11551      9.48896     -6.85119        -0.054588     -0.040112     -0.000720
      3.01481     10.92306     -1.22368         0.127659     -0.007301      0.121727
      3.07476      9.48896     -6.85119         0.054588     -0.040112     -0.000720
      6.09513     10.91071     -1.19278         0.000000     -0.023844     -0.006208
      6.09513      9.47900     -6.79249         0.000000      0.023480     -0.002263
      1.52378      1.57424     -1.75159         0.000000      0.095322      0.127272
      1.52378      0.13862     -7.40387         0.000000      0.124430      0.002427
      4.57145      1.55826     -1.77307        -0.023862      0.069571     -0.015377
      4.57558      0.14348     -7.43737        -0.004242      0.092511      0.017010
      7.61882      1.55826     -1.77307         0.023862      0.069571     -0.015377
      7.61469      0.14348     -7.43737         0.004242      0.092511      0.017010
      9.13071      3.25020     -3.88119        -0.022581     -0.108431      0.015072
      0.00186      1.84706     -9.52630        -0.000718     -0.068483     -0.008877
      3.05956      3.25020     -3.88119         0.022581     -0.108431      0.015072
      3.04571      1.84706     -9.52630         0.000718     -0.068483     -0.008877
      6.09513      3.25812     -3.88624         0.000000     -0.057382      0.015143
      6.09513      1.84262     -9.54007         0.000000     -0.052637     -0.003889
      9.09332      0.05830     -4.51178        -0.284127      0.111511     -0.002256
      0.01245     -1.36502    -10.15766        -0.017482     -0.001085      0.050902
      3.09695      0.05830     -4.51178         0.284127      0.111511     -0.002256
      3.03512     -1.36502    -10.15766         0.017482     -0.001085      0.050902
      6.09513      0.05547     -4.52000         0.000000     -0.115007      0.005534
      6.09513     -1.37425    -10.15710         0.000000     -0.009052      0.014819
      1.52378      4.75088     -1.14599         0.000000      0.032832     -0.038111
      1.52378      3.35361     -6.81550         0.000000      0.030156     -0.020933
      4.56857      4.75210     -1.15651         0.026950      0.031005     -0.039874
      4.57176      3.35242     -6.81546         0.011164      0.026860     -0.006393
      7.62170      4.75210     -1.15651        -0.026950      0.031005     -0.039874
      7.61851      3.35242     -6.81546        -0.011164      0.026860     -0.006393
      1.52378     -0.21867     -0.98600         0.000000     -0.256912     -0.330071
      1.52378     10.50686     -6.93757         0.000000     -0.243267     -0.062381
      4.56701     -0.35188     -1.45102         0.008131     -0.149446      0.092273
      4.58466     10.50696     -7.10852        -0.035358     -0.195572      0.127312
      7.62326     -0.35188     -1.45102        -0.008131     -0.149446      0.092273
      7.60561     10.50696     -7.10852         0.035358     -0.195572      0.127312
      9.11870      5.14695     -4.22754         0.075579      0.162071     -0.130973
      0.01171      3.76236     -9.85296        -0.016242      0.175121     -0.121926
      3.07157      5.14695     -4.22754        -0.075579      0.162071     -0.130973
      3.03586      3.76236     -9.85296         0.016242      0.175121     -0.121926
      6.09513      5.15453     -4.24783         0.000000      0.183540     -0.114073
      6.09513      3.74666     -9.81254         0.000000      0.167419     -0.152208
      1.52378      7.44398     -3.20528         0.000000      0.076408     -0.376065
      1.52378      6.10612     -8.83796         0.000000     -0.071545     -0.117373
      4.59893      7.44746     -3.16292         0.018628     -0.096907     -0.143625
      4.57491      6.09963     -8.83921         0.003191     -0.067428     -0.112984
      7.59134      7.44746     -3.16292        -0.018628     -0.096907     -0.143625
      7.61536      6.09963     -8.83921        -0.003191     -0.067428     -0.112984
      8.92727      9.47623     -2.37189        -0.157237     -0.031317      0.187238
      9.14192      8.16303     -8.15956        -0.027122      0.056643      0.160012
      3.26300      9.47623     -2.37189         0.157237     -0.031317      0.187238
      3.04835      8.16303     -8.15956         0.027122      0.056643      0.160012
      6.09513      9.55116     -2.47203         0.000000      0.075390      0.086739
      6.09513      8.17372     -8.14595         0.000000      0.033828      0.141313
      9.01874      8.79832     -5.13397         0.258782      0.488948     -0.068046
      9.13601      7.60611    -10.72346         0.017725      0.430275      0.038532
      3.17153      8.79832     -5.13397        -0.258782      0.488948     -0.068046
      3.05426      7.60611    -10.72346        -0.017725      0.430275      0.038532
      6.09513      8.95240     -5.03134         0.000000      0.454774     -0.116682
      6.09513      7.62896    -10.71760         0.000000      0.423254     -0.041315
      1.52378      8.03478     -0.62645         0.000000     -0.436180      0.126120
      1.52378      6.64865     -6.26886         0.000000     -0.423418      0.082585
      4.60424      7.97584     -0.57495        -0.014900     -0.405138      0.104188
      4.57916      6.63136     -6.29574        -0.003106     -0.395184      0.063612
      7.58603      7.97584     -0.57495         0.014900     -0.405138      0.104188
      7.61111      6.63136     -6.29574         0.003106     -0.395184      0.063612
      0.00529      5.75035     -1.44345        -0.003268     -0.195335      0.153510
      0.00064      4.35858     -7.10435         0.007669     -0.193488      0.127944
      3.04228      5.75035     -1.44345         0.003268     -0.195335      0.153510
      3.04693      4.35858     -7.10435        -0.007669     -0.193488      0.127944
      6.09513      5.73292     -1.43156         0.000000     -0.216161      0.139982
      6.09513      4.35106     -7.10594         0.000000     -0.199998      0.122676
      1.52378     -2.32367     -9.68300         0.000000      0.158380     -0.351084
      4.62174     -0.99283     -4.27958         0.052852      0.252320     -0.082565
      4.56416     -2.36572     -9.87529         0.007772      0.195016     -0.133199
      7.56853     -0.99283     -4.27958        -0.052852      0.252320     -0.082565
      7.62611     -2.36572     -9.87529        -0.007772      0.195016     -0.133199
      9.10476      1.42050     -3.15485        -0.028534      0.094608     -0.066562
      0.00407     -0.04638     -8.81398        -0.009565     -0.014010     -0.089239
      3.08551      1.42050     -3.15485         0.028534      0.094608     -0.066562
      3.04349     -0.04638     -8.81398         0.009565     -0.014010     -0.089239
      6.09513      1.36920     -3.18361         0.000000     -0.024294     -0.141470
      6.09513     -0.04123     -8.83866         0.000000     -0.021932     -0.111859
      1.52378      3.45113     -2.48465         0.000000      0.024335      0.151307
      1.52378      2.02640     -8.13164         0.000000      0.048032      0.130392
      4.59139      3.45028     -2.48896        -0.003757      0.034552      0.126623
      4.56886      2.03414     -8.14586        -0.011351      0.027095      0.125521
      7.59888      3.45028     -2.48896         0.003757      0.034552      0.126623
      7.62141      2.03414     -8.14586         0.011351      0.027095      0.125521
      1.52378      2.87964     -5.03891         0.000000      0.404571     -0.100805
      1.52378      1.46645    -10.68190         0.000000      0.434592     -0.067027
      4.57537      2.84614     -5.04922        -0.002290      0.436219     -0.095071
      4.56601      1.47286    -10.68890         0.006616      0.427028     -0.063307
      7.61490      2.84614     -5.04922         0.002290      0.436219     -0.095071
      7.62426      1.47286    -10.68890        -0.006616      0.427028     -0.063307
      9.12836      2.00470     -0.59528         0.011012     -0.472802      0.108650
      9.12072      0.57532     -6.28609        -0.006090     -0.460107      0.083133
      3.06191      2.00470     -0.59528        -0.011012     -0.472802      0.108650
      3.06955      0.57532     -6.28609         0.006090     -0.460107      0.083133
      6.09513      1.94040     -0.61393         0.000000     -0.442345      0.077451
      6.09513      0.56857     -6.29408         0.000000     -0.453971      0.067572
      1.52378     11.15460     -3.57902         0.000000      0.033677     -0.392683
 -----------------------------------------------------------------------------------
    total drift:                                0.000022      0.075856     -0.106996


--------------------------------------------------------------------------------------------------------



  FREE ENERGIE OF THE ION-ELECTRON SYSTEM (eV)
  ---------------------------------------------------
  free  energy   TOTEN  =      -975.37302748 eV

  energy  without entropy=     -975.37302748  energy(sigma->0) =     -975.37302748
 


--------------------------------------------------------------------------------------------------------


    POTLOK:  cpu time      1.9406: real time      1.9557


--------------------------------------------------------------------------------------------------------


 writing wavefunctions
     LOOP+:  cpu time  17063.7995: real time  17061.7276
    4ORBIT:  cpu time      0.0000: real time      0.0000

 total amount of memory used by VASP MPI-rank0  7512548. kBytes
=======================================================================

   base      :      30000. kBytes
   nonlr-proj:      47173. kBytes
   fftplans  :      51012. kBytes
   grid      :     102973. kBytes
   one-center:       1866. kBytes
   HF        :        194. kBytes
   wavefun   :    7050060. kBytes
   fock_wrk  :     229270. kBytes
 
  
  
 General timing and accounting informations for this job:
 ========================================================
  
                  Total CPU time used (sec):    17095.484
                            User time (sec):    17078.365
                          System time (sec):       17.120
                         Elapsed time (sec):    17094.932
  
                   Maximum memory used (kb):    13333824.
                   Average memory used (kb):          N/A
  
                          Minor page faults:      8267480
                          Major page faults:            4
                 Voluntary context switches:       313705
