 running    4 mpi-ranks, on    1 nodes
 distrk:  each k-point on    1 cores,    4 groups
 distr:  one band on    1 cores,    1 groups
 OpenACC runtime initialized ...    4 GPUs detected
 vasp.6.4.2 20Jul23 (build Nov 12 2023 22:16:35) complex                         
 POSCAR found type information on POSCAR GaO 
 POSCAR found :  2 types and     119 ions
 scaLAPACK will be used selectively (only on CPU)
 LDA part: xc-table for Pade appr. of Perdew
 POSCAR, INCAR and KPOINTS ok, starting setup
 FFT: planning ... GRIDC
 FFT: planning ... GRID_SOFT
 FFT: planning ... GRID
 WAVECAR not read
 initial charge from wavefunction
 entering main loop
       N       E                     dE             d eps       ncg     rms          ort
DAV:   1    -0.182266344024E+05   -0.18227E+05   -0.54543E+05  5000   0.751E+03
DAV:   2    -0.625954856299E+05   -0.44369E+05   -0.42838E+05  5000   0.123E+03
DAV:   3    -0.676695433652E+05   -0.50741E+04   -0.46007E+04  5000   0.378E+02
DAV:   4    -0.684659355026E+05   -0.79639E+03   -0.69290E+03  5000   0.122E+02
DAV:   5    -0.389913736932E+05    0.29475E+05   -0.73343E+02  5000   0.563E+01
 gam= 0.000 g(H,U,f)=  0.802E+05 0.215E+05 0.163E+03 ort(H,U,f) = 0.000E+00 0.000E+00 0.000E+00
SDA:   6     0.306056297030E+05    0.69597E+05   -0.73343E+02  5000   0.102E+06 0.000E+00
 gam= 0.000 trial= 0.400  step= 0.478 mean= 0.400
 gam= 0.425 g(H,U,f)=  0.304E+05 0.108E+05 0.205E+04 ort(H,U,f) =-0.105E+05-0.730E+04-0.192E+04
CGA:   7     0.889452271809E+04   -0.21711E+05   -0.24346E+05  5000   0.433E+05-0.197E+05
 gam= 0.425 trial= 0.404  step= 0.273 mean= 0.404
 gam= 0.420 g(H,U,f)=  0.124E+05 0.568E+04 0.159E+03 ort(H,U,f) = 0.789E+03 0.581E+04 0.287E+03
CGA:   8     0.430918392738E+04   -0.45853E+04   -0.47594E+04  5000   0.182E+05 0.688E+04
 gam= 0.420 trial= 0.397  step= 0.214 mean= 0.397
 gam= 1.129 g(H,U,f)=  0.987E+04 0.939E+04 0.130E+04 ort(H,U,f) = 0.238E+04-0.240E+03 0.398E+03
CGA:   9     0.297488571216E+04   -0.13343E+04   -0.22585E+04  5000   0.206E+05 0.254E+04
 gam= 1.129 trial= 0.388  step= 0.214 mean= 0.388
 gam= 0.300 g(H,U,f)=  0.554E+04 0.618E+03 0.211E+01 ort(H,U,f) = 0.115E+04 0.448E+03 0.658E+00
CGA:  10     0.161835984876E+04   -0.13565E+04   -0.25087E+04  5000   0.616E+04 0.160E+04
 gam= 0.300 trial= 0.379  step= 0.356 mean= 0.379
 gam= 0.437 g(H,U,f)=  0.239E+04 0.273E+03 0.308E+02 ort(H,U,f) = 0.580E+03 0.104E+03-0.486E+02
CGA:  11     0.454720718487E+03   -0.11636E+04   -0.11814E+04  5000   0.269E+04 0.635E+03
 gam= 0.437 trial= 0.378  step= 0.453 mean= 0.378
 gam= 0.431 g(H,U,f)=  0.105E+04 0.107E+03 0.112E+00 ort(H,U,f) = 0.850E+02 0.121E+03-0.350E+00
CGA:  12    -0.231214923184E+03   -0.68594E+03   -0.67245E+03  5000   0.116E+04 0.205E+03
 gam= 0.431 trial= 0.382  step= 0.551 mean= 0.382
 gam= 0.489 g(H,U,f)=  0.487E+03 0.795E+02 0.553E-01 ort(H,U,f) =-0.826E+02 0.116E+03 0.755E-01
CGA:  13    -0.580149181090E+03   -0.34893E+03   -0.34383E+03  5000   0.567E+03 0.330E+02
 gam= 0.489 trial= 0.390  step= 0.652 mean= 0.390
 gam= 0.677 g(H,U,f)=  0.341E+03 0.414E+02 0.142E+01 ort(H,U,f) =-0.126E+03 0.654E+02-0.836E+00
CGA:  14    -0.761833266200E+03   -0.18168E+03   -0.18993E+03  5000   0.384E+03-0.613E+02
 gam= 0.677 trial= 0.404  step= 0.466 mean= 0.404
 gam= 0.494 g(H,U,f)=  0.167E+03 0.202E+02 0.283E+01 ort(H,U,f) =-0.102E+02 0.319E+00 0.446E+01
CGA:  15    -0.841334945777E+03   -0.79502E+02   -0.79749E+02  5000   0.190E+03-0.547E+01
 gam= 0.494 trial= 0.407  step= 0.439 mean= 0.407
 gam= 0.527 g(H,U,f)=  0.833E+02 0.165E+02 0.912E-01 ort(H,U,f) = 0.602E+01-0.785E+01 0.103E+00
CGA:  16    -0.882320564607E+03   -0.40986E+02   -0.41010E+02  5000   0.999E+02-0.173E+01
 gam= 0.527 trial= 0.408  step= 0.477 mean= 0.408
 gam= 0.572 g(H,U,f)=  0.433E+02 0.138E+02 0.820E-02 ort(H,U,f) =-0.158E-01-0.519E-01 0.112E+00
CGA:  17    -0.905967282321E+03   -0.23647E+02   -0.23638E+02  5000   0.572E+02 0.440E-01
 gam= 0.572 trial= 0.412  step= 0.464 mean= 0.412
 gam= 0.596 g(H,U,f)=  0.248E+02 0.928E+01 0.907E-02 ort(H,U,f) =-0.576E+01 0.632E+01-0.343E-01
CGA:  18    -0.919261583167E+03   -0.13294E+02   -0.13275E+02  5000   0.341E+02 0.522E+00
 gam= 0.596 trial= 0.414  step= 0.439 mean= 0.414
 gam= 1.000 g(H,U,f)=  0.190E+02 0.138E+02 0.130E+01 ort(H,U,f) =-0.455E+01-0.582E+01-0.195E+01
CGA:  19    -0.926549437897E+03   -0.72879E+01   -0.75450E+01  5000   0.341E+02-0.123E+02
 gam= 1.000 trial= 0.416  step= 0.203 mean= 0.416
 gam= 1.336 g(H,U,f)=  0.176E+02 0.229E+02 0.499E+01 ort(H,U,f) = 0.177E+01-0.163E+01-0.185E+01
CGA:  20    -0.928444936675E+03   -0.18955E+01   -0.22062E+01  5000   0.456E+02-0.171E+01
 gam= 1.336 trial= 0.405  step= 0.116 mean= 0.405
 gam= 0.480 g(H,U,f)=  0.125E+02 0.897E+01 0.349E+00 ort(H,U,f) = 0.122E+00 0.900E+00-0.293E+00
CGA:  21    -0.930914303054E+03   -0.24694E+01   -0.25030E+01  5000   0.219E+02 0.729E+00
 gam= 0.480 trial= 0.390  step= 0.151 mean= 0.390
 gam= 1.159 g(H,U,f)=  0.879E+01 0.148E+02 0.176E+01 ort(H,U,f) = 0.202E+01-0.245E+01-0.120E+01
CGA:  22    -0.932455260244E+03   -0.15410E+01   -0.16718E+01  5000   0.253E+02-0.162E+01
 gam= 1.159 trial= 0.378  step= 0.094 mean= 0.378
 gam= 0.895 g(H,U,f)=  0.736E+01 0.131E+02 0.220E+01 ort(H,U,f) = 0.150E+01-0.437E+01-0.111E+01
CGA:  23    -0.933378273032E+03   -0.92301E+00   -0.11044E+01  5000   0.227E+02-0.399E+01
 gam= 0.895 trial= 0.364  step= 0.102 mean= 0.364
 gam= 1.027 g(H,U,f)=  0.651E+01 0.153E+02 0.154E+01 ort(H,U,f) = 0.630E+00-0.136E+00-0.521E+00
CGA:  24    -0.934315228474E+03   -0.93696E+00   -0.97802E+00  5000   0.233E+02-0.268E-01
 gam= 1.027 trial= 0.351  step= 0.077 mean= 0.351
 gam= 0.553 g(H,U,f)=  0.559E+01 0.701E+01 0.294E+00 ort(H,U,f) = 0.226E+00-0.344E+00-0.236E+00
CGA:  25    -0.935208876162E+03   -0.89365E+00   -0.89627E+00  5000   0.129E+02-0.354E+00
 gam= 0.553 trial= 0.337  step= 0.119 mean= 0.337
 gam= 0.966 g(H,U,f)=  0.473E+01 0.727E+01 0.448E+00 ort(H,U,f) = 0.153E+01-0.225E+01-0.389E+00
CGA:  26    -0.935835924343E+03   -0.62705E+00   -0.75345E+00  5000   0.124E+02-0.111E+01
 gam= 0.966 trial= 0.327  step= 0.116 mean= 0.327
 gam= 0.858 g(H,U,f)=  0.395E+01 0.625E+01 0.474E+00 ort(H,U,f) = 0.131E+01-0.203E+01-0.273E+00
CGA:  27    -0.936431201397E+03   -0.59528E+00   -0.65731E+00  5000   0.107E+02-0.992E+00
 gam= 0.858 trial= 0.316  step= 0.112 mean= 0.316
 gam= 0.889 g(H,U,f)=  0.353E+01 0.571E+01 0.245E+00 ort(H,U,f) = 0.877E+00-0.152E+01-0.190E-01
CGA:  28    -0.936931729086E+03   -0.50053E+00   -0.54868E+00  5000   0.949E+01-0.663E+00
 gam= 0.889 trial= 0.306  step= 0.115 mean= 0.306
 gam= 0.806 g(H,U,f)=  0.320E+01 0.425E+01 0.199E+00 ort(H,U,f) = 0.354E+00 0.436E+00-0.614E-01
CGA:  29    -0.937497263267E+03   -0.56553E+00   -0.51246E+00  5000   0.765E+01 0.729E+00
 gam= 0.806 trial= 0.296  step= 0.086 mean= 0.296
 gam= 0.878 g(H,U,f)=  0.301E+01 0.346E+01 0.248E+00 ort(H,U,f) = 0.109E+01-0.137E+01-0.264E+00
CGA:  30    -0.937839866941E+03   -0.34260E+00   -0.35416E+00  5000   0.672E+01-0.546E+00
 gam= 0.878 trial= 0.286  step= 0.122 mean= 0.286
 gam= 1.443 g(H,U,f)=  0.268E+01 0.661E+01 0.406E+00 ort(H,U,f) = 0.725E+00-0.121E+01-0.500E-01
CGA:  31    -0.938163380817E+03   -0.32351E+00   -0.38049E+00  5000   0.970E+01-0.539E+00
 gam= 1.443 trial= 0.278  step= 0.050 mean= 0.278
 gam= 0.774 g(H,U,f)=  0.229E+01 0.500E+01 0.213E+00 ort(H,U,f) = 0.587E+00 0.279E+01 0.314E+00
CGA:  32    -0.938486746028E+03   -0.32337E+00   -0.22273E+00  5000   0.750E+01 0.369E+01
 gam= 0.774 trial= 0.266  step= 0.053 mean= 0.266
 gam= 0.673 g(H,U,f)=  0.186E+01 0.309E+01 0.880E-01 ort(H,U,f) = 0.165E+00 0.104E+01-0.463E-01
CGA:  33    -0.938810758867E+03   -0.32401E+00   -0.27657E+00  5000   0.505E+01 0.116E+01
 gam= 0.673 trial= 0.256  step= 0.060 mean= 0.256
 gam= 1.135 g(H,U,f)=  0.161E+01 0.397E+01 0.143E+00 ort(H,U,f) = 0.489E+00-0.532E+00 0.698E-01
CGA:  34    -0.938990162113E+03   -0.17940E+00   -0.17551E+00  5000   0.573E+01 0.268E-01
 gam= 1.135 trial= 0.246  step= 0.044 mean= 0.246
 gam= 1.033 g(H,U,f)=  0.141E+01 0.440E+01 0.115E+00 ort(H,U,f) = 0.727E+00-0.812E+00 0.111E+00
CGA:  35    -0.939124406702E+03   -0.13424E+00   -0.12712E+00  5000   0.592E+01 0.259E-01
 gam= 1.033 trial= 0.236  step= 0.046 mean= 0.236
 gam= 1.142 g(H,U,f)=  0.126E+01 0.515E+01 0.355E+00 ort(H,U,f) = 0.516E+00-0.178E+01-0.424E+00
CGA:  36    -0.939222827795E+03   -0.98421E-01   -0.13554E+00  5000   0.676E+01-0.168E+01
 gam= 1.142 trial= 0.226  step= 0.057 mean= 0.226
 gam= 0.000 g(H,U,f)=  0.124E+01 0.699E+01 0.890E+00 ort(H,U,f) =-0.723E+00-0.109E+01-0.624E+00
SDA:  37    -0.939270738093E+03   -0.47910E-01   -0.13732E+00  5000   0.911E+01-0.243E+01
 gam= 0.000 trial= 0.218  step= 0.125 mean= 0.218
 gam= 0.120 g(H,U,f)=  0.533E+00 0.518E+00 0.386E-01 ort(H,U,f) = 0.550E+00-0.797E+00-0.135E+00
CGA:  38    -0.939804469967E+03   -0.53373E+00   -0.56841E+00  5000   0.109E+01-0.381E+00
 gam= 0.120 trial= 0.213  step= 0.697 mean= 0.213
 gam= 1.658 g(H,U,f)=  0.239E+00 0.144E+01 0.128E+00 ort(H,U,f) = 0.183E+00-0.145E+00-0.292E-01
CGA:  39    -0.940169816661E+03   -0.36535E+00   -0.36401E+00  5000   0.181E+01 0.870E-02
 gam= 1.658 trial= 0.237  step= 0.241 mean= 0.237
 gam= 0.254 g(H,U,f)=  0.155E+00 0.278E+00 0.260E-01 ort(H,U,f) = 0.116E-01 0.442E-02-0.322E-01
CGA:  40    -0.940389422694E+03   -0.21961E+00   -0.21967E+00  5000   0.458E+00-0.161E-01
 gam= 0.254 trial= 0.237  step= 0.459 mean= 0.237
 gam= 0.727 g(H,U,f)=  0.772E-01 0.238E+00 0.177E-01 ort(H,U,f) = 0.442E-01-0.418E-01-0.131E-01
CGA:  41    -0.940492509016E+03   -0.10309E+00   -0.10433E+00  5000   0.333E+00-0.107E-01
 gam= 0.727 trial= 0.249  step= 0.301 mean= 0.249
 gam= 0.486 g(H,U,f)=  0.400E-01 0.113E+00 0.854E-02 ort(H,U,f) = 0.266E-01-0.120E-01-0.703E-02
CGA:  42    -0.940541845345E+03   -0.49336E-01   -0.49034E-01  5000   0.162E+00 0.753E-02
 gam= 0.486 trial= 0.251  step= 0.301 mean= 0.251
 gam= 0.458 g(H,U,f)=  0.210E-01 0.523E-01 0.667E-03 ort(H,U,f) = 0.136E-01-0.119E-01-0.104E-03
CGA:  43    -0.940566812296E+03   -0.24967E-01   -0.24909E-01  5000   0.740E-01 0.157E-02
 gam= 0.458 trial= 0.254  step= 0.247 mean= 0.254
 gam= 0.622 g(H,U,f)=  0.139E-01 0.311E-01 0.107E-02 ort(H,U,f) = 0.133E-01-0.121E-01 0.382E-04
CGA:  44    -0.940576030098E+03   -0.92178E-02   -0.92266E-02  5000   0.460E-01 0.122E-02
 gam= 0.622 trial= 0.253  step= 0.525 mean= 0.253
 gam= 1.000 g(H,U,f)=  0.760E-02 0.291E-01 0.936E-02 ort(H,U,f) = 0.132E-02 0.503E-03-0.676E-03
CGA:  45    -0.940588468166E+03   -0.12438E-01   -0.12285E-01  5000   0.460E-01 0.114E-02
 gam= 1.000 trial= 0.267  step= 0.240 mean= 0.267
 gam= 0.473 g(H,U,f)=  0.678E-02 0.129E-01 0.210E-02 ort(H,U,f) =-0.140E-02 0.246E-02-0.105E-02
CGA:  46    -0.940594125107E+03   -0.56569E-02   -0.56568E-02  5000   0.218E-01 0.754E-05
 gam= 0.473 trial= 0.266  step= 0.908 mean= 0.266
 gam= 1.185 g(H,U,f)=  0.648E-02 0.155E-01 0.384E-02 ort(H,U,f) =-0.448E-02 0.384E-02 0.110E-02
CGA:  47    -0.940604117831E+03   -0.99927E-02   -0.98875E-02  5000   0.258E-01 0.457E-03
 gam= 1.185 trial= 0.298  step= 0.322 mean= 0.298
 gam= 0.881 g(H,U,f)=  0.691E-02 0.149E-01 0.937E-03 ort(H,U,f) =-0.281E-02 0.332E-02-0.416E-03
CGA:  48    -0.940608364645E+03   -0.42468E-02   -0.42449E-02  5000   0.227E-01 0.969E-04
 gam= 0.881 trial= 0.299  step= 0.616 mean= 0.299
 gam= 0.724 g(H,U,f)=  0.550E-02 0.963E-02 0.133E-02 ort(H,U,f) =-0.374E-02 0.325E-02 0.117E-02
CGA:  49    -0.940615497181E+03   -0.71325E-02   -0.70274E-02  5000   0.165E-01 0.680E-03
 gam= 0.724 trial= 0.315  step= 0.440 mean= 0.315
 gam= 0.741 g(H,U,f)=  0.474E-02 0.740E-02 0.477E-04 ort(H,U,f) =-0.812E-03 0.210E-02 0.299E-03
CGA:  50    -0.940619350748E+03   -0.38536E-02   -0.37249E-02  5000   0.122E-01 0.158E-02
 gam= 0.741 trial= 0.321  step= 0.443 mean= 0.321
 gam= 0.985 g(H,U,f)=  0.326E-02 0.854E-02 0.209E-03 ort(H,U,f) = 0.263E-03-0.813E-03 0.487E-03
CGA:  51    -0.940622305800E+03   -0.29551E-02   -0.29598E-02  5000   0.120E-01-0.624E-04
 gam= 0.985 trial= 0.327  step= 0.419 mean= 0.327
 gam= 0.596 g(H,U,f)=  0.299E-02 0.406E-02 0.105E-03 ort(H,U,f) =-0.574E-03 0.329E-03 0.412E-03
CGA:  52    -0.940624819364E+03   -0.25136E-02   -0.25031E-02  5000   0.716E-02 0.167E-03
 gam= 0.596 trial= 0.332  step= 0.597 mean= 0.332
 gam= 0.593 g(H,U,f)=  0.182E-02 0.231E-02 0.116E-03 ort(H,U,f) =-0.313E-03 0.207E-03 0.292E-03
CGA:  53    -0.940627012043E+03   -0.21927E-02   -0.21661E-02  5000   0.424E-02 0.185E-03
 gam= 0.593 trial= 0.345  step= 0.716 mean= 0.345
 gam= 1.201 g(H,U,f)=  0.139E-02 0.370E-02 0.558E-05 ort(H,U,f) =-0.298E-04-0.148E-03 0.398E-04
CGA:  54    -0.940628545591E+03   -0.15335E-02   -0.15587E-02  5000   0.510E-02-0.138E-03
 gam= 1.201 trial= 0.364  step= 0.427 mean= 0.364
 gam= 0.735 g(H,U,f)=  0.126E-02 0.239E-02 0.887E-04 ort(H,U,f) =-0.288E-03 0.805E-04 0.274E-03
CGA:  55    -0.940629600761E+03   -0.10552E-02   -0.10519E-02  5000   0.374E-02 0.665E-04
 gam= 0.735 trial= 0.367  step= 0.468 mean= 0.367
 gam= 0.750 g(H,U,f)=  0.977E-03 0.182E-02 0.117E-04 ort(H,U,f) =-0.171E-03 0.590E-04 0.829E-04
CGA:  56    -0.940630485906E+03   -0.88514E-03   -0.88710E-03  5000   0.281E-02-0.289E-04
 gam= 0.750 trial= 0.372  step= 0.564 mean= 0.372
 gam= 0.594 g(H,U,f)=  0.807E-03 0.861E-03 0.225E-05 ort(H,U,f) =-0.235E-03 0.195E-03 0.307E-04
CGA:  57    -0.940631270252E+03   -0.78435E-03   -0.78521E-03  5000   0.167E-02-0.915E-05
 gam= 0.594 trial= 0.381  step= 0.764 mean= 0.381
 gam= 0.624 g(H,U,f)=  0.541E-03 0.494E-03 0.823E-05 ort(H,U,f) =-0.155E-03 0.128E-03 0.341E-04
CGA:  58    -0.940631907743E+03   -0.63749E-03   -0.63593E-03  5000   0.104E-02 0.755E-05
 gam= 0.624 trial= 0.401  step= 0.581 mean= 0.401
 gam= 1.344 g(H,U,f)=  0.340E-03 0.105E-02 0.884E-05 ort(H,U,f) = 0.699E-04-0.450E-04-0.318E-04
CGA:  59    -0.940632210999E+03   -0.30326E-03   -0.30400E-03  5000   0.140E-02-0.697E-05
 gam= 1.344 trial= 0.410  step= 0.367 mean= 0.410
 gam= 0.411 g(H,U,f)=  0.290E-03 0.285E-03 0.469E-06 ort(H,U,f) =-0.948E-04 0.983E-04 0.580E-05
CGA:  60    -0.940632465725E+03   -0.25473E-03   -0.25518E-03  5000   0.576E-03 0.928E-05
 gam= 0.411 trial= 0.407  step= 0.602 mean= 0.407
 gam= 0.926 g(H,U,f)=  0.179E-03 0.353E-03 0.135E-05 ort(H,U,f) = 0.263E-04-0.217E-04-0.220E-05
CGA:  61    -0.940632640314E+03   -0.17459E-03   -0.17439E-03  5000   0.533E-03 0.239E-05
 gam= 0.926 trial= 0.417  step= 0.543 mean= 0.417
 gam= 0.567 g(H,U,f)=  0.153E-03 0.147E-03 0.196E-05 ort(H,U,f) =-0.283E-04 0.400E-04-0.548E-05
CGA:  62    -0.940632786241E+03   -0.14593E-03   -0.14549E-03  5000   0.303E-03 0.621E-05
 gam= 0.567 trial= 0.423  step= 0.534 mean= 0.423
 gam= 1.115 g(H,U,f)=  0.961E-04 0.241E-03 0.145E-06 ort(H,U,f) = 0.189E-04-0.149E-04-0.499E-06
CGA:  63    -0.940632868168E+03   -0.81927E-04   -0.81702E-04  5000   0.337E-03 0.347E-05
 gam= 1.115 trial= 0.429  step= 0.348 mean= 0.429
 gam= 0.503 g(H,U,f)=  0.881E-04 0.798E-04 0.191E-05 ort(H,U,f) =-0.564E-05 0.785E-05-0.123E-05
CGA:  64    -0.940632927486E+03   -0.59318E-04   -0.59337E-04  5000   0.170E-03 0.983E-06
 gam= 0.503 trial= 0.425  step= 0.665 mean= 0.425
 gam= 0.584 g(H,U,f)=  0.578E-04 0.403E-04 0.114E-05 ort(H,U,f) =-0.102E-04 0.101E-04 0.756E-06
CGA:  65    -0.940632984204E+03   -0.56719E-04   -0.56628E-04  5000   0.992E-04 0.711E-06
 gam= 0.584 trial= 0.437  step= 0.774 mean= 0.437
 gam= 0.987 g(H,U,f)=  0.377E-04 0.602E-04 0.720E-07 ort(H,U,f) =-0.467E-05 0.538E-05-0.102E-06
CGA:  66    -0.940633022862E+03   -0.38658E-04   -0.38554E-04  5000   0.980E-04 0.612E-06
 gam= 0.987 trial= 0.454  step= 0.375 mean= 0.454
 gam= 0.762 g(H,U,f)=  0.284E-04 0.442E-04 0.202E-05 ort(H,U,f) = 0.129E-05-0.308E-05 0.214E-05
CGA:  67    -0.940633041351E+03   -0.18489E-04   -0.18494E-04  5000   0.746E-04 0.343E-06
 gam= 0.762 trial= 0.450  step= 0.565 mean= 0.450
 gam= 0.000 g(H,U,f)=  0.225E-04 0.349E-04 0.243E-06 ort(H,U,f) =-0.696E-05 0.634E-05 0.987E-06
SDA:  68    -0.940633062552E+03   -0.21200E-04   -0.21177E-04  5000   0.576E-04 0.362E-06
 gam= 0.000 trial= 0.456  step= 0.330 mean= 0.456
 gam= 0.632 g(H,U,f)=  0.102E-04 0.252E-04 0.100E-05 ort(H,U,f) = 0.101E-04-0.109E-04 0.376E-06
CGA:  69    -0.940633072103E+03   -0.95518E-05   -0.95228E-05  5000   0.364E-04-0.486E-06
 gam= 0.632 trial= 0.449  step= 0.712 mean= 0.449
 gam= 1.355 g(H,U,f)=  0.142E-04 0.351E-04 0.202E-07 ort(H,U,f) =-0.248E-05 0.120E-05-0.126E-08
CGA:  70    -0.940633084787E+03   -0.12684E-04   -0.12851E-04  5000   0.493E-04-0.127E-05
 gam= 1.355 trial= 0.462  step= 0.388 mean= 0.462
 gam= 0.543 g(H,U,f)=  0.140E-04 0.124E-04 0.428E-06 ort(H,U,f) =-0.325E-05 0.151E-05 0.105E-05
CGA:  71    -0.940633094058E+03   -0.92703E-05   -0.92449E-05  5000   0.268E-04-0.694E-06
 gam= 0.543 trial= 0.459  step= 0.692 mean= 0.459
 final diagonalization
   1 F= -.94063309E+03 E0= -.94062524E+03  d E =-.157093E-01
 writing wavefunctions
Warning: ieee_invalid is signaling
Warning: ieee_divide_by_zero is signaling
Warning: ieee_underflow is signaling
Warning: ieee_inexact is signaling
FORTRAN STOP
Warning: ieee_invalid is signaling
Warning: ieee_divide_by_zero is signaling
Warning: ieee_underflow is signaling
Warning: ieee_inexact is signaling
FORTRAN STOP
Warning: ieee_invalid is signaling
Warning: ieee_divide_by_zero is signaling
Warning: ieee_underflow is signaling
Warning: ieee_inexact is signaling
FORTRAN STOP
Warning: ieee_invalid is signaling
Warning: ieee_divide_by_zero is signaling
Warning: ieee_underflow is signaling
Warning: ieee_inexact is signaling
FORTRAN STOP
