       N       E                     dE             d eps       ncg     rms          ort
DAV:   1    -0.182266344024E+05   -0.18227E+05   -0.54543E+05  5000   0.751E+03
DAV:   2    -0.625954856299E+05   -0.44369E+05   -0.42838E+05  5000   0.123E+03
DAV:   3    -0.676695433652E+05   -0.50741E+04   -0.46007E+04  5000   0.378E+02
DAV:   4    -0.684659355026E+05   -0.79639E+03   -0.69290E+03  5000   0.122E+02
DAV:   5    -0.389913736932E+05    0.29475E+05   -0.73343E+02  5000   0.563E+01
SDA:   6     0.306056297030E+05    0.69597E+05   -0.73343E+02  5000   0.102E+06 0.000E+00
CGA:   7     0.889452271809E+04   -0.21711E+05   -0.24346E+05  5000   0.433E+05-0.197E+05
CGA:   8     0.430918392738E+04   -0.45853E+04   -0.47594E+04  5000   0.182E+05 0.688E+04
CGA:   9     0.297488571216E+04   -0.13343E+04   -0.22585E+04  5000   0.206E+05 0.254E+04
CGA:  10     0.161835984876E+04   -0.13565E+04   -0.25087E+04  5000   0.616E+04 0.160E+04
CGA:  11     0.454720718487E+03   -0.11636E+04   -0.11814E+04  5000   0.269E+04 0.635E+03
CGA:  12    -0.231214923184E+03   -0.68594E+03   -0.67245E+03  5000   0.116E+04 0.205E+03
CGA:  13    -0.580149181090E+03   -0.34893E+03   -0.34383E+03  5000   0.567E+03 0.330E+02
CGA:  14    -0.761833266200E+03   -0.18168E+03   -0.18993E+03  5000   0.384E+03-0.613E+02
CGA:  15    -0.841334945777E+03   -0.79502E+02   -0.79749E+02  5000   0.190E+03-0.547E+01
CGA:  16    -0.882320564607E+03   -0.40986E+02   -0.41010E+02  5000   0.999E+02-0.173E+01
CGA:  17    -0.905967282321E+03   -0.23647E+02   -0.23638E+02  5000   0.572E+02 0.440E-01
CGA:  18    -0.919261583167E+03   -0.13294E+02   -0.13275E+02  5000   0.341E+02 0.522E+00
CGA:  19    -0.926549437897E+03   -0.72879E+01   -0.75450E+01  5000   0.341E+02-0.123E+02
CGA:  20    -0.928444936675E+03   -0.18955E+01   -0.22062E+01  5000   0.456E+02-0.171E+01
CGA:  21    -0.930914303054E+03   -0.24694E+01   -0.25030E+01  5000   0.219E+02 0.729E+00
CGA:  22    -0.932455260244E+03   -0.15410E+01   -0.16718E+01  5000   0.253E+02-0.162E+01
CGA:  23    -0.933378273032E+03   -0.92301E+00   -0.11044E+01  5000   0.227E+02-0.399E+01
CGA:  24    -0.934315228474E+03   -0.93696E+00   -0.97802E+00  5000   0.233E+02-0.268E-01
CGA:  25    -0.935208876162E+03   -0.89365E+00   -0.89627E+00  5000   0.129E+02-0.354E+00
CGA:  26    -0.935835924343E+03   -0.62705E+00   -0.75345E+00  5000   0.124E+02-0.111E+01
CGA:  27    -0.936431201397E+03   -0.59528E+00   -0.65731E+00  5000   0.107E+02-0.992E+00
CGA:  28    -0.936931729086E+03   -0.50053E+00   -0.54868E+00  5000   0.949E+01-0.663E+00
CGA:  29    -0.937497263267E+03   -0.56553E+00   -0.51246E+00  5000   0.765E+01 0.729E+00
CGA:  30    -0.937839866941E+03   -0.34260E+00   -0.35416E+00  5000   0.672E+01-0.546E+00
CGA:  31    -0.938163380817E+03   -0.32351E+00   -0.38049E+00  5000   0.970E+01-0.539E+00
CGA:  32    -0.938486746028E+03   -0.32337E+00   -0.22273E+00  5000   0.750E+01 0.369E+01
CGA:  33    -0.938810758867E+03   -0.32401E+00   -0.27657E+00  5000   0.505E+01 0.116E+01
CGA:  34    -0.938990162113E+03   -0.17940E+00   -0.17551E+00  5000   0.573E+01 0.268E-01
CGA:  35    -0.939124406702E+03   -0.13424E+00   -0.12712E+00  5000   0.592E+01 0.259E-01
CGA:  36    -0.939222827795E+03   -0.98421E-01   -0.13554E+00  5000   0.676E+01-0.168E+01
SDA:  37    -0.939270738093E+03   -0.47910E-01   -0.13732E+00  5000   0.911E+01-0.243E+01
CGA:  38    -0.939804469967E+03   -0.53373E+00   -0.56841E+00  5000   0.109E+01-0.381E+00
CGA:  39    -0.940169816661E+03   -0.36535E+00   -0.36401E+00  5000   0.181E+01 0.870E-02
CGA:  40    -0.940389422694E+03   -0.21961E+00   -0.21967E+00  5000   0.458E+00-0.161E-01
CGA:  41    -0.940492509016E+03   -0.10309E+00   -0.10433E+00  5000   0.333E+00-0.107E-01
CGA:  42    -0.940541845345E+03   -0.49336E-01   -0.49034E-01  5000   0.162E+00 0.753E-02
CGA:  43    -0.940566812296E+03   -0.24967E-01   -0.24909E-01  5000   0.740E-01 0.157E-02
CGA:  44    -0.940576030098E+03   -0.92178E-02   -0.92266E-02  5000   0.460E-01 0.122E-02
CGA:  45    -0.940588468166E+03   -0.12438E-01   -0.12285E-01  5000   0.460E-01 0.114E-02
CGA:  46    -0.940594125107E+03   -0.56569E-02   -0.56568E-02  5000   0.218E-01 0.754E-05
CGA:  47    -0.940604117831E+03   -0.99927E-02   -0.98875E-02  5000   0.258E-01 0.457E-03
CGA:  48    -0.940608364645E+03   -0.42468E-02   -0.42449E-02  5000   0.227E-01 0.969E-04
CGA:  49    -0.940615497181E+03   -0.71325E-02   -0.70274E-02  5000   0.165E-01 0.680E-03
CGA:  50    -0.940619350748E+03   -0.38536E-02   -0.37249E-02  5000   0.122E-01 0.158E-02
CGA:  51    -0.940622305800E+03   -0.29551E-02   -0.29598E-02  5000   0.120E-01-0.624E-04
CGA:  52    -0.940624819364E+03   -0.25136E-02   -0.25031E-02  5000   0.716E-02 0.167E-03
CGA:  53    -0.940627012043E+03   -0.21927E-02   -0.21661E-02  5000   0.424E-02 0.185E-03
CGA:  54    -0.940628545591E+03   -0.15335E-02   -0.15587E-02  5000   0.510E-02-0.138E-03
CGA:  55    -0.940629600761E+03   -0.10552E-02   -0.10519E-02  5000   0.374E-02 0.665E-04
CGA:  56    -0.940630485906E+03   -0.88514E-03   -0.88710E-03  5000   0.281E-02-0.289E-04
CGA:  57    -0.940631270252E+03   -0.78435E-03   -0.78521E-03  5000   0.167E-02-0.915E-05
CGA:  58    -0.940631907743E+03   -0.63749E-03   -0.63593E-03  5000   0.104E-02 0.755E-05
CGA:  59    -0.940632210999E+03   -0.30326E-03   -0.30400E-03  5000   0.140E-02-0.697E-05
CGA:  60    -0.940632465725E+03   -0.25473E-03   -0.25518E-03  5000   0.576E-03 0.928E-05
CGA:  61    -0.940632640314E+03   -0.17459E-03   -0.17439E-03  5000   0.533E-03 0.239E-05
CGA:  62    -0.940632786241E+03   -0.14593E-03   -0.14549E-03  5000   0.303E-03 0.621E-05
CGA:  63    -0.940632868168E+03   -0.81927E-04   -0.81702E-04  5000   0.337E-03 0.347E-05
CGA:  64    -0.940632927486E+03   -0.59318E-04   -0.59337E-04  5000   0.170E-03 0.983E-06
CGA:  65    -0.940632984204E+03   -0.56719E-04   -0.56628E-04  5000   0.992E-04 0.711E-06
CGA:  66    -0.940633022862E+03   -0.38658E-04   -0.38554E-04  5000   0.980E-04 0.612E-06
CGA:  67    -0.940633041351E+03   -0.18489E-04   -0.18494E-04  5000   0.746E-04 0.343E-06
SDA:  68    -0.940633062552E+03   -0.21200E-04   -0.21177E-04  5000   0.576E-04 0.362E-06
CGA:  69    -0.940633072103E+03   -0.95518E-05   -0.95228E-05  5000   0.364E-04-0.486E-06
CGA:  70    -0.940633084787E+03   -0.12684E-04   -0.12851E-04  5000   0.493E-04-0.127E-05
CGA:  71    -0.940633094058E+03   -0.92703E-05   -0.92449E-05  5000   0.268E-04-0.694E-06
   1 F= -.94063309E+03 E0= -.94062524E+03  d E =-.157093E-01
