 vasp.6.4.2 20Jul23 (build Nov 12 2023 22:16:35) complex                         
 executed on              LinuxNV date 2025.03.14  23:28:26
 running    4 mpi-ranks, on    1 nodes
 distrk:  each k-point on    1 cores,    4 groups
 distr:  one band on NCORE=   1 cores,    1 groups
 OpenACC runtime initialized ...    4 GPUs detected


--------------------------------------------------------------------------------------------------------


 INCAR:
   PREC = Normal
   ENCUT = 450
   NELM = 500
   IBRION = -1
   ISPIN = 1
   NSW = 0
   ISIF = 2
   EDIFF = 1E-5
   EDIFFG = -5E-3
   ISTART = 0
   ICHARG = 0
   ISMEAR = 0
   SIGMA = 0.05
   LWAVE = .T.
   LCHARG = .T.
   LREAL = Auto
   LPLANE = .TRUE.
   NPAR = 1
   KPAR = 4
   NCORE = 1
   ALGO = All
   LHFCALC = .TRUE.
   HSE06 = .TRUE.
   HFSCREEN = 0.2
   TIME = 0.4
   AEXX = 0.32
   LMAXFOCK = 4
   PRECFOCK = Fast

 POTCAR:    PAW_PBE Ga_d 06Jul2010                
 POTCAR:    PAW_PBE O 08Apr2002                   
 POTCAR:    PAW_PBE Ga_d 06Jul2010                
   SHA256 =  a60ddf36e14f00ea098d9e3914b3745f1b7105e68786148f49ae384e44b4226c Ga_d/POTCAR           
   COPYR  = (c) Copyright 06Jul2010 Georg Kresse                                                    
   COPYR  = This file is part of the software VASP. Any use, copying, and all other rights are regul
   COPYR  = If you do not have a valid VASP license, you may not use, copy or distribute this file. 
   VRHFIN =Ga: s2p1                                                                                 
   LEXCH  = PE                                                                                      
   EATOM  =  2148.8298 eV,  157.9345 Ry                                                             
                                                                                                    
   TITEL  = PAW_PBE Ga_d 06Jul2010                                                                  
   LULTRA =        F    use ultrasoft PP ?                                                          
   IUNSCR =        1    unscreen: 0-lin 1-nonlin 2-no                                               
   RPACOR =    1.700    partial core radius                                                         
   POMASS =   69.723; ZVAL   =   13.000    mass and valenz                                          
   RCORE  =    2.300    outmost cutoff radius                                                       
   RWIGS  =    2.300; RWIGS  =    1.217    wigner-seitz radius (au A)                               
   ENMAX  =  282.691; ENMIN  =  212.018 eV                                                          
   ICORE  =        3    local potential                                                             
   LCOR   =        T    correct aug charges                                                         
   LPAW   =        T    paw PP                                                                      
   EAUG   =  490.690                                                                                
   DEXC   =    0.000                                                                                
   RMAX   =    2.341    core radius for proj-oper                                                   
   RAUG   =    1.300    factor for augmentation sphere                                              
   RDEP   =    2.413    radius for radial grids                                                     
   RDEPT  =    1.856    core radius for aug-charge                                                  
                                                                                                    
   Atomic configuration                                                                             
    9 entries                                                                                       
     n  l   j            E        occ.                                                              
     1  0  0.50    -10228.7831   2.0000                                                             
     2  0  0.50     -1262.1604   2.0000                                                             
     2  1  1.50     -1098.6333   6.0000                                                             
     3  0  0.50      -148.1110   2.0000                                                             
     3  1  1.50       -98.8436   6.0000                                                             
     3  2  2.50       -19.1549  10.0000                                                             
     4  0  0.50        -8.9483   2.0000                                                             
     4  1  0.50        -2.5791   1.0000                                                             
     4  3  2.50        -2.7416   0.0000                                                             
   Description                                                                                      
     l       E           TYP  RCUT    TYP  RCUT                                                     
     2    -19.1549037     23  2.300                                                                 
     2     -5.4423304     23  2.300                                                                 
     0     -8.9483111     23  2.300                                                                 
     0     68.0291300     23  2.300                                                                 
     1     -2.5790802     23  2.100                                                                 
     1     81.6349560     23  2.300                                                                 
     3      6.8029130     23  2.300                                                                 
  local pseudopotential read in
  partial core-charges read in
  partial kinetic energy density read in
  atomic valenz-charges read in
  non local Contribution for L=            2  read in
    real space projection operators read in
  non local Contribution for L=            2  read in
    real space projection operators read in
  non local Contribution for L=            0  read in
    real space projection operators read in
  non local Contribution for L=            0  read in
    real space projection operators read in
  non local Contribution for L=            1  read in
    real space projection operators read in
  non local Contribution for L=            1  read in
    real space projection operators read in
    PAW grid and wavefunctions read in
 
   number of l-projection  operators is LMAX  =            6
   number of lm-projection operators is LMMAX =           18
 
 POTCAR:    PAW_PBE O 08Apr2002                   
   SHA256 =  818f92134a0a090dccd8ba1447fa70422a3b330e708bb4f08108d8ae51209ddf O/POTCAR              
   COPYR  = (c) Copyright 08Apr2002 Georg Kresse                                                    
   COPYR  = This file is part of the software VASP. Any use, copying, and all other rights are regul
   COPYR  = If you do not have a valid VASP license, you may not use, copy or distribute this file. 
   VRHFIN =O: s2p4                                                                                  
   LEXCH  = PE                                                                                      
   EATOM  =   432.3788 eV,   31.7789 Ry                                                             
                                                                                                    
   TITEL  = PAW_PBE O 08Apr2002                                                                     
   LULTRA =        F    use ultrasoft PP ?                                                          
   IUNSCR =        1    unscreen: 0-lin 1-nonlin 2-no                                               
   RPACOR =    1.200    partial core radius                                                         
   POMASS =   16.000; ZVAL   =    6.000    mass and valenz                                          
   RCORE  =    1.520    outmost cutoff radius                                                       
   RWIGS  =    1.550; RWIGS  =    0.820    wigner-seitz radius (au A)                               
   ENMAX  =  400.000; ENMIN  =  300.000 eV                                                          
   ICORE  =        2    local potential                                                             
   LCOR   =        T    correct aug charges                                                         
   LPAW   =        T    paw PP                                                                      
   EAUG   =  605.392                                                                                
   DEXC   =    0.000                                                                                
   RMAX   =    1.553    core radius for proj-oper                                                   
   RAUG   =    1.300    factor for augmentation sphere                                              
   RDEP   =    1.550    radius for radial grids                                                     
   RDEPT  =    1.329    core radius for aug-charge                                                  
                                                                                                    
   Atomic configuration                                                                             
    4 entries                                                                                       
     n  l   j            E        occ.                                                              
     1  0  0.50      -514.6923   2.0000                                                             
     2  0  0.50       -23.9615   2.0000                                                             
     2  1  0.50        -9.0305   4.0000                                                             
     3  2  1.50        -9.5241   0.0000                                                             
   Description                                                                                      
     l       E           TYP  RCUT    TYP  RCUT                                                     
     0    -23.9615318     23  1.200                                                                 
     0     -9.5240782     23  1.200                                                                 
     1     -9.0304911     23  1.520                                                                 
     1      8.1634956     23  1.520                                                                 
     2     -9.5240782      7  1.500                                                                 
  local pseudopotential read in
  partial core-charges read in
  partial kinetic energy density read in
  kinetic energy density of atom read in
  atomic valenz-charges read in
  non local Contribution for L=            0  read in
    real space projection operators read in
  non local Contribution for L=            0  read in
    real space projection operators read in
  non local Contribution for L=            1  read in
    real space projection operators read in
  non local Contribution for L=            1  read in
    real space projection operators read in
    PAW grid and wavefunctions read in
 
   number of l-projection  operators is LMAX  =            4
   number of lm-projection operators is LMMAX =            8
 
 Optimization of the real space projectors (new method)

 maximal supplied QI-value         = 16.25
 optimisation between [QCUT,QGAM] = [ 10.73, 21.61] = [ 32.22,130.83] Ry 
 Optimized for a Real-space Cutoff    1.42 Angstroem

   l    n(q)    QCUT    max X(q) W(low)/X(q) W(high)/X(q)  e(spline) 
   2      8    10.726     7.143    0.22E-03    0.16E-03    0.73E-07
   2      8    10.726     5.586    0.40E-03    0.26E-03    0.10E-06
   0      9    10.726    12.382    0.25E-04    0.21E-05    0.37E-07
   0      9    10.726     6.622    0.42E-04    0.48E-05    0.77E-07
   1      9    10.726     7.935    0.27E-03    0.13E-04    0.16E-06
   1      9    10.726     2.425    0.23E-03    0.15E-04    0.14E-06
 Optimization of the real space projectors (new method)

 maximal supplied QI-value         = 24.76
 optimisation between [QCUT,QGAM] = [ 10.64, 21.54] = [ 31.73,129.89] Ry 
 Optimized for a Real-space Cutoff    1.23 Angstroem

   l    n(q)    QCUT    max X(q) W(low)/X(q) W(high)/X(q)  e(spline) 
   0      8    10.645    20.381    0.38E-03    0.60E-03    0.15E-06
   0      8    10.645    15.268    0.40E-03    0.65E-03    0.17E-06
   1      7    10.645     5.964    0.30E-03    0.63E-03    0.18E-06
   1      7    10.645     5.382    0.24E-03    0.53E-03    0.16E-06
  PAW_PBE Ga_d 06Jul2010                :
 energy of atom  1       EATOM=-2148.8298
 kinetic energy error for atom=    0.0038 (will be added to EATOM!!)
  PAW_PBE O 08Apr2002                   :
 energy of atom  2       EATOM= -432.3788
 kinetic energy error for atom=    0.0389 (will be added to EATOM!!)
 
 
 POSCAR: Ga47 O72
  positions in direct lattice
  velocities in cartesian coordinates
 exchange correlation table for  LEXCH =        8
   RHO(1)=    0.500       N(1)  =     2000
   RHO(2)=  100.500       N(2)  =     4000
 


--------------------------------------------------------------------------------------------------------


 ion  position               nearest neighbor table
   1  0.661  0.000  0.158-  84 1.93  82 1.96  78 1.96  66 2.02  60 2.07  64 2.08
   2  0.658  0.000  0.655-  85 1.94  79 1.95  83 1.95  67 2.03  65 2.08  61 2.08
   3  0.662  0.333  0.158-  80 1.95  78 1.95  86 1.96  68 2.02  62 2.07  60 2.07
   4  0.658  0.333  0.655-  81 1.95  79 1.95  87 1.96  69 2.03  63 2.07  61 2.07
   5  0.661  0.667  0.158-  88 1.93  82 1.96  80 1.96  70 2.02  62 2.07  64 2.08
   6  0.658  0.666  0.655-  89 1.94  81 1.95  83 1.95  71 2.03  65 2.08  63 2.08
   7  0.843  0.167  0.344-  90 1.94  74 1.95  72 1.95  60 2.03  68 2.08  66 2.08
   8  0.840  0.167  0.843-  91 1.94  75 1.95  73 1.96  61 2.02  69 2.07  67 2.08
   9  0.843  0.500  0.344-  92 1.94  74 1.95  76 1.95  62 2.03  68 2.08  70 2.08
  10  0.840  0.499  0.843-  93 1.94  75 1.95  77 1.96  63 2.02  69 2.07  71 2.08
  11  0.842  0.833  0.344-  94 1.94  72 1.95  76 1.95  64 2.02  66 2.08  70 2.08
  12  0.840  0.833  0.842-  95 1.94  73 1.96  77 1.96  65 2.01  67 2.08  71 2.08
  13  0.589  0.170  0.396-  56 1.83  54 1.85  79 1.85  60 1.89
  14  0.592  0.166  0.898-  78 1.84  55 1.85  57 1.85  61 1.87
  15  0.589  0.496  0.396-  56 1.83  58 1.85  81 1.85  62 1.89
  16  0.592  0.500  0.898-  80 1.84  59 1.85  57 1.85  63 1.87
  17  0.590  0.833  0.397-  83 1.84  54 1.85  58 1.85  64 1.88
  18  0.593  0.833  0.899-  82 1.84  55 1.85  59 1.85  65 1.87
  19  0.909  0.000  0.102-  52 1.84  48 1.84  73 1.85  66 1.87
  20  0.910  0.000  0.603-  72 1.84  49 1.85  53 1.85  67 1.87
  21  0.911  0.333  0.103-  50 1.84  48 1.84  75 1.85  68 1.88
  22  0.910  0.333  0.603-  74 1.84  51 1.85  49 1.85  69 1.87
  23  0.909  0.666  0.102-  52 1.84  50 1.84  77 1.85  70 1.87
  24  0.910  0.667  0.603-  76 1.84  51 1.85  53 1.85  71 1.87
  25  0.163  0.170  0.161- 102 1.94  98 1.96 116 1.97  48 1.98 114 2.00  96 2.08
  26  0.160  0.167  0.658- 117 1.95  49 1.95 115 1.96 103 2.02  99 2.07  97 2.08
  27  0.163  0.497  0.161- 104 1.94  98 1.96 116 1.97  50 1.98 118 2.00 100 2.08
  28  0.160  0.500  0.658- 117 1.95  51 1.95 119 1.96 105 2.02  99 2.07 101 2.08
  29  0.158  0.833  0.158-  52 1.95 114 1.96 118 1.96 106 2.03  96 2.03 100 2.03
  30  0.160  0.833  0.660-  53 1.95 115 1.95 119 1.95 107 2.02  97 2.07 101 2.07
  31  0.340  0.004  0.341- 108 1.92 102 1.96  54 1.96 112 1.98  96 2.05 106 2.09
  32  0.343  0.000  0.844-  55 1.94 109 1.95 113 1.95  97 2.03 103 2.07 107 2.08
  33  0.342  0.333  0.844-  57 1.95 111 1.95 109 1.95  99 2.02 105 2.07 103 2.07
  34  0.340  0.663  0.341- 110 1.92 104 1.96  58 1.96 112 1.98 100 2.05 106 2.09
  35  0.343  0.667  0.844-  59 1.94 111 1.95 113 1.95 101 2.03 105 2.07 107 2.08
  36  0.092  0.001  0.398-  90 1.85 115 1.85  94 1.85  96 1.86
  37  0.090  0.000  0.897- 114 1.83  91 1.85  95 1.85  97 1.87
  38  0.099  0.333  0.397-  98 1.82 117 1.84  92 1.87  90 1.87
  39  0.091  0.333  0.898- 116 1.83  93 1.85  91 1.85  99 1.87
  40  0.092  0.666  0.398-  92 1.85 119 1.85  94 1.85 100 1.86
  41  0.090  0.666  0.897- 118 1.83  93 1.85  95 1.85 101 1.87
  42  0.410  0.166  0.105- 102 1.83 109 1.85  86 1.86  84 1.86
  43  0.406  0.166  0.598- 108 1.82  87 1.85  85 1.86 103 1.89
  44  0.410  0.501  0.105- 104 1.83 111 1.85  86 1.86  88 1.86
  45  0.406  0.500  0.598- 110 1.82  87 1.85  89 1.86 105 1.89
  46  0.410  0.833  0.104- 113 1.85  84 1.85  88 1.85 106 1.86
  47  0.409  0.833  0.601- 112 1.84  85 1.85  89 1.85 107 1.88
  48  0.997  0.166  0.124-  19 1.84  21 1.84  25 1.98
  49  0.997  0.166  0.629-  20 1.85  22 1.85  26 1.95
  50  0.997  0.501  0.124-  23 1.84  21 1.84  27 1.98
  51  0.997  0.500  0.629-  24 1.85  22 1.85  28 1.95
  52  0.995  0.833  0.126-  19 1.84  23 1.84  29 1.95
  53  0.997  0.833  0.630-  20 1.85  24 1.85  30 1.95
  54  0.504  0.001  0.373-  17 1.85  13 1.85  31 1.96
  55  0.505  1.000  0.873-  14 1.85  18 1.85  32 1.94
  56  0.500  0.333  0.371-  15 1.83  13 1.83
  57  0.505  0.333  0.873-  16 1.85  14 1.85  33 1.95
  58  0.504  0.666  0.373-  17 1.85  15 1.85  34 1.96
  59  0.505  0.667  0.873-  16 1.85  18 1.85  35 1.94
  60  0.674  0.166  0.281-  13 1.89   7 2.03   1 2.07   3 2.07
  61  0.672  0.168  0.780-  14 1.87   8 2.02   4 2.07   2 2.08
  62  0.674  0.500  0.281-  15 1.89   9 2.03   5 2.07   3 2.07
  63  0.672  0.499  0.780-  16 1.87  10 2.02   4 2.07   6 2.08
  64  0.674  0.833  0.281-  17 1.88  11 2.02   1 2.08   5 2.08
  65  0.672  0.833  0.780-  18 1.87  12 2.01   2 2.08   6 2.08
  66  0.829  0.000  0.220-  19 1.87   1 2.02   7 2.08  11 2.08
  67  0.827  0.000  0.719-  20 1.87   2 2.03   8 2.08  12 2.08
  68  0.830  0.333  0.220-  21 1.88   3 2.02   9 2.08   7 2.08
  69  0.827  0.333  0.719-  22 1.87   4 2.03  10 2.07   8 2.07
  70  0.829  0.666  0.220-  23 1.87   5 2.02   9 2.08  11 2.08
  71  0.827  0.666  0.719-  24 1.87   6 2.03  10 2.08  12 2.08
  72  0.834  0.000  0.447-  20 1.84  11 1.95   7 1.95
  73  0.831  0.000  0.945-  19 1.85   8 1.96  12 1.96
  74  0.833  0.333  0.447-  22 1.84   9 1.95   7 1.95
  75  0.832  0.333  0.946-  21 1.85  10 1.95   8 1.95
  76  0.834  0.666  0.447-  24 1.84  11 1.95   9 1.95
  77  0.831  0.666  0.945-  23 1.85  10 1.96  12 1.96
  78  0.669  0.167  0.055-  14 1.84   3 1.95   1 1.96
  79  0.667  0.167  0.553-  13 1.85   4 1.95   2 1.95
  80  0.669  0.499  0.055-  16 1.84   3 1.95   5 1.96
  81  0.667  0.500  0.553-  15 1.85   4 1.95   6 1.95
  82  0.671  0.833  0.055-  18 1.84   1 1.96   5 1.96
  83  0.668  0.833  0.554-  17 1.84   2 1.95   6 1.95
  84  0.499  0.999  0.127-  46 1.85  42 1.86   1 1.93
  85  0.496  0.001  0.628-  47 1.85  43 1.86   2 1.94
  86  0.498  0.333  0.133-  44 1.86  42 1.86   3 1.96
  87  0.494  0.333  0.621-  45 1.85  43 1.85   4 1.96
  88  0.499  0.667  0.127-  46 1.85  44 1.86   5 1.93
  89  0.496  0.666  0.628-  47 1.85  45 1.86   6 1.94
  90  0.006  0.168  0.375-  36 1.85  38 1.87   7 1.94
  91  0.003  0.167  0.871-  37 1.85  39 1.85   8 1.94
  92  0.006  0.499  0.375-  40 1.85  38 1.87   9 1.94
  93  0.003  0.500  0.871-  41 1.85  39 1.85  10 1.94
  94  0.004  0.833  0.375-  36 1.85  40 1.85  11 1.94
  95  0.002  0.833  0.871-  37 1.85  41 1.85  12 1.94
  96  0.169  0.997  0.279-  36 1.86  29 2.03  31 2.05  25 2.08
  97  0.174  0.000  0.782-  37 1.87  32 2.03  30 2.07  26 2.08
  98  0.162  0.333  0.270-  38 1.82  27 1.96  25 1.96
  99  0.173  0.333  0.782-  39 1.87  33 2.02  28 2.07  26 2.07
 100  0.169  0.670  0.279-  40 1.86  29 2.03  34 2.05  27 2.08
 101  0.174  0.667  0.782-  41 1.87  35 2.03  30 2.07  28 2.08
 102  0.325  0.148  0.213-  42 1.83  25 1.94  31 1.96
 103  0.329  0.167  0.721-  43 1.89  26 2.02  33 2.07  32 2.07
 104  0.325  0.519  0.213-  44 1.83  27 1.94  34 1.96
 105  0.329  0.500  0.721-  45 1.89  28 2.02  33 2.07  35 2.07
 106  0.327  0.833  0.219-  46 1.86  29 2.03  31 2.09  34 2.09
 107  0.328  0.833  0.720-  47 1.88  30 2.02  32 2.08  35 2.08
 108  0.314  0.148  0.451-  43 1.82  31 1.92
 109  0.336  0.167  0.947-  42 1.85  33 1.95  32 1.95
 110  0.314  0.518  0.451-  45 1.82  34 1.92
 111  0.336  0.500  0.947-  44 1.85  33 1.95  35 1.95
 112  0.332  0.833  0.444-  47 1.84  31 1.98  34 1.98
 113  0.334  0.833  0.947-  46 1.85  32 1.95  35 1.95
 114  0.165  1.000  0.054-  37 1.83  29 1.96  25 2.00
 115  0.166  0.999  0.556-  36 1.85  30 1.95  26 1.96
 116  0.171  0.333  0.053-  39 1.83  27 1.97  25 1.97
 117  0.168  0.333  0.556-  38 1.84  28 1.95  26 1.95
 118  0.165  0.667  0.054-  41 1.83  29 1.96  27 2.00
 119  0.166  0.668  0.556-  40 1.85  30 1.95  28 1.96
 
  LATTYP: Found a simple monoclinic cell.
 ALAT       =    11.6348202465
 B/A-ratio  =     0.7858051831
 C/A-ratio  =     1.0554931797
 COS(beta)  =    -0.2379290539
  
  Lattice vectors:
  
 A1 = (   0.0000000000,  -2.7682617730, -11.3006977184)
 A2 = (  -9.1427020537,   0.0000000000,   0.0000000000)
 A3 = (   0.0000000000,  12.2804734172,   0.0000000000)


Analysis of symmetry for initial positions (statically):
=====================================================================
 Subroutine PRICEL returns:
 Original cell was already a primitive cell.
 

 Routine SETGRP: Setting up the symmetry group for a 
 simple monoclinic supercell.


 Subroutine GETGRP returns: Found  2 space group operations
 (whereof  1 operations were pure point group operations)
 out of a pool of  4 trial point group operations.


The static configuration has the point symmetry C_1 .
 The point group associated with its full space group is C_1h.


Analysis of symmetry for dynamics (positions and initial velocities):
=====================================================================
 Subroutine PRICEL returns:
 Original cell was already a primitive cell.
 

 Routine SETGRP: Setting up the symmetry group for a 
 simple monoclinic supercell.


 Subroutine GETGRP returns: Found  2 space group operations
 (whereof  1 operations were pure point group operations)
 out of a pool of  4 trial point group operations.


The dynamic configuration has the point symmetry C_1 .
 The point group associated with its full space group is C_1h.


 Subroutine INISYM returns: Found  2 space group operations
 (whereof  1 operations are pure point group operations),
 and found     1 'primitive' translations


----------------------------------------------------------------------------------------

                                     Primitive cell                                     

  volume of cell :    1268.8052

  direct lattice vectors                    reciprocal lattice vectors
     0.000000000 12.280473417  0.000000000     0.000000000  0.081430085 -0.019947423
     9.142702054  0.000000000  0.000000000     0.109376855 -0.000000000  0.000000000
     0.000000000 -2.768261773-11.300697718     0.000000000  0.000000000 -0.088490111

  length of vectors
    12.280473417  9.142702054 11.634820246     0.083837691  0.109376855  0.088490111

  position of ions in fractional coordinates (direct lattice)
     0.661118817  0.000061660  0.157918903
     0.658168617  0.000282588  0.655467791
     0.661711558  0.333333333  0.158344121
     0.658055433  0.333333333  0.655073261
     0.661118817  0.666605006  0.157918903
     0.658168617  0.666384079  0.655467791
     0.843416322  0.167100987  0.344448037
     0.840284543  0.167196180  0.842560331
     0.843416322  0.499565680  0.344448037
     0.840284543  0.499470487  0.842560331
     0.842183384  0.833333333  0.344252960
     0.839835565  0.833333333  0.842428047
     0.589106427  0.170330425  0.395813577
     0.592101733  0.166494307  0.897883343
     0.589106427  0.496336241  0.395813577
     0.592101733  0.500172359  0.897883343
     0.590361579  0.833333333  0.397122020
     0.592787838  0.833333333  0.898645980
     0.908781820  0.000286055  0.101714529
     0.909520040  0.000131922  0.602971460
     0.911024802  0.333333333  0.102701350
     0.910020830  0.333333333  0.602717488
     0.908781820  0.666380612  0.101714529
     0.909520040  0.666534745  0.602971460
     0.163187917  0.169601343  0.161096445
     0.160160404  0.167034973  0.658163025
     0.163187917  0.497065323  0.161096445
     0.160160404  0.499631693  0.658163025
     0.158419571  0.833333333  0.157909660
     0.160104432  0.833333333  0.659726726
     0.339940530  0.003915743  0.340789205
     0.342714468  0.000163431  0.844030550
     0.342070345  0.333333333  0.843716565
     0.339940530  0.662750923  0.340789205
     0.342714468  0.666503236  0.844030550
     0.091939263  0.000517961  0.397611675
     0.089979635  0.000191486  0.897402307
     0.098733698  0.333333333  0.397064672
     0.091043369  0.333333333  0.898234021
     0.091939263  0.666148705  0.397611675
     0.089979635  0.666475180  0.897402307
     0.409816157  0.165795328  0.104974267
     0.405721038  0.166344120  0.598254074
     0.409816157  0.500871339  0.104974267
     0.405721038  0.500322546  0.598254074
     0.409983727  0.833333333  0.103956151
     0.408724264  0.833333333  0.600552252
     0.996933404  0.165803637  0.124424060
     0.997344987  0.166493728  0.628921175
     0.996933404  0.500863030  0.124424060
     0.997344987  0.500172939  0.628921175
     0.994869711  0.833333333  0.125772528
     0.997066815  0.833333333  0.629509342
     0.503828783  0.000906043  0.373175781
     0.505152422  0.999629745  0.873185253
     0.500204523  0.333333333  0.371225347
     0.504880440  0.333333333  0.872521983
     0.503828783  0.665760624  0.373175781
     0.505152422  0.667036922  0.873185253
     0.674324312  0.166392460  0.280778261
     0.671988035  0.167686262  0.779502486
     0.674324312  0.500274207  0.280778261
     0.671988035  0.498980404  0.779502486
     0.673910261  0.833333333  0.281452926
     0.672388185  0.833333333  0.779901532
     0.829033356  0.000422475  0.220378675
     0.826747468  0.000376314  0.718883429
     0.829656945  0.333333333  0.220193163
     0.827011384  0.333333333  0.718684640
     0.829033356  0.666244192  0.220378675
     0.826747468  0.666290353  0.718883429
     0.833503178  0.000251410  0.446502640
     0.831170288  0.000339881  0.944961157
     0.832706067  0.333333333  0.446543534
     0.832154142  0.333333333  0.945893195
     0.833503178  0.666415257  0.446502640
     0.831170288  0.666326786  0.944961157
     0.668617275  0.167270955  0.054592294
     0.667153186  0.166640951  0.553248965
     0.668617275  0.499395712  0.054592294
     0.667153186  0.500025715  0.553248965
     0.670745234  0.833333333  0.054935437
     0.667539085  0.833333333  0.553762334
     0.499170870  0.999276041  0.126922287
     0.496219199  0.000745920  0.628035208
     0.497777948  0.333333333  0.133143099
     0.493562214  0.333333333  0.620832296
     0.499170870  0.667390626  0.126922287
     0.496219199  0.665920747  0.628035208
     0.005809919  0.168149713  0.375163351
     0.002803346  0.167076733  0.871141733
     0.005809919  0.498516954  0.375163351
     0.002803346  0.499589934  0.871141733
     0.004145637  0.833333333  0.374748791
     0.002347554  0.833333333  0.870747033
     0.169121875  0.996751478  0.278558219
     0.173658841  0.000111000  0.782102417
     0.161798210  0.333333333  0.270099216
     0.173439887  0.333333333  0.781799438
     0.169121875  0.669915189  0.278558219
     0.173658841  0.666555667  0.782102417
     0.324770745  0.147572642  0.213276908
     0.328561363  0.166903725  0.720573536
     0.324770745  0.519094024  0.213276908
     0.328561363  0.499762942  0.720573536
     0.327460545  0.833333333  0.219065351
     0.328367806  0.833333333  0.719728407
     0.314383795  0.148250779  0.450761049
     0.335748148  0.167031909  0.946858840
     0.314383795  0.518415888  0.450761049
     0.335748148  0.499634758  0.946858840
     0.332489004  0.833333333  0.444011455
     0.334108265  0.833333333  0.946558062
     0.164821238  0.999570528  0.053585430
     0.166385054  0.999088372  0.555853489
     0.170672479  0.333333333  0.052665792
     0.168057924  0.333333333  0.556152670
     0.164821238  0.667096139  0.053585430
     0.166385054  0.667578295  0.555853489

  ion indices of the primitive-cell ions
   primitive index   ion index
                 1           1
                 2           2
                 3           3
                 4           4
                 5           5
                 6           6
                 7           7
                 8           8
                 9           9
                10          10
                11          11
                12          12
                13          13
                14          14
                15          15
                16          16
                17          17
                18          18
                19          19
                20          20
                21          21
                22          22
                23          23
                24          24
                25          25
                26          26
                27          27
                28          28
                29          29
                30          30
                31          31
                32          32
                33          33
                34          34
                35          35
                36          36
                37          37
                38          38
                39          39
                40          40
                41          41
                42          42
                43          43
                44          44
                45          45
                46          46
                47          47
                48          48
                49          49
                50          50
                51          51
                52          52
                53          53
                54          54
                55          55
                56          56
                57          57
                58          58
                59          59
                60          60
                61          61
                62          62
                63          63
                64          64
                65          65
                66          66
                67          67
                68          68
                69          69
                70          70
                71          71
                72          72
                73          73
                74          74
                75          75
                76          76
                77          77
                78          78
                79          79
                80          80
                81          81
                82          82
                83          83
                84          84
                85          85
                86          86
                87          87
                88          88
                89          89
                90          90
                91          91
                92          92
                93          93
                94          94
                95          95
                96          96
                97          97
                98          98
                99          99
               100         100
               101         101
               102         102
               103         103
               104         104
               105         105
               106         106
               107         107
               108         108
               109         109
               110         110
               111         111
               112         112
               113         113
               114         114
               115         115
               116         116
               117         117
               118         118
               119         119

----------------------------------------------------------------------------------------

 
 
 KPOINTS: Automatic mesh                          

Automatic generation of k-mesh.
 Grid dimensions read from file:
 generate k-points for:    2    2    2

 Generating k-lattice:

  Cartesian coordinates                     Fractional coordinates (reciprocal lattice)
     0.000000000  0.040715043 -0.009973711     0.500000000  0.000000000  0.000000000
     0.054688428 -0.000000000  0.000000000     0.000000000  0.500000000  0.000000000
     0.000000000  0.000000000 -0.044245056     0.000000000  0.000000000  0.500000000

  Length of vectors
     0.041918846  0.054688428  0.044245056

  Shift w.r.t. Gamma in fractional coordinates (k-lattice)
     0.000000000  0.000000000  0.000000000

 
 Subroutine IBZKPT returns following result:
 ===========================================
 
 Found      8 irreducible k-points:
 
 Following reciprocal coordinates:
            Coordinates               Weight
  0.000000  0.000000  0.000000      1.000000
  0.500000  0.000000  0.000000      1.000000
  0.000000  0.500000  0.000000      1.000000
  0.500000  0.500000  0.000000      1.000000
  0.000000  0.000000  0.500000      1.000000
  0.500000  0.000000  0.500000      1.000000
  0.000000  0.500000  0.500000      1.000000
  0.500000  0.500000  0.500000      1.000000
 
 Following cartesian coordinates:
            Coordinates               Weight
  0.000000  0.000000 -0.000000      1.000000
  0.000000  0.040715 -0.009974      1.000000
  0.054688  0.000000 -0.000000      1.000000
  0.054688  0.040715 -0.009974      1.000000
  0.000000  0.000000 -0.044245      1.000000
  0.000000  0.040715 -0.054219      1.000000
  0.054688  0.000000 -0.044245      1.000000
  0.054688  0.040715 -0.054219      1.000000
 
 
 Subroutine IBZKPT_HF returns following result:
 ==============================================
 
 Found      8 k-points in 1st BZ
 the following      8 k-points will be used (e.g. in the exchange kernel)
 Following reciprocal coordinates:   # in IRBZ
  0.000000  0.000000  0.000000    0.12500000   1 t-inv F
  0.500000  0.000000  0.000000    0.12500000   2 t-inv F
  0.000000  0.500000  0.000000    0.12500000   3 t-inv F
  0.500000  0.500000  0.000000    0.12500000   4 t-inv F
  0.000000  0.000000  0.500000    0.12500000   5 t-inv F
  0.500000  0.000000  0.500000    0.12500000   6 t-inv F
  0.000000  0.500000  0.500000    0.12500000   7 t-inv F
  0.500000  0.500000  0.500000    0.12500000   8 t-inv F


--------------------------------------------------------------------------------------------------------




 Dimension of arrays:
   k-points           NKPTS =      8   k-points in BZ     NKDIM =      8   number of bands    NBANDS=    625
   number of dos      NEDOS =    301   number of ions     NIONS =    119
   non local maximal  LDIM  =      6   non local SUM 2l+1 LMDIM =     18
   total plane-waves  NPLWV = 184320
   max r-space proj   IRMAX =   1800   max aug-charges    IRDMAX=   5704
   dimension x,y,z NGX =    64 NGY =   48 NGZ =   60
   dimension x,y,z NGXF=   128 NGYF=   96 NGZF=  120
   support grid    NGXF=   128 NGYF=   96 NGZF=  120
   ions per type =              47  72
   NGX,Y,Z   is equivalent  to a cutoff of   8.66,  8.73,  8.57 a.u.
   NGXF,Y,Z  is equivalent  to a cutoff of  17.33, 17.46, 17.15 a.u.

 SYSTEM =  unknown system                          
 POSCAR =  Ga47 O72                                

 Startparameter for this run:
   NWRITE =      2    write-flag & timer
   PREC   = normal    normal or accurate (medium, high low for compatibility)
   ISTART =      0    job   : 0-new  1-cont  2-samecut
   ICHARG =      0    charge: 1-file 2-atom 10-const
   ISPIN  =      1    spin polarized calculation?
   LNONCOLLINEAR =      F non collinear calculations
   LSORBIT =      F    spin-orbit coupling
   INIWAV =      1    electr: 0-lowe 1-rand  2-diag
   LASPH  =      F    aspherical Exc in radial PAW
 Electronic Relaxation 1
   ENCUT  =  450.0 eV  33.07 Ry    5.75 a.u.  21.24 15.81 20.12*2*pi/ulx,y,z
   ENINI  =  450.0     initial cutoff
   ENAUG  =  605.4 eV  augmentation charge cutoff
   NELM   =    500;   NELMIN=  2; NELMDL= -5     # of ELM steps 
   EDIFF  = 0.1E-04   stopping-criterion for ELM
   LREAL  =      T    real-space projection
   NLSPLINE    = F    spline interpolate recip. space projectors
   LCOMPAT=      F    compatible to vasp.4.4
   GGA_COMPAT  = T    GGA compatible to vasp.4.4-vasp.4.6
   LMAXPAW     = -100 max onsite density
   LMAXMIX     =    2 max onsite mixed and CHGCAR
   VOSKOWN=      0    Vosko Wilk Nusair interpolation
   ROPT   =   -0.00050  -0.00050
 Ionic relaxation
   EDIFFG = -.5E-02   stopping-criterion for IOM
   NSW    =      0    number of steps for IOM
   NBLOCK =      1;   KBLOCK =      1    inner block; outer block 
   IBRION =     -1    ionic relax: 0-MD 1-quasi-New 2-CG
   NFREE  =      0    steps in history (QN), initial steepest desc. (CG)
   ISIF   =      2    stress and relaxation
   IWAVPR =     10    prediction:  0-non 1-charg 2-wave 3-comb
   ISYM   =      3    0-nonsym 1-usesym 2-fastsym
   LCORR  =      T    Harris-Foulkes like correction to forces

   POTIM  = 0.5000    time-step for ionic-motion
   TEIN   =    0.0    initial temperature
   TEBEG  =    0.0;   TEEND  =   0.0 temperature during run
   SMASS  =  -3.00    Nose mass-parameter (am)
   estimated Nose-frequenzy (Omega)   =  0.10E-29 period in steps = 0.13E+47 mass=  -0.345E-26a.u.
   SCALEE = 1.0000    scale energy and forces
   NPACO  =    256;   APACO  = 10.0  distance and # of slots for P.C.
   PSTRESS=    0.0 pullay stress

  Mass of Ions in am
   POMASS =  69.72 16.00
  Ionic Valenz
   ZVAL   =  13.00  6.00
  Atomic Wigner-Seitz radii
   RWIGS  =  -1.00 -1.00
  virtual crystal weights 
   VCA    =   1.00  1.00
   NELECT =    1043.0000    total number of electrons
   NUPDOWN=      -1.0000    fix difference up-down

 DOS related values:
   EMIN   =  10.00;   EMAX   =-10.00  energy-range for DOS
   EFERMI =   0.00;   METHOD = LEGACY      
   ISMEAR =     0;   SIGMA  =   0.05  broadening in eV -4-tet -1-fermi 0-gaus

 Electronic relaxation 2 (details)
   IALGO  =     58    algorithm
   LDIAG  =      T    sub-space diagonalisation (order eigenvalues)
   LSUBROT=      F    optimize rotation matrix (better conditioning)
   TURBO    =      0    0=normal 1=particle mesh
   IRESTART =      0    0=no restart 2=restart with 2 vectors
   NREBOOT  =      0    no. of reboots
   NMIN     =      0    reboot dimension
   EREF     =   0.00    reference energy to select bands
   IMIX   =      4    mixing-type and parameters
     AMIX     =   0.40;   BMIX     =  1.00
     AMIX_MAG =   1.60;   BMIX_MAG =  1.00
     AMIN     =   0.10
     WC   =   100.;   INIMIX=   1;  MIXPRE=   1;  MAXMIX= -45

 Intra band minimization:
   WEIMIN = 0.0000     energy-eigenvalue tresh-hold
   EBREAK =  0.40E-08  absolut break condition
   DEPER  =   0.30     relativ break condition  

   TIME   =   0.40     timestep for ELM

  volume/ion in A,a.u.               =      10.66        71.95
  Fermi-wavevector in a.u.,A,eV,Ry     =   1.533574  2.898034 31.998834  2.351848
  Thomas-Fermi vector in A             =   2.640622
 
 Write flags
   LWAVE        =      T    write WAVECAR
   LDOWNSAMPLE  =      F    k-point downsampling of WAVECAR
   LCHARG       =      T    write CHGCAR
   LVTOT        =      F    write LOCPOT, total local potential
   LVHAR        =      F    write LOCPOT, Hartree potential only
   LELF         =      F    write electronic localiz. function (ELF)
   LORBIT       =      0    0 simple, 1 ext, 2 COOP (PROOUT), +10 PAW based schemes


 Dipole corrections
   LMONO  =      F    monopole corrections only (constant potential shift)
   LDIPOL =      F    correct potential (dipole corrections)
   IDIPOL =      0    1-x, 2-y, 3-z, 4-all directions 
   EPSILON=  1.0000000 bulk dielectric constant

 Exchange correlation treatment:
   GGA     =    --    GGA type
   LEXCH   =     8    internal setting for exchange type
   LIBXC   =     F    Libxc                    
   VOSKOWN =     0    Vosko Wilk Nusair interpolation
   EXXOEP  =     0    0=HF, 1=EXX-LHF (local Hartree Fock) 2=EXX OEP
   LHFCALC =     T    Hartree Fock is set to
   LSYMGRAD=     F    symmetrize gradient (conserves proper symmetry)
   PRECFOCK=fast      Normal, Fast or Accurate (Low or Medium for compatibility)
   LRHFCALC=     F    long range Hartree Fock
   LRSCOR  =     F    long range correlation only (use DFT for short range part)
   LTHOMAS =     F    Thomas Fermi screening in HF
   LMODELHF=     F    short range full HF, long range fraction AEXX
   FOCKCORR=     1    mode to apply convergence corrections
   LFOCKACE=     T    use Adeptively-Compressed-Exchange operator
   ENCUT4O =  -1.0   cutoff for four orbital integrals eV
   LMAXFOCK=     4    L truncation for augmentation on plane wave grid
   LMAXFOCKAE=  -1    L truncation for all-electron charge restoration on plane wave grid
   NMAXFOCKAE=   1    number of basis functions for all-electron charge restoration
   LFOCKAEDFT=     F  apply the AE augmentation even for DFT
   NKREDX  =     1    reduce k-point grid by
   NKREDY  =     1    reduce k-point grid by
   NKREDZ  =     1    reduce k-point grid by
   SHIFTRED=     F    shift reduced grid of Gamma
   HFKIDENT=     F    idential grid for each k-point
   ODDONLY =     F    use only odd q-grid points
   EVENONLY=     F    use only even q-grid points
   HFALPHA =   -1.0000 decay constant for conv. correction
   MCALPHA =    0.0000 extent of test-charge in conv. correction in multipole expansion
   AEXX    =    0.3200 exact exchange contribution
   HFSCREEN=    0.2000 screening length (either q_TF or 0.3 A-1)
   HFSCREENC=   0.2000 screening length for correlation (either q_TF or 0.3 A-1)
   HFRCUT  =    0.0000 spherical cutoff for potential kernel
   ALDAX   =    0.6800 LDA exchange part
   AGGAX   =    0.6800 GGA exchange part
   ALDAC   =    1.0000 LDA correlation
   AGGAC   =    1.0000 GGA correlation
   ENCUTFOCK=  -1.0 apply spherical cutoff to Coloumb kernel
   NBANDSGWLOW=     1    first orbital included in HF term
   NBLOCK_FOCK=    64    blocking factor in FOCK_ACC

 Linear response parameters
   LEPSILON=     F    determine dielectric tensor
   LRPA    =     F    only Hartree local field effects (RPA)
   LNABLA  =     F    use nabla operator in PAW spheres
   LVEL    =     F    velocity operator in full k-point grid
   CSHIFT  =0.1000    complex shift for real part using Kramers Kronig
   OMEGAMAX=  -1.0    maximum frequency
   DEG_THRESHOLD= 0.2000000E-02 threshold for treating states as degnerate
   RTIME   =   -0.100 relaxation time in fs
  (WPLASMAI=    0.000 imaginary part of plasma frequency in eV, 0.658/RTIME)
   DFIELD  = 0.0000000 0.0000000 0.0000000 field for delta impulse in time
 
  Optional k-point grid parameters
   LKPOINTS_OPT  =     F    use optional k-point grid
   KPOINTS_OPT_MODE=     1    mode for optional k-point grid
 
 Orbital magnetization related:
   ORBITALMAG=     F  switch on orbital magnetization
   LCHIMAG   =     F  perturbation theory with respect to B field
   DQ        =  0.001000  dq finite difference perturbation B field
   LLRAUG    =     F  two centre corrections for induced B field
   LBONE     =     F  B-component reconstruction in AE one-centre
   LVGVCALC  =     T  calculate vGv susceptibility
   LVGVAPPL  =     F  apply vGv susceptibility instead of pGv for G=0

 Random number generation:
   RANDOM_GENERATOR = DEFAULT
   PCG_SEED         = not used


--------------------------------------------------------------------------------------------------------


 Static calculation
 charge density and potential will be updated during run
 non-spin polarized calculation
 Conjugate gradient for all bands (Freysoldt, et al. PRB 79, 241103 (2009))
 preconditioned conjugated gradient                                        
 perform sub-space diagonalisation
    before iterative eigenvector-optimisation
 modified Broyden-mixing scheme, WC =      100.0
 initial mixing is a Kerker type mixing with AMIX =  0.4000 and BMIX =      1.0000
 Hartree-type preconditioning will be used
 using additional bands           103
 real space projection scheme for non local part
 use partial core corrections
 no Harris-corrections to forces 
 use gradient corrections 
 use of overlap-Matrix (Vanderbilt PP)
 Gauss-broadening in eV      SIGMA  =   0.05


--------------------------------------------------------------------------------------------------------


  energy-cutoff  :      450.00
  volume of cell :     1268.81
      direct lattice vectors                 reciprocal lattice vectors
     0.000000000 12.280473417  0.000000000     0.000000000  0.081430085 -0.019947423
     9.142702054  0.000000000  0.000000000     0.109376855 -0.000000000  0.000000000
     0.000000000 -2.768261773-11.300697718     0.000000000  0.000000000 -0.088490111

  length of vectors
    12.280473417  9.142702054 11.634820246     0.083837691  0.109376855  0.088490111


 
 k-points in units of 2pi/SCALE and weight: Automatic mesh                          
   0.00000000  0.00000000 -0.00000000       0.125
   0.00000000  0.04071504 -0.00997371       0.125
   0.05468843  0.00000000 -0.00000000       0.125
   0.05468843  0.04071504 -0.00997371       0.125
   0.00000000  0.00000000 -0.04424506       0.125
   0.00000000  0.04071504 -0.05421877       0.125
   0.05468843  0.00000000 -0.04424506       0.125
   0.05468843  0.04071504 -0.05421877       0.125
 
 k-points in reciprocal lattice and weights: Automatic mesh                          
   0.00000000  0.00000000  0.00000000       0.125
   0.50000000  0.00000000  0.00000000       0.125
   0.00000000  0.50000000  0.00000000       0.125
   0.50000000  0.50000000  0.00000000       0.125
   0.00000000  0.00000000  0.50000000       0.125
   0.50000000  0.00000000  0.50000000       0.125
   0.00000000  0.50000000  0.50000000       0.125
   0.50000000  0.50000000  0.50000000       0.125
 
 position of ions in fractional coordinates (direct lattice) 
   0.66111882  0.00006166  0.15791890
   0.65816862  0.00028259  0.65546779
   0.66171156  0.33333333  0.15834412
   0.65805543  0.33333333  0.65507326
   0.66111882  0.66660501  0.15791890
   0.65816862  0.66638408  0.65546779
   0.84341632  0.16710099  0.34444804
   0.84028454  0.16719618  0.84256033
   0.84341632  0.49956568  0.34444804
   0.84028454  0.49947049  0.84256033
   0.84218338  0.83333333  0.34425296
   0.83983557  0.83333333  0.84242805
   0.58910643  0.17033043  0.39581358
   0.59210173  0.16649431  0.89788334
   0.58910643  0.49633624  0.39581358
   0.59210173  0.50017236  0.89788334
   0.59036158  0.83333333  0.39712202
   0.59278784  0.83333333  0.89864598
   0.90878182  0.00028605  0.10171453
   0.90952004  0.00013192  0.60297146
   0.91102480  0.33333333  0.10270135
   0.91002083  0.33333333  0.60271749
   0.90878182  0.66638061  0.10171453
   0.90952004  0.66653474  0.60297146
   0.16318792  0.16960134  0.16109644
   0.16016040  0.16703497  0.65816303
   0.16318792  0.49706532  0.16109644
   0.16016040  0.49963169  0.65816303
   0.15841957  0.83333333  0.15790966
   0.16010443  0.83333333  0.65972673
   0.33994053  0.00391574  0.34078920
   0.34271447  0.00016343  0.84403055
   0.34207034  0.33333333  0.84371657
   0.33994053  0.66275092  0.34078920
   0.34271447  0.66650324  0.84403055
   0.09193926  0.00051796  0.39761167
   0.08997964  0.00019149  0.89740231
   0.09873370  0.33333333  0.39706467
   0.09104337  0.33333333  0.89823402
   0.09193926  0.66614871  0.39761167
   0.08997964  0.66647518  0.89740231
   0.40981616  0.16579533  0.10497427
   0.40572104  0.16634412  0.59825407
   0.40981616  0.50087134  0.10497427
   0.40572104  0.50032255  0.59825407
   0.40998373  0.83333333  0.10395615
   0.40872426  0.83333333  0.60055225
   0.99693340  0.16580364  0.12442406
   0.99734499  0.16649373  0.62892118
   0.99693340  0.50086303  0.12442406
   0.99734499  0.50017294  0.62892118
   0.99486971  0.83333333  0.12577253
   0.99706682  0.83333333  0.62950934
   0.50382878  0.00090604  0.37317578
   0.50515242  0.99962974  0.87318525
   0.50020452  0.33333333  0.37122535
   0.50488044  0.33333333  0.87252198
   0.50382878  0.66576062  0.37317578
   0.50515242  0.66703692  0.87318525
   0.67432431  0.16639246  0.28077826
   0.67198803  0.16768626  0.77950249
   0.67432431  0.50027421  0.28077826
   0.67198803  0.49898040  0.77950249
   0.67391026  0.83333333  0.28145293
   0.67238819  0.83333333  0.77990153
   0.82903336  0.00042248  0.22037867
   0.82674747  0.00037631  0.71888343
   0.82965694  0.33333333  0.22019316
   0.82701138  0.33333333  0.71868464
   0.82903336  0.66624419  0.22037867
   0.82674747  0.66629035  0.71888343
   0.83350318  0.00025141  0.44650264
   0.83117029  0.00033988  0.94496116
   0.83270607  0.33333333  0.44654353
   0.83215414  0.33333333  0.94589319
   0.83350318  0.66641526  0.44650264
   0.83117029  0.66632679  0.94496116
   0.66861728  0.16727096  0.05459229
   0.66715319  0.16664095  0.55324896
   0.66861728  0.49939571  0.05459229
   0.66715319  0.50002572  0.55324896
   0.67074523  0.83333333  0.05493544
   0.66753909  0.83333333  0.55376233
   0.49917087  0.99927604  0.12692229
   0.49621920  0.00074592  0.62803521
   0.49777795  0.33333333  0.13314310
   0.49356221  0.33333333  0.62083230
   0.49917087  0.66739063  0.12692229
   0.49621920  0.66592075  0.62803521
   0.00580992  0.16814971  0.37516335
   0.00280335  0.16707673  0.87114173
   0.00580992  0.49851695  0.37516335
   0.00280335  0.49958993  0.87114173
   0.00414564  0.83333333  0.37474879
   0.00234755  0.83333333  0.87074703
   0.16912188  0.99675148  0.27855822
   0.17365884  0.00011100  0.78210242
   0.16179821  0.33333333  0.27009922
   0.17343989  0.33333333  0.78179944
   0.16912188  0.66991519  0.27855822
   0.17365884  0.66655567  0.78210242
   0.32477075  0.14757264  0.21327691
   0.32856136  0.16690372  0.72057354
   0.32477075  0.51909402  0.21327691
   0.32856136  0.49976294  0.72057354
   0.32746054  0.83333333  0.21906535
   0.32836781  0.83333333  0.71972841
   0.31438380  0.14825078  0.45076105
   0.33574815  0.16703191  0.94685884
   0.31438380  0.51841589  0.45076105
   0.33574815  0.49963476  0.94685884
   0.33248900  0.83333333  0.44401145
   0.33410827  0.83333333  0.94655806
   0.16482124  0.99957053  0.05358543
   0.16638505  0.99908837  0.55585349
   0.17067248  0.33333333  0.05266579
   0.16805792  0.33333333  0.55615267
   0.16482124  0.66709614  0.05358543
   0.16638505  0.66757829  0.55585349
 
 position of ions in cartesian coordinates  (Angst):
   0.00056374  7.68169120 -1.78459379
   0.00258362  6.26811577 -7.40724338
   3.04756735  7.68779322 -1.78939905
   3.04756735  6.26781799 -7.40278491
   6.09457096  7.68169120 -1.78459379
   6.09255109  6.26811577 -7.40724338
   1.52775453  9.40402938 -3.89250314
   1.52862486  7.98666443 -9.52151961
   4.56738017  9.40402938 -3.89250314
   4.56650985  7.98666443 -9.52151961
   7.61891838  9.38942835 -3.89029864
   7.61891838  7.98151697 -9.52002471
   1.55728033  6.13879022 -4.47296959
   1.52220785  4.78571346-10.14670825
   4.53785437  6.13879022 -4.47296959
   4.57292686  4.78571346-10.14670825
   7.61891838  6.15058197 -4.48775590
   7.61891838  4.79202797-10.15532658
   0.00261531 10.87869854 -1.14944515
   0.00120612  9.50015383 -6.81399820
   3.04756735 10.90351164 -1.16059691
   3.04756735  9.50700683 -6.81112814
   6.09251939 10.87869854 -1.14944515
   6.09392858  9.50015383 -6.81399820
   1.55061455  1.55806775 -1.82050223
   1.52715099  0.14487804 -7.43770140
   4.54452015  1.55806775 -1.82050223
   4.56798371  0.14487804 -7.43770140
   7.61891838  1.50833205 -1.78448934
   7.61891838  0.13986195 -7.45537231
   0.03580047  3.23123692 -3.85115579
   0.00149420  1.87219841 -9.53813411
   3.04756735  1.86515746 -9.53458586
   6.05933423  3.23123692 -3.85115579
   6.09364050  1.87219841 -9.53813411
   0.00473557  0.02836447 -4.49328934
   0.00175070 -1.37925198-10.14127220
   3.04756735  0.11331760 -4.48710783
   3.04756735 -1.36849123-10.15067115
   6.09039914  0.02836447 -4.49328934
   6.09338400 -1.37925198-10.14127220
   1.51581729  4.74214018 -1.18628246
   1.52083473  3.32632253 -6.76068845
   4.57931742  4.74214018 -1.18628246
   4.57429997  3.32632253 -6.76068845
   7.61891838  4.74701643 -1.17477704
   7.61891838  3.35684162 -6.78665946
   1.51589325 11.89837580 -1.40607869
   1.52220255 10.50685016 -7.10724809
   4.57924145 11.89837580 -1.40607869
   4.57293216 10.50685016 -7.10724809
   7.61891838 11.86929976 -1.42131732
   7.61891838 10.50180587 -7.11389479
   0.00828368  5.15420772 -4.21714670
   9.13931692  3.78630553 -9.86760259
   3.04756735  5.11509940 -4.19510543
   3.04756735  3.78480157 -9.86010718
   6.08685102  5.15420772 -4.21714670
   6.09851984  3.78630553 -9.86760259
   1.52127668  7.50375406 -3.17299026
   1.53310553  6.09446427 -8.80892196
   4.57385802  7.50375406 -3.17299026
   4.56202917  6.09446427 -8.80892196
   7.61891838  7.49680167 -3.18061444
   7.61891838  6.09827364 -8.81343146
   0.00386256  9.57085623 -2.49043278
   0.00344052  8.16279278 -8.12388432
   3.04756735  9.57902774 -2.48833638
   3.04756735  8.16658410 -8.12163788
   6.09127214  9.57085623 -2.49043278
   6.09169418  8.16279278 -8.12388432
   0.00229857  8.99977743 -5.04579136
   0.00310743  7.59126477-10.67872039
   3.04756735  8.98987533 -5.04625350
   3.04756735  7.60076685-10.68925307
   6.09283613  8.99977743 -5.04579136
   6.09202727  7.59126477-10.67872039
   1.52930850  8.05981091 -0.61693101
   1.52354857  6.66141901 -6.25209931
   4.56582620  8.05981091 -0.61693101
   4.57158613  6.66141901 -6.25209931
   7.61891838  8.08499335 -0.62080877
   7.61891838  6.66473689 -6.25790074
   9.13608311  5.77870049 -1.43431040
   0.00681972  4.35524082 -7.09723604
   3.04756735  5.74437391 -1.50460992
   3.04756735  4.34255134 -7.01583811
   6.10175365  5.77870049 -1.43431040
   6.08831498  4.35524082 -7.09723604
   1.53734273 -0.96720181 -4.23960763
   1.52753279 -2.37712194 -9.84450940
   4.55779197 -0.96720181 -4.23960763
   4.56760191 -2.37712194 -9.84450940
   7.61891838 -0.98649237 -4.23492281
   7.61891838 -2.38162665 -9.84004900
   9.11300178  1.30577462 -3.14790223
   0.00101484 -0.03245145 -8.83830300
   3.04756735  1.23925329 -3.05230959
   3.04756735 -0.03430158 -8.83487913
   6.12483498  1.30577462 -3.14790223
   6.09411987 -0.03245145 -8.83830300
   1.34921270  3.39793219 -2.41017787
   1.52595103  2.04015291 -8.14298372
   4.74592200  3.39793219 -2.41017787
   4.56918368  2.04015291 -8.14298372
   7.61891838  3.41494028 -2.47559131
   7.61891838  2.04011547 -8.13343317
   1.35541270  2.61295726 -5.09391435
   1.52712297  1.50199307-10.70016553
   4.73972200  2.61295726 -5.09391435
   4.56801173  1.50199307-10.70016553
   7.61891838  2.85398243 -5.01763923
   7.61891838  1.48268718-10.69676653
   9.13877552  1.87574433 -0.60555274
   9.13436731  0.50453927 -6.28153225
   3.04756735  1.95014614 -0.59516019
   3.04756735  0.52425470 -6.28491321
   6.09906124  1.87574433 -0.60555274
   6.10346945  0.50453927 -6.28153225
 


--------------------------------------------------------------------------------------------------------


 k-point   1 :   0.0000 0.0000 0.0000  plane waves:   27533
 k-point   2 :   0.5000 0.0000 0.0000  plane waves:   27522
 k-point   3 :   0.0000 0.5000 0.0000  plane waves:   27488
 k-point   4 :   0.5000 0.5000 0.0000  plane waves:   27488
 k-point   5 :   0.0000 0.0000 0.5000  plane waves:   27482
 k-point   6 :   0.5000 0.0000 0.5000  plane waves:   27476
 k-point   7 :   0.0000 0.5000 0.5000  plane waves:   27468
 k-point   8 :   0.5000 0.5000 0.5000  plane waves:   27564

 maximum and minimum number of plane-waves per node :     27564    27468

 maximum number of plane-waves:     27564
 maximum index in each direction: 
   IXMAX=   21   IYMAX=   15   IZMAX=   20
   IXMIN=  -21   IYMIN=  -16   IZMIN=  -20


 serial   3D FFT for wavefunctions
 parallel 3D FFT for charge:
    minimum data exchange during FFTs selected (reduces bandwidth)


 FFT grid for exact exchange (Hartree Fock) 
  NGX = 48; NGY = 36; NGZ = 48

 
 Radii for the augmentation spheres in the non-local exchange
 for species   1 augmentation radius   1.392 (default was   1.031)
       energy cutoff for augmentation   1800.0
 for species   2 augmentation radius   0.974 (default was   0.722)
       energy cutoff for augmentation   1800.0
 Maximum index for augmentation-charges in exchange           745
  SETUP_FOCK is finished

 total amount of memory used by VASP MPI-rank0  7163066. kBytes
=======================================================================

   base      :      30000. kBytes
   nonlr-proj:      32455. kBytes
   fftplans  :      51012. kBytes
   grid      :      90980. kBytes
   one-center:       1850. kBytes
   HF        :        129. kBytes
   wavefun   :    6956640. kBytes
 
     INWAV:  cpu time      0.0001: real time      0.0001
 Broyden mixing: mesh for mixing (old mesh)
   NGX = 43   NGY = 31   NGZ = 41
  (NGX  =128   NGY  = 96   NGZ  =120)
  gives a total of  54653 points

 charge density for first step will be calculated from the start-wavefunctions


--------------------------------------------------------------------------------------------------------


 Maximum index for non-local projection operator          1717
 Maximum index for augmentation-charges          5362 (set IRDMAX)


--------------------------------------------------------------------------------------------------------


 initial charge from wavefunction
 First call to EWALD:  gamma=   0.164
 Maximum number of real-space cells 3x 3x 3
 Maximum number of reciprocal cells 3x 2x 3

    FEWALD:  cpu time      0.0731: real time      0.0731


--------------------------------------- Ionic step        1  -------------------------------------------




--------------------------------------- Iteration      1(   1)  ---------------------------------------


    POTLOK:  cpu time      0.0333: real time      0.0333
    SETDIJ:  cpu time      0.1495: real time      0.1495
    TRIAL :  cpu time      2.8930: real time      2.9033
    CORREC:  cpu time      0.0015: real time      0.0015
    --------------------------------------------
      LOOP:  cpu time      3.9619: real time      3.9717

 eigenvalue-minimisations  : 10480
 total energy-change (2. order) :-0.1822663E+05  (-0.5454285E+05)
 number of electron    1042.9999513 magnetization 
 augmentation part      118.8781398 magnetization 

 Free energy of the ion-electron system (eV)
  ---------------------------------------------------
  alpha Z        PSCENC =      5383.97153279
  Ewald energy   TEWEN  =    -86595.13791234
  -Hartree energ DENC   =     -2066.54747422
  -exchange      EXHF   =         0.00000000
  -V(xc)+E(xc)   XCENC  =      2766.20300693
  PAW double counting   =     54212.40881321   -82836.24408232
  entropy T*S    EENTRO =        -0.01353664
  eigenvalues    EBANDS =    -40845.95200125
  atomic energy  EATOM  =    131754.67725141
  ---------------------------------------------------
  free energy    TOTEN  =    -18226.63440243 eV

  energy without entropy =   -18226.62086579  energy(sigma->0) =   -18226.62763411
  exchange ACFDT corr.  =         0.00000000  see jH, gK, PRB 81, 115126


--------------------------------------------------------------------------------------------------------




--------------------------------------- Iteration      1(   2)  ---------------------------------------


    TRIAL :  cpu time      3.1522: real time      3.1520
    CORREC:  cpu time      0.0016: real time      0.0016
    --------------------------------------------
      LOOP:  cpu time      3.1540: real time      3.1547

 eigenvalue-minimisations  : 13224
 total energy-change (2. order) :-0.4436885E+05  (-0.4283791E+05)
 number of electron    1042.9999513 magnetization 
 augmentation part      118.8781398 magnetization 

 Free energy of the ion-electron system (eV)
  ---------------------------------------------------
  alpha Z        PSCENC =      5383.97153279
  Ewald energy   TEWEN  =    -86595.13791234
  -Hartree energ DENC   =     -2066.54747422
  -exchange      EXHF   =         0.00000000
  -V(xc)+E(xc)   XCENC  =      2766.20300693
  PAW double counting   =     54212.40881321   -82836.24408232
  entropy T*S    EENTRO =        -0.01791190
  eigenvalues    EBANDS =    -85214.79885349
  atomic energy  EATOM  =    131754.67725141
  ---------------------------------------------------
  free energy    TOTEN  =    -62595.48562993 eV

  energy without entropy =   -62595.46771803  energy(sigma->0) =   -62595.47667398
  exchange ACFDT corr.  =         0.00000000  see jH, gK, PRB 81, 115126


--------------------------------------------------------------------------------------------------------




--------------------------------------- Iteration      1(   3)  ---------------------------------------


    TRIAL :  cpu time      3.3397: real time      3.3400
    CORREC:  cpu time      0.0017: real time      0.0017
    --------------------------------------------
      LOOP:  cpu time      3.3415: real time      3.3422

 eigenvalue-minimisations  : 14480
 total energy-change (2. order) :-0.5074058E+04  (-0.4600700E+04)
 number of electron    1042.9999513 magnetization 
 augmentation part      118.8781398 magnetization 

 Free energy of the ion-electron system (eV)
  ---------------------------------------------------
  alpha Z        PSCENC =      5383.97153279
  Ewald energy   TEWEN  =    -86595.13791234
  -Hartree energ DENC   =     -2066.54747422
  -exchange      EXHF   =         0.00000000
  -V(xc)+E(xc)   XCENC  =      2766.20300693
  PAW double counting   =     54212.40881321   -82836.24408232
  entropy T*S    EENTRO =        -0.03608532
  eigenvalues    EBANDS =    -90288.83841533
  atomic energy  EATOM  =    131754.67725141
  ---------------------------------------------------
  free energy    TOTEN  =    -67669.54336519 eV

  energy without entropy =   -67669.50727987  energy(sigma->0) =   -67669.52532253
  exchange ACFDT corr.  =         0.00000000  see jH, gK, PRB 81, 115126


--------------------------------------------------------------------------------------------------------




--------------------------------------- Iteration      1(   4)  ---------------------------------------


    TRIAL :  cpu time      3.9328: real time      3.9321
    CORREC:  cpu time      0.0017: real time      0.0017
    --------------------------------------------
      LOOP:  cpu time      3.9346: real time      3.9344

 eigenvalue-minimisations  : 18616
 total energy-change (2. order) :-0.7963921E+03  (-0.6928991E+03)
 number of electron    1042.9999513 magnetization 
 augmentation part      118.8781398 magnetization 

 Free energy of the ion-electron system (eV)
  ---------------------------------------------------
  alpha Z        PSCENC =      5383.97153279
  Ewald energy   TEWEN  =    -86595.13791234
  -Hartree energ DENC   =     -2066.54747422
  -exchange      EXHF   =         0.00000000
  -V(xc)+E(xc)   XCENC  =      2766.20300693
  PAW double counting   =     54212.40881321   -82836.24408232
  entropy T*S    EENTRO =        -0.03292708
  eigenvalues    EBANDS =    -91085.23371102
  atomic energy  EATOM  =    131754.67725141
  ---------------------------------------------------
  free energy    TOTEN  =    -68465.93550263 eV

  energy without entropy =   -68465.90257555  energy(sigma->0) =   -68465.91903909
  exchange ACFDT corr.  =         0.00000000  see jH, gK, PRB 81, 115126


--------------------------------------------------------------------------------------------------------




--------------------------------------- Iteration      1(   5)  ---------------------------------------


    POTLOK:  cpu time      1.3495: real time      1.3493
    SETDIJ:  cpu time      0.4525: real time      0.4524
    TRIAL :  cpu time    228.4099: real time    228.3763
    CORREC:  cpu time      0.0015: real time      0.0015
    CHARGE:  cpu time      0.2042: real time      0.2042
    --------------------------------------------
      LOOP:  cpu time    230.4177: real time    230.3842

 eigenvalue-minimisations  : 18152
 total energy-change (2. order) : 0.2947456E+05  (-0.7334307E+02)
 number of electron    1042.9998682 magnetization 
 augmentation part      468.1644487 magnetization 

 Free energy of the ion-electron system (eV)
  ---------------------------------------------------
  alpha Z        PSCENC =      5383.97153279
  Ewald energy   TEWEN  =    -86595.13791234
  -Hartree energ DENC   =     -2066.54747422
  -exchange      EXHF   =      4708.80593001
  -V(xc)+E(xc)   XCENC  =      1912.72702511
  PAW double counting   =     54803.24790102   -56802.89102597
  entropy T*S    EENTRO =        -0.01392874
  eigenvalues    EBANDS =    -92090.21299226
  atomic energy  EATOM  =    131754.67725141
  ---------------------------------------------------
  free energy    TOTEN  =    -38991.37369320 eV

  energy without entropy =   -38991.35976445  energy(sigma->0) =   -38991.36672883
  exchange ACFDT corr.  =        -0.16304112  see jH, gK, PRB 81, 115126


--------------------------------------------------------------------------------------------------------




--------------------------------------- Iteration      1(   6)  ---------------------------------------


    POTLOK:  cpu time      1.4095: real time      1.4093
    SETDIJ:  cpu time      0.4214: real time      0.4214
    TRIAL :  cpu time    227.5865: real time    227.8003
    CORREC:  cpu time    229.9635: real time    229.9332
    CHARGE:  cpu time      0.2160: real time      0.2160
    --------------------------------------------
      LOOP:  cpu time    459.5973: real time    459.7824

 eigenvalue-minimisations  :     0
 total energy-change (2. order) : 0.6959700E+05  (-0.2434572E+05)
 number of electron    1042.9998222 magnetization 
 augmentation part      453.7796928 magnetization 

 Free energy of the ion-electron system (eV)
  ---------------------------------------------------
  alpha Z        PSCENC =      5383.97153279
  Ewald energy   TEWEN  =    -86595.13791234
  -Hartree energ DENC   =    -79059.91668846
  -exchange      EXHF   =      4794.00314680
  -V(xc)+E(xc)   XCENC  =      3729.12947005
  PAW double counting   =    151119.17270988  -176220.06276539
  entropy T*S    EENTRO =        -0.01233599
  eigenvalues    EBANDS =     75699.80688706
  atomic energy  EATOM  =    131754.67725141
  ---------------------------------------------------
  free energy    TOTEN  =     30605.62970305 eV

  energy without entropy =    30605.64203904  energy(sigma->0) =    30605.63587104
  exchange ACFDT corr.  =        -0.05709465  see jH, gK, PRB 81, 115126


--------------------------------------------------------------------------------------------------------




--------------------------------------- Iteration      1(   7)  ---------------------------------------


    POTLOK:  cpu time      1.5165: real time      1.5164
    SETDIJ:  cpu time      0.4481: real time      0.4480
    TRIAL :  cpu time    227.3126: real time    227.2824
    CORREC:  cpu time    229.7924: real time    229.7570
    CHARGE:  cpu time      0.2157: real time      0.2156
    --------------------------------------------
      LOOP:  cpu time    459.2888: real time    459.2234

 eigenvalue-minimisations  :     0
 total energy-change (2. order) :-0.2171111E+05  (-0.4759423E+04)
 number of electron    1042.9998579 magnetization 
 augmentation part      425.3048045 magnetization 

 Free energy of the ion-electron system (eV)
  ---------------------------------------------------
  alpha Z        PSCENC =      5383.97153279
  Ewald energy   TEWEN  =    -86595.13791234
  -Hartree energ DENC   =    -38296.09672428
  -exchange      EXHF   =      3652.16346052
  -V(xc)+E(xc)   XCENC  =      2844.13726034
  PAW double counting   =    149830.59858759  -166683.13625320
  entropy T*S    EENTRO =        -0.02478506
  eigenvalues    EBANDS =      7003.35785126
  atomic energy  EATOM  =    131754.67725141
  ---------------------------------------------------
  free energy    TOTEN  =      8894.52271809 eV

  energy without entropy =     8894.54750315  energy(sigma->0) =     8894.53511062
  exchange ACFDT corr.  =      -136.97616733  see jH, gK, PRB 81, 115126


--------------------------------------------------------------------------------------------------------




--------------------------------------- Iteration      1(   8)  ---------------------------------------


    POTLOK:  cpu time      1.4760: real time      1.4758
    SETDIJ:  cpu time      0.4150: real time      0.4149
    TRIAL :  cpu time    227.8059: real time    227.7733
    CORREC:  cpu time    229.1970: real time    229.1661
    CHARGE:  cpu time      0.2196: real time      0.2196
    --------------------------------------------
      LOOP:  cpu time    459.1171: real time    459.0536

 eigenvalue-minimisations  :     0
 total energy-change (2. order) :-0.4585339E+04  (-0.2258538E+04)
 number of electron    1042.9998548 magnetization 
 augmentation part      433.2008586 magnetization 

 Free energy of the ion-electron system (eV)
  ---------------------------------------------------
  alpha Z        PSCENC =      5383.97153279
  Ewald energy   TEWEN  =    -86595.13791234
  -Hartree energ DENC   =    -30334.48384212
  -exchange      EXHF   =      3423.82578682
  -V(xc)+E(xc)   XCENC  =      2673.94077100
  PAW double counting   =    135534.21190690  -149846.20687592
  entropy T*S    EENTRO =        -0.03790095
  eigenvalues    EBANDS =     -7685.58990609
  atomic energy  EATOM  =    131754.67725141
  ---------------------------------------------------
  free energy    TOTEN  =      4309.18392738 eV

  energy without entropy =     4309.22182833  energy(sigma->0) =     4309.20287786
  exchange ACFDT corr.  =      -100.15482504  see jH, gK, PRB 81, 115126


--------------------------------------------------------------------------------------------------------




--------------------------------------- Iteration      1(   9)  ---------------------------------------


    POTLOK:  cpu time      1.5089: real time      1.5088
    SETDIJ:  cpu time      0.4170: real time      0.4169
    TRIAL :  cpu time    228.1425: real time    228.1152
    CORREC:  cpu time    228.7199: real time    228.6969
    CHARGE:  cpu time      0.2214: real time      0.2214
    --------------------------------------------
      LOOP:  cpu time    459.0114: real time    458.9612

 eigenvalue-minimisations  :     0
 total energy-change (2. order) :-0.1334298E+04  (-0.2508662E+04)
 number of electron    1042.9998413 magnetization 
 augmentation part      447.9044969 magnetization 

 Free energy of the ion-electron system (eV)
  ---------------------------------------------------
  alpha Z        PSCENC =      5383.97153279
  Ewald energy   TEWEN  =    -86595.13791234
  -Hartree energ DENC   =    -31105.76340158
  -exchange      EXHF   =      3465.65938317
  -V(xc)+E(xc)   XCENC  =      2703.04571361
  PAW double counting   =    129270.79406493  -143885.47381558
  entropy T*S    EENTRO =        -0.01868930
  eigenvalues    EBANDS =     -8016.84920330
  atomic energy  EATOM  =    131754.67725141
  ---------------------------------------------------
  free energy    TOTEN  =      2974.88571216 eV

  energy without entropy =     2974.90440146  energy(sigma->0) =     2974.89505681
  exchange ACFDT corr.  =      -107.25390763  see jH, gK, PRB 81, 115126


--------------------------------------------------------------------------------------------------------




--------------------------------------- Iteration      1(  10)  ---------------------------------------


    POTLOK:  cpu time      1.4771: real time      1.4769
    SETDIJ:  cpu time      0.4579: real time      0.4578
    TRIAL :  cpu time    227.2317: real time    227.2024
    CORREC:  cpu time    228.6533: real time    228.6261
    CHARGE:  cpu time      0.2167: real time      0.2167
    --------------------------------------------
      LOOP:  cpu time    458.0390: real time    457.9825

 eigenvalue-minimisations  :     0
 total energy-change (2. order) :-0.1356526E+04  (-0.1181437E+04)
 number of electron    1042.9998358 magnetization 
 augmentation part      452.1741055 magnetization 

 Free energy of the ion-electron system (eV)
  ---------------------------------------------------
  alpha Z        PSCENC =      5383.97153279
  Ewald energy   TEWEN  =    -86595.13791234
  -Hartree energ DENC   =    -32773.87946767
  -exchange      EXHF   =      3578.84248099
  -V(xc)+E(xc)   XCENC  =      2785.76216953
  PAW double counting   =    129115.54918174  -144577.64029171
  entropy T*S    EENTRO =        -0.01349675
  eigenvalues    EBANDS =     -7053.76640669
  atomic energy  EATOM  =    131754.67725141
  ---------------------------------------------------
  free energy    TOTEN  =      1618.35984876 eV

  energy without entropy =     1618.37334551  energy(sigma->0) =     1618.36659713
  exchange ACFDT corr.  =        -3.09093399  see jH, gK, PRB 81, 115126


--------------------------------------------------------------------------------------------------------




--------------------------------------- Iteration      1(  11)  ---------------------------------------


    POTLOK:  cpu time      1.5252: real time      1.5250
    SETDIJ:  cpu time      0.4164: real time      0.4164
    TRIAL :  cpu time    227.1889: real time    227.1579
    CORREC:  cpu time    228.8142: real time    228.7846
    CHARGE:  cpu time      0.2234: real time      0.2234
    --------------------------------------------
      LOOP:  cpu time    458.1697: real time    458.1140

 eigenvalue-minimisations  :     0
 total energy-change (2. order) :-0.1163639E+04  (-0.6724529E+03)
 number of electron    1042.9998371 magnetization 
 augmentation part      450.9646431 magnetization 

 Free energy of the ion-electron system (eV)
  ---------------------------------------------------
  alpha Z        PSCENC =      5383.97153279
  Ewald energy   TEWEN  =    -86595.13791234
  -Hartree energ DENC   =    -33363.77094746
  -exchange      EXHF   =      3703.28556886
  -V(xc)+E(xc)   XCENC  =      2840.66692107
  PAW double counting   =    128190.01077928  -143740.24493342
  entropy T*S    EENTRO =        -0.00549249
  eigenvalues    EBANDS =     -7718.72404494
  atomic energy  EATOM  =    131754.67725141
  ---------------------------------------------------
  free energy    TOTEN  =       454.72071849 eV

  energy without entropy =      454.72621097  energy(sigma->0) =      454.72346473
  exchange ACFDT corr.  =        -1.58965341  see jH, gK, PRB 81, 115126


--------------------------------------------------------------------------------------------------------




--------------------------------------- Iteration      1(  12)  ---------------------------------------


    POTLOK:  cpu time      1.4422: real time      1.4421
    SETDIJ:  cpu time      0.5183: real time      0.5182
    TRIAL :  cpu time    227.2921: real time    227.2628
    CORREC:  cpu time    228.8638: real time    228.8373
    CHARGE:  cpu time      0.2159: real time      0.2159
    --------------------------------------------
      LOOP:  cpu time    458.3340: real time    458.2784

 eigenvalue-minimisations  :     0
 total energy-change (2. order) :-0.6859356E+03  (-0.3438263E+03)
 number of electron    1042.9998398 magnetization 
 augmentation part      450.4907491 magnetization 

 Free energy of the ion-electron system (eV)
  ---------------------------------------------------
  alpha Z        PSCENC =      5383.97153279
  Ewald energy   TEWEN  =    -86595.13791234
  -Hartree energ DENC   =    -33684.82896490
  -exchange      EXHF   =      3792.75721856
  -V(xc)+E(xc)   XCENC  =      2869.75283138
  PAW double counting   =    126566.27642760  -141743.86605600
  entropy T*S    EENTRO =        -0.00938594
  eigenvalues    EBANDS =     -8574.81175918
  atomic energy  EATOM  =    131754.67725141
  ---------------------------------------------------
  free energy    TOTEN  =      -231.21492318 eV

  energy without entropy =     -231.20553724  energy(sigma->0) =     -231.21023021
  exchange ACFDT corr.  =        -0.11856870  see jH, gK, PRB 81, 115126


--------------------------------------------------------------------------------------------------------




--------------------------------------- Iteration      1(  13)  ---------------------------------------


    POTLOK:  cpu time      1.5124: real time      1.5122
    SETDIJ:  cpu time      0.4142: real time      0.4141
    TRIAL :  cpu time    227.2524: real time    227.2226
    CORREC:  cpu time    228.7752: real time    228.7473
    CHARGE:  cpu time      0.2132: real time      0.2132
    --------------------------------------------
      LOOP:  cpu time    458.1687: real time    458.1111

 eigenvalue-minimisations  :     0
 total energy-change (2. order) :-0.3489343E+03  (-0.1899319E+03)
 number of electron    1042.9998419 magnetization 
 augmentation part      451.8204025 magnetization 

 Free energy of the ion-electron system (eV)
  ---------------------------------------------------
  alpha Z        PSCENC =      5383.97153279
  Ewald energy   TEWEN  =    -86595.13791234
  -Hartree energ DENC   =    -34112.86684312
  -exchange      EXHF   =      3821.71069946
  -V(xc)+E(xc)   XCENC  =      2886.50908411
  PAW double counting   =    122197.73362094  -137373.70901503
  entropy T*S    EENTRO =        -0.00955288
  eigenvalues    EBANDS =     -8543.02821337
  atomic energy  EATOM  =    131754.67725141
  ---------------------------------------------------
  free energy    TOTEN  =      -580.14918109 eV

  energy without entropy =     -580.13962821  energy(sigma->0) =     -580.14440465
  exchange ACFDT corr.  =        -0.29295461  see jH, gK, PRB 81, 115126


--------------------------------------------------------------------------------------------------------




--------------------------------------- Iteration      1(  14)  ---------------------------------------


    POTLOK:  cpu time      1.4752: real time      1.4750
    SETDIJ:  cpu time      0.4327: real time      0.4326
    TRIAL :  cpu time    227.3137: real time    227.2877
    CORREC:  cpu time    228.6933: real time    228.6673
    CHARGE:  cpu time      0.2096: real time      0.2096
    --------------------------------------------
      LOOP:  cpu time    458.1269: real time    458.0749

 eigenvalue-minimisations  :     0
 total energy-change (2. order) :-0.1816841E+03  (-0.7974853E+02)
 number of electron    1042.9998446 magnetization 
 augmentation part      450.9191206 magnetization 

 Free energy of the ion-electron system (eV)
  ---------------------------------------------------
  alpha Z        PSCENC =      5383.97153279
  Ewald energy   TEWEN  =    -86595.13791234
  -Hartree energ DENC   =    -34190.54676400
  -exchange      EXHF   =      3824.00379999
  -V(xc)+E(xc)   XCENC  =      2888.04073269
  PAW double counting   =    119246.45511411  -134617.02275001
  entropy T*S    EENTRO =        -0.00915680
  eigenvalues    EBANDS =     -8456.26471796
  atomic energy  EATOM  =    131754.67725141
  ---------------------------------------------------
  free energy    TOTEN  =      -761.83326620 eV

  energy without entropy =     -761.82410940  energy(sigma->0) =     -761.82868780
  exchange ACFDT corr.  =        -0.06242149  see jH, gK, PRB 81, 115126


--------------------------------------------------------------------------------------------------------




--------------------------------------- Iteration      1(  15)  ---------------------------------------


[...]
   -.115E+03 0.800E+01 -.204E+03   0.114E+03 -.715E+01 0.204E+03   0.143E+01 -.559E+00 -.102E+01
   0.108E+03 0.968E+02 0.910E+02   -.106E+03 -.970E+02 -.902E+02   -.202E+01 0.451E+00 -.494E+00
   0.115E+03 0.800E+01 -.204E+03   -.114E+03 -.715E+01 0.204E+03   -.143E+01 -.559E+00 -.102E+01
   0.326E-02 0.655E+02 0.556E+01   -.145E-11 -.638E+02 -.405E+01   0.000E+00 -.148E+01 -.132E+01
   0.160E-02 0.384E+02 -.779E+02   -.401E-10 -.363E+02 0.795E+02   0.000E+00 -.185E+01 -.170E+01
   -.560E+01 -.546E+02 0.259E+02   0.534E+01 0.644E+02 -.288E+02   0.242E+00 -.844E+01 0.244E+01
   -.466E+01 -.268E+02 0.634E+01   0.462E+01 0.340E+02 -.105E+02   0.347E-01 -.616E+01 0.359E+01
   0.560E+01 -.546E+02 0.259E+02   -.534E+01 0.644E+02 -.288E+02   -.242E+00 -.844E+01 0.244E+01
   0.466E+01 -.268E+02 0.634E+01   -.462E+01 0.340E+02 -.105E+02   -.347E-01 -.616E+01 0.359E+01
   0.512E-03 -.338E+02 0.218E+02   -.790E-12 0.419E+02 -.255E+02   0.000E+00 -.700E+01 0.316E+01
   0.302E-03 -.234E+02 0.847E+01   -.370E-10 0.305E+02 -.127E+02   0.000E+00 -.603E+01 0.370E+01
   -.510E+02 0.583E+02 -.117E+02   0.509E+02 -.656E+02 0.153E+02   0.170E+00 0.616E+01 -.312E+01
   -.649E+01 0.267E+02 -.204E+02   0.635E+01 -.340E+02 0.242E+02   0.127E+00 0.626E+01 -.329E+01
   -.870E-03 0.313E+03 -.584E+02   -.275E-10 -.342E+03 0.658E+02   0.000E+00 0.241E+02 -.630E+01
   -.335E-03 0.286E+02 -.226E+02   -.325E-10 -.360E+02 0.265E+02   0.000E+00 0.634E+01 -.337E+01
   0.510E+02 0.583E+02 -.117E+02   -.509E+02 -.656E+02 0.153E+02   -.170E+00 0.616E+01 -.312E+01
   0.649E+01 0.267E+02 -.204E+02   -.635E+01 -.340E+02 0.242E+02   -.127E+00 0.626E+01 -.329E+01
   -.771E+01 0.103E+03 0.542E+02   0.721E+01 -.101E+03 -.505E+02   0.490E+00 -.205E+01 -.323E+01
   -.707E+01 0.844E+02 0.167E+02   0.696E+01 -.825E+02 -.120E+02   0.993E-01 -.167E+01 -.405E+01
   0.771E+01 0.103E+03 0.542E+02   -.721E+01 -.101E+03 -.505E+02   -.490E+00 -.205E+01 -.323E+01
   0.707E+01 0.844E+02 0.167E+02   -.696E+01 -.825E+02 -.120E+02   -.993E-01 -.167E+01 -.405E+01
   0.269E-03 0.876E+02 0.477E+02   -.212E-10 -.856E+02 -.432E+02   0.000E+00 -.179E+01 -.388E+01
   0.458E-04 0.803E+02 0.202E+02   -.116E-10 -.788E+02 -.151E+02   0.000E+00 -.134E+01 -.431E+01
   -.603E+01 -.668E+02 -.280E+02   0.597E+01 0.653E+02 0.231E+02   0.604E-01 0.126E+01 0.421E+01
   -.372E+01 -.558E+02 -.475E+02   0.372E+01 0.536E+02 0.428E+02   0.498E-02 0.184E+01 0.408E+01
   -.127E-03 -.680E+02 -.302E+02   -.190E-10 0.666E+02 0.256E+02   0.000E+00 0.117E+01 0.396E+01
   -.167E-03 -.535E+02 -.512E+02   -.702E-11 0.513E+02 0.468E+02   0.000E+00 0.183E+01 0.381E+01
   0.603E+01 -.668E+02 -.280E+02   -.597E+01 0.653E+02 0.231E+02   -.604E-01 0.126E+01 0.421E+01
   0.372E+01 -.558E+02 -.475E+02   -.372E+01 0.536E+02 0.428E+02   -.498E-02 0.184E+01 0.408E+01
   -.612E+01 0.133E+03 0.560E+02   0.620E+01 -.146E+03 -.521E+02   -.663E-01 0.109E+02 -.329E+01
   -.421E+01 0.119E+03 0.663E+02   0.420E+01 -.132E+03 -.631E+02   0.965E-02 0.107E+02 -.277E+01
   -.115E-03 0.135E+03 0.556E+02   -.306E-10 -.148E+03 -.519E+02   0.000E+00 0.112E+02 -.309E+01
   -.205E-03 0.121E+03 0.708E+02   -.247E-11 -.134E+03 -.681E+02   0.000E+00 0.107E+02 -.231E+01
   0.612E+01 0.133E+03 0.560E+02   -.620E+01 -.146E+03 -.521E+02   0.663E-01 0.109E+02 -.329E+01
   0.421E+01 0.119E+03 0.663E+02   -.420E+01 -.132E+03 -.631E+02   -.965E-02 0.107E+02 -.277E+01
   -.764E+01 -.990E+02 -.553E+02   0.746E+01 0.111E+03 0.518E+02   0.162E+00 -.106E+02 0.298E+01
   -.939E+01 -.833E+02 -.947E+02   0.897E+01 0.962E+02 0.921E+02   0.432E+00 -.111E+02 0.237E+01
   0.764E+01 -.990E+02 -.553E+02   -.746E+01 0.111E+03 0.518E+02   -.162E+00 -.106E+02 0.298E+01
   0.939E+01 -.833E+02 -.947E+02   -.897E+01 0.962E+02 0.921E+02   -.432E+00 -.111E+02 0.237E+01
   0.104E-03 -.108E+03 -.564E+02   -.237E-10 0.121E+03 0.527E+02   0.000E+00 -.110E+02 0.311E+01
   0.260E-03 -.103E+03 -.799E+02   -.126E-10 0.116E+03 0.766E+02   0.000E+00 -.111E+02 0.291E+01
   -.196E+02 0.473E+01 0.279E+02   0.198E+02 0.216E+01 -.304E+02   -.128E+00 -.598E+01 0.218E+01
   -.261E+02 -.361E+01 -.115E+02   0.265E+02 0.101E+02 0.641E+01   -.323E+00 -.569E+01 0.449E+01
   -.876E-03 0.465E+02 0.698E+02   -.472E-11 -.394E+02 -.752E+02   0.000E+00 -.617E+01 0.451E+01
   -.606E-03 0.990E+01 -.754E+02   -.635E-11 -.144E+01 0.729E+02   0.000E+00 -.741E+01 0.239E+01
   0.196E+02 0.473E+01 0.279E+02   -.198E+02 0.216E+01 -.304E+02   0.128E+00 -.598E+01 0.218E+01
   0.261E+02 -.361E+01 -.115E+02   -.265E+02 0.101E+02 0.641E+01   0.323E+00 -.569E+01 0.449E+01
   -.239E+02 -.111E+02 -.109E+02   0.258E+02 0.414E+01 0.138E+02   -.164E+01 0.606E+01 -.249E+01
   -.512E+01 0.511E+01 -.474E+01   0.533E+01 -.123E+02 0.892E+01   -.178E+00 0.620E+01 -.361E+01
   0.239E+02 -.111E+02 -.109E+02   -.258E+02 0.414E+01 0.138E+02   0.164E+01 0.606E+01 -.249E+01
   0.512E+01 0.511E+01 -.474E+01   -.533E+01 -.123E+02 0.892E+01   0.178E+00 0.620E+01 -.361E+01
   0.422E-03 0.186E+01 -.984E+01   -.616E-10 -.867E+01 0.129E+02   0.000E+00 0.593E+01 -.272E+01
   0.307E-03 0.727E+01 -.831E+01   -.320E-10 -.143E+02 0.125E+02   0.000E+00 0.608E+01 -.367E+01
   -.404E+02 0.275E+02 0.472E+02   0.407E+02 -.250E+02 -.423E+02   -.191E+00 -.209E+01 -.436E+01
   -.767E+01 0.503E+02 0.472E+02   0.800E+01 -.481E+02 -.432E+02   -.270E+00 -.183E+01 -.338E+01
   -.159E-02 -.164E+03 0.130E+03   -.162E-10 0.175E+03 -.130E+03   0.000E+00 -.910E+01 -.673E+00
   -.556E-03 0.500E+02 0.452E+02   -.297E-10 -.482E+02 -.411E+02   0.000E+00 -.149E+01 -.353E+01
   0.404E+02 0.275E+02 0.472E+02   -.407E+02 -.250E+02 -.423E+02   0.191E+00 -.209E+01 -.436E+01
   0.767E+01 0.503E+02 0.472E+02   -.800E+01 -.481E+02 -.432E+02   0.270E+00 -.183E+01 -.338E+01
   -.179E+03 -.626E+02 0.108E+03   0.186E+03 0.604E+02 -.116E+03   -.571E+01 0.183E+01 0.730E+01
   -.124E+02 -.885E+02 -.593E+02   0.124E+02 0.876E+02 0.547E+02   0.505E-01 0.787E+00 0.410E+01
   0.179E+03 -.626E+02 0.108E+03   -.186E+03 0.604E+02 -.116E+03   0.571E+01 0.183E+01 0.730E+01
   0.124E+02 -.885E+02 -.593E+02   -.124E+02 0.876E+02 0.547E+02   -.505E-01 0.787E+00 0.410E+01
   0.256E-02 -.665E+02 -.126E+02   -.110E-11 0.638E+02 0.708E+01   0.000E+00 0.227E+01 0.467E+01
   0.640E-03 -.778E+02 -.490E+02   -.227E-10 0.767E+02 0.443E+02   0.000E+00 0.102E+01 0.412E+01
   -.204E+03 0.569E+02 -.843E+02   0.214E+03 -.713E+02 0.956E+02   -.871E+01 0.123E+02 -.952E+01
   -.127E+02 0.118E+03 0.905E+02   0.127E+02 -.130E+03 -.876E+02   -.177E-02 0.103E+02 -.256E+01
   0.204E+03 0.569E+02 -.843E+02   -.214E+03 -.713E+02 0.956E+02   0.871E+01 0.123E+02 -.952E+01
   0.127E+02 0.118E+03 0.905E+02   -.127E+02 -.130E+03 -.876E+02   0.177E-02 0.103E+02 -.256E+01
   0.784E-03 0.984E+02 0.393E+02   -.817E-11 -.110E+03 -.340E+02   0.000E+00 0.101E+02 -.460E+01
   0.902E-03 0.123E+03 0.753E+02   -.201E-10 -.135E+03 -.721E+02   0.000E+00 0.106E+02 -.274E+01
   -.224E+02 -.130E+03 -.360E+02   0.237E+02 0.141E+03 0.307E+02   -.105E+01 -.936E+01 0.447E+01
   -.791E+01 -.133E+03 -.783E+02   0.779E+01 0.143E+03 0.754E+02   0.166E+00 -.923E+01 0.251E+01
   -.158E-02 -.163E+03 0.481E+01   -.840E-11 0.175E+03 -.946E+01   0.000E+00 -.109E+02 0.390E+01
   -.983E-03 -.163E+03 -.107E+03   -.383E-10 0.174E+03 0.104E+03   0.000E+00 -.920E+01 0.265E+01
   0.224E+02 -.130E+03 -.360E+02   -.237E+02 0.141E+03 0.307E+02   0.105E+01 -.936E+01 0.447E+01
   0.791E+01 -.133E+03 -.783E+02   -.779E+01 0.143E+03 0.754E+02   -.166E+00 -.923E+01 0.251E+01
 -----------------------------------------------------------------------------------------------
   0.599E-02 -.136E+02 -.782E+00   0.471E-13 0.966E-12 -.134E-11   0.444E-15 0.112E+02 0.784E+00
 
 
 POSITION                                       TOTAL-FORCE (eV/Angst)
 -----------------------------------------------------------------------------------
      0.00056      7.68169     -1.78459        -0.044035      0.075428      0.103067
      0.00258      6.26812     -7.40724        -0.044314      0.146116     -0.070622
      3.04757      7.68779     -1.78940        -0.000000      0.210893      0.104364
      3.04757      6.26782     -7.40278        -0.000000      0.209019     -0.126820
      6.09457      7.68169     -1.78459         0.044035      0.075428      0.103067
      6.09255      6.26812     -7.40724         0.044314      0.146116     -0.070622
      1.52775      9.40403     -3.89250         0.001789     -0.019094     -0.038989
      1.52862      7.98666     -9.52152        -0.001177     -0.021717     -0.075561
      4.56738      9.40403     -3.89250        -0.001789     -0.019094     -0.038989
      4.56651      7.98666     -9.52152         0.001177     -0.021717     -0.075561
      7.61892      9.38943     -3.89030        -0.000000     -0.061937     -0.031693
      7.61892      7.98152     -9.52002        -0.000000     -0.049681     -0.064866
      1.55728      6.13879     -4.47297        -0.382224      0.261155     -0.034479
      1.52221      4.78571    -10.14671        -0.010908     -0.047961     -0.008345
      4.53785      6.13879     -4.47297         0.382224      0.261155     -0.034479
      4.57293      4.78571    -10.14671         0.010908     -0.047961     -0.008345
      7.61892      6.15058     -4.48776        -0.000000      0.103728     -0.015756
      7.61892      4.79203    -10.15533        -0.000000     -0.043971     -0.019366
      0.00262     10.87870     -1.14945         0.018013      0.072395      0.035023
      0.00121      9.50015     -6.81400         0.017218      0.018851     -0.020063
      3.04757     10.90351     -1.16060        -0.000000      0.073628      0.040964
      3.04757      9.50701     -6.81113        -0.000000      0.034292     -0.026891
      6.09252     10.87870     -1.14945        -0.018013      0.072395      0.035023
      6.09393      9.50015     -6.81400        -0.017218      0.018851     -0.020063
      1.55061      1.55807     -1.82050        -0.021363     -0.151541      0.250364
      1.52715      0.14488     -7.43770         0.020755     -0.100603     -0.113050
      4.54452      1.55807     -1.82050         0.021363     -0.151541      0.250364
      4.56798      0.14488     -7.43770        -0.020755     -0.100603     -0.113050
      7.61892      1.50833     -1.78449        -0.000000     -0.006491      0.112807
      7.61892      0.13986     -7.45537        -0.000000     -0.022038     -0.121914
      0.03580      3.23124     -3.85116        -0.431811      0.026365      0.417211
      0.00149      1.87220     -9.53813        -0.051094     -0.023337     -0.130213
      3.04757      1.86516     -9.53459        -0.000000     -0.033788     -0.124599
      6.05933      3.23124     -3.85116         0.431811      0.026365      0.417211
      6.09364      1.87220     -9.53813         0.051094     -0.023337     -0.130213
      0.00474      0.02836     -4.49329        -0.045357     -0.245817      0.109261
      0.00175     -1.37925    -10.14127         0.014280     -0.109067      0.010384
      3.04757      0.11332     -4.48711        -0.000000     -0.432513      0.038447
      3.04757     -1.36849    -10.15067        -0.000000     -0.097171      0.005298
      6.09040      0.02836     -4.49329         0.045357     -0.245817      0.109261
      6.09338     -1.37925    -10.14127        -0.014280     -0.109067      0.010384
      1.51582      4.74214     -1.18628        -0.114721      0.177272      0.194298
      1.52083      3.32632     -6.76069        -0.029353      0.192299     -0.687458
      4.57932      4.74214     -1.18628         0.114721      0.177272      0.194298
      4.57430      3.32632     -6.76069         0.029353      0.192299     -0.687458
      7.61892      4.74702     -1.17478        -0.000000      0.080475      0.078285
      7.61892      3.35684     -6.78666        -0.000000      0.049038     -0.171227
      1.51589     11.89838     -1.40608         0.032166     -0.194282      0.050411
      1.52220     10.50685     -7.10725         0.002877     -0.120762      0.147004
      4.57924     11.89838     -1.40608        -0.032166     -0.194282      0.050411
      4.57293     10.50685     -7.10725        -0.002877     -0.120762      0.147004
      7.61892     11.86930     -1.42132        -0.000000     -0.148698      0.084853
      7.61892     10.50181     -7.11389        -0.000000     -0.092643      0.154560
      0.00828      5.15421     -4.21715         0.137392      0.009886     -0.130637
      9.13932      3.78631     -9.86760         0.016663      0.161627     -0.098942
      3.04757      5.11510     -4.19511        -0.000000      0.352459     -0.084207
      3.04757      3.78480     -9.86011        -0.000000      0.151608     -0.108919
      6.08685      5.15421     -4.21715        -0.137392      0.009886     -0.130637
      6.09852      3.78631     -9.86760        -0.016663      0.161627     -0.098942
      1.52128      7.50375     -3.17299         0.089712     -0.191632     -0.167520
      1.53311      6.09446     -8.80892         0.008515     -0.053447     -0.036090
      4.57386      7.50375     -3.17299        -0.089712     -0.191632     -0.167520
      4.56203      6.09446     -8.80892        -0.008515     -0.053447     -0.036090
      7.61892      7.49680     -3.18061        -0.000000     -0.091865     -0.136820
      7.61892      6.09827     -8.81343        -0.000000     -0.048697     -0.062078
      0.00386      9.57086     -2.49043         0.014793     -0.011509      0.084532
      0.00344      8.16279     -8.12388         0.005023      0.013941      0.150915
      3.04757      9.57903     -2.48834        -0.000000     -0.025176      0.074756
      3.04757      8.16658     -8.12164        -0.000000      0.003532      0.143623
      6.09127      9.57086     -2.49043        -0.014793     -0.011509      0.084532
      6.09169      8.16279     -8.12388        -0.005023      0.013941      0.150915
      0.00230      8.99978     -5.04579         0.003616      0.394122     -0.063375
      0.00311      7.59126    -10.67872         0.000599      0.385899     -0.047727
      3.04757      8.98988     -5.04625        -0.000000      0.381309     -0.051482
      3.04757      7.60077    -10.68925        -0.000000      0.377067     -0.025544
      6.09284      8.99978     -5.04579        -0.003616      0.394122     -0.063375
      6.09203      7.59126    -10.67872        -0.000599      0.385899     -0.047727
      1.52931      8.05981     -0.61693         0.018749     -0.405437      0.026661
      1.52355      6.66142     -6.25210         0.102176     -0.483170      0.177047
      4.56583      8.05981     -0.61693        -0.018749     -0.405437      0.026661
      4.57159      6.66142     -6.25210        -0.102176     -0.483170      0.177047
      7.61892      8.08499     -0.62081        -0.000000     -0.414162      0.048745
      7.61892      6.66474     -6.25790        -0.000000     -0.460422      0.098721
      9.13608      5.77870     -1.43431         0.049093     -0.239040      0.055977
      0.00682      4.35524     -7.09724         0.073926     -0.302466      0.298158
      3.04757      5.74437     -1.50461        -0.000000     -0.263922     -0.000594
      3.04757      4.34255     -7.01584        -0.000000     -0.368142      0.278603
      6.10175      5.77870     -1.43431        -0.049093     -0.239040      0.055977
      6.08831      4.35524     -7.09724        -0.073926     -0.302466      0.298158
      1.53734     -0.96720     -4.23961        -0.035939      0.290687     -0.124300
      1.52753     -2.37712     -9.84451        -0.003895      0.204569     -0.133807
      4.55779     -0.96720     -4.23961         0.035939      0.290687     -0.124300
      4.56760     -2.37712     -9.84451         0.003895      0.204569     -0.133807
      7.61892     -0.98649     -4.23492        -0.000000      0.247873     -0.131760
      7.61892     -2.38163     -9.84005        -0.000000      0.208306     -0.152409
      9.11300      1.30577     -3.14790         0.082979      0.073820     -0.245830
      0.00101     -0.03245     -8.83830        -0.000613      0.016415     -0.039207
      3.04757      1.23925     -3.05231        -0.000000     -0.143083     -0.157041
      3.04757     -0.03430     -8.83488        -0.000000      0.046655     -0.046690
      6.12483      1.30577     -3.14790        -0.082979      0.073820     -0.245830
      6.09412     -0.03245     -8.83830         0.000613      0.016415     -0.039207
      1.34921      3.39793     -2.41018        -0.197974     -0.030747     -0.005662
      1.52595      2.04015     -8.14298         0.004233      0.039497      0.281675
      4.74592      3.39793     -2.41018         0.197974     -0.030747     -0.005662
      4.56918      2.04015     -8.14298        -0.004233      0.039497      0.281675
      7.61892      3.41494     -2.47559        -0.000000      0.026707      0.050593
      7.61892      2.04012     -8.13343        -0.000000      0.017541      0.202713
      1.35541      2.61296     -5.09391        -0.145424      0.299442     -0.076133
      1.52712      1.50199    -10.70017         0.014824      0.356832     -0.079200
      4.73972      2.61296     -5.09391         0.145424      0.299442     -0.076133
      4.56801      1.50199    -10.70017        -0.014824      0.356832     -0.079200
      7.61892      2.85398     -5.01764        -0.000000      0.343166     -0.146815
      7.61892      1.48269    -10.69677        -0.000000      0.382000     -0.046446
      9.13878      1.87574     -0.60555         0.005078     -0.271636     -0.006018
      9.13437      0.50454     -6.28153         0.105488     -0.174621      0.147367
      3.04757      1.95015     -0.59516        -0.000000     -0.347335     -0.024143
      3.04757      0.52425     -6.28491        -0.000000     -0.185027      0.148500
      6.09906      1.87574     -0.60555        -0.005078     -0.271636     -0.006018
      6.10347      0.50454     -6.28153        -0.105488     -0.174621      0.147367
 -----------------------------------------------------------------------------------
    total drift:                                0.005990     -0.004552     -0.074994


--------------------------------------------------------------------------------------------------------



  FREE ENERGIE OF THE ION-ELECTRON SYSTEM (eV)
  ---------------------------------------------------
  free  energy   TOTEN  =      -940.63309406 eV

  energy  without entropy=     -940.61738472  energy(sigma->0) =     -940.62523939
 


--------------------------------------------------------------------------------------------------------


    POTLOK:  cpu time      1.9171: real time      1.9220


--------------------------------------------------------------------------------------------------------


 writing wavefunctions
     LOOP+:  cpu time  31319.4915: real time  31316.0517
    4ORBIT:  cpu time      0.0000: real time      0.0000

 total amount of memory used by VASP MPI-rank0  7406330. kBytes
=======================================================================

   base      :      30000. kBytes
   nonlr-proj:      46486. kBytes
   fftplans  :      51012. kBytes
   grid      :      90980. kBytes
   one-center:       1850. kBytes
   HF        :        129. kBytes
   wavefun   :    6956640. kBytes
   fock_wrk  :     229233. kBytes
 
  
  
 General timing and accounting informations for this job:
 ========================================================
  
                  Total CPU time used (sec):    31350.346
                            User time (sec):    31326.245
                          System time (sec):       24.100
                         Elapsed time (sec):    31348.596
  
                   Maximum memory used (kb):    13224576.
                   Average memory used (kb):          N/A
  
                          Minor page faults:      4626561
                          Major page faults:            5
                 Voluntary context switches:       571186
