<?xml version="1.0" encoding="ISO-8859-1"?>
<modeling>
 <generator>
  <i name="program" type="string">vasp </i>
  <i name="version" type="string">6.4.2  </i>
  <i name="subversion" type="string">20Jul23 (build Nov 12 2023 22:16:35) complex                          parallel </i>
  <i name="platform" type="string">LinuxNV </i>
  <i name="date" type="string">2025 03 14 </i>
  <i name="time" type="string">23:28:26 </i>
 </generator>
 <incar>
  <i type="int" name="ISTART">     0</i>
  <i type="string" name="PREC">Normal</i>
  <i type="string" name="ALGO">All</i>
  <i type="int" name="ISPIN">     1</i>
  <i type="int" name="ICHARG">     0</i>
  <i type="int" name="NELM">   500</i>
  <i type="int" name="IBRION">    -1</i>
  <i name="EDIFF">      0.00001000</i>
  <i name="EDIFFG">     -0.00500000</i>
  <i type="int" name="NSW">     0</i>
  <i type="int" name="ISIF">     2</i>
  <i name="ENCUT">    450.00000000</i>
  <i type="string" name="LREAL">Auto</i>
  <i type="logical" name="LPLANE"> T  </i>
  <i name="TIME">      0.40000000</i>
  <i type="int" name="ISMEAR">     0</i>
  <i name="SIGMA">      0.05000000</i>
  <i type="logical" name="LWAVE"> T  </i>
  <i type="logical" name="LCHARG"> T  </i>
  <i name="HFSCREEN">      0.20000000</i>
  <i type="logical" name="LHFCALC"> T  </i>
  <i type="int" name="LMAXFOCK">     4</i>
  <i name="AEXX">      0.32000000</i>
  <i type="string" name="PRECFOCK">Fast</i>
 </incar>
 <primitive_cell>
  <structure name="primitive_cell" >
   <crystal>
    <varray name="basis" >
     <v>       0.00000000      12.28047342       0.00000000 </v>
     <v>       9.14270205       0.00000000       0.00000000 </v>
     <v>       0.00000000      -2.76826177     -11.30069772 </v>
    </varray>
    <i name="volume">   1268.80515525 </i>
    <varray name="rec_basis" >
     <v>       0.00000000       0.08143009      -0.01994742 </v>
     <v>       0.10937686      -0.00000000       0.00000000 </v>
     <v>       0.00000000       0.00000000      -0.08849011 </v>
    </varray>
   </crystal>
   <varray name="positions" >
    <v>       0.66111882       0.00006166       0.15791890 </v>
    <v>       0.65816862       0.00028259       0.65546779 </v>
    <v>       0.66171156       0.33333333       0.15834412 </v>
    <v>       0.65805543       0.33333333       0.65507326 </v>
    <v>       0.66111882       0.66660501       0.15791890 </v>
    <v>       0.65816862       0.66638408       0.65546779 </v>
    <v>       0.84341632       0.16710099       0.34444804 </v>
    <v>       0.84028454       0.16719618       0.84256033 </v>
    <v>       0.84341632       0.49956568       0.34444804 </v>
    <v>       0.84028454       0.49947049       0.84256033 </v>
    <v>       0.84218338       0.83333333       0.34425296 </v>
    <v>       0.83983557       0.83333333       0.84242805 </v>
    <v>       0.58910643       0.17033043       0.39581358 </v>
    <v>       0.59210173       0.16649431       0.89788334 </v>
    <v>       0.58910643       0.49633624       0.39581358 </v>
    <v>       0.59210173       0.50017236       0.89788334 </v>
    <v>       0.59036158       0.83333333       0.39712202 </v>
    <v>       0.59278784       0.83333333       0.89864598 </v>
    <v>       0.90878182       0.00028605       0.10171453 </v>
    <v>       0.90952004       0.00013192       0.60297146 </v>
    <v>       0.91102480       0.33333333       0.10270135 </v>
    <v>       0.91002083       0.33333333       0.60271749 </v>
    <v>       0.90878182       0.66638061       0.10171453 </v>
    <v>       0.90952004       0.66653474       0.60297146 </v>
    <v>       0.16318792       0.16960134       0.16109644 </v>
    <v>       0.16016040       0.16703497       0.65816303 </v>
    <v>       0.16318792       0.49706532       0.16109644 </v>
    <v>       0.16016040       0.49963169       0.65816303 </v>
    <v>       0.15841957       0.83333333       0.15790966 </v>
    <v>       0.16010443       0.83333333       0.65972673 </v>
    <v>       0.33994053       0.00391574       0.34078920 </v>
    <v>       0.34271447       0.00016343       0.84403055 </v>
    <v>       0.34207034       0.33333333       0.84371657 </v>
    <v>       0.33994053       0.66275092       0.34078920 </v>
    <v>       0.34271447       0.66650324       0.84403055 </v>
    <v>       0.09193926       0.00051796       0.39761167 </v>
    <v>       0.08997964       0.00019149       0.89740231 </v>
    <v>       0.09873370       0.33333333       0.39706467 </v>
    <v>       0.09104337       0.33333333       0.89823402 </v>
    <v>       0.09193926       0.66614871       0.39761167 </v>
    <v>       0.08997964       0.66647518       0.89740231 </v>
    <v>       0.40981616       0.16579533       0.10497427 </v>
    <v>       0.40572104       0.16634412       0.59825407 </v>
    <v>       0.40981616       0.50087134       0.10497427 </v>
    <v>       0.40572104       0.50032255       0.59825407 </v>
    <v>       0.40998373       0.83333333       0.10395615 </v>
    <v>       0.40872426       0.83333333       0.60055225 </v>
    <v>       0.99693340       0.16580364       0.12442406 </v>
    <v>       0.99734499       0.16649373       0.62892118 </v>
    <v>       0.99693340       0.50086303       0.12442406 </v>
    <v>       0.99734499       0.50017294       0.62892118 </v>
    <v>       0.99486971       0.83333333       0.12577253 </v>
    <v>       0.99706682       0.83333333       0.62950934 </v>
    <v>       0.50382878       0.00090604       0.37317578 </v>
    <v>       0.50515242       0.99962974       0.87318525 </v>
    <v>       0.50020452       0.33333333       0.37122535 </v>
    <v>       0.50488044       0.33333333       0.87252198 </v>
    <v>       0.50382878       0.66576062       0.37317578 </v>
    <v>       0.50515242       0.66703692       0.87318525 </v>
    <v>       0.67432431       0.16639246       0.28077826 </v>
    <v>       0.67198803       0.16768626       0.77950249 </v>
    <v>       0.67432431       0.50027421       0.28077826 </v>
    <v>       0.67198803       0.49898040       0.77950249 </v>
    <v>       0.67391026       0.83333333       0.28145293 </v>
    <v>       0.67238819       0.83333333       0.77990153 </v>
    <v>       0.82903336       0.00042248       0.22037867 </v>
    <v>       0.82674747       0.00037631       0.71888343 </v>
    <v>       0.82965694       0.33333333       0.22019316 </v>
    <v>       0.82701138       0.33333333       0.71868464 </v>
    <v>       0.82903336       0.66624419       0.22037867 </v>
    <v>       0.82674747       0.66629035       0.71888343 </v>
    <v>       0.83350318       0.00025141       0.44650264 </v>
    <v>       0.83117029       0.00033988       0.94496116 </v>
    <v>       0.83270607       0.33333333       0.44654353 </v>
    <v>       0.83215414       0.33333333       0.94589319 </v>
    <v>       0.83350318       0.66641526       0.44650264 </v>
    <v>       0.83117029       0.66632679       0.94496116 </v>
    <v>       0.66861728       0.16727096       0.05459229 </v>
    <v>       0.66715319       0.16664095       0.55324896 </v>
    <v>       0.66861728       0.49939571       0.05459229 </v>
    <v>       0.66715319       0.50002572       0.55324896 </v>
    <v>       0.67074523       0.83333333       0.05493544 </v>
    <v>       0.66753909       0.83333333       0.55376233 </v>
    <v>       0.49917087       0.99927604       0.12692229 </v>
    <v>       0.49621920       0.00074592       0.62803521 </v>
    <v>       0.49777795       0.33333333       0.13314310 </v>
    <v>       0.49356221       0.33333333       0.62083230 </v>
    <v>       0.49917087       0.66739063       0.12692229 </v>
    <v>       0.49621920       0.66592075       0.62803521 </v>
    <v>       0.00580992       0.16814971       0.37516335 </v>
    <v>       0.00280335       0.16707673       0.87114173 </v>
    <v>       0.00580992       0.49851695       0.37516335 </v>
    <v>       0.00280335       0.49958993       0.87114173 </v>
    <v>       0.00414564       0.83333333       0.37474879 </v>
    <v>       0.00234755       0.83333333       0.87074703 </v>
    <v>       0.16912188       0.99675148       0.27855822 </v>
    <v>       0.17365884       0.00011100       0.78210242 </v>
    <v>       0.16179821       0.33333333       0.27009922 </v>
    <v>       0.17343989       0.33333333       0.78179944 </v>
    <v>       0.16912188       0.66991519       0.27855822 </v>
    <v>       0.17365884       0.66655567       0.78210242 </v>
    <v>       0.32477075       0.14757264       0.21327691 </v>
    <v>       0.32856136       0.16690372       0.72057354 </v>
    <v>       0.32477075       0.51909402       0.21327691 </v>
    <v>       0.32856136       0.49976294       0.72057354 </v>
    <v>       0.32746054       0.83333333       0.21906535 </v>
    <v>       0.32836781       0.83333333       0.71972841 </v>
    <v>       0.31438380       0.14825078       0.45076105 </v>
    <v>       0.33574815       0.16703191       0.94685884 </v>
    <v>       0.31438380       0.51841589       0.45076105 </v>
    <v>       0.33574815       0.49963476       0.94685884 </v>
    <v>       0.33248900       0.83333333       0.44401145 </v>
    <v>       0.33410827       0.83333333       0.94655806 </v>
    <v>       0.16482124       0.99957053       0.05358543 </v>
    <v>       0.16638505       0.99908837       0.55585349 </v>
    <v>       0.17067248       0.33333333       0.05266579 </v>
    <v>       0.16805792       0.33333333       0.55615267 </v>
    <v>       0.16482124       0.66709614       0.05358543 </v>
    <v>       0.16638505       0.66757829       0.55585349 </v>
   </varray>
  </structure>
  <varray name="primitive_index" >
   <v type="int" >        1 </v>
   <v type="int" >        2 </v>
   <v type="int" >        3 </v>
   <v type="int" >        4 </v>
   <v type="int" >        5 </v>
   <v type="int" >        6 </v>
   <v type="int" >        7 </v>
   <v type="int" >        8 </v>
   <v type="int" >        9 </v>
   <v type="int" >       10 </v>
   <v type="int" >       11 </v>
   <v type="int" >       12 </v>
   <v type="int" >       13 </v>
   <v type="int" >       14 </v>
   <v type="int" >       15 </v>
   <v type="int" >       16 </v>
   <v type="int" >       17 </v>
   <v type="int" >       18 </v>
   <v type="int" >       19 </v>
   <v type="int" >       20 </v>
   <v type="int" >       21 </v>
   <v type="int" >       22 </v>
   <v type="int" >       23 </v>
   <v type="int" >       24 </v>
   <v type="int" >       25 </v>
   <v type="int" >       26 </v>
   <v type="int" >       27 </v>
   <v type="int" >       28 </v>
   <v type="int" >       29 </v>
   <v type="int" >       30 </v>
   <v type="int" >       31 </v>
   <v type="int" >       32 </v>
   <v type="int" >       33 </v>
   <v type="int" >       34 </v>
   <v type="int" >       35 </v>
   <v type="int" >       36 </v>
   <v type="int" >       37 </v>
   <v type="int" >       38 </v>
   <v type="int" >       39 </v>
   <v type="int" >       40 </v>
   <v type="int" >       41 </v>
   <v type="int" >       42 </v>
   <v type="int" >       43 </v>
   <v type="int" >       44 </v>
   <v type="int" >       45 </v>
   <v type="int" >       46 </v>
   <v type="int" >       47 </v>
   <v type="int" >       48 </v>
   <v type="int" >       49 </v>
   <v type="int" >       50 </v>
   <v type="int" >       51 </v>
   <v type="int" >       52 </v>
   <v type="int" >       53 </v>
   <v type="int" >       54 </v>
   <v type="int" >       55 </v>
   <v type="int" >       56 </v>
   <v type="int" >       57 </v>
   <v type="int" >       58 </v>
   <v type="int" >       59 </v>
   <v type="int" >       60 </v>
   <v type="int" >       61 </v>
   <v type="int" >       62 </v>
   <v type="int" >       63 </v>
   <v type="int" >       64 </v>
   <v type="int" >       65 </v>
   <v type="int" >       66 </v>
   <v type="int" >       67 </v>
   <v type="int" >       68 </v>
   <v type="int" >       69 </v>
   <v type="int" >       70 </v>
   <v type="int" >       71 </v>
   <v type="int" >       72 </v>
   <v type="int" >       73 </v>
   <v type="int" >       74 </v>
   <v type="int" >       75 </v>
   <v type="int" >       76 </v>
   <v type="int" >       77 </v>
   <v type="int" >       78 </v>
   <v type="int" >       79 </v>
   <v type="int" >       80 </v>
   <v type="int" >       81 </v>
   <v type="int" >       82 </v>
   <v type="int" >       83 </v>
   <v type="int" >       84 </v>
   <v type="int" >       85 </v>
   <v type="int" >       86 </v>
   <v type="int" >       87 </v>
   <v type="int" >       88 </v>
   <v type="int" >       89 </v>
   <v type="int" >       90 </v>
   <v type="int" >       91 </v>
   <v type="int" >       92 </v>
   <v type="int" >       93 </v>
   <v type="int" >       94 </v>
   <v type="int" >       95 </v>
   <v type="int" >       96 </v>
   <v type="int" >       97 </v>
   <v type="int" >       98 </v>
   <v type="int" >       99 </v>
   <v type="int" >      100 </v>
   <v type="int" >      101 </v>
   <v type="int" >      102 </v>
   <v type="int" >      103 </v>
   <v type="int" >      104 </v>
   <v type="int" >      105 </v>
   <v type="int" >      106 </v>
   <v type="int" >      107 </v>
   <v type="int" >      108 </v>
   <v type="int" >      109 </v>
   <v type="int" >      110 </v>
   <v type="int" >      111 </v>
   <v type="int" >      112 </v>
   <v type="int" >      113 </v>
   <v type="int" >      114 </v>
   <v type="int" >      115 </v>
   <v type="int" >      116 </v>
   <v type="int" >      117 </v>
   <v type="int" >      118 </v>
   <v type="int" >      119 </v>
  </varray>
 </primitive_cell>
 <kpoints>
  <generation param="Gamma">
   <v type="int" name="divisions">       2        2        2 </v>
   <v name="usershift">      0.00000000       0.00000000       0.00000000 </v>
   <v name="genvec1">      0.50000000       0.00000000       0.00000000 </v>
   <v name="genvec2">      0.00000000       0.50000000       0.00000000 </v>
   <v name="genvec3">      0.00000000       0.00000000       0.50000000 </v>
   <v name="shift">      0.00000000       0.00000000       0.00000000 </v>
  </generation>
  <varray name="kpointlist" >
   <v>       0.00000000       0.00000000       0.00000000 </v>
   <v>       0.50000000       0.00000000       0.00000000 </v>
   <v>       0.00000000       0.50000000       0.00000000 </v>
   <v>       0.50000000       0.50000000       0.00000000 </v>
   <v>       0.00000000       0.00000000       0.50000000 </v>
   <v>       0.50000000       0.00000000       0.50000000 </v>
   <v>       0.00000000       0.50000000       0.50000000 </v>
   <v>       0.50000000       0.50000000       0.50000000 </v>
  </varray>
  <varray name="weights" >
   <v>       0.12500000 </v>
   <v>       0.12500000 </v>
   <v>       0.12500000 </v>
   <v>       0.12500000 </v>
   <v>       0.12500000 </v>
   <v>       0.12500000 </v>
   <v>       0.12500000 </v>
   <v>       0.12500000 </v>
  </varray>
 </kpoints>
 <parameters>
  <separator name="general" >
   <i type="string" name="SYSTEM">unknown system</i>
   <i type="logical" name="LCOMPAT"> F  </i>
  </separator>
  <separator name="electronic" >
   <i type="string" name="PREC">normal</i>
   <i name="ENMAX">    450.00000000</i>
   <i name="ENAUG">    605.39200000</i>
   <i name="EDIFF">      0.00001000</i>
   <i type="int" name="IALGO">    58</i>
   <i type="int" name="IWAVPR">    10</i>
   <i type="int" name="NBANDS">   625</i>
   <i type="int" name="NBANDSLOW">    -1</i>
   <i type="int" name="NBANDSHIGH">    -1</i>
   <i name="NELECT">   1043.00000000</i>
   <i type="int" name="TURBO">     0</i>
   <i type="int" name="IRESTART">     0</i>
   <i type="int" name="NREBOOT">     0</i>
   <i type="int" name="NMIN">     0</i>
   <i name="EREF">      0.00000000</i>
   <separator name="electronic smearing" >
    <i type="int" name="ISMEAR">     0</i>
    <i name="SIGMA">      0.05000000</i>
    <i name="KSPACING">      0.50000000</i>
    <i type="logical" name="KGAMMA"> T  </i>
    <i type="logical" name="KBLOWUP"> T  </i>
   </separator>
   <separator name="electronic projectors" >
    <i type="logical" name="LREAL"> T  </i>
    <v name="ROPT">     -0.00050000     -0.00050000</v>
    <i type="int" name="LMAXPAW">  -100</i>
    <i type="int" name="LMAXMIX">     2</i>
    <i type="logical" name="NLSPLINE"> F  </i>
   </separator>
   <separator name="electronic startup" >
    <i type="int" name="ISTART">     0</i>
    <i type="int" name="ICHARG">     0</i>
    <i type="int" name="INIWAV">     1</i>
   </separator>
   <separator name="electronic spin" >
    <i type="int" name="ISPIN">     1</i>
    <i type="logical" name="LNONCOLLINEAR"> F  </i>
    <v name="MAGMOM">      1.00000000      1.00000000      1.00000000      1.00000000      1.00000000      1.00000000      1.00000000      1.00000000      1.00000000      1.00000000      1.00000000      1.00000000      1.00000000      1.00000000      1.00000000      1.00000000      1.00000000      1.00000000      1.00000000      1.00000000
      1.00000000      1.00000000      1.00000000      1.00000000      1.00000000      1.00000000      1.00000000      1.00000000      1.00000000      1.00000000      1.00000000      1.00000000      1.00000000      1.00000000      1.00000000      1.00000000      1.00000000      1.00000000      1.00000000      1.00000000
      1.00000000      1.00000000      1.00000000      1.00000000      1.00000000      1.00000000      1.00000000      1.00000000      1.00000000      1.00000000      1.00000000      1.00000000      1.00000000      1.00000000      1.00000000      1.00000000      1.00000000      1.00000000      1.00000000      1.00000000
      1.00000000      1.00000000      1.00000000      1.00000000      1.00000000      1.00000000      1.00000000      1.00000000      1.00000000      1.00000000      1.00000000      1.00000000      1.00000000      1.00000000      1.00000000      1.00000000      1.00000000      1.00000000      1.00000000      1.00000000
      1.00000000      1.00000000      1.00000000      1.00000000      1.00000000      1.00000000      1.00000000      1.00000000      1.00000000      1.00000000      1.00000000      1.00000000      1.00000000      1.00000000      1.00000000      1.00000000      1.00000000      1.00000000      1.00000000      1.00000000
      1.00000000      1.00000000      1.00000000      1.00000000      1.00000000      1.00000000      1.00000000      1.00000000      1.00000000      1.00000000      1.00000000      1.00000000      1.00000000      1.00000000      1.00000000      1.00000000      1.00000000      1.00000000      1.00000000</v>
    <i name="NUPDOWN">     -1.00000000</i>
    <i type="logical" name="LSORBIT"> F  </i>
    <v name="SAXIS">      0.00000000      0.00000000      1.00000000</v>
    <i type="logical" name="LSPIRAL"> F  </i>
    <v name="QSPIRAL">      0.00000000      0.00000000      0.00000000</v>
    <i type="logical" name="LZEROZ"> F  </i>
   </separator>
   <separator name="electronic exchange-correlation" >
    <i type="logical" name="LASPH"> F  </i>
    <i type="logical" name="LMETAGGA"> F  </i>
   </separator>
   <separator name="electronic convergence" >
    <i type="int" name="NELM">   500</i>
    <i type="int" name="NELMDL">    -5</i>
    <i type="int" name="NELMIN">     2</i>
    <i name="ENINI">    450.00000000</i>
    <separator name="electronic convergence detail" >
     <i type="logical" name="LDIAG"> T  </i>
     <i type="logical" name="LSUBROT"> F  </i>
     <i name="WEIMIN">      0.00000000</i>
     <i name="EBREAK">      0.00000000</i>
     <i name="DEPER">      0.30000000</i>
     <i type="int" name="NRMM">     4</i>
     <i name="TIME">      0.40000000</i>
    </separator>
   </separator>
   <separator name="electronic mixer" >
    <i name="AMIX">      0.40000000</i>
    <i name="BMIX">      1.00000000</i>
    <i name="AMIN">      0.10000000</i>
    <i name="AMIX_MAG">      1.60000000</i>
    <i name="BMIX_MAG">      1.00000000</i>
    <separator name="electronic mixer details" >
     <i type="int" name="IMIX">     4</i>
     <i type="logical" name="MIXFIRST"> F  </i>
     <i type="int" name="MAXMIX">   -45</i>
     <i name="WC">    100.00000000</i>
     <i type="int" name="INIMIX">     1</i>
     <i type="int" name="MIXPRE">     1</i>
     <i type="int" name="MREMOVE">     5</i>
    </separator>
   </separator>
   <separator name="electronic dipolcorrection" >
    <i type="logical" name="LDIPOL"> F  </i>
    <i type="logical" name="LMONO"> F  </i>
    <i type="int" name="IDIPOL">     0</i>
    <i name="EPSILON">      1.00000000</i>
    <v name="DIPOL">   -100.00000000   -100.00000000   -100.00000000</v>
    <i name="EFIELD">      0.00000000</i>
   </separator>
  </separator>
  <separator name="grids" >
   <i type="int" name="NGX">    64</i>
   <i type="int" name="NGY">    48</i>
   <i type="int" name="NGZ">    60</i>
   <i type="int" name="NGXF">   128</i>
   <i type="int" name="NGYF">    96</i>
   <i type="int" name="NGZF">   120</i>
   <i type="logical" name="ADDGRID"> F  </i>
  </separator>
  <separator name="ionic" >
   <i type="int" name="NSW">     0</i>
   <i type="int" name="IBRION">    -1</i>
   <i type="int" name="MDALGO">     0</i>
   <i type="int" name="ISIF">     2</i>
   <i name="PSTRESS">      0.00000000</i>
   <i name="EDIFFG">     -0.00500000</i>
   <i type="int" name="NFREE">     0</i>
   <i name="POTIM">      0.50000000</i>
   <i name="SMASS">     -3.00000000</i>
   <i name="SCALEE">      1.00000000</i>
  </separator>
  <separator name="ionic md" >
   <i name="TEBEG">      0.00010000</i>
   <i name="TEEND">      0.00010000</i>
   <i type="int" name="NBLOCK">     1</i>
   <i type="int" name="KBLOCK">     1</i>
   <i type="int" name="NPACO">   256</i>
   <i name="APACO">     10.00000000</i>
  </separator>
  <separator name="symmetry" >
   <i type="int" name="ISYM">     3</i>
   <i name="SYMPREC">      0.00001000</i>
  </separator>
  <separator name="dos" >
   <i type="int" name="LORBIT">     0</i>
   <v name="RWIGS">     -1.00000000     -1.00000000</v>
   <i type="int" name="NEDOS">   301</i>
   <i name="EMIN">     10.00000000</i>
   <i name="EMAX">    -10.00000000</i>
   <i name="EFERMI">      0.00000000</i>
  </separator>
  <separator name="writing" >
   <i type="int" name="NWRITE">     2</i>
   <i type="logical" name="LWAVE"> T  </i>
   <i type="logical" name="LDOWNSAMPLE"> F  </i>
   <i type="logical" name="LCHARG"> T  </i>
   <i type="logical" name="LPARD"> F  </i>
   <i type="logical" name="LVTOT"> F  </i>
   <i type="logical" name="LVHAR"> F  </i>
   <i type="logical" name="LELF"> F  </i>
   <i type="logical" name="LOPTICS"> F  </i>
   <v name="STM">      0.00000000      0.00000000      0.00000000      0.00000000      0.00000000      0.00000000      0.00000000</v>
  </separator>
  <separator name="performance" >
   <i type="int" name="NPAR">     1</i>
   <i type="int" name="NSIM">     4</i>
   <i type="int" name="NBLK">    -1</i>
   <i type="logical" name="LPLANE"> T  </i>
   <i type="logical" name="LSCALAPACK"> T  </i>
   <i type="logical" name="LSCAAWARE"> F  </i>
   <i type="logical" name="LSCALU"> F  </i>
   <i type="logical" name="LASYNC"> F  </i>
   <i type="logical" name="LORBITALREAL"> F  </i>
  </separator>
  <separator name="miscellaneous" >
   <i type="int" name="IDIOT">     3</i>
   <i type="int" name="PHON_NSTRUCT">    -1</i>
   <i type="logical" name="LMUSIC"> F  </i>
   <v name="POMASS">     69.72300000     16.00000000</v>
   <v name="DARWINR">      0.00000000      0.00000000</v>
   <v name="DARWINV">      1.00000000      1.00000000</v>
   <i type="logical" name="LCORR"> T  </i>
  </separator>
  <i type="logical" name="GGA_COMPAT"> T  </i>
  <i type="logical" name="LBERRY"> F  </i>
  <i type="int" name="ICORELEVEL">     0</i>
  <i type="logical" name="LDAU"> F  </i>
  <i type="int" name="I_CONSTRAINED_M">     0</i>
  <separator name="electronic exchange-correlation" >
   <i type="string" name="GGA">--</i>
   <i type="int" name="VOSKOWN">     0</i>
   <i type="logical" name="LHFCALC"> T  </i>
   <i type="string" name="PRECFOCK">fast</i>
   <i type="logical" name="LSYMGRAD"> F  </i>
   <i type="logical" name="LHFONE"> F  </i>
   <i type="logical" name="LRHFCALC"> F  </i>
   <i type="logical" name="LTHOMAS"> F  </i>
   <i type="logical" name="LMODELHF"> F  </i>
   <i type="logical" name="LFOCKACE"> T  </i>
   <i name="ENCUT4O">     -1.00000000</i>
   <i type="int" name="EXXOEP">     0</i>
   <i type="int" name="FOURORBIT">     0</i>
   <i name="AEXX">      0.32000000</i>
   <i name="HFALPHA">     -1.00000000</i>
   <i name="MCALPHA">      0.00000000</i>
   <i name="ALDAX">      0.68000000</i>
   <i name="AGGAX">      0.68000000</i>
   <i name="ALDAC">      1.00000000</i>
   <i name="AGGAC">      1.00000000</i>
   <i type="int" name="NKREDX">     1</i>
   <i type="int" name="NKREDY">     1</i>
   <i type="int" name="NKREDZ">     1</i>
   <i type="logical" name="SHIFTRED"> F  </i>
   <i type="logical" name="ODDONLY"> F  </i>
   <i type="logical" name="EVENONLY"> F  </i>
   <i type="int" name="LMAXFOCK">     4</i>
   <i type="int" name="NMAXFOCKAE">     1</i>
   <i type="logical" name="LFOCKAEDFT"> F  </i>
   <i name="HFSCREEN">      0.20000000</i>
   <i name="HFSCREENC">      0.20000000</i>
   <i type="int" name="NBANDSGWLOW">     1</i>
  </separator>
  <separator name="vdW DFT" >
   <i type="logical" name="LUSE_VDW"> F  </i>
   <i type="int" name="IVDW_NL">     1</i>
   <i type="logical" name="LSPIN_VDW"> F  </i>
   <i name="Zab_VDW">     -0.84910000</i>
   <i name="PARAM1">      0.12340000</i>
   <i name="PARAM2">      1.00000000</i>
   <i name="PARAM3">      0.00000000</i>
  </separator>
  <separator name="model GW" >
   <i type="int" name="MODEL_GW">     0</i>
   <i name="MODEL_EPS0">      6.39733692</i>
   <i name="MODEL_ALPHA">      1.00000000</i>
  </separator>
  <separator name="linear response parameters" >
   <i type="logical" name="LEPSILON"> F  </i>
   <i type="logical" name="LRPA"> F  </i>
   <i type="logical" name="LNABLA"> F  </i>
   <i type="logical" name="LVEL"> F  </i>
   <i name="CSHIFT">      0.10000000</i>
   <i name="OMEGAMAX">     -1.00000000</i>
   <i name="DEG_THRESHOLD">      0.00200000</i>
   <i name="RTIME">     -0.10000000</i>
   <i name="WPLASMAI">      0.00000000</i>
   <v name="DFIELD">      0.00000000      0.00000000      0.00000000</v>
   <v name="WPLASMA">      0.00000000      0.00000000      0.00000000      0.00000000      0.00000000      0.00000000      0.00000000      0.00000000      0.00000000</v>
  </separator>
  <separator name="orbital magnetization" >
   <i type="logical" name="NUCIND"> F  </i>
   <v name="MAGPOS">      0.00000000      0.00000000      0.00000000</v>
   <i type="logical" name="LNICSALL"> T  </i>
   <i type="logical" name="ORBITALMAG"> F  </i>
   <i type="logical" name="LMAGBLOCH"> F  </i>
   <i type="logical" name="LCHIMAG"> F  </i>
   <i type="logical" name="LGAUGE"> T  </i>
   <i type="int" name="MAGATOM">     0</i>
   <v name="MAGDIPOL">      0.00000000      0.00000000      0.00000000</v>
   <v name="AVECCONST">      0.00000000      0.00000000      0.00000000</v>
  </separator>
  <separator name="response functions" >
   <i type="logical" name="LALL_IN_ONE"> F  </i>
   <i type="int" name="IALL_IN_ONE">    -1</i>
   <i type="int" name="NBANDS_WAVE">    -1</i>
   <i type="logical" name="LFINITE_TEMPERATURE"> F  </i>
   <i type="logical" name="LADDER"> F  </i>
   <i type="logical" name="LRPAFORCE"> F  </i>
   <i type="logical" name="LFXC"> F  </i>
   <i type="logical" name="LHARTREE"> T  </i>
   <i type="int" name="IBSE">     0</i>
   <v type="int" name="KPOINT">    -1     0     0     0</v>
   <i type="logical" name="LTCTC"> F  </i>
   <i type="logical" name="LTCTE"> F  </i>
   <i type="logical" name="LTETE"> F  </i>
   <i type="logical" name="LTRIPLET"> F  </i>
   <i type="logical" name="LFXCEPS"> F  </i>
   <i type="logical" name="LFXHEG"> F  </i>
   <i type="int" name="NATURALO">     2</i>
   <i type="logical" name="LHOLEGF"> F  </i>
   <i type="logical" name="L2ORDER"> F  </i>
   <i type="logical" name="LDMP1"> F  </i>
   <i type="logical" name="LMP2LT"> F  </i>
   <i type="logical" name="LSMP2LT"> F  </i>
   <i type="logical" name="LGWLF"> F  </i>
   <i name="ENCUTGW">     -1.60000002</i>
   <i name="ENCUTGWSOFT">     -1.60000002</i>
   <i name="ENCUTLF">     -1.00000000</i>
   <i type="logical" name="LESF_SPLINES"> F  </i>
   <i type="int" name="LMAXMP2">    -1</i>
   <i name="SCISSOR">      0.00000000</i>
   <i type="int" name="NOMEGA">     0</i>
   <i type="int" name="NOMEGAR">     0</i>
   <i type="int" name="NBANDSGW">    -1</i>
   <i type="int" name="NBANDSO">    -1</i>
   <i type="int" name="NBANDSV">    -1</i>
   <i type="int" name="NELMGW">     1</i>
   <i type="int" name="NELMHF">     1</i>
   <i type="int" name="DIM">     3</i>
   <i type="int" name="IESPILON">     4</i>
   <i type="int" name="ANTIRES">     0</i>
   <i name="OMEGAMAX">    -30.00000000</i>
   <i name="OMEGAMIN">    -30.00000000</i>
   <i name="OMEGATL">   -200.00000000</i>
   <i type="int" name="OMEGAGRID">     0</i>
   <i name="CSHIFT">     -0.10000000</i>
   <i type="logical" name="LSELFENERGY"> F  </i>
   <i type="logical" name="LSPECTRAL"> F  </i>
   <i type="logical" name="LSPECTRALGW"> F  </i>
   <i type="logical" name="LSINGLES"> F  </i>
   <i type="logical" name="LFERMIGW"> F  </i>
   <i type="logical" name="ODDONLYGW"> F  </i>
   <i type="logical" name="EVENONLYGW"> F  </i>
   <i type="int" name="NKREDLFX">     1</i>
   <i type="int" name="NKREDLFY">     1</i>
   <i type="int" name="NKREDLFZ">     1</i>
   <i type="int" name="MAXMEM">  2800</i>
   <i type="int" name="TELESCOPE">     0</i>
   <i type="int" name="NTAUPAR">    -1</i>
   <i type="int" name="NOMEGAPAR">    -1</i>
   <i name="DAMP_NEWTON">      0.80000001</i>
   <i name="LAMBDA">      1.00000000</i>
  </separator>
  <separator name="External order field" >
   <i name="OFIELD_KAPPA">      0.00000000</i>
   <v name="OFIELD_K">      0.00000000      0.00000000      0.00000000</v>
   <i name="OFIELD_Q6_NEAR">      0.00000000</i>
   <i name="OFIELD_Q6_FAR">      0.00000000</i>
   <i name="OFIELD_A">      0.00000000</i>
  </separator>
  <separator name="optional k-points parameters" >
   <i type="int" name="KPOINTS_OPT_MODE">     1</i>
   <i type="logical" name="LKPOINTS_OPT"> F  </i>
  </separator>
 </parameters>
 <atominfo>
  <atoms>     119 </atoms>
  <types>       2 </types>
  <array name="atoms" >
   <dimension dim="1">ion</dimension>
   <field type="string">element</field>
   <field type="int">atomtype</field>
   <set>
    <rc><c>Ga</c><c>   1</c></rc>
    <rc><c>Ga</c><c>   1</c></rc>
    <rc><c>Ga</c><c>   1</c></rc>
    <rc><c>Ga</c><c>   1</c></rc>
    <rc><c>Ga</c><c>   1</c></rc>
    <rc><c>Ga</c><c>   1</c></rc>
    <rc><c>Ga</c><c>   1</c></rc>
    <rc><c>Ga</c><c>   1</c></rc>
    <rc><c>Ga</c><c>   1</c></rc>
    <rc><c>Ga</c><c>   1</c></rc>
    <rc><c>Ga</c><c>   1</c></rc>
    <rc><c>Ga</c><c>   1</c></rc>
    <rc><c>Ga</c><c>   1</c></rc>
    <rc><c>Ga</c><c>   1</c></rc>
    <rc><c>Ga</c><c>   1</c></rc>
    <rc><c>Ga</c><c>   1</c></rc>
    <rc><c>Ga</c><c>   1</c></rc>
    <rc><c>Ga</c><c>   1</c></rc>
    <rc><c>Ga</c><c>   1</c></rc>
    <rc><c>Ga</c><c>   1</c></rc>
    <rc><c>Ga</c><c>   1</c></rc>
    <rc><c>Ga</c><c>   1</c></rc>
    <rc><c>Ga</c><c>   1</c></rc>
    <rc><c>Ga</c><c>   1</c></rc>
    <rc><c>Ga</c><c>   1</c></rc>
    <rc><c>Ga</c><c>   1</c></rc>
    <rc><c>Ga</c><c>   1</c></rc>
    <rc><c>Ga</c><c>   1</c></rc>
    <rc><c>Ga</c><c>   1</c></rc>
    <rc><c>Ga</c><c>   1</c></rc>
    <rc><c>Ga</c><c>   1</c></rc>
    <rc><c>Ga</c><c>   1</c></rc>
    <rc><c>Ga</c><c>   1</c></rc>
    <rc><c>Ga</c><c>   1</c></rc>
    <rc><c>Ga</c><c>   1</c></rc>
    <rc><c>Ga</c><c>   1</c></rc>
    <rc><c>Ga</c><c>   1</c></rc>
    <rc><c>Ga</c><c>   1</c></rc>
    <rc><c>Ga</c><c>   1</c></rc>
    <rc><c>Ga</c><c>   1</c></rc>
    <rc><c>Ga</c><c>   1</c></rc>
    <rc><c>Ga</c><c>   1</c></rc>
    <rc><c>Ga</c><c>   1</c></rc>
    <rc><c>Ga</c><c>   1</c></rc>
    <rc><c>Ga</c><c>   1</c></rc>
    <rc><c>Ga</c><c>   1</c></rc>
    <rc><c>Ga</c><c>   1</c></rc>
    <rc><c>O </c><c>   2</c></rc>
    <rc><c>O </c><c>   2</c></rc>
    <rc><c>O </c><c>   2</c></rc>
    <rc><c>O </c><c>   2</c></rc>
    <rc><c>O </c><c>   2</c></rc>
    <rc><c>O </c><c>   2</c></rc>
    <rc><c>O </c><c>   2</c></rc>
    <rc><c>O </c><c>   2</c></rc>
    <rc><c>O </c><c>   2</c></rc>
    <rc><c>O </c><c>   2</c></rc>
    <rc><c>O </c><c>   2</c></rc>
    <rc><c>O </c><c>   2</c></rc>
    <rc><c>O </c><c>   2</c></rc>
    <rc><c>O </c><c>   2</c></rc>
    <rc><c>O </c><c>   2</c></rc>
    <rc><c>O </c><c>   2</c></rc>
    <rc><c>O </c><c>   2</c></rc>
    <rc><c>O </c><c>   2</c></rc>
    <rc><c>O </c><c>   2</c></rc>
    <rc><c>O </c><c>   2</c></rc>
    <rc><c>O </c><c>   2</c></rc>
    <rc><c>O </c><c>   2</c></rc>
    <rc><c>O </c><c>   2</c></rc>
    <rc><c>O </c><c>   2</c></rc>
    <rc><c>O </c><c>   2</c></rc>
    <rc><c>O </c><c>   2</c></rc>
    <rc><c>O </c><c>   2</c></rc>
    <rc><c>O </c><c>   2</c></rc>
    <rc><c>O </c><c>   2</c></rc>
    <rc><c>O </c><c>   2</c></rc>
    <rc><c>O </c><c>   2</c></rc>
    <rc><c>O </c><c>   2</c></rc>
    <rc><c>O </c><c>   2</c></rc>
    <rc><c>O </c><c>   2</c></rc>
    <rc><c>O </c><c>   2</c></rc>
    <rc><c>O </c><c>   2</c></rc>
    <rc><c>O </c><c>   2</c></rc>
    <rc><c>O </c><c>   2</c></rc>
    <rc><c>O </c><c>   2</c></rc>
    <rc><c>O </c><c>   2</c></rc>
    <rc><c>O </c><c>   2</c></rc>
    <rc><c>O </c><c>   2</c></rc>
    <rc><c>O </c><c>   2</c></rc>
    <rc><c>O </c><c>   2</c></rc>
    <rc><c>O </c><c>   2</c></rc>
    <rc><c>O </c><c>   2</c></rc>
    <rc><c>O </c><c>   2</c></rc>
    <rc><c>O </c><c>   2</c></rc>
    <rc><c>O </c><c>   2</c></rc>
    <rc><c>O </c><c>   2</c></rc>
    <rc><c>O </c><c>   2</c></rc>
    <rc><c>O </c><c>   2</c></rc>
    <rc><c>O </c><c>   2</c></rc>
    <rc><c>O </c><c>   2</c></rc>
    <rc><c>O </c><c>   2</c></rc>
    <rc><c>O </c><c>   2</c></rc>
    <rc><c>O </c><c>   2</c></rc>
    <rc><c>O </c><c>   2</c></rc>
    <rc><c>O </c><c>   2</c></rc>
    <rc><c>O </c><c>   2</c></rc>
    <rc><c>O </c><c>   2</c></rc>
    <rc><c>O </c><c>   2</c></rc>
    <rc><c>O </c><c>   2</c></rc>
    <rc><c>O </c><c>   2</c></rc>
    <rc><c>O </c><c>   2</c></rc>
    <rc><c>O </c><c>   2</c></rc>
    <rc><c>O </c><c>   2</c></rc>
    <rc><c>O </c><c>   2</c></rc>
    <rc><c>O </c><c>   2</c></rc>
    <rc><c>O </c><c>   2</c></rc>
    <rc><c>O </c><c>   2</c></rc>
    <rc><c>O </c><c>   2</c></rc>
   </set>
  </array>
  <array name="atomtypes" >
   <dimension dim="1">type</dimension>
   <field type="int">atomspertype</field>
   <field type="string">element</field>
   <field>mass</field>
   <field>valence</field>
   <field type="string">pseudopotential</field>
   <set>
    <rc><c>  47</c><c>Ga</c><c>     69.72300000</c><c>     13.00000000</c><c>  PAW_PBE Ga_d 06Jul2010                </c></rc>
    <rc><c>  72</c><c>O </c><c>     16.00000000</c><c>      6.00000000</c><c>  PAW_PBE O 08Apr2002                   </c></rc>
   </set>
  </array>
 </atominfo>
 <structure name="initialpos" >
  <crystal>
   <varray name="basis" >
    <v>       0.00000000      12.28047342       0.00000000 </v>
    <v>       9.14270205       0.00000000       0.00000000 </v>
    <v>       0.00000000      -2.76826177     -11.30069772 </v>
   </varray>
   <i name="volume">   1268.80515525 </i>
   <varray name="rec_basis" >
    <v>       0.00000000       0.08143009      -0.01994742 </v>
    <v>       0.10937686      -0.00000000       0.00000000 </v>
    <v>       0.00000000       0.00000000      -0.08849011 </v>
   </varray>
  </crystal>
  <varray name="positions" >
   <v>       0.66111882       0.00006166       0.15791890 </v>
   <v>       0.65816862       0.00028259       0.65546779 </v>
   <v>       0.66171156       0.33333333       0.15834412 </v>
   <v>       0.65805543       0.33333333       0.65507326 </v>
   <v>       0.66111882       0.66660501       0.15791890 </v>
   <v>       0.65816862       0.66638408       0.65546779 </v>
   <v>       0.84341632       0.16710099       0.34444804 </v>
   <v>       0.84028454       0.16719618       0.84256033 </v>
   <v>       0.84341632       0.49956568       0.34444804 </v>
   <v>       0.84028454       0.49947049       0.84256033 </v>
   <v>       0.84218338       0.83333333       0.34425296 </v>
   <v>       0.83983557       0.83333333       0.84242805 </v>
   <v>       0.58910643       0.17033043       0.39581358 </v>
   <v>       0.59210173       0.16649431       0.89788334 </v>
   <v>       0.58910643       0.49633624       0.39581358 </v>
   <v>       0.59210173       0.50017236       0.89788334 </v>
   <v>       0.59036158       0.83333333       0.39712202 </v>
   <v>       0.59278784       0.83333333       0.89864598 </v>
   <v>       0.90878182       0.00028605       0.10171453 </v>
   <v>       0.90952004       0.00013192       0.60297146 </v>
   <v>       0.91102480       0.33333333       0.10270135 </v>
   <v>       0.91002083       0.33333333       0.60271749 </v>
   <v>       0.90878182       0.66638061       0.10171453 </v>
   <v>       0.90952004       0.66653474       0.60297146 </v>
   <v>       0.16318792       0.16960134       0.16109644 </v>
   <v>       0.16016040       0.16703497       0.65816303 </v>
   <v>       0.16318792       0.49706532       0.16109644 </v>
   <v>       0.16016040       0.49963169       0.65816303 </v>
   <v>       0.15841957       0.83333333       0.15790966 </v>
   <v>       0.16010443       0.83333333       0.65972673 </v>
   <v>       0.33994053       0.00391574       0.34078920 </v>
   <v>       0.34271447       0.00016343       0.84403055 </v>
   <v>       0.34207034       0.33333333       0.84371657 </v>
   <v>       0.33994053       0.66275092       0.34078920 </v>
   <v>       0.34271447       0.66650324       0.84403055 </v>
   <v>       0.09193926       0.00051796       0.39761167 </v>
   <v>       0.08997964       0.00019149       0.89740231 </v>
   <v>       0.09873370       0.33333333       0.39706467 </v>
   <v>       0.09104337       0.33333333       0.89823402 </v>
   <v>       0.09193926       0.66614871       0.39761167 </v>
   <v>       0.08997964       0.66647518       0.89740231 </v>
   <v>       0.40981616       0.16579533       0.10497427 </v>
   <v>       0.40572104       0.16634412       0.59825407 </v>
   <v>       0.40981616       0.50087134       0.10497427 </v>
   <v>       0.40572104       0.50032255       0.59825407 </v>
   <v>       0.40998373       0.83333333       0.10395615 </v>
   <v>       0.40872426       0.83333333       0.60055225 </v>
   <v>       0.99693340       0.16580364       0.12442406 </v>
   <v>       0.99734499       0.16649373       0.62892118 </v>
   <v>       0.99693340       0.50086303       0.12442406 </v>
   <v>       0.99734499       0.50017294       0.62892118 </v>
   <v>       0.99486971       0.83333333       0.12577253 </v>
   <v>       0.99706682       0.83333333       0.62950934 </v>
   <v>       0.50382878       0.00090604       0.37317578 </v>
   <v>       0.50515242       0.99962974       0.87318525 </v>
   <v>       0.50020452       0.33333333       0.37122535 </v>
   <v>       0.50488044       0.33333333       0.87252198 </v>
   <v>       0.50382878       0.66576062       0.37317578 </v>
   <v>       0.50515242       0.66703692       0.87318525 </v>
   <v>       0.67432431       0.16639246       0.28077826 </v>
   <v>       0.67198803       0.16768626       0.77950249 </v>
   <v>       0.67432431       0.50027421       0.28077826 </v>
   <v>       0.67198803       0.49898040       0.77950249 </v>
   <v>       0.67391026       0.83333333       0.28145293 </v>
   <v>       0.67238819       0.83333333       0.77990153 </v>
   <v>       0.82903336       0.00042248       0.22037867 </v>
   <v>       0.82674747       0.00037631       0.71888343 </v>
   <v>       0.82965694       0.33333333       0.22019316 </v>
   <v>       0.82701138       0.33333333       0.71868464 </v>
   <v>       0.82903336       0.66624419       0.22037867 </v>
   <v>       0.82674747       0.66629035       0.71888343 </v>
   <v>       0.83350318       0.00025141       0.44650264 </v>
   <v>       0.83117029       0.00033988       0.94496116 </v>
   <v>       0.83270607       0.33333333       0.44654353 </v>
   <v>       0.83215414       0.33333333       0.94589319 </v>
   <v>       0.83350318       0.66641526       0.44650264 </v>
   <v>       0.83117029       0.66632679       0.94496116 </v>
   <v>       0.66861728       0.16727096       0.05459229 </v>
   <v>       0.66715319       0.16664095       0.55324896 </v>
   <v>       0.66861728       0.49939571       0.05459229 </v>
   <v>       0.66715319       0.50002572       0.55324896 </v>
   <v>       0.67074523       0.83333333       0.05493544 </v>
   <v>       0.66753909       0.83333333       0.55376233 </v>
   <v>       0.49917087       0.99927604       0.12692229 </v>
   <v>       0.49621920       0.00074592       0.62803521 </v>
   <v>       0.49777795       0.33333333       0.13314310 </v>
   <v>       0.49356221       0.33333333       0.62083230 </v>
   <v>       0.49917087       0.66739063       0.12692229 </v>
   <v>       0.49621920       0.66592075       0.62803521 </v>
   <v>       0.00580992       0.16814971       0.37516335 </v>
   <v>       0.00280335       0.16707673       0.87114173 </v>
   <v>       0.00580992       0.49851695       0.37516335 </v>
   <v>       0.00280335       0.49958993       0.87114173 </v>
   <v>       0.00414564       0.83333333       0.37474879 </v>
   <v>       0.00234755       0.83333333       0.87074703 </v>
   <v>       0.16912188       0.99675148       0.27855822 </v>
   <v>       0.17365884       0.00011100       0.78210242 </v>
   <v>       0.16179821       0.33333333       0.27009922 </v>
   <v>       0.17343989       0.33333333       0.78179944 </v>
   <v>       0.16912188       0.66991519       0.27855822 </v>
   <v>       0.17365884       0.66655567       0.78210242 </v>
   <v>       0.32477075       0.14757264       0.21327691 </v>
   <v>       0.32856136       0.16690372       0.72057354 </v>
   <v>       0.32477075       0.51909402       0.21327691 </v>
   <v>       0.32856136       0.49976294       0.72057354 </v>
   <v>       0.32746054       0.83333333       0.21906535 </v>
   <v>       0.32836781       0.83333333       0.71972841 </v>
   <v>       0.31438380       0.14825078       0.45076105 </v>
   <v>       0.33574815       0.16703191       0.94685884 </v>
   <v>       0.31438380       0.51841589       0.45076105 </v>
   <v>       0.33574815       0.49963476       0.94685884 </v>
   <v>       0.33248900       0.83333333       0.44401145 </v>
   <v>       0.33410827       0.83333333       0.94655806 </v>
   <v>       0.16482124       0.99957053       0.05358543 </v>
   <v>       0.16638505       0.99908837       0.55585349 </v>
   <v>       0.17067248       0.33333333       0.05266579 </v>
   <v>       0.16805792       0.33333333       0.55615267 </v>
   <v>       0.16482124       0.66709614       0.05358543 </v>
   <v>       0.16638505       0.66757829       0.55585349 </v>
  </varray>
 </structure>
 <calculation>
  <scstep>
   <time name="total">    3.96    3.97</time>
   <energy>
    <i name="alphaZ">   5383.97153279 </i>
    <i name="ewald"> -86595.13791234 </i>
    <i name="hartreedc">  -2066.54747422 </i>
    <i name="XCdc">   2766.20300693 </i>
    <i name="pawpsdc">  54212.40881321 </i>
    <i name="pawaedc"> -82836.24408232 </i>
    <i name="eentropy">     -0.01353664 </i>
    <i name="bandstr"> -40845.95200125 </i>
    <i name="atom"> 131754.67725141 </i>
    <i name="e_fr_energy"> -18226.63440243 </i>
    <i name="e_wo_entrp"> -18226.62086579 </i>
    <i name="e_0_energy"> -18226.62763411 </i>
   </energy>
  </scstep>
  <scstep>
   <time name="total">    3.15    3.15</time>
   <energy>
    <i name="e_fr_energy"> -62595.48562993 </i>
    <i name="e_wo_entrp"> -62595.46771803 </i>
    <i name="e_0_energy"> -62595.47667398 </i>
   </energy>
  </scstep>
  <scstep>
   <time name="total">    3.34    3.34</time>
   <energy>
    <i name="e_fr_energy"> -67669.54336519 </i>
    <i name="e_wo_entrp"> -67669.50727987 </i>
    <i name="e_0_energy"> -67669.52532253 </i>
   </energy>
  </scstep>
  <scstep>
   <time name="total">    3.93    3.93</time>
   <energy>
    <i name="e_fr_energy"> -68465.93550263 </i>
    <i name="e_wo_entrp"> -68465.90257555 </i>
    <i name="e_0_energy"> -68465.91903909 </i>
   </energy>
  </scstep>
  <scstep>
   <time name="total">  230.42  230.38</time>
   <energy>
    <i name="e_fr_energy"> -38991.37369320 </i>
    <i name="e_wo_entrp"> -38991.35976445 </i>
    <i name="e_0_energy"> -38991.36672883 </i>
   </energy>
  </scstep>
  <scstep>
   <time name="total">  459.60  459.78</time>
   <energy>
    <i name="e_fr_energy">  30605.62970305 </i>
    <i name="e_wo_entrp">  30605.64203904 </i>
    <i name="e_0_energy">  30605.63587104 </i>
   </energy>
  </scstep>
  <scstep>
   <time name="total">  459.29  459.22</time>
   <energy>
    <i name="e_fr_energy">   8894.52271809 </i>
    <i name="e_wo_entrp">   8894.54750315 </i>
    <i name="e_0_energy">   8894.53511062 </i>
   </energy>
  </scstep>
  <scstep>
   <time name="total">  459.12  459.05</time>
   <energy>
    <i name="e_fr_energy">   4309.18392738 </i>
    <i name="e_wo_entrp">   4309.22182833 </i>
    <i name="e_0_energy">   4309.20287786 </i>
   </energy>
  </scstep>
  <scstep>
   <time name="total">  459.01  458.96</time>
   <energy>
    <i name="e_fr_energy">   2974.88571216 </i>
    <i name="e_wo_entrp">   2974.90440146 </i>
    <i name="e_0_energy">   2974.89505681 </i>
   </energy>
  </scstep>
  <scstep>
   <time name="total">  458.04  457.98</time>
   <energy>
    <i name="e_fr_energy">   1618.35984876 </i>
    <i name="e_wo_entrp">   1618.37334551 </i>
    <i name="e_0_energy">   1618.36659713 </i>
   </energy>
  </scstep>
  <scstep>
   <time name="total">  458.17  458.11</time>
   <energy>
    <i name="e_fr_energy">    454.72071849 </i>
    <i name="e_wo_entrp">    454.72621097 </i>
    <i name="e_0_energy">    454.72346473 </i>
   </energy>
  </scstep>
  <scstep>
   <time name="total">  458.33  458.28</time>
   <energy>
    <i name="e_fr_energy">   -231.21492318 </i>
    <i name="e_wo_entrp">   -231.20553724 </i>
    <i name="e_0_energy">   -231.21023021 </i>
   </energy>
  </scstep>
  <scstep>
   <time name="total">  458.17  458.11</time>
   <energy>
    <i name="e_fr_energy">   -580.14918109 </i>
    <i name="e_wo_entrp">   -580.13962821 </i>
    <i name="e_0_energy">   -580.14440465 </i>
   </energy>
  </scstep>
  <scstep>
   <time name="total">  458.13  458.07</time>
   <energy>
    <i name="e_fr_energy">   -761.83326620 </i>
    <i name="e_wo_entrp">   -761.82410940 </i>
    <i name="e_0_energy">   -761.82868780 </i>
   </energy>
  </scstep>
  <scstep>
   <time name="total">  457.96  457.90</time>
   <energy>
    <i name="e_fr_energy">   -841.33494578 </i>
    <i name="e_wo_entrp">   -841.33402096 </i>
    <i name="e_0_energy">   -841.33448337 </i>
   </energy>
  </scstep>
  <scstep>
   <time name="total">  458.17  458.11</time>
   <energy>
    <i name="e_fr_energy">   -882.32056461 </i>
    <i name="e_wo_entrp">   -882.31201927 </i>
    <i name="e_0_energy">   -882.31629194 </i>
   </energy>
  </scstep>
  <scstep>
   <time name="total">  458.11  458.05</time>
   <energy>
    <i name="e_fr_energy">   -905.96728232 </i>
    <i name="e_wo_entrp">   -905.96525944 </i>
    <i name="e_0_energy">   -905.96627088 </i>
   </energy>
  </scstep>
  <scstep>
   <time name="total">  458.36  458.30</time>
   <energy>
    <i name="e_fr_energy">   -919.26158317 </i>
    <i name="e_wo_entrp">   -919.24158021 </i>
    <i name="e_0_energy">   -919.25158169 </i>
   </energy>
  </scstep>
  <scstep>
   <time name="total">  458.80  458.73</time>
   <energy>
    <i name="e_fr_energy">   -926.54943790 </i>
    <i name="e_wo_entrp">   -926.51337599 </i>
    <i name="e_0_energy">   -926.53140694 </i>
   </energy>
  </scstep>
  <scstep>
   <time name="total">  458.93  458.87</time>
   <energy>
    <i name="e_fr_energy">   -928.44493668 </i>
    <i name="e_wo_entrp">   -928.40671417 </i>
    <i name="e_0_energy">   -928.42582542 </i>
   </energy>
  </scstep>
  <scstep>
   <time name="total">  458.84  458.77</time>
   <energy>
    <i name="e_fr_energy">   -930.91430305 </i>
    <i name="e_wo_entrp">   -930.88129478 </i>
    <i name="e_0_energy">   -930.89779891 </i>
   </energy>
  </scstep>
  <scstep>
   <time name="total">  458.89  458.85</time>
   <energy>
    <i name="e_fr_energy">   -932.45526024 </i>
    <i name="e_wo_entrp">   -932.42215128 </i>
    <i name="e_0_energy">   -932.43870576 </i>
   </energy>
  </scstep>
  <scstep>
   <time name="total">  458.86  458.79</time>
   <energy>
    <i name="e_fr_energy">   -933.37827303 </i>
    <i name="e_wo_entrp">   -933.34619216 </i>
    <i name="e_0_energy">   -933.36223259 </i>
   </energy>
  </scstep>
  <scstep>
   <time name="total">  459.31  459.25</time>
   <energy>
    <i name="e_fr_energy">   -934.31522847 </i>
    <i name="e_wo_entrp">   -934.28149459 </i>
    <i name="e_0_energy">   -934.29836153 </i>
   </energy>
  </scstep>
  <scstep>
   <time name="total">  458.98  458.91</time>
   <energy>
    <i name="e_fr_energy">   -935.20887616 </i>
    <i name="e_wo_entrp">   -935.16872965 </i>
    <i name="e_0_energy">   -935.18880290 </i>
   </energy>
  </scstep>
  <scstep>
   <time name="total">  459.04  458.98</time>
   <energy>
    <i name="e_fr_energy">   -935.83592434 </i>
    <i name="e_wo_entrp">   -935.79144904 </i>
    <i name="e_0_energy">   -935.81368669 </i>
   </energy>
  </scstep>
  <scstep>
   <time name="total">  459.00  458.95</time>
   <energy>
    <i name="e_fr_energy">   -936.43120140 </i>
    <i name="e_wo_entrp">   -936.38931823 </i>
    <i name="e_0_energy">   -936.41025982 </i>
   </energy>
  </scstep>
  <scstep>
   <time name="total">  458.82  458.76</time>
   <energy>
    <i name="e_fr_energy">   -936.93172909 </i>
    <i name="e_wo_entrp">   -936.89502319 </i>
    <i name="e_0_energy">   -936.91337614 </i>
   </energy>
  </scstep>
  <scstep>
   <time name="total">  458.89  458.83</time>
   <energy>
    <i name="e_fr_energy">   -937.49726327 </i>
    <i name="e_wo_entrp">   -937.46500578 </i>
    <i name="e_0_energy">   -937.48113452 </i>
   </energy>
  </scstep>
  <scstep>
   <time name="total">  459.15  459.09</time>
   <energy>
    <i name="e_fr_energy">   -937.83986694 </i>
    <i name="e_wo_entrp">   -937.81132387 </i>
    <i name="e_0_energy">   -937.82559541 </i>
   </energy>
  </scstep>
  <scstep>
   <time name="total">  459.18  459.12</time>
   <energy>
    <i name="e_fr_energy">   -938.16338082 </i>
    <i name="e_wo_entrp">   -938.13490614 </i>
    <i name="e_0_energy">   -938.14914348 </i>
   </energy>
  </scstep>
  <scstep>
   <time name="total">  458.97  458.92</time>
   <energy>
    <i name="e_fr_energy">   -938.48674603 </i>
    <i name="e_wo_entrp">   -938.45795466 </i>
    <i name="e_0_energy">   -938.47235034 </i>
   </energy>
  </scstep>
  <scstep>
   <time name="total">  459.25  459.20</time>
   <energy>
    <i name="e_fr_energy">   -938.81075887 </i>
    <i name="e_wo_entrp">   -938.78354933 </i>
    <i name="e_0_energy">   -938.79715410 </i>
   </energy>
  </scstep>
  <scstep>
   <time name="total">  459.09  459.01</time>
   <energy>
    <i name="e_fr_energy">   -938.99016211 </i>
    <i name="e_wo_entrp">   -938.96525589 </i>
    <i name="e_0_energy">   -938.97770900 </i>
   </energy>
  </scstep>
  <scstep>
   <time name="total">  458.73  458.67</time>
   <energy>
    <i name="e_fr_energy">   -939.12440670 </i>
    <i name="e_wo_entrp">   -939.10243260 </i>
    <i name="e_0_energy">   -939.11341965 </i>
   </energy>
  </scstep>
  <scstep>
   <time name="total">  459.43  459.36</time>
   <energy>
    <i name="e_fr_energy">   -939.22282780 </i>
    <i name="e_wo_entrp">   -939.20252341 </i>
    <i name="e_0_energy">   -939.21267560 </i>
   </energy>
  </scstep>
  <scstep>
   <time name="total">  459.02  458.96</time>
   <energy>
    <i name="e_fr_energy">   -939.27073809 </i>
    <i name="e_wo_entrp">   -939.24941567 </i>
    <i name="e_0_energy">   -939.26007688 </i>
   </energy>
  </scstep>
  <scstep>
   <time name="total">  458.90  458.84</time>
   <energy>
    <i name="e_fr_energy">   -939.80446997 </i>
    <i name="e_wo_entrp">   -939.78120917 </i>
    <i name="e_0_energy">   -939.79283957 </i>
   </energy>
  </scstep>
  <scstep>
   <time name="total">  458.92  458.86</time>
   <energy>
    <i name="e_fr_energy">   -940.16981666 </i>
    <i name="e_wo_entrp">   -940.14519063 </i>
    <i name="e_0_energy">   -940.15750365 </i>
   </energy>
  </scstep>
  <scstep>
   <time name="total">  458.99  458.93</time>
   <energy>
    <i name="e_fr_energy">   -940.38942269 </i>
    <i name="e_wo_entrp">   -940.36285519 </i>
    <i name="e_0_energy">   -940.37613894 </i>
   </energy>
  </scstep>
  <scstep>
   <time name="total">  458.76  458.69</time>
   <energy>
    <i name="e_fr_energy">   -940.49250902 </i>
    <i name="e_wo_entrp">   -940.46604976 </i>
    <i name="e_0_energy">   -940.47927939 </i>
   </energy>
  </scstep>
  <scstep>
   <time name="total">  459.11  459.05</time>
   <energy>
    <i name="e_fr_energy">   -940.54184535 </i>
    <i name="e_wo_entrp">   -940.51540882 </i>
    <i name="e_0_energy">   -940.52862708 </i>
   </energy>
  </scstep>
  <scstep>
   <time name="total">  459.02  458.96</time>
   <energy>
    <i name="e_fr_energy">   -940.56681230 </i>
    <i name="e_wo_entrp">   -940.54045817 </i>
    <i name="e_0_energy">   -940.55363523 </i>
   </energy>
  </scstep>
  <scstep>
   <time name="total">  458.89  458.84</time>
   <energy>
    <i name="e_fr_energy">   -940.57603010 </i>
    <i name="e_wo_entrp">   -940.55088643 </i>
    <i name="e_0_energy">   -940.56345826 </i>
   </energy>
  </scstep>
  <scstep>
   <time name="total">  459.18  459.12</time>
   <energy>
    <i name="e_fr_energy">   -940.58846817 </i>
    <i name="e_wo_entrp">   -940.56376364 </i>
    <i name="e_0_energy">   -940.57611590 </i>
   </energy>
  </scstep>
  <scstep>
   <time name="total">  459.04  458.99</time>
   <energy>
    <i name="e_fr_energy">   -940.59412511 </i>
    <i name="e_wo_entrp">   -940.57217123 </i>
    <i name="e_0_energy">   -940.58314817 </i>
   </energy>
  </scstep>
  <scstep>
   <time name="total">  458.78  458.74</time>
   <energy>
    <i name="e_fr_energy">   -940.60411783 </i>
    <i name="e_wo_entrp">   -940.58324879 </i>
    <i name="e_0_energy">   -940.59368331 </i>
   </energy>
  </scstep>
  <scstep>
   <time name="total">  458.99  458.93</time>
   <energy>
    <i name="e_fr_energy">   -940.60836465 </i>
    <i name="e_wo_entrp">   -940.58888232 </i>
    <i name="e_0_energy">   -940.59862348 </i>
   </energy>
  </scstep>
  <scstep>
   <time name="total">  459.27  459.22</time>
   <energy>
    <i name="e_fr_energy">   -940.61549718 </i>
    <i name="e_wo_entrp">   -940.59659146 </i>
    <i name="e_0_energy">   -940.60604432 </i>
   </energy>
  </scstep>
  <scstep>
   <time name="total">  459.09  459.03</time>
   <energy>
    <i name="e_fr_energy">   -940.61935075 </i>
    <i name="e_wo_entrp">   -940.60083425 </i>
    <i name="e_0_energy">   -940.61009250 </i>
   </energy>
  </scstep>
  <scstep>
   <time name="total">  458.92  458.87</time>
   <energy>
    <i name="e_fr_energy">   -940.62230580 </i>
    <i name="e_wo_entrp">   -940.60416128 </i>
    <i name="e_0_energy">   -940.61323354 </i>
   </energy>
  </scstep>
  <scstep>
   <time name="total">  459.13  459.12</time>
   <energy>
    <i name="e_fr_energy">   -940.62481936 </i>
    <i name="e_wo_entrp">   -940.60713282 </i>
    <i name="e_0_energy">   -940.61597609 </i>
   </energy>
  </scstep>
  <scstep>
   <time name="total">  458.64  458.58</time>
   <energy>
    <i name="e_fr_energy">   -940.62701204 </i>
    <i name="e_wo_entrp">   -940.60973717 </i>
    <i name="e_0_energy">   -940.61837461 </i>
   </energy>
  </scstep>
  <scstep>
   <time name="total">  458.68  458.62</time>
   <energy>
    <i name="e_fr_energy">   -940.62854559 </i>
    <i name="e_wo_entrp">   -940.61160164 </i>
    <i name="e_0_energy">   -940.62007361 </i>
   </energy>
  </scstep>
  <scstep>
   <time name="total">  458.63  458.58</time>
   <energy>
    <i name="e_fr_energy">   -940.62960076 </i>
    <i name="e_wo_entrp">   -940.61301552 </i>
    <i name="e_0_energy">   -940.62130814 </i>
   </energy>
  </scstep>
  <scstep>
   <time name="total">  458.82  458.77</time>
   <energy>
    <i name="e_fr_energy">   -940.63048591 </i>
    <i name="e_wo_entrp">   -940.61425082 </i>
    <i name="e_0_energy">   -940.62236836 </i>
   </energy>
  </scstep>
  <scstep>
   <time name="total">  458.77  458.72</time>
   <energy>
    <i name="e_fr_energy">   -940.63127025 </i>
    <i name="e_wo_entrp">   -940.61538145 </i>
    <i name="e_0_energy">   -940.62332585 </i>
   </energy>
  </scstep>
  <scstep>
   <time name="total">  458.65  458.60</time>
   <energy>
    <i name="e_fr_energy">   -940.63190774 </i>
    <i name="e_wo_entrp">   -940.61619900 </i>
    <i name="e_0_energy">   -940.62405337 </i>
   </energy>
  </scstep>
  <scstep>
   <time name="total">  458.62  458.57</time>
   <energy>
    <i name="e_fr_energy">   -940.63221100 </i>
    <i name="e_wo_entrp">   -940.61661413 </i>
    <i name="e_0_energy">   -940.62441256 </i>
   </energy>
  </scstep>
  <scstep>
   <time name="total">  458.79  458.74</time>
   <energy>
    <i name="e_fr_energy">   -940.63246573 </i>
    <i name="e_wo_entrp">   -940.61694784 </i>
    <i name="e_0_energy">   -940.62470678 </i>
   </energy>
  </scstep>
  <scstep>
   <time name="total">  458.62  458.56</time>
   <energy>
    <i name="e_fr_energy">   -940.63264031 </i>
    <i name="e_wo_entrp">   -940.61715701 </i>
    <i name="e_0_energy">   -940.62489866 </i>
   </energy>
  </scstep>
  <scstep>
   <time name="total">  458.68  458.63</time>
   <energy>
    <i name="e_fr_energy">   -940.63278624 </i>
    <i name="e_wo_entrp">   -940.61729097 </i>
    <i name="e_0_energy">   -940.62503861 </i>
   </energy>
  </scstep>
  <scstep>
   <time name="total">  458.67  458.62</time>
   <energy>
    <i name="e_fr_energy">   -940.63286817 </i>
    <i name="e_wo_entrp">   -940.61736263 </i>
    <i name="e_0_energy">   -940.62511540 </i>
   </energy>
  </scstep>
  <scstep>
   <time name="total">  458.64  458.57</time>
   <energy>
    <i name="e_fr_energy">   -940.63292749 </i>
    <i name="e_wo_entrp">   -940.61738101 </i>
    <i name="e_0_energy">   -940.62515425 </i>
   </energy>
  </scstep>
  <scstep>
   <time name="total">  458.84  458.78</time>
   <energy>
    <i name="e_fr_energy">   -940.63298420 </i>
    <i name="e_wo_entrp">   -940.61739006 </i>
    <i name="e_0_energy">   -940.62518713 </i>
   </energy>
  </scstep>
  <scstep>
   <time name="total">  458.77  458.70</time>
   <energy>
    <i name="e_fr_energy">   -940.63302286 </i>
    <i name="e_wo_entrp">   -940.61741021 </i>
    <i name="e_0_energy">   -940.62521654 </i>
   </energy>
  </scstep>
  <scstep>
   <time name="total">  458.94  458.88</time>
   <energy>
    <i name="e_fr_energy">   -940.63304135 </i>
    <i name="e_wo_entrp">   -940.61738580 </i>
    <i name="e_0_energy">   -940.62521358 </i>
   </energy>
  </scstep>
  <scstep>
   <time name="total">  458.50  458.43</time>
   <energy>
    <i name="e_fr_energy">   -940.63306255 </i>
    <i name="e_wo_entrp">   -940.61740820 </i>
    <i name="e_0_energy">   -940.62523538 </i>
   </energy>
  </scstep>
  <scstep>
   <time name="total">  459.00  458.95</time>
   <energy>
    <i name="e_fr_energy">   -940.63307210 </i>
    <i name="e_wo_entrp">   -940.61739801 </i>
    <i name="e_0_energy">   -940.62523506 </i>
   </energy>
  </scstep>
  <scstep>
   <time name="total">  458.61  458.55</time>
   <energy>
    <i name="e_fr_energy">   -940.63308479 </i>
    <i name="e_wo_entrp">   -940.61739842 </i>
    <i name="e_0_energy">   -940.62524161 </i>
   </energy>
  </scstep>
  <scstep>
   <time name="total">  683.64  683.54</time>
   <energy>
    <i name="alphaZ">   5383.97153279 </i>
    <i name="ewald"> -86595.13791234 </i>
    <i name="hartreedc"> -34061.50423291 </i>
    <i name="XCdc">   2884.84917844 </i>
    <i name="pawpsdc"> 119463.01026513 </i>
    <i name="pawaedc">-134712.36872088 </i>
    <i name="eentropy">     -0.01570934 </i>
    <i name="bandstr">  -8901.03697739 </i>
    <i name="atom"> 131754.67725141 </i>
    <i name="e_fr_energy">   -940.63309406 </i>
    <i name="e_wo_entrp">   -940.61738472 </i>
    <i name="e_0_energy">   -940.62523939 </i>
   </energy>
  </scstep>
  <structure>
   <crystal>
    <varray name="basis" >
     <v>       0.00000000      12.28047342       0.00000000 </v>
     <v>       9.14270205       0.00000000       0.00000000 </v>
     <v>       0.00000000      -2.76826177     -11.30069772 </v>
    </varray>
    <i name="volume">   1268.80515525 </i>
    <varray name="rec_basis" >
     <v>       0.00000000       0.08143009      -0.01994742 </v>
     <v>       0.10937686      -0.00000000       0.00000000 </v>
     <v>       0.00000000       0.00000000      -0.08849011 </v>
    </varray>
   </crystal>
   <varray name="positions" >
    <v>       0.66111882       0.00006166       0.15791890 </v>
    <v>       0.65816862       0.00028259       0.65546779 </v>
    <v>       0.66171156       0.33333333       0.15834412 </v>
    <v>       0.65805543       0.33333333       0.65507326 </v>
    <v>       0.66111882       0.66660501       0.15791890 </v>
    <v>       0.65816862       0.66638408       0.65546779 </v>
    <v>       0.84341632       0.16710099       0.34444804 </v>
    <v>       0.84028454       0.16719618       0.84256033 </v>
    <v>       0.84341632       0.49956568       0.34444804 </v>
    <v>       0.84028454       0.49947049       0.84256033 </v>
    <v>       0.84218338       0.83333333       0.34425296 </v>
    <v>       0.83983557       0.83333333       0.84242805 </v>
    <v>       0.58910643       0.17033043       0.39581358 </v>
    <v>       0.59210173       0.16649431       0.89788334 </v>
    <v>       0.58910643       0.49633624       0.39581358 </v>
    <v>       0.59210173       0.50017236       0.89788334 </v>
    <v>       0.59036158       0.83333333       0.39712202 </v>
    <v>       0.59278784       0.83333333       0.89864598 </v>
    <v>       0.90878182       0.00028605       0.10171453 </v>
    <v>       0.90952004       0.00013192       0.60297146 </v>
    <v>       0.91102480       0.33333333       0.10270135 </v>
    <v>       0.91002083       0.33333333       0.60271749 </v>
    <v>       0.90878182       0.66638061       0.10171453 </v>
    <v>       0.90952004       0.66653474       0.60297146 </v>
    <v>       0.16318792       0.16960134       0.16109644 </v>
    <v>       0.16016040       0.16703497       0.65816303 </v>
    <v>       0.16318792       0.49706532       0.16109644 </v>
    <v>       0.16016040       0.49963169       0.65816303 </v>
    <v>       0.15841957       0.83333333       0.15790966 </v>
    <v>       0.16010443       0.83333333       0.65972673 </v>
    <v>       0.33994053       0.00391574       0.34078920 </v>
    <v>       0.34271447       0.00016343       0.84403055 </v>
    <v>       0.34207034       0.33333333       0.84371657 </v>
    <v>       0.33994053       0.66275092       0.34078920 </v>
    <v>       0.34271447       0.66650324       0.84403055 </v>
    <v>       0.09193926       0.00051796       0.39761167 </v>
    <v>       0.08997964       0.00019149       0.89740231 </v>
    <v>       0.09873370       0.33333333       0.39706467 </v>
    <v>       0.09104337       0.33333333       0.89823402 </v>
    <v>       0.09193926       0.66614871       0.39761167 </v>
    <v>       0.08997964       0.66647518       0.89740231 </v>
    <v>       0.40981616       0.16579533       0.10497427 </v>
    <v>       0.40572104       0.16634412       0.59825407 </v>
    <v>       0.40981616       0.50087134       0.10497427 </v>
    <v>       0.40572104       0.50032255       0.59825407 </v>
    <v>       0.40998373       0.83333333       0.10395615 </v>
    <v>       0.40872426       0.83333333       0.60055225 </v>
    <v>       0.99693340       0.16580364       0.12442406 </v>
    <v>       0.99734499       0.16649373       0.62892118 </v>
    <v>       0.99693340       0.50086303       0.12442406 </v>
    <v>       0.99734499       0.50017294       0.62892118 </v>
    <v>       0.99486971       0.83333333       0.12577253 </v>
    <v>       0.99706682       0.83333333       0.62950934 </v>
    <v>       0.50382878       0.00090604       0.37317578 </v>
    <v>       0.50515242       0.99962974       0.87318525 </v>
    <v>       0.50020452       0.33333333       0.37122535 </v>
    <v>       0.50488044       0.33333333       0.87252198 </v>
    <v>       0.50382878       0.66576062       0.37317578 </v>
    <v>       0.50515242       0.66703692       0.87318525 </v>
    <v>       0.67432431       0.16639246       0.28077826 </v>
    <v>       0.67198803       0.16768626       0.77950249 </v>
    <v>       0.67432431       0.50027421       0.28077826 </v>
    <v>       0.67198803       0.49898040       0.77950249 </v>
    <v>       0.67391026       0.83333333       0.28145293 </v>
    <v>       0.67238819       0.83333333       0.77990153 </v>
    <v>       0.82903336       0.00042248       0.22037867 </v>
    <v>       0.82674747       0.00037631       0.71888343 </v>
    <v>       0.82965694       0.33333333       0.22019316 </v>
    <v>       0.82701138       0.33333333       0.71868464 </v>
    <v>       0.82903336       0.66624419       0.22037867 </v>
    <v>       0.82674747       0.66629035       0.71888343 </v>
    <v>       0.83350318       0.00025141       0.44650264 </v>
    <v>       0.83117029       0.00033988       0.94496116 </v>
    <v>       0.83270607       0.33333333       0.44654353 </v>
    <v>       0.83215414       0.33333333       0.94589319 </v>
    <v>       0.83350318       0.66641526       0.44650264 </v>
    <v>       0.83117029       0.66632679       0.94496116 </v>
    <v>       0.66861728       0.16727096       0.05459229 </v>
    <v>       0.66715319       0.16664095       0.55324896 </v>
    <v>       0.66861728       0.49939571       0.05459229 </v>
    <v>       0.66715319       0.50002572       0.55324896 </v>
    <v>       0.67074523       0.83333333       0.05493544 </v>
    <v>       0.66753909       0.83333333       0.55376233 </v>
    <v>       0.49917087       0.99927604       0.12692229 </v>
    <v>       0.49621920       0.00074592       0.62803521 </v>
    <v>       0.49777795       0.33333333       0.13314310 </v>
    <v>       0.49356221       0.33333333       0.62083230 </v>
    <v>       0.49917087       0.66739063       0.12692229 </v>
    <v>       0.49621920       0.66592075       0.62803521 </v>
    <v>       0.00580992       0.16814971       0.37516335 </v>
    <v>       0.00280335       0.16707673       0.87114173 </v>
    <v>       0.00580992       0.49851695       0.37516335 </v>
    <v>       0.00280335       0.49958993       0.87114173 </v>
    <v>       0.00414564       0.83333333       0.37474879 </v>
    <v>       0.00234755       0.83333333       0.87074703 </v>
    <v>       0.16912188       0.99675148       0.27855822 </v>
    <v>       0.17365884       0.00011100       0.78210242 </v>
    <v>       0.16179821       0.33333333       0.27009922 </v>
    <v>       0.17343989       0.33333333       0.78179944 </v>
    <v>       0.16912188       0.66991519       0.27855822 </v>
    <v>       0.17365884       0.66655567       0.78210242 </v>
    <v>       0.32477075       0.14757264       0.21327691 </v>
    <v>       0.32856136       0.16690372       0.72057354 </v>
    <v>       0.32477075       0.51909402       0.21327691 </v>
    <v>       0.32856136       0.49976294       0.72057354 </v>
    <v>       0.32746054       0.83333333       0.21906535 </v>
    <v>       0.32836781       0.83333333       0.71972841 </v>
    <v>       0.31438380       0.14825078       0.45076105 </v>
    <v>       0.33574815       0.16703191       0.94685884 </v>
    <v>       0.31438380       0.51841589       0.45076105 </v>
    <v>       0.33574815       0.49963476       0.94685884 </v>
    <v>       0.33248900       0.83333333       0.44401145 </v>
    <v>       0.33410827       0.83333333       0.94655806 </v>
    <v>       0.16482124       0.99957053       0.05358543 </v>
    <v>       0.16638505       0.99908837       0.55585349 </v>
    <v>       0.17067248       0.33333333       0.05266579 </v>
    <v>       0.16805792       0.33333333       0.55615267 </v>
    <v>       0.16482124       0.66709614       0.05358543 </v>
    <v>       0.16638505       0.66757829       0.55585349 </v>
   </varray>
  </structure>
  <varray name="forces" >
   <v>      -0.04403540       0.07542824       0.10306729 </v>
   <v>      -0.04431361       0.14611567      -0.07062227 </v>
   <v>      -0.00000000       0.21089276       0.10436390 </v>
   <v>      -0.00000000       0.20901909      -0.12681980 </v>
   <v>       0.04403540       0.07542824       0.10306729 </v>
   <v>       0.04431361       0.14611567      -0.07062227 </v>
   <v>       0.00178906      -0.01909377      -0.03898919 </v>
   <v>      -0.00117702      -0.02171668      -0.07556062 </v>
   <v>      -0.00178906      -0.01909377      -0.03898919 </v>
   <v>       0.00117702      -0.02171668      -0.07556062 </v>
   <v>      -0.00000000      -0.06193715      -0.03169273 </v>
   <v>      -0.00000000      -0.04968138      -0.06486602 </v>
   <v>      -0.38222444       0.26115500      -0.03447931 </v>
   <v>      -0.01090781      -0.04796062      -0.00834458 </v>
   <v>       0.38222444       0.26115500      -0.03447931 </v>
   <v>       0.01090781      -0.04796062      -0.00834458 </v>
   <v>      -0.00000000       0.10372801      -0.01575634 </v>
   <v>      -0.00000000      -0.04397136      -0.01936596 </v>
   <v>       0.01801321       0.07239490       0.03502337 </v>
   <v>       0.01721751       0.01885125      -0.02006335 </v>
   <v>      -0.00000000       0.07362806       0.04096413 </v>
   <v>      -0.00000000       0.03429200      -0.02689083 </v>
   <v>      -0.01801321       0.07239490       0.03502337 </v>
   <v>      -0.01721751       0.01885125      -0.02006335 </v>
   <v>      -0.02136281      -0.15154097       0.25036365 </v>
   <v>       0.02075492      -0.10060347      -0.11304955 </v>
   <v>       0.02136281      -0.15154097       0.25036365 </v>
   <v>      -0.02075492      -0.10060347      -0.11304955 </v>
   <v>      -0.00000000      -0.00649096       0.11280732 </v>
   <v>      -0.00000000      -0.02203781      -0.12191392 </v>
   <v>      -0.43181116       0.02636548       0.41721144 </v>
   <v>      -0.05109388      -0.02333654      -0.13021324 </v>
   <v>      -0.00000000      -0.03378779      -0.12459877 </v>
   <v>       0.43181116       0.02636548       0.41721144 </v>
   <v>       0.05109388      -0.02333654      -0.13021324 </v>
   <v>      -0.04535745      -0.24581680       0.10926056 </v>
   <v>       0.01428030      -0.10906739       0.01038352 </v>
   <v>      -0.00000000      -0.43251345       0.03844727 </v>
   <v>      -0.00000000      -0.09717138       0.00529834 </v>
   <v>       0.04535745      -0.24581680       0.10926056 </v>
   <v>      -0.01428030      -0.10906739       0.01038352 </v>
   <v>      -0.11472111       0.17727167       0.19429751 </v>
   <v>      -0.02935256       0.19229891      -0.68745820 </v>
   <v>       0.11472111       0.17727167       0.19429751 </v>
   <v>       0.02935256       0.19229891      -0.68745820 </v>
   <v>      -0.00000000       0.08047503       0.07828497 </v>
   <v>      -0.00000000       0.04903770      -0.17122731 </v>
   <v>       0.03216615      -0.19428165       0.05041087 </v>
   <v>       0.00287714      -0.12076238       0.14700358 </v>
   <v>      -0.03216615      -0.19428165       0.05041087 </v>
   <v>      -0.00287714      -0.12076238       0.14700358 </v>
   <v>      -0.00000000      -0.14869770       0.08485286 </v>
   <v>      -0.00000000      -0.09264327       0.15455952 </v>
   <v>       0.13739230       0.00988635      -0.13063667 </v>
   <v>       0.01666332       0.16162723      -0.09894160 </v>
   <v>      -0.00000000       0.35245895      -0.08420726 </v>
   <v>      -0.00000000       0.15160781      -0.10891891 </v>
   <v>      -0.13739230       0.00988635      -0.13063667 </v>
   <v>      -0.01666332       0.16162723      -0.09894160 </v>
   <v>       0.08971229      -0.19163227      -0.16752008 </v>
   <v>       0.00851545      -0.05344685      -0.03608998 </v>
   <v>      -0.08971229      -0.19163227      -0.16752008 </v>
   <v>      -0.00851545      -0.05344685      -0.03608998 </v>
   <v>      -0.00000000      -0.09186486      -0.13681990 </v>
   <v>      -0.00000000      -0.04869712      -0.06207832 </v>
   <v>       0.01479269      -0.01150873       0.08453192 </v>
   <v>       0.00502275       0.01394114       0.15091487 </v>
   <v>      -0.00000000      -0.02517562       0.07475611 </v>
   <v>      -0.00000000       0.00353186       0.14362343 </v>
   <v>      -0.01479269      -0.01150873       0.08453192 </v>
   <v>      -0.00502275       0.01394114       0.15091487 </v>
   <v>       0.00361630       0.39412183      -0.06337520 </v>
   <v>       0.00059905       0.38589909      -0.04772741 </v>
   <v>      -0.00000000       0.38130915      -0.05148226 </v>
   <v>      -0.00000000       0.37706713      -0.02554425 </v>
   <v>      -0.00361630       0.39412183      -0.06337520 </v>
   <v>      -0.00059905       0.38589909      -0.04772741 </v>
   <v>       0.01874862      -0.40543741       0.02666083 </v>
   <v>       0.10217616      -0.48316974       0.17704655 </v>
   <v>      -0.01874862      -0.40543741       0.02666083 </v>
   <v>      -0.10217616      -0.48316974       0.17704655 </v>
   <v>      -0.00000000      -0.41416160       0.04874495 </v>
   <v>      -0.00000000      -0.46042223       0.09872117 </v>
   <v>       0.04909301      -0.23903990       0.05597731 </v>
   <v>       0.07392555      -0.30246649       0.29815788 </v>
   <v>      -0.00000000      -0.26392249      -0.00059393 </v>
   <v>      -0.00000000      -0.36814173       0.27860290 </v>
   <v>      -0.04909301      -0.23903990       0.05597731 </v>
   <v>      -0.07392555      -0.30246649       0.29815788 </v>
   <v>      -0.03593929       0.29068729      -0.12430000 </v>
   <v>      -0.00389543       0.20456883      -0.13380712 </v>
   <v>       0.03593929       0.29068729      -0.12430000 </v>
   <v>       0.00389543       0.20456883      -0.13380712 </v>
   <v>      -0.00000000       0.24787291      -0.13176024 </v>
   <v>      -0.00000000       0.20830618      -0.15240896 </v>
   <v>       0.08297921       0.07382039      -0.24583047 </v>
   <v>      -0.00061269       0.01641486      -0.03920736 </v>
   <v>      -0.00000000      -0.14308253      -0.15704102 </v>
   <v>      -0.00000000       0.04665460      -0.04668973 </v>
   <v>      -0.08297921       0.07382039      -0.24583047 </v>
   <v>       0.00061269       0.01641486      -0.03920736 </v>
   <v>      -0.19797448      -0.03074672      -0.00566247 </v>
   <v>       0.00423260       0.03949729       0.28167533 </v>
   <v>       0.19797448      -0.03074672      -0.00566247 </v>
   <v>      -0.00423260       0.03949729       0.28167533 </v>
   <v>      -0.00000000       0.02670692       0.05059279 </v>
   <v>      -0.00000000       0.01754099       0.20271266 </v>
   <v>      -0.14542436       0.29944212      -0.07613295 </v>
   <v>       0.01482356       0.35683202      -0.07919961 </v>
   <v>       0.14542436       0.29944212      -0.07613295 </v>
   <v>      -0.01482356       0.35683202      -0.07919961 </v>
   <v>      -0.00000000       0.34316636      -0.14681522 </v>
   <v>      -0.00000000       0.38199974      -0.04644588 </v>
   <v>       0.00507770      -0.27163635      -0.00601788 </v>
   <v>       0.10548756      -0.17462134       0.14736677 </v>
   <v>      -0.00000000      -0.34733461      -0.02414270 </v>
   <v>      -0.00000000      -0.18502720       0.14849963 </v>
   <v>      -0.00507770      -0.27163635      -0.00601788 </v>
   <v>      -0.10548756      -0.17462134       0.14736677 </v>
  </varray>
  <varray name="stress" >
   <v>     -47.68777842       0.00000000       0.00000000 </v>
   <v>       0.00000000     -46.92717880       2.04344366 </v>
   <v>       0.00000000       2.04344428     -43.41901121 </v>
  </varray>
  <energy>
   <i name="e_fr_energy">   -940.63309406 </i>
   <i name="e_wo_entrp">   -940.61738472 </i>
   <i name="e_0_energy">   -940.62523939 </i>
  </energy>
  <time name="totalsc">31319.4931316.05</time>
  <eigenvalues>
   <array>
    <dimension dim="1">band</dimension>
    <dimension dim="2">kpoint</dimension>
    <dimension dim="3">spin</dimension>
    <field>eigene</field>
    <field>occ</field>
    <set>
     <set comment="spin 1">
      <set comment="kpoint 1">
       <r>  -18.8243    1.0000 </r>
       <r>  -18.5499    1.0000 </r>
       <r>  -18.4868    1.0000 </r>
       <r>  -18.3545    1.0000 </r>
       <r>  -18.2815    1.0000 </r>
       <r>  -18.1401    1.0000 </r>
       <r>  -18.1287    1.0000 </r>
       <r>  -18.0805    1.0000 </r>
       <r>  -17.9931    1.0000 </r>
       <r>  -17.9492    1.0000 </r>
       <r>  -17.9410    1.0000 </r>
       <r>  -17.8989    1.0000 </r>
       <r>  -17.8948    1.0000 </r>
       <r>  -17.8597    1.0000 </r>
       <r>  -17.8309    1.0000 </r>
       <r>  -17.8117    1.0000 </r>
       <r>  -17.8080    1.0000 </r>
       <r>  -17.7265    1.0000 </r>
       <r>  -17.7158    1.0000 </r>
       <r>  -17.6814    1.0000 </r>
       <r>  -17.6704    1.0000 </r>
       <r>  -17.6680    1.0000 </r>
       <r>  -17.6203    1.0000 </r>
       <r>  -17.6147    1.0000 </r>
       <r>  -17.6018    1.0000 </r>
       <r>  -17.5585    1.0000 </r>
       <r>  -17.5553    1.0000 </r>
       <r>  -17.5262    1.0000 </r>
       <r>  -17.5184    1.0000 </r>
       <r>  -17.5111    1.0000 </r>
       <r>  -17.4991    1.0000 </r>
       <r>  -17.4760    1.0000 </r>
       <r>  -17.4550    1.0000 </r>
       <r>  -17.4257    1.0000 </r>
       <r>  -17.4110    1.0000 </r>
       <r>  -17.3942    1.0000 </r>
       <r>  -17.3828    1.0000 </r>
       <r>  -17.3779    1.0000 </r>
       <r>  -17.3721    1.0000 </r>
       <r>  -17.3513    1.0000 </r>
       <r>  -17.3257    1.0000 </r>
       <r>  -17.3183    1.0000 </r>
       <r>  -17.3180    1.0000 </r>
       <r>  -17.3128    1.0000 </r>
       <r>  -17.2943    1.0000 </r>
       <r>  -17.2829    1.0000 </r>
       <r>  -17.2741    1.0000 </r>
       <r>  -17.2638    1.0000 </r>
       <r>  -17.2294    1.0000 </r>
       <r>  -17.1930    1.0000 </r>
       <r>  -17.1861    1.0000 </r>
       <r>  -17.1670    1.0000 </r>
       <r>  -17.1594    1.0000 </r>
       <r>  -17.1466    1.0000 </r>
       <r>  -17.1306    1.0000 </r>
       <r>  -17.1038    1.0000 </r>
       <r>  -17.0806    1.0000 </r>
       <r>  -17.0685    1.0000 </r>
       <r>  -17.0682    1.0000 </r>
       <r>  -17.0582    1.0000 </r>
       <r>  -17.0481    1.0000 </r>
       <r>  -17.0448    1.0000 </r>
       <r>  -17.0418    1.0000 </r>
       <r>  -17.0336    1.0000 </r>
       <r>  -17.0095    1.0000 </r>
       <r>  -17.0046    1.0000 </r>
       <r>  -16.9964    1.0000 </r>
       <r>  -16.9840    1.0000 </r>
       <r>  -16.9436    1.0000 </r>
       <r>  -16.9265    1.0000 </r>
       <r>  -16.9087    1.0000 </r>
[...]
       <r>   -12.5812   378.3099   511.4540 </r>
       <r>   -12.4494   196.0728   537.2985 </r>
       <r>   -12.3176   152.8842   557.4503 </r>
       <r>   -12.1858   105.0295   571.2944 </r>
       <r>   -12.0540    99.9781   584.4726 </r>
       <r>   -11.9222   113.2315   599.3977 </r>
       <r>   -11.7903    78.4673   609.7406 </r>
       <r>   -11.6585    29.3720   613.6121 </r>
       <r>   -11.5267     2.9427   614.0000 </r>
       <r>   -11.3949     0.0001   614.0000 </r>
       <r>   -11.2631     0.0000   614.0000 </r>
       <r>   -11.1313     0.0000   614.0000 </r>
       <r>   -10.9995     0.0000   614.0000 </r>
       <r>   -10.8677     0.0000   614.0000 </r>
       <r>   -10.7359     0.0000   614.0000 </r>
       <r>   -10.6040     0.0000   614.0000 </r>
       <r>   -10.4722     0.0000   614.0000 </r>
       <r>   -10.3404     0.0000   614.0000 </r>
       <r>   -10.2086     0.0000   614.0000 </r>
       <r>   -10.0768     0.0000   614.0000 </r>
       <r>    -9.9450     0.0000   614.0000 </r>
       <r>    -9.8132     0.0000   614.0000 </r>
       <r>    -9.6814     0.0000   614.0000 </r>
       <r>    -9.5496     0.0000   614.0000 </r>
       <r>    -9.4177     0.0000   614.0000 </r>
       <r>    -9.2859     0.0000   614.0000 </r>
       <r>    -9.1541     0.0000   614.0000 </r>
       <r>    -9.0223     0.0000   614.0000 </r>
       <r>    -8.8905     0.0000   614.0000 </r>
       <r>    -8.7587     0.0000   614.0000 </r>
       <r>    -8.6269     0.0000   614.0000 </r>
       <r>    -8.4951     0.0000   614.0000 </r>
       <r>    -8.3633     0.0000   614.0000 </r>
       <r>    -8.2314     0.0000   614.0000 </r>
       <r>    -8.0996     0.0000   614.0000 </r>
       <r>    -7.9678     0.0000   614.0000 </r>
       <r>    -7.8360     0.0000   614.0000 </r>
       <r>    -7.7042     0.0000   614.0000 </r>
       <r>    -7.5724     0.0000   614.0000 </r>
       <r>    -7.4406     0.0000   614.0000 </r>
       <r>    -7.3088     0.0000   614.0000 </r>
       <r>    -7.1770     0.0000   614.0000 </r>
       <r>    -7.0451     0.0000   614.0000 </r>
       <r>    -6.9133     0.0000   614.0000 </r>
       <r>    -6.7815     0.0000   614.0000 </r>
       <r>    -6.6497     0.0000   614.0000 </r>
       <r>    -6.5179     0.0000   614.0000 </r>
       <r>    -6.3861     0.0000   614.0000 </r>
       <r>    -6.2543     0.0000   614.0000 </r>
       <r>    -6.1225     0.0000   614.0000 </r>
       <r>    -5.9907     0.0000   614.0000 </r>
       <r>    -5.8588     0.0000   614.0000 </r>
       <r>    -5.7270     0.0000   614.0000 </r>
       <r>    -5.5952     0.0000   614.0000 </r>
       <r>    -5.4634     0.0000   614.0000 </r>
       <r>    -5.3316     0.6749   614.0890 </r>
       <r>    -5.1998     7.4687   615.0734 </r>
       <r>    -5.0680    17.4563   617.3743 </r>
       <r>    -4.9362    22.1296   620.2913 </r>
       <r>    -4.8044    33.3490   624.6870 </r>
       <r>    -4.6726    26.2091   628.1417 </r>
       <r>    -4.5407    49.2045   634.6274 </r>
       <r>    -4.4089    36.0994   639.3857 </r>
       <r>    -4.2771    60.9369   647.4178 </r>
       <r>    -4.1453    55.6785   654.7569 </r>
       <r>    -4.0135    37.4496   659.6931 </r>
       <r>    -3.8817    48.6332   666.1035 </r>
       <r>    -3.7499    47.0174   672.3009 </r>
       <r>    -3.6181    27.0604   675.8678 </r>
       <r>    -3.4863    31.1985   679.9801 </r>
       <r>    -3.3544    24.2480   683.1762 </r>
       <r>    -3.2226    35.6900   687.8806 </r>
       <r>    -3.0908    38.4413   692.9476 </r>
       <r>    -2.9590    36.3318   697.7365 </r>
       <r>    -2.8272    33.5671   702.1610 </r>
       <r>    -2.6954    34.6411   706.7271 </r>
       <r>    -2.5636    36.3200   711.5145 </r>
       <r>    -2.4318    33.0902   715.8761 </r>
       <r>    -2.3000    55.5402   723.1969 </r>
       <r>    -2.1681    35.2422   727.8422 </r>
       <r>    -2.0363    38.3017   732.8908 </r>
       <r>    -1.9045    65.5221   741.5273 </r>
       <r>    -1.7727    76.1791   751.5686 </r>
       <r>    -1.6409    58.9146   759.3342 </r>
       <r>    -1.5091    57.7371   766.9446 </r>
       <r>    -1.3773    65.2485   775.5450 </r>
       <r>    -1.2455    53.4786   782.5941 </r>
       <r>    -1.1137    50.1779   789.2081 </r>
       <r>    -0.9818    68.6266   798.2538 </r>
       <r>    -0.8500    69.1898   807.3738 </r>
       <r>    -0.7182    72.2124   816.8922 </r>
       <r>    -0.5864    70.9742   826.2474 </r>
       <r>    -0.4546    54.6087   833.4454 </r>
       <r>    -0.3228    75.4052   843.3846 </r>
       <r>    -0.1910    70.8991   852.7299 </r>
       <r>    -0.0592    76.9567   862.8736 </r>
       <r>     0.0726    86.4001   874.2621 </r>
       <r>     0.2045    65.1695   882.8522 </r>
       <r>     0.3363    70.5192   892.1474 </r>
       <r>     0.4681    81.5398   902.8952 </r>
       <r>     0.5999    95.4994   915.4831 </r>
       <r>     0.7317    92.1457   927.6289 </r>
       <r>     0.8635    82.8231   938.5459 </r>
       <r>     0.9953    94.9248   951.0580 </r>
       <r>     1.1271   122.6260   967.2215 </r>
       <r>     1.2589   117.1902   982.6684 </r>
       <r>     1.3908   126.5625   999.3508 </r>
       <r>     1.5226   108.0580  1013.5940 </r>
       <r>     1.6544    75.7452  1023.5780 </r>
       <r>     1.7862    53.2166  1030.5926 </r>
       <r>     1.9180    61.1483  1038.6526 </r>
       <r>     2.0498    24.4440  1041.8746 </r>
       <r>     2.1816     7.1890  1042.8222 </r>
       <r>     2.3134     9.4984  1044.0742 </r>
       <r>     2.4452    12.0827  1045.6668 </r>
       <r>     2.5771     2.5276  1046.0000 </r>
       <r>     2.7089     0.0002  1046.0000 </r>
       <r>     2.8407     0.0000  1046.0000 </r>
       <r>     2.9725     0.0000  1046.0000 </r>
       <r>     3.1043     0.0000  1046.0000 </r>
       <r>     3.2361     0.0000  1046.0000 </r>
       <r>     3.3679     0.0000  1046.0000 </r>
       <r>     3.4997     0.0000  1046.0000 </r>
       <r>     3.6315     0.0000  1046.0000 </r>
       <r>     3.7634     0.0000  1046.0000 </r>
       <r>     3.8952     0.0000  1046.0000 </r>
       <r>     4.0270     0.0000  1046.0000 </r>
       <r>     4.1588     0.0000  1046.0000 </r>
       <r>     4.2906     0.0000  1046.0000 </r>
       <r>     4.4224     0.0000  1046.0000 </r>
       <r>     4.5542     0.0000  1046.0000 </r>
       <r>     4.6860     0.0000  1046.0000 </r>
       <r>     4.8178     0.0000  1046.0000 </r>
       <r>     4.9496     0.0000  1046.0000 </r>
       <r>     5.0815     0.0000  1046.0000 </r>
       <r>     5.2133     0.0000  1046.0000 </r>
       <r>     5.3451     0.0000  1046.0000 </r>
       <r>     5.4769     0.0000  1046.0000 </r>
       <r>     5.6087     0.0000  1046.0000 </r>
       <r>     5.7405     0.0000  1046.0000 </r>
       <r>     5.8723     0.0000  1046.0000 </r>
       <r>     6.0041     0.0000  1046.0000 </r>
       <r>     6.1359     0.0000  1046.0000 </r>
       <r>     6.2678     0.0000  1046.0000 </r>
       <r>     6.3996     0.0000  1046.0000 </r>
       <r>     6.5314     0.0002  1046.0000 </r>
       <r>     6.6632     1.0042  1046.1324 </r>
       <r>     6.7950     0.8921  1046.2500 </r>
       <r>     6.9268     0.0001  1046.2500 </r>
       <r>     7.0586     0.0000  1046.2500 </r>
       <r>     7.1904     0.0000  1046.2500 </r>
       <r>     7.3222     0.0042  1046.2506 </r>
       <r>     7.4541     1.9886  1046.5127 </r>
       <r>     7.5859     4.0605  1047.0479 </r>
       <r>     7.7177     1.5647  1047.2541 </r>
       <r>     7.8495     2.1897  1047.5427 </r>
       <r>     7.9813     4.9852  1048.1998 </r>
       <r>     8.1131     0.3805  1048.2500 </r>
       <r>     8.2449     0.0052  1048.2507 </r>
       <r>     8.3767     4.5718  1048.8533 </r>
       <r>     8.5085     8.1543  1049.9281 </r>
       <r>     8.6404     4.5840  1050.5323 </r>
       <r>     8.7722     5.7973  1051.2965 </r>
       <r>     8.9040     4.7909  1051.9280 </r>
       <r>     9.0358     3.8127  1052.4305 </r>
       <r>     9.1676     8.4881  1053.5494 </r>
       <r>     9.2994     8.9618  1054.7306 </r>
       <r>     9.4312     3.5368  1055.1968 </r>
       <r>     9.5630     2.6031  1055.5399 </r>
       <r>     9.6948    16.5545  1057.7220 </r>
       <r>     9.8267    12.5844  1059.3807 </r>
       <r>     9.9585     8.2538  1060.4687 </r>
       <r>    10.0903     5.9438  1061.2521 </r>
       <r>    10.2221    21.7554  1064.1197 </r>
       <r>    10.3539    30.7316  1068.1705 </r>
       <r>    10.4857    30.7479  1072.2234 </r>
       <r>    10.6175    38.1299  1077.2493 </r>
       <r>    10.7493    46.7626  1083.4132 </r>
       <r>    10.8811    35.5385  1088.0975 </r>
       <r>    11.0130    16.6320  1090.2898 </r>
       <r>    11.1448    30.2104  1094.2719 </r>
       <r>    11.2766    33.5409  1098.6929 </r>
       <r>    11.4084    28.3387  1102.4283 </r>
       <r>    11.5402    40.4413  1107.7589 </r>
       <r>    11.6720    35.5748  1112.4480 </r>
       <r>    11.8038    35.0049  1117.0621 </r>
       <r>    11.9356    31.1436  1121.1671 </r>
       <r>    12.0674    23.9158  1124.3195 </r>
       <r>    12.1993    39.9574  1129.5863 </r>
       <r>    12.3311    41.8033  1135.0964 </r>
       <r>    12.4629    53.2433  1142.1145 </r>
       <r>    12.5947    34.8685  1146.7105 </r>
       <r>    12.7265    19.2232  1149.2444 </r>
       <r>    12.8583    21.0098  1152.0137 </r>
       <r>    12.9901    27.4308  1155.6294 </r>
       <r>    13.1219    52.7358  1162.5805 </r>
       <r>    13.2537    31.9475  1166.7916 </r>
       <r>    13.3856    38.3750  1171.8498 </r>
       <r>    13.5174    27.3207  1175.4510 </r>
       <r>    13.6492    29.2472  1179.3061 </r>
       <r>    13.7810    31.4793  1183.4554 </r>
       <r>    13.9128    27.5070  1187.0811 </r>
       <r>    14.0446    30.3273  1191.0786 </r>
       <r>    14.1764    24.7487  1194.3407 </r>
       <r>    14.3082    26.7426  1197.8657 </r>
       <r>    14.4400    32.8895  1202.2009 </r>
       <r>    14.5718    28.4443  1205.9502 </r>
       <r>    14.7037    23.0824  1208.9927 </r>
       <r>    14.8355    23.9563  1212.1504 </r>
       <r>    14.9673    24.8786  1215.4296 </r>
       <r>    15.0991    23.5313  1218.5313 </r>
       <r>    15.2309    22.0446  1221.4370 </r>
       <r>    15.3627    22.9515  1224.4623 </r>
       <r>    15.4945    21.5325  1227.3005 </r>
       <r>    15.6263    21.9795  1230.1977 </r>
       <r>    15.7581    22.9797  1233.2266 </r>
       <r>    15.8900    17.5885  1235.5450 </r>
       <r>    16.0218    20.2587  1238.2153 </r>
       <r>    16.1536    18.8438  1240.6991 </r>
       <r>    16.2854    11.7900  1242.2532 </r>
       <r>    16.4172    14.0873  1244.1100 </r>
       <r>    16.5490    15.8230  1246.1957 </r>
       <r>    16.6808    10.0774  1247.5240 </r>
       <r>    16.8126     8.6210  1248.6604 </r>
       <r>    16.9444     4.4897  1249.2521 </r>
       <r>    17.0763     3.8811  1249.7637 </r>
       <r>    17.2081     1.7758  1249.9978 </r>
       <r>    17.3399     0.0168  1250.0000 </r>
       <r>    17.4717     0.0000  1250.0000 </r>
       <r>    17.6035     0.0000  1250.0000 </r>
       <r>    17.7353     0.0000  1250.0000 </r>
       <r>    17.8671     0.0000  1250.0000 </r>
       <r>    17.9989     0.0000  1250.0000 </r>
       <r>    18.1307     0.0000  1250.0000 </r>
       <r>    18.2626     0.0000  1250.0000 </r>
       <r>    18.3944     0.0000  1250.0000 </r>
       <r>    18.5262     0.0000  1250.0000 </r>
       <r>    18.6580     0.0000  1250.0000 </r>
       <r>    18.7898     0.0000  1250.0000 </r>
       <r>    18.9216     0.0000  1250.0000 </r>
      </set>
     </set>
    </array>
   </total>
  </dos>
 </calculation>
 <structure name="finalpos" >
  <crystal>
   <varray name="basis" >
    <v>       0.00000000      12.28047342       0.00000000 </v>
    <v>       9.14270205       0.00000000       0.00000000 </v>
    <v>       0.00000000      -2.76826177     -11.30069772 </v>
   </varray>
   <i name="volume">   1268.80515525 </i>
   <varray name="rec_basis" >
    <v>       0.00000000       0.08143009      -0.01994742 </v>
    <v>       0.10937686      -0.00000000       0.00000000 </v>
    <v>       0.00000000       0.00000000      -0.08849011 </v>
   </varray>
  </crystal>
  <varray name="positions" >
   <v>       0.66111882       0.00006166       0.15791890 </v>
   <v>       0.65816862       0.00028259       0.65546779 </v>
   <v>       0.66171156       0.33333333       0.15834412 </v>
   <v>       0.65805543       0.33333333       0.65507326 </v>
   <v>       0.66111882       0.66660501       0.15791890 </v>
   <v>       0.65816862       0.66638408       0.65546779 </v>
   <v>       0.84341632       0.16710099       0.34444804 </v>
   <v>       0.84028454       0.16719618       0.84256033 </v>
   <v>       0.84341632       0.49956568       0.34444804 </v>
   <v>       0.84028454       0.49947049       0.84256033 </v>
   <v>       0.84218338       0.83333333       0.34425296 </v>
   <v>       0.83983557       0.83333333       0.84242805 </v>
   <v>       0.58910643       0.17033043       0.39581358 </v>
   <v>       0.59210173       0.16649431       0.89788334 </v>
   <v>       0.58910643       0.49633624       0.39581358 </v>
   <v>       0.59210173       0.50017236       0.89788334 </v>
   <v>       0.59036158       0.83333333       0.39712202 </v>
   <v>       0.59278784       0.83333333       0.89864598 </v>
   <v>       0.90878182       0.00028605       0.10171453 </v>
   <v>       0.90952004       0.00013192       0.60297146 </v>
   <v>       0.91102480       0.33333333       0.10270135 </v>
   <v>       0.91002083       0.33333333       0.60271749 </v>
   <v>       0.90878182       0.66638061       0.10171453 </v>
   <v>       0.90952004       0.66653474       0.60297146 </v>
   <v>       0.16318792       0.16960134       0.16109644 </v>
   <v>       0.16016040       0.16703497       0.65816303 </v>
   <v>       0.16318792       0.49706532       0.16109644 </v>
   <v>       0.16016040       0.49963169       0.65816303 </v>
   <v>       0.15841957       0.83333333       0.15790966 </v>
   <v>       0.16010443       0.83333333       0.65972673 </v>
   <v>       0.33994053       0.00391574       0.34078920 </v>
   <v>       0.34271447       0.00016343       0.84403055 </v>
   <v>       0.34207034       0.33333333       0.84371657 </v>
   <v>       0.33994053       0.66275092       0.34078920 </v>
   <v>       0.34271447       0.66650324       0.84403055 </v>
   <v>       0.09193926       0.00051796       0.39761167 </v>
   <v>       0.08997964       0.00019149       0.89740231 </v>
   <v>       0.09873370       0.33333333       0.39706467 </v>
   <v>       0.09104337       0.33333333       0.89823402 </v>
   <v>       0.09193926       0.66614871       0.39761167 </v>
   <v>       0.08997964       0.66647518       0.89740231 </v>
   <v>       0.40981616       0.16579533       0.10497427 </v>
   <v>       0.40572104       0.16634412       0.59825407 </v>
   <v>       0.40981616       0.50087134       0.10497427 </v>
   <v>       0.40572104       0.50032255       0.59825407 </v>
   <v>       0.40998373       0.83333333       0.10395615 </v>
   <v>       0.40872426       0.83333333       0.60055225 </v>
   <v>       0.99693340       0.16580364       0.12442406 </v>
   <v>       0.99734499       0.16649373       0.62892118 </v>
   <v>       0.99693340       0.50086303       0.12442406 </v>
   <v>       0.99734499       0.50017294       0.62892118 </v>
   <v>       0.99486971       0.83333333       0.12577253 </v>
   <v>       0.99706682       0.83333333       0.62950934 </v>
   <v>       0.50382878       0.00090604       0.37317578 </v>
   <v>       0.50515242       0.99962974       0.87318525 </v>
   <v>       0.50020452       0.33333333       0.37122535 </v>
   <v>       0.50488044       0.33333333       0.87252198 </v>
   <v>       0.50382878       0.66576062       0.37317578 </v>
   <v>       0.50515242       0.66703692       0.87318525 </v>
   <v>       0.67432431       0.16639246       0.28077826 </v>
   <v>       0.67198803       0.16768626       0.77950249 </v>
   <v>       0.67432431       0.50027421       0.28077826 </v>
   <v>       0.67198803       0.49898040       0.77950249 </v>
   <v>       0.67391026       0.83333333       0.28145293 </v>
   <v>       0.67238819       0.83333333       0.77990153 </v>
   <v>       0.82903336       0.00042248       0.22037867 </v>
   <v>       0.82674747       0.00037631       0.71888343 </v>
   <v>       0.82965694       0.33333333       0.22019316 </v>
   <v>       0.82701138       0.33333333       0.71868464 </v>
   <v>       0.82903336       0.66624419       0.22037867 </v>
   <v>       0.82674747       0.66629035       0.71888343 </v>
   <v>       0.83350318       0.00025141       0.44650264 </v>
   <v>       0.83117029       0.00033988       0.94496116 </v>
   <v>       0.83270607       0.33333333       0.44654353 </v>
   <v>       0.83215414       0.33333333       0.94589319 </v>
   <v>       0.83350318       0.66641526       0.44650264 </v>
   <v>       0.83117029       0.66632679       0.94496116 </v>
   <v>       0.66861728       0.16727096       0.05459229 </v>
   <v>       0.66715319       0.16664095       0.55324896 </v>
   <v>       0.66861728       0.49939571       0.05459229 </v>
   <v>       0.66715319       0.50002572       0.55324896 </v>
   <v>       0.67074523       0.83333333       0.05493544 </v>
   <v>       0.66753909       0.83333333       0.55376233 </v>
   <v>       0.49917087       0.99927604       0.12692229 </v>
   <v>       0.49621920       0.00074592       0.62803521 </v>
   <v>       0.49777795       0.33333333       0.13314310 </v>
   <v>       0.49356221       0.33333333       0.62083230 </v>
   <v>       0.49917087       0.66739063       0.12692229 </v>
   <v>       0.49621920       0.66592075       0.62803521 </v>
   <v>       0.00580992       0.16814971       0.37516335 </v>
   <v>       0.00280335       0.16707673       0.87114173 </v>
   <v>       0.00580992       0.49851695       0.37516335 </v>
   <v>       0.00280335       0.49958993       0.87114173 </v>
   <v>       0.00414564       0.83333333       0.37474879 </v>
   <v>       0.00234755       0.83333333       0.87074703 </v>
   <v>       0.16912188       0.99675148       0.27855822 </v>
   <v>       0.17365884       0.00011100       0.78210242 </v>
   <v>       0.16179821       0.33333333       0.27009922 </v>
   <v>       0.17343989       0.33333333       0.78179944 </v>
   <v>       0.16912188       0.66991519       0.27855822 </v>
   <v>       0.17365884       0.66655567       0.78210242 </v>
   <v>       0.32477075       0.14757264       0.21327691 </v>
   <v>       0.32856136       0.16690372       0.72057354 </v>
   <v>       0.32477075       0.51909402       0.21327691 </v>
   <v>       0.32856136       0.49976294       0.72057354 </v>
   <v>       0.32746054       0.83333333       0.21906535 </v>
   <v>       0.32836781       0.83333333       0.71972841 </v>
   <v>       0.31438380       0.14825078       0.45076105 </v>
   <v>       0.33574815       0.16703191       0.94685884 </v>
   <v>       0.31438380       0.51841589       0.45076105 </v>
   <v>       0.33574815       0.49963476       0.94685884 </v>
   <v>       0.33248900       0.83333333       0.44401145 </v>
   <v>       0.33410827       0.83333333       0.94655806 </v>
   <v>       0.16482124       0.99957053       0.05358543 </v>
   <v>       0.16638505       0.99908837       0.55585349 </v>
   <v>       0.17067248       0.33333333       0.05266579 </v>
   <v>       0.16805792       0.33333333       0.55615267 </v>
   <v>       0.16482124       0.66709614       0.05358543 </v>
   <v>       0.16638505       0.66757829       0.55585349 </v>
  </varray>
 </structure>
</modeling>
