<?xml version="1.0" encoding="ISO-8859-1"?>
<modeling>
 <generator>
  <i name="program" type="string">vasp </i>
  <i name="version" type="string">6.4.2  </i>
  <i name="subversion" type="string">20Jul23 (build Nov 12 2023 22:16:35) complex                          parallel </i>
  <i name="platform" type="string">LinuxNV </i>
  <i name="date" type="string">2025 03 13 </i>
  <i name="time" type="string">22:46:17 </i>
 </generator>
 <incar>
  <i type="int" name="ISTART">     0</i>
  <i type="string" name="PREC">Normal</i>
  <i type="string" name="ALGO">Fast</i>
  <i type="int" name="ISPIN">     1</i>
  <i type="int" name="ICHARG">     2</i>
  <i type="int" name="IBRION">     2</i>
  <i name="EDIFF">      0.00001000</i>
  <i name="EDIFFG">     -0.00500000</i>
  <i type="int" name="NSW">   300</i>
  <i type="int" name="ISIF">     2</i>
  <i name="ENCUT">    450.00000000</i>
  <i type="string" name="LREAL">Auto</i>
  <i type="logical" name="LPLANE"> T  </i>
  <i type="int" name="ISMEAR">     0</i>
  <i name="SIGMA">      0.05000000</i>
  <i type="logical" name="LWAVE"> F  </i>
  <i type="logical" name="LCHARG"> F  </i>
 </incar>
 <primitive_cell>
  <structure name="primitive_cell" >
   <crystal>
    <varray name="basis" >
     <v>       0.00000000      12.28047342       0.00000000 </v>
     <v>       9.14270205       0.00000000       0.00000000 </v>
     <v>       0.00000000      -2.76826177     -11.30069772 </v>
    </varray>
    <i name="volume">   1268.80515525 </i>
    <varray name="rec_basis" >
     <v>       0.00000000       0.08143009      -0.01994742 </v>
     <v>       0.10937686      -0.00000000       0.00000000 </v>
     <v>       0.00000000       0.00000000      -0.08849011 </v>
    </varray>
   </crystal>
   <varray name="positions" >
    <v>       0.65883830       0.00000000       0.15736517 </v>
    <v>       0.65883830       0.00000000       0.65736517 </v>
    <v>       0.65883830       0.33333333       0.15736517 </v>
    <v>       0.65883830       0.33333333       0.65736517 </v>
    <v>       0.65883830       0.66666667       0.15736517 </v>
    <v>       0.65883830       0.66666667       0.65736517 </v>
    <v>       0.84116170       0.16666667       0.34263483 </v>
    <v>       0.84116170       0.16666667       0.84263483 </v>
    <v>       0.84116170       0.50000000       0.34263483 </v>
    <v>       0.84116170       0.50000000       0.84263483 </v>
    <v>       0.84116170       0.83333333       0.34263483 </v>
    <v>       0.84116170       0.83333333       0.84263483 </v>
    <v>       0.59047440       0.16666667       0.39739300 </v>
    <v>       0.59047440       0.16666667       0.89739300 </v>
    <v>       0.59047440       0.50000000       0.39739300 </v>
    <v>       0.59047440       0.50000000       0.89739300 </v>
    <v>       0.59047440       0.83333333       0.39739300 </v>
    <v>       0.59047440       0.83333333       0.89739300 </v>
    <v>       0.90952560       0.00000000       0.10260700 </v>
    <v>       0.90952560       0.00000000       0.60260700 </v>
    <v>       0.90952560       0.33333333       0.10260700 </v>
    <v>       0.90952560       0.33333333       0.60260700 </v>
    <v>       0.90952560       0.66666667       0.10260700 </v>
    <v>       0.90952560       0.66666667       0.60260700 </v>
    <v>       0.15883830       0.16666667       0.15736517 </v>
    <v>       0.15883830       0.50000000       0.15736517 </v>
    <v>       0.15883830       0.50000000       0.65736517 </v>
    <v>       0.15883830       0.83333333       0.15736517 </v>
    <v>       0.15883830       0.83333333       0.65736517 </v>
    <v>       0.34116170       0.00000000       0.34263483 </v>
    <v>       0.34116170       0.00000000       0.84263483 </v>
    <v>       0.34116170       0.33333333       0.34263483 </v>
    <v>       0.34116170       0.33333333       0.84263483 </v>
    <v>       0.34116170       0.66666667       0.34263483 </v>
    <v>       0.34116170       0.66666667       0.84263483 </v>
    <v>       0.09047440       0.00000000       0.39739300 </v>
    <v>       0.09047440       0.00000000       0.89739300 </v>
    <v>       0.09047440       0.33333333       0.39739300 </v>
    <v>       0.09047440       0.33333333       0.89739300 </v>
    <v>       0.09047440       0.66666667       0.39739300 </v>
    <v>       0.09047440       0.66666667       0.89739300 </v>
    <v>       0.40952560       0.16666667       0.10260700 </v>
    <v>       0.40952560       0.16666667       0.60260700 </v>
    <v>       0.40952560       0.50000000       0.10260700 </v>
    <v>       0.40952560       0.50000000       0.60260700 </v>
    <v>       0.40952560       0.83333333       0.10260700 </v>
    <v>       0.40952560       0.83333333       0.60260700 </v>
    <v>       0.99646913       0.16666667       0.12833205 </v>
    <v>       0.99646913       0.16666667       0.62833205 </v>
    <v>       0.99646913       0.50000000       0.12833205 </v>
    <v>       0.99646913       0.50000000       0.62833205 </v>
    <v>       0.99646913       0.83333333       0.12833205 </v>
    <v>       0.99646913       0.83333333       0.62833205 </v>
    <v>       0.50353087       0.00000000       0.37166795 </v>
    <v>       0.50353087       0.00000000       0.87166795 </v>
    <v>       0.50353087       0.33333333       0.37166795 </v>
    <v>       0.50353087       0.33333333       0.87166795 </v>
    <v>       0.50353087       0.66666667       0.37166795 </v>
    <v>       0.50353087       0.66666667       0.87166795 </v>
    <v>       0.67337106       0.16666667       0.28161508 </v>
    <v>       0.67337106       0.16666667       0.78161508 </v>
    <v>       0.67337106       0.50000000       0.28161508 </v>
    <v>       0.67337106       0.50000000       0.78161508 </v>
    <v>       0.67337106       0.83333333       0.28161508 </v>
    <v>       0.67337106       0.83333333       0.78161508 </v>
    <v>       0.82662894       0.00000000       0.21838492 </v>
    <v>       0.82662894       0.00000000       0.71838492 </v>
    <v>       0.82662894       0.33333333       0.21838492 </v>
    <v>       0.82662894       0.33333333       0.71838492 </v>
    <v>       0.82662894       0.66666667       0.21838492 </v>
    <v>       0.82662894       0.66666667       0.71838492 </v>
    <v>       0.83549502       0.00000000       0.44542296 </v>
    <v>       0.83549502       0.00000000       0.94542296 </v>
    <v>       0.83549502       0.33333333       0.44542296 </v>
    <v>       0.83549502       0.33333333       0.94542296 </v>
    <v>       0.83549502       0.66666667       0.44542296 </v>
    <v>       0.83549502       0.66666667       0.94542296 </v>
    <v>       0.66450498       0.16666667       0.05457704 </v>
    <v>       0.66450498       0.16666667       0.55457704 </v>
    <v>       0.66450498       0.50000000       0.05457704 </v>
    <v>       0.66450498       0.50000000       0.55457704 </v>
    <v>       0.66450498       0.83333333       0.05457704 </v>
    <v>       0.66450498       0.83333333       0.55457704 </v>
    <v>       0.49646913       0.00000000       0.12833205 </v>
    <v>       0.49646913       0.00000000       0.62833205 </v>
    <v>       0.49646913       0.33333333       0.12833205 </v>
    <v>       0.49646913       0.33333333       0.62833205 </v>
    <v>       0.49646913       0.66666667       0.12833205 </v>
    <v>       0.49646913       0.66666667       0.62833205 </v>
    <v>       0.00353087       0.16666667       0.37166795 </v>
    <v>       0.00353087       0.16666667       0.87166795 </v>
    <v>       0.00353087       0.50000000       0.37166795 </v>
    <v>       0.00353087       0.50000000       0.87166795 </v>
    <v>       0.00353087       0.83333333       0.37166795 </v>
    <v>       0.00353087       0.83333333       0.87166795 </v>
    <v>       0.17337106       0.00000000       0.28161508 </v>
    <v>       0.17337106       0.00000000       0.78161508 </v>
    <v>       0.17337106       0.33333333       0.28161508 </v>
    <v>       0.17337106       0.33333333       0.78161508 </v>
    <v>       0.17337106       0.66666667       0.28161508 </v>
    <v>       0.17337106       0.66666667       0.78161508 </v>
    <v>       0.32662894       0.16666667       0.21838492 </v>
    <v>       0.32662894       0.16666667       0.71838492 </v>
    <v>       0.32662894       0.50000000       0.21838492 </v>
    <v>       0.32662894       0.50000000       0.71838492 </v>
    <v>       0.32662894       0.83333333       0.21838492 </v>
    <v>       0.32662894       0.83333333       0.71838492 </v>
    <v>       0.33549502       0.16666667       0.44542296 </v>
    <v>       0.33549502       0.16666667       0.94542296 </v>
    <v>       0.33549502       0.50000000       0.44542296 </v>
    <v>       0.33549502       0.50000000       0.94542296 </v>
    <v>       0.33549502       0.83333333       0.44542296 </v>
    <v>       0.33549502       0.83333333       0.94542296 </v>
    <v>       0.16450498       0.00000000       0.05457704 </v>
    <v>       0.16450498       0.33333333       0.05457704 </v>
    <v>       0.16450498       0.33333333       0.55457704 </v>
    <v>       0.16450498       0.66666667       0.05457704 </v>
    <v>       0.16450498       0.66666667       0.55457704 </v>
    <v>       0.16450498       0.00000000       0.55457704 </v>
   </varray>
  </structure>
  <varray name="primitive_index" >
   <v type="int" >        1 </v>
   <v type="int" >        2 </v>
   <v type="int" >        3 </v>
   <v type="int" >        4 </v>
   <v type="int" >        5 </v>
   <v type="int" >        6 </v>
   <v type="int" >        7 </v>
   <v type="int" >        8 </v>
   <v type="int" >        9 </v>
   <v type="int" >       10 </v>
   <v type="int" >       11 </v>
   <v type="int" >       12 </v>
   <v type="int" >       13 </v>
   <v type="int" >       14 </v>
   <v type="int" >       15 </v>
   <v type="int" >       16 </v>
   <v type="int" >       17 </v>
   <v type="int" >       18 </v>
   <v type="int" >       19 </v>
   <v type="int" >       20 </v>
   <v type="int" >       21 </v>
   <v type="int" >       22 </v>
   <v type="int" >       23 </v>
   <v type="int" >       24 </v>
   <v type="int" >       25 </v>
   <v type="int" >       26 </v>
   <v type="int" >       27 </v>
   <v type="int" >       28 </v>
   <v type="int" >       29 </v>
   <v type="int" >       30 </v>
   <v type="int" >       31 </v>
   <v type="int" >       32 </v>
   <v type="int" >       33 </v>
   <v type="int" >       34 </v>
   <v type="int" >       35 </v>
   <v type="int" >       36 </v>
   <v type="int" >       37 </v>
   <v type="int" >       38 </v>
   <v type="int" >       39 </v>
   <v type="int" >       40 </v>
   <v type="int" >       41 </v>
   <v type="int" >       42 </v>
   <v type="int" >       43 </v>
   <v type="int" >       44 </v>
   <v type="int" >       45 </v>
   <v type="int" >       46 </v>
   <v type="int" >       47 </v>
   <v type="int" >       48 </v>
   <v type="int" >       49 </v>
   <v type="int" >       50 </v>
   <v type="int" >       51 </v>
   <v type="int" >       52 </v>
   <v type="int" >       53 </v>
   <v type="int" >       54 </v>
   <v type="int" >       55 </v>
   <v type="int" >       56 </v>
   <v type="int" >       57 </v>
   <v type="int" >       58 </v>
   <v type="int" >       59 </v>
   <v type="int" >       60 </v>
   <v type="int" >       61 </v>
   <v type="int" >       62 </v>
   <v type="int" >       63 </v>
   <v type="int" >       64 </v>
   <v type="int" >       65 </v>
   <v type="int" >       66 </v>
   <v type="int" >       67 </v>
   <v type="int" >       68 </v>
   <v type="int" >       69 </v>
   <v type="int" >       70 </v>
   <v type="int" >       71 </v>
   <v type="int" >       72 </v>
   <v type="int" >       73 </v>
   <v type="int" >       74 </v>
   <v type="int" >       75 </v>
   <v type="int" >       76 </v>
   <v type="int" >       77 </v>
   <v type="int" >       78 </v>
   <v type="int" >       79 </v>
   <v type="int" >       80 </v>
   <v type="int" >       81 </v>
   <v type="int" >       82 </v>
   <v type="int" >       83 </v>
   <v type="int" >       84 </v>
   <v type="int" >       85 </v>
   <v type="int" >       86 </v>
   <v type="int" >       87 </v>
   <v type="int" >       88 </v>
   <v type="int" >       89 </v>
   <v type="int" >       90 </v>
   <v type="int" >       91 </v>
   <v type="int" >       92 </v>
   <v type="int" >       93 </v>
   <v type="int" >       94 </v>
   <v type="int" >       95 </v>
   <v type="int" >       96 </v>
   <v type="int" >       97 </v>
   <v type="int" >       98 </v>
   <v type="int" >       99 </v>
   <v type="int" >      100 </v>
   <v type="int" >      101 </v>
   <v type="int" >      102 </v>
   <v type="int" >      103 </v>
   <v type="int" >      104 </v>
   <v type="int" >      105 </v>
   <v type="int" >      106 </v>
   <v type="int" >      107 </v>
   <v type="int" >      108 </v>
   <v type="int" >      109 </v>
   <v type="int" >      110 </v>
   <v type="int" >      111 </v>
   <v type="int" >      112 </v>
   <v type="int" >      113 </v>
   <v type="int" >      114 </v>
   <v type="int" >      115 </v>
   <v type="int" >      116 </v>
   <v type="int" >      117 </v>
   <v type="int" >      118 </v>
   <v type="int" >      119 </v>
  </varray>
 </primitive_cell>
 <kpoints>
  <generation param="Gamma">
   <v type="int" name="divisions">       2        2        2 </v>
   <v name="usershift">      0.00000000       0.00000000       0.00000000 </v>
   <v name="genvec1">      0.50000000       0.00000000       0.00000000 </v>
   <v name="genvec2">      0.00000000       0.50000000       0.00000000 </v>
   <v name="genvec3">      0.00000000       0.00000000       0.50000000 </v>
   <v name="shift">      0.00000000       0.00000000       0.00000000 </v>
  </generation>
  <varray name="kpointlist" >
   <v>       0.00000000       0.00000000       0.00000000 </v>
   <v>       0.50000000       0.00000000       0.00000000 </v>
   <v>       0.00000000       0.50000000       0.00000000 </v>
   <v>       0.50000000       0.50000000       0.00000000 </v>
   <v>       0.00000000       0.00000000       0.50000000 </v>
   <v>       0.50000000       0.00000000       0.50000000 </v>
   <v>       0.00000000       0.50000000       0.50000000 </v>
   <v>       0.50000000       0.50000000       0.50000000 </v>
  </varray>
  <varray name="weights" >
   <v>       0.12500000 </v>
   <v>       0.12500000 </v>
   <v>       0.12500000 </v>
   <v>       0.12500000 </v>
   <v>       0.12500000 </v>
   <v>       0.12500000 </v>
   <v>       0.12500000 </v>
   <v>       0.12500000 </v>
  </varray>
 </kpoints>
 <parameters>
  <separator name="general" >
   <i type="string" name="SYSTEM">unknown system</i>
   <i type="logical" name="LCOMPAT"> F  </i>
  </separator>
  <separator name="electronic" >
   <i type="string" name="PREC">normal</i>
   <i name="ENMAX">    450.00000000</i>
   <i name="ENAUG">    605.39200000</i>
   <i name="EDIFF">      0.00001000</i>
   <i type="int" name="IALGO">    68</i>
   <i type="int" name="IWAVPR">    11</i>
   <i type="int" name="NBANDS">   625</i>
   <i type="int" name="NBANDSLOW">    -1</i>
   <i type="int" name="NBANDSHIGH">    -1</i>
   <i name="NELECT">   1042.00000000</i>
   <i type="int" name="TURBO">     0</i>
   <i type="int" name="IRESTART">     0</i>
   <i type="int" name="NREBOOT">     0</i>
   <i type="int" name="NMIN">     0</i>
   <i name="EREF">      0.00000000</i>
   <separator name="electronic smearing" >
    <i type="int" name="ISMEAR">     0</i>
    <i name="SIGMA">      0.05000000</i>
    <i name="KSPACING">      0.50000000</i>
    <i type="logical" name="KGAMMA"> T  </i>
    <i type="logical" name="KBLOWUP"> T  </i>
   </separator>
   <separator name="electronic projectors" >
    <i type="logical" name="LREAL"> T  </i>
    <v name="ROPT">     -0.00050000     -0.00050000     -0.00050000</v>
    <i type="int" name="LMAXPAW">  -100</i>
    <i type="int" name="LMAXMIX">     2</i>
    <i type="logical" name="NLSPLINE"> F  </i>
   </separator>
   <separator name="electronic startup" >
    <i type="int" name="ISTART">     0</i>
    <i type="int" name="ICHARG">     2</i>
    <i type="int" name="INIWAV">     1</i>
   </separator>
   <separator name="electronic spin" >
    <i type="int" name="ISPIN">     1</i>
    <i type="logical" name="LNONCOLLINEAR"> F  </i>
    <v name="MAGMOM">      1.00000000      1.00000000      1.00000000      1.00000000      1.00000000      1.00000000      1.00000000      1.00000000      1.00000000      1.00000000      1.00000000      1.00000000      1.00000000      1.00000000      1.00000000      1.00000000      1.00000000      1.00000000      1.00000000      1.00000000
      1.00000000      1.00000000      1.00000000      1.00000000      1.00000000      1.00000000      1.00000000      1.00000000      1.00000000      1.00000000      1.00000000      1.00000000      1.00000000      1.00000000      1.00000000      1.00000000      1.00000000      1.00000000      1.00000000      1.00000000
      1.00000000      1.00000000      1.00000000      1.00000000      1.00000000      1.00000000      1.00000000      1.00000000      1.00000000      1.00000000      1.00000000      1.00000000      1.00000000      1.00000000      1.00000000      1.00000000      1.00000000      1.00000000      1.00000000      1.00000000
      1.00000000      1.00000000      1.00000000      1.00000000      1.00000000      1.00000000      1.00000000      1.00000000      1.00000000      1.00000000      1.00000000      1.00000000      1.00000000      1.00000000      1.00000000      1.00000000      1.00000000      1.00000000      1.00000000      1.00000000
      1.00000000      1.00000000      1.00000000      1.00000000      1.00000000      1.00000000      1.00000000      1.00000000      1.00000000      1.00000000      1.00000000      1.00000000      1.00000000      1.00000000      1.00000000      1.00000000      1.00000000      1.00000000      1.00000000      1.00000000
      1.00000000      1.00000000      1.00000000      1.00000000      1.00000000      1.00000000      1.00000000      1.00000000      1.00000000      1.00000000      1.00000000      1.00000000      1.00000000      1.00000000      1.00000000      1.00000000      1.00000000      1.00000000      1.00000000</v>
    <i name="NUPDOWN">     -1.00000000</i>
    <i type="logical" name="LSORBIT"> F  </i>
    <v name="SAXIS">      0.00000000      0.00000000      1.00000000</v>
    <i type="logical" name="LSPIRAL"> F  </i>
    <v name="QSPIRAL">      0.00000000      0.00000000      0.00000000</v>
    <i type="logical" name="LZEROZ"> F  </i>
   </separator>
   <separator name="electronic exchange-correlation" >
    <i type="logical" name="LASPH"> F  </i>
    <i type="logical" name="LMETAGGA"> F  </i>
   </separator>
   <separator name="electronic convergence" >
    <i type="int" name="NELM">    60</i>
    <i type="int" name="NELMDL">    -5</i>
    <i type="int" name="NELMIN">     2</i>
    <i name="ENINI">    450.00000000</i>
    <separator name="electronic convergence detail" >
     <i type="logical" name="LDIAG"> T  </i>
     <i type="logical" name="LSUBROT"> F  </i>
     <i name="WEIMIN">      0.00100000</i>
     <i name="EBREAK">      0.00000000</i>
     <i name="DEPER">      0.30000000</i>
     <i type="int" name="NRMM">     4</i>
     <i name="TIME">      0.40000000</i>
    </separator>
   </separator>
   <separator name="electronic mixer" >
    <i name="AMIX">      0.40000000</i>
    <i name="BMIX">      1.00000000</i>
    <i name="AMIN">      0.10000000</i>
    <i name="AMIX_MAG">      1.60000000</i>
    <i name="BMIX_MAG">      1.00000000</i>
    <separator name="electronic mixer details" >
     <i type="int" name="IMIX">     4</i>
     <i type="logical" name="MIXFIRST"> F  </i>
     <i type="int" name="MAXMIX">   -45</i>
     <i name="WC">    100.00000000</i>
     <i type="int" name="INIMIX">     1</i>
     <i type="int" name="MIXPRE">     1</i>
     <i type="int" name="MREMOVE">     5</i>
    </separator>
   </separator>
   <separator name="electronic dipolcorrection" >
    <i type="logical" name="LDIPOL"> F  </i>
    <i type="logical" name="LMONO"> F  </i>
    <i type="int" name="IDIPOL">     0</i>
    <i name="EPSILON">      1.00000000</i>
    <v name="DIPOL">   -100.00000000   -100.00000000   -100.00000000</v>
    <i name="EFIELD">      0.00000000</i>
   </separator>
  </separator>
  <separator name="grids" >
   <i type="int" name="NGX">    64</i>
   <i type="int" name="NGY">    48</i>
   <i type="int" name="NGZ">    60</i>
   <i type="int" name="NGXF">   128</i>
   <i type="int" name="NGYF">    96</i>
   <i type="int" name="NGZF">   120</i>
   <i type="logical" name="ADDGRID"> F  </i>
  </separator>
  <separator name="ionic" >
   <i type="int" name="NSW">   300</i>
   <i type="int" name="IBRION">     2</i>
   <i type="int" name="MDALGO">     0</i>
   <i type="int" name="ISIF">     2</i>
   <i name="PSTRESS">      0.00000000</i>
   <i name="EDIFFG">     -0.00500000</i>
   <i type="int" name="NFREE">     1</i>
   <i name="POTIM">      0.50000000</i>
   <i name="SMASS">     -3.00000000</i>
   <i name="SCALEE">      1.00000000</i>
  </separator>
  <separator name="ionic md" >
   <i name="TEBEG">      0.00010000</i>
   <i name="TEEND">      0.00010000</i>
   <i type="int" name="NBLOCK">     1</i>
   <i type="int" name="KBLOCK">   300</i>
   <i type="int" name="NPACO">   256</i>
   <i name="APACO">     10.00000000</i>
  </separator>
  <separator name="symmetry" >
   <i type="int" name="ISYM">     2</i>
   <i name="SYMPREC">      0.00001000</i>
  </separator>
  <separator name="dos" >
   <i type="int" name="LORBIT">     0</i>
   <v name="RWIGS">     -1.00000000     -1.00000000     -1.00000000</v>
   <i type="int" name="NEDOS">   301</i>
   <i name="EMIN">     10.00000000</i>
   <i name="EMAX">    -10.00000000</i>
   <i name="EFERMI">      0.00000000</i>
  </separator>
  <separator name="writing" >
   <i type="int" name="NWRITE">     2</i>
   <i type="logical" name="LWAVE"> F  </i>
   <i type="logical" name="LDOWNSAMPLE"> F  </i>
   <i type="logical" name="LCHARG"> F  </i>
   <i type="logical" name="LPARD"> F  </i>
   <i type="logical" name="LVTOT"> F  </i>
   <i type="logical" name="LVHAR"> F  </i>
   <i type="logical" name="LELF"> F  </i>
   <i type="logical" name="LOPTICS"> F  </i>
   <v name="STM">      0.00000000      0.00000000      0.00000000      0.00000000      0.00000000      0.00000000      0.00000000</v>
  </separator>
  <separator name="performance" >
   <i type="int" name="NPAR">     1</i>
   <i type="int" name="NSIM">     4</i>
   <i type="int" name="NBLK">    -1</i>
   <i type="logical" name="LPLANE"> T  </i>
   <i type="logical" name="LSCALAPACK"> T  </i>
   <i type="logical" name="LSCAAWARE"> F  </i>
   <i type="logical" name="LSCALU"> F  </i>
   <i type="logical" name="LASYNC"> F  </i>
   <i type="logical" name="LORBITALREAL"> F  </i>
  </separator>
  <separator name="miscellaneous" >
   <i type="int" name="IDIOT">     3</i>
   <i type="int" name="PHON_NSTRUCT">    -1</i>
   <i type="logical" name="LMUSIC"> F  </i>
   <v name="POMASS">     69.72300000     16.00000000     30.97400000</v>
   <v name="DARWINR">      0.00000000      0.00000000      0.00000000</v>
   <v name="DARWINV">      1.00000000      1.00000000      1.00000000</v>
   <i type="logical" name="LCORR"> T  </i>
  </separator>
  <i type="logical" name="GGA_COMPAT"> T  </i>
  <i type="logical" name="LBERRY"> F  </i>
  <i type="int" name="ICORELEVEL">     0</i>
  <i type="logical" name="LDAU"> F  </i>
  <i type="int" name="I_CONSTRAINED_M">     0</i>
  <separator name="electronic exchange-correlation" >
   <i type="string" name="GGA">--</i>
   <i type="int" name="VOSKOWN">     0</i>
   <i type="logical" name="LHFCALC"> F  </i>
   <i type="string" name="PRECFOCK"></i>
   <i type="logical" name="LSYMGRAD"> F  </i>
   <i type="logical" name="LHFONE"> F  </i>
   <i type="logical" name="LRHFCALC"> F  </i>
   <i type="logical" name="LTHOMAS"> F  </i>
   <i type="logical" name="LMODELHF"> F  </i>
   <i type="logical" name="LFOCKACE"> F  </i>
   <i name="ENCUT4O">     -1.00000000</i>
   <i type="int" name="EXXOEP">     0</i>
   <i type="int" name="FOURORBIT">     0</i>
   <i name="AEXX">      0.00000000</i>
   <i name="HFALPHA">      0.00000000</i>
   <i name="MCALPHA">      0.00000000</i>
   <i name="ALDAX">      1.00000000</i>
   <i name="AGGAX">      1.00000000</i>
   <i name="ALDAC">      1.00000000</i>
   <i name="AGGAC">      1.00000000</i>
   <i type="int" name="NKREDX">     1</i>
   <i type="int" name="NKREDY">     1</i>
   <i type="int" name="NKREDZ">     1</i>
   <i type="logical" name="SHIFTRED"> F  </i>
   <i type="logical" name="ODDONLY"> F  </i>
   <i type="logical" name="EVENONLY"> F  </i>
   <i type="int" name="LMAXFOCK">     0</i>
   <i type="int" name="NMAXFOCKAE">     0</i>
   <i type="logical" name="LFOCKAEDFT"> F  </i>
   <i name="HFSCREEN">      0.00000000</i>
   <i name="HFSCREENC">      0.00000000</i>
   <i type="int" name="NBANDSGWLOW">     0</i>
  </separator>
  <separator name="vdW DFT" >
   <i type="logical" name="LUSE_VDW"> F  </i>
   <i type="int" name="IVDW_NL">     1</i>
   <i type="logical" name="LSPIN_VDW"> F  </i>
   <i name="Zab_VDW">     -0.84910000</i>
   <i name="PARAM1">      0.12340000</i>
   <i name="PARAM2">      1.00000000</i>
   <i name="PARAM3">      0.00000000</i>
  </separator>
  <separator name="model GW" >
   <i type="int" name="MODEL_GW">     0</i>
   <i name="MODEL_EPS0">      6.39733692</i>
   <i name="MODEL_ALPHA">      1.00000000</i>
  </separator>
  <separator name="linear response parameters" >
   <i type="logical" name="LEPSILON"> F  </i>
   <i type="logical" name="LRPA"> F  </i>
   <i type="logical" name="LNABLA"> F  </i>
   <i type="logical" name="LVEL"> F  </i>
   <i name="CSHIFT">      0.10000000</i>
   <i name="OMEGAMAX">     -1.00000000</i>
   <i name="DEG_THRESHOLD">      0.00200000</i>
   <i name="RTIME">     -0.10000000</i>
   <i name="WPLASMAI">      0.00000000</i>
   <v name="DFIELD">      0.00000000      0.00000000      0.00000000</v>
   <v name="WPLASMA">      0.00000000      0.00000000      0.00000000      0.00000000      0.00000000      0.00000000      0.00000000      0.00000000      0.00000000</v>
  </separator>
  <separator name="orbital magnetization" >
   <i type="logical" name="NUCIND"> F  </i>
   <v name="MAGPOS">      0.00000000      0.00000000      0.00000000</v>
   <i type="logical" name="LNICSALL"> T  </i>
   <i type="logical" name="ORBITALMAG"> F  </i>
   <i type="logical" name="LMAGBLOCH"> F  </i>
   <i type="logical" name="LCHIMAG"> F  </i>
   <i type="logical" name="LGAUGE"> T  </i>
   <i type="int" name="MAGATOM">     0</i>
   <v name="MAGDIPOL">      0.00000000      0.00000000      0.00000000</v>
   <v name="AVECCONST">      0.00000000      0.00000000      0.00000000</v>
  </separator>
  <separator name="response functions" >
   <i type="logical" name="LALL_IN_ONE"> F  </i>
   <i type="int" name="IALL_IN_ONE">    -1</i>
   <i type="int" name="NBANDS_WAVE">    -1</i>
   <i type="logical" name="LFINITE_TEMPERATURE"> F  </i>
   <i type="logical" name="LADDER"> F  </i>
   <i type="logical" name="LRPAFORCE"> F  </i>
   <i type="logical" name="LFXC"> F  </i>
   <i type="logical" name="LHARTREE"> T  </i>
   <i type="int" name="IBSE">     0</i>
   <v type="int" name="KPOINT">    -1     0     0     0</v>
   <i type="logical" name="LTCTC"> F  </i>
   <i type="logical" name="LTCTE"> F  </i>
   <i type="logical" name="LTETE"> F  </i>
   <i type="logical" name="LTRIPLET"> F  </i>
   <i type="logical" name="LFXCEPS"> F  </i>
   <i type="logical" name="LFXHEG"> F  </i>
   <i type="int" name="NATURALO">     2</i>
   <i type="logical" name="LHOLEGF"> F  </i>
   <i type="logical" name="L2ORDER"> F  </i>
   <i type="logical" name="LDMP1"> F  </i>
   <i type="logical" name="LMP2LT"> F  </i>
   <i type="logical" name="LSMP2LT"> F  </i>
   <i type="logical" name="LGWLF"> F  </i>
   <i name="ENCUTGW">     -1.60000002</i>
   <i name="ENCUTGWSOFT">     -1.60000002</i>
   <i name="ENCUTLF">     -1.00000000</i>
   <i type="logical" name="LESF_SPLINES"> F  </i>
   <i type="int" name="LMAXMP2">    -1</i>
   <i name="SCISSOR">      0.00000000</i>
   <i type="int" name="NOMEGA">     0</i>
   <i type="int" name="NOMEGAR">     0</i>
   <i type="int" name="NBANDSGW">    -1</i>
   <i type="int" name="NBANDSO">    -1</i>
   <i type="int" name="NBANDSV">    -1</i>
   <i type="int" name="NELMGW">     1</i>
   <i type="int" name="NELMHF">     1</i>
   <i type="int" name="DIM">     3</i>
   <i type="int" name="IESPILON">     4</i>
   <i type="int" name="ANTIRES">     0</i>
   <i name="OMEGAMAX">    -30.00000000</i>
   <i name="OMEGAMIN">    -30.00000000</i>
   <i name="OMEGATL">   -200.00000000</i>
   <i type="int" name="OMEGAGRID">     0</i>
   <i name="CSHIFT">     -0.10000000</i>
   <i type="logical" name="LSELFENERGY"> F  </i>
   <i type="logical" name="LSPECTRAL"> F  </i>
   <i type="logical" name="LSPECTRALGW"> F  </i>
   <i type="logical" name="LSINGLES"> F  </i>
   <i type="logical" name="LFERMIGW"> F  </i>
   <i type="logical" name="ODDONLYGW"> F  </i>
   <i type="logical" name="EVENONLYGW"> F  </i>
   <i type="int" name="NKREDLFX">     1</i>
   <i type="int" name="NKREDLFY">     1</i>
   <i type="int" name="NKREDLFZ">     1</i>
   <i type="int" name="MAXMEM">  2800</i>
   <i type="int" name="TELESCOPE">     0</i>
   <i type="int" name="NTAUPAR">    -1</i>
   <i type="int" name="NOMEGAPAR">    -1</i>
   <i name="DAMP_NEWTON">      0.80000001</i>
   <i name="LAMBDA">      1.00000000</i>
  </separator>
  <separator name="External order field" >
   <i name="OFIELD_KAPPA">      0.00000000</i>
   <v name="OFIELD_K">      0.00000000      0.00000000      0.00000000</v>
   <i name="OFIELD_Q6_NEAR">      0.00000000</i>
   <i name="OFIELD_Q6_FAR">      0.00000000</i>
   <i name="OFIELD_A">      0.00000000</i>
  </separator>
  <separator name="optional k-points parameters" >
   <i type="int" name="KPOINTS_OPT_MODE">     1</i>
   <i type="logical" name="LKPOINTS_OPT"> F  </i>
  </separator>
 </parameters>
 <atominfo>
  <atoms>     119 </atoms>
  <types>       3 </types>
  <array name="atoms" >
   <dimension dim="1">ion</dimension>
   <field type="string">element</field>
   <field type="int">atomtype</field>
   <set>
    <rc><c>Ga</c><c>   1</c></rc>
    <rc><c>Ga</c><c>   1</c></rc>
    <rc><c>Ga</c><c>   1</c></rc>
    <rc><c>Ga</c><c>   1</c></rc>
    <rc><c>Ga</c><c>   1</c></rc>
    <rc><c>Ga</c><c>   1</c></rc>
    <rc><c>Ga</c><c>   1</c></rc>
    <rc><c>Ga</c><c>   1</c></rc>
    <rc><c>Ga</c><c>   1</c></rc>
    <rc><c>Ga</c><c>   1</c></rc>
    <rc><c>Ga</c><c>   1</c></rc>
    <rc><c>Ga</c><c>   1</c></rc>
    <rc><c>Ga</c><c>   1</c></rc>
    <rc><c>Ga</c><c>   1</c></rc>
    <rc><c>Ga</c><c>   1</c></rc>
    <rc><c>Ga</c><c>   1</c></rc>
    <rc><c>Ga</c><c>   1</c></rc>
    <rc><c>Ga</c><c>   1</c></rc>
    <rc><c>Ga</c><c>   1</c></rc>
    <rc><c>Ga</c><c>   1</c></rc>
    <rc><c>Ga</c><c>   1</c></rc>
    <rc><c>Ga</c><c>   1</c></rc>
    <rc><c>Ga</c><c>   1</c></rc>
    <rc><c>Ga</c><c>   1</c></rc>
    <rc><c>Ga</c><c>   1</c></rc>
    <rc><c>Ga</c><c>   1</c></rc>
    <rc><c>Ga</c><c>   1</c></rc>
    <rc><c>Ga</c><c>   1</c></rc>
    <rc><c>Ga</c><c>   1</c></rc>
    <rc><c>Ga</c><c>   1</c></rc>
    <rc><c>Ga</c><c>   1</c></rc>
    <rc><c>Ga</c><c>   1</c></rc>
    <rc><c>Ga</c><c>   1</c></rc>
    <rc><c>Ga</c><c>   1</c></rc>
    <rc><c>Ga</c><c>   1</c></rc>
    <rc><c>Ga</c><c>   1</c></rc>
    <rc><c>Ga</c><c>   1</c></rc>
    <rc><c>Ga</c><c>   1</c></rc>
    <rc><c>Ga</c><c>   1</c></rc>
    <rc><c>Ga</c><c>   1</c></rc>
    <rc><c>Ga</c><c>   1</c></rc>
    <rc><c>Ga</c><c>   1</c></rc>
    <rc><c>Ga</c><c>   1</c></rc>
    <rc><c>Ga</c><c>   1</c></rc>
    <rc><c>Ga</c><c>   1</c></rc>
    <rc><c>Ga</c><c>   1</c></rc>
    <rc><c>Ga</c><c>   1</c></rc>
    <rc><c>O </c><c>   2</c></rc>
    <rc><c>O </c><c>   2</c></rc>
    <rc><c>O </c><c>   2</c></rc>
    <rc><c>O </c><c>   2</c></rc>
    <rc><c>O </c><c>   2</c></rc>
    <rc><c>O </c><c>   2</c></rc>
    <rc><c>O </c><c>   2</c></rc>
    <rc><c>O </c><c>   2</c></rc>
    <rc><c>O </c><c>   2</c></rc>
    <rc><c>O </c><c>   2</c></rc>
    <rc><c>O </c><c>   2</c></rc>
    <rc><c>O </c><c>   2</c></rc>
    <rc><c>O </c><c>   2</c></rc>
    <rc><c>O </c><c>   2</c></rc>
    <rc><c>O </c><c>   2</c></rc>
    <rc><c>O </c><c>   2</c></rc>
    <rc><c>O </c><c>   2</c></rc>
    <rc><c>O </c><c>   2</c></rc>
    <rc><c>O </c><c>   2</c></rc>
    <rc><c>O </c><c>   2</c></rc>
    <rc><c>O </c><c>   2</c></rc>
    <rc><c>O </c><c>   2</c></rc>
    <rc><c>O </c><c>   2</c></rc>
    <rc><c>O </c><c>   2</c></rc>
    <rc><c>O </c><c>   2</c></rc>
    <rc><c>O </c><c>   2</c></rc>
    <rc><c>O </c><c>   2</c></rc>
    <rc><c>O </c><c>   2</c></rc>
    <rc><c>O </c><c>   2</c></rc>
    <rc><c>O </c><c>   2</c></rc>
    <rc><c>O </c><c>   2</c></rc>
    <rc><c>O </c><c>   2</c></rc>
    <rc><c>O </c><c>   2</c></rc>
    <rc><c>O </c><c>   2</c></rc>
    <rc><c>O </c><c>   2</c></rc>
    <rc><c>O </c><c>   2</c></rc>
    <rc><c>O </c><c>   2</c></rc>
    <rc><c>O </c><c>   2</c></rc>
    <rc><c>O </c><c>   2</c></rc>
    <rc><c>O </c><c>   2</c></rc>
    <rc><c>O </c><c>   2</c></rc>
    <rc><c>O </c><c>   2</c></rc>
    <rc><c>O </c><c>   2</c></rc>
    <rc><c>O </c><c>   2</c></rc>
    <rc><c>O </c><c>   2</c></rc>
    <rc><c>O </c><c>   2</c></rc>
    <rc><c>O </c><c>   2</c></rc>
    <rc><c>O </c><c>   2</c></rc>
    <rc><c>O </c><c>   2</c></rc>
    <rc><c>O </c><c>   2</c></rc>
    <rc><c>O </c><c>   2</c></rc>
    <rc><c>O </c><c>   2</c></rc>
    <rc><c>O </c><c>   2</c></rc>
    <rc><c>O </c><c>   2</c></rc>
    <rc><c>O </c><c>   2</c></rc>
    <rc><c>O </c><c>   2</c></rc>
    <rc><c>O </c><c>   2</c></rc>
    <rc><c>O </c><c>   2</c></rc>
    <rc><c>O </c><c>   2</c></rc>
    <rc><c>O </c><c>   2</c></rc>
    <rc><c>O </c><c>   2</c></rc>
    <rc><c>O </c><c>   2</c></rc>
    <rc><c>O </c><c>   2</c></rc>
    <rc><c>O </c><c>   2</c></rc>
    <rc><c>O </c><c>   2</c></rc>
    <rc><c>O </c><c>   2</c></rc>
    <rc><c>O </c><c>   2</c></rc>
    <rc><c>O </c><c>   2</c></rc>
    <rc><c>O </c><c>   2</c></rc>
    <rc><c>O </c><c>   2</c></rc>
    <rc><c>O </c><c>   2</c></rc>
    <rc><c>P </c><c>   3</c></rc>
   </set>
  </array>
  <array name="atomtypes" >
   <dimension dim="1">type</dimension>
   <field type="int">atomspertype</field>
   <field type="string">element</field>
   <field>mass</field>
   <field>valence</field>
   <field type="string">pseudopotential</field>
   <set>
    <rc><c>  47</c><c>Ga</c><c>     69.72300000</c><c>     13.00000000</c><c>  PAW_PBE Ga_d 06Jul2010                </c></rc>
    <rc><c>  71</c><c>O </c><c>     16.00000000</c><c>      6.00000000</c><c>   PAW_PBE O 08Apr2002                  </c></rc>
    <rc><c>   1</c><c>P </c><c>     30.97400000</c><c>      5.00000000</c><c>  PAW_PBE P 06Sep2000                   </c></rc>
   </set>
  </array>
 </atominfo>
 <structure name="initialpos" >
  <crystal>
   <varray name="basis" >
    <v>       0.00000000      12.28047342       0.00000000 </v>
    <v>       9.14270205       0.00000000       0.00000000 </v>
    <v>       0.00000000      -2.76826177     -11.30069772 </v>
   </varray>
   <i name="volume">   1268.80515525 </i>
   <varray name="rec_basis" >
    <v>       0.00000000       0.08143009      -0.01994742 </v>
    <v>       0.10937686      -0.00000000       0.00000000 </v>
    <v>       0.00000000       0.00000000      -0.08849011 </v>
   </varray>
  </crystal>
  <varray name="positions" >
   <v>       0.65883830       0.00000000       0.15736517 </v>
   <v>       0.65883830       0.00000000       0.65736517 </v>
   <v>       0.65883830       0.33333333       0.15736517 </v>
   <v>       0.65883830       0.33333333       0.65736517 </v>
   <v>       0.65883830       0.66666667       0.15736517 </v>
   <v>       0.65883830       0.66666667       0.65736517 </v>
   <v>       0.84116170       0.16666667       0.34263483 </v>
   <v>       0.84116170       0.16666667       0.84263483 </v>
   <v>       0.84116170       0.50000000       0.34263483 </v>
   <v>       0.84116170       0.50000000       0.84263483 </v>
   <v>       0.84116170       0.83333333       0.34263483 </v>
   <v>       0.84116170       0.83333333       0.84263483 </v>
   <v>       0.59047440       0.16666667       0.39739300 </v>
   <v>       0.59047440       0.16666667       0.89739300 </v>
   <v>       0.59047440       0.50000000       0.39739300 </v>
   <v>       0.59047440       0.50000000       0.89739300 </v>
   <v>       0.59047440       0.83333333       0.39739300 </v>
   <v>       0.59047440       0.83333333       0.89739300 </v>
   <v>       0.90952560       0.00000000       0.10260700 </v>
   <v>       0.90952560       0.00000000       0.60260700 </v>
   <v>       0.90952560       0.33333333       0.10260700 </v>
   <v>       0.90952560       0.33333333       0.60260700 </v>
   <v>       0.90952560       0.66666667       0.10260700 </v>
   <v>       0.90952560       0.66666667       0.60260700 </v>
   <v>       0.15883830       0.16666667       0.15736517 </v>
   <v>       0.15883830       0.50000000       0.15736517 </v>
   <v>       0.15883830       0.50000000       0.65736517 </v>
   <v>       0.15883830       0.83333333       0.15736517 </v>
   <v>       0.15883830       0.83333333       0.65736517 </v>
   <v>       0.34116170       0.00000000       0.34263483 </v>
   <v>       0.34116170       0.00000000       0.84263483 </v>
   <v>       0.34116170       0.33333333       0.34263483 </v>
   <v>       0.34116170       0.33333333       0.84263483 </v>
   <v>       0.34116170       0.66666667       0.34263483 </v>
   <v>       0.34116170       0.66666667       0.84263483 </v>
   <v>       0.09047440       0.00000000       0.39739300 </v>
   <v>       0.09047440       0.00000000       0.89739300 </v>
   <v>       0.09047440       0.33333333       0.39739300 </v>
   <v>       0.09047440       0.33333333       0.89739300 </v>
   <v>       0.09047440       0.66666667       0.39739300 </v>
   <v>       0.09047440       0.66666667       0.89739300 </v>
   <v>       0.40952560       0.16666667       0.10260700 </v>
   <v>       0.40952560       0.16666667       0.60260700 </v>
   <v>       0.40952560       0.50000000       0.10260700 </v>
   <v>       0.40952560       0.50000000       0.60260700 </v>
   <v>       0.40952560       0.83333333       0.10260700 </v>
   <v>       0.40952560       0.83333333       0.60260700 </v>
   <v>       0.99646913       0.16666667       0.12833205 </v>
   <v>       0.99646913       0.16666667       0.62833205 </v>
   <v>       0.99646913       0.50000000       0.12833205 </v>
   <v>       0.99646913       0.50000000       0.62833205 </v>
   <v>       0.99646913       0.83333333       0.12833205 </v>
   <v>       0.99646913       0.83333333       0.62833205 </v>
   <v>       0.50353087       0.00000000       0.37166795 </v>
   <v>       0.50353087       0.00000000       0.87166795 </v>
   <v>       0.50353087       0.33333333       0.37166795 </v>
   <v>       0.50353087       0.33333333       0.87166795 </v>
   <v>       0.50353087       0.66666667       0.37166795 </v>
   <v>       0.50353087       0.66666667       0.87166795 </v>
   <v>       0.67337106       0.16666667       0.28161508 </v>
   <v>       0.67337106       0.16666667       0.78161508 </v>
   <v>       0.67337106       0.50000000       0.28161508 </v>
   <v>       0.67337106       0.50000000       0.78161508 </v>
   <v>       0.67337106       0.83333333       0.28161508 </v>
   <v>       0.67337106       0.83333333       0.78161508 </v>
   <v>       0.82662894       0.00000000       0.21838492 </v>
   <v>       0.82662894       0.00000000       0.71838492 </v>
   <v>       0.82662894       0.33333333       0.21838492 </v>
   <v>       0.82662894       0.33333333       0.71838492 </v>
   <v>       0.82662894       0.66666667       0.21838492 </v>
   <v>       0.82662894       0.66666667       0.71838492 </v>
   <v>       0.83549502       0.00000000       0.44542296 </v>
   <v>       0.83549502       0.00000000       0.94542296 </v>
   <v>       0.83549502       0.33333333       0.44542296 </v>
   <v>       0.83549502       0.33333333       0.94542296 </v>
   <v>       0.83549502       0.66666667       0.44542296 </v>
   <v>       0.83549502       0.66666667       0.94542296 </v>
   <v>       0.66450498       0.16666667       0.05457704 </v>
   <v>       0.66450498       0.16666667       0.55457704 </v>
   <v>       0.66450498       0.50000000       0.05457704 </v>
   <v>       0.66450498       0.50000000       0.55457704 </v>
   <v>       0.66450498       0.83333333       0.05457704 </v>
   <v>       0.66450498       0.83333333       0.55457704 </v>
   <v>       0.49646913       0.00000000       0.12833205 </v>
   <v>       0.49646913       0.00000000       0.62833205 </v>
   <v>       0.49646913       0.33333333       0.12833205 </v>
   <v>       0.49646913       0.33333333       0.62833205 </v>
   <v>       0.49646913       0.66666667       0.12833205 </v>
   <v>       0.49646913       0.66666667       0.62833205 </v>
   <v>       0.00353087       0.16666667       0.37166795 </v>
   <v>       0.00353087       0.16666667       0.87166795 </v>
   <v>       0.00353087       0.50000000       0.37166795 </v>
   <v>       0.00353087       0.50000000       0.87166795 </v>
   <v>       0.00353087       0.83333333       0.37166795 </v>
   <v>       0.00353087       0.83333333       0.87166795 </v>
   <v>       0.17337106       0.00000000       0.28161508 </v>
   <v>       0.17337106       0.00000000       0.78161508 </v>
   <v>       0.17337106       0.33333333       0.28161508 </v>
   <v>       0.17337106       0.33333333       0.78161508 </v>
   <v>       0.17337106       0.66666667       0.28161508 </v>
   <v>       0.17337106       0.66666667       0.78161508 </v>
   <v>       0.32662894       0.16666667       0.21838492 </v>
   <v>       0.32662894       0.16666667       0.71838492 </v>
   <v>       0.32662894       0.50000000       0.21838492 </v>
   <v>       0.32662894       0.50000000       0.71838492 </v>
   <v>       0.32662894       0.83333333       0.21838492 </v>
   <v>       0.32662894       0.83333333       0.71838492 </v>
   <v>       0.33549502       0.16666667       0.44542296 </v>
   <v>       0.33549502       0.16666667       0.94542296 </v>
   <v>       0.33549502       0.50000000       0.44542296 </v>
   <v>       0.33549502       0.50000000       0.94542296 </v>
   <v>       0.33549502       0.83333333       0.44542296 </v>
   <v>       0.33549502       0.83333333       0.94542296 </v>
   <v>       0.16450498       0.00000000       0.05457704 </v>
   <v>       0.16450498       0.33333333       0.05457704 </v>
   <v>       0.16450498       0.33333333       0.55457704 </v>
   <v>       0.16450498       0.66666667       0.05457704 </v>
   <v>       0.16450498       0.66666667       0.55457704 </v>
   <v>       0.16450498       0.00000000       0.55457704 </v>
  </varray>
 </structure>
 <calculation>
  <scstep>
   <time name="dav">    1.74    1.74</time>
   <time name="total">    1.86    1.86</time>
   <energy>
    <i name="alphaZ">   5376.25786726 </i>
    <i name="ewald"> -86356.72883845 </i>
    <i name="hartreedc"> -33542.05847329 </i>
    <i name="XCdc">   4078.27140510 </i>
    <i name="pawpsdc"> 100093.09196360 </i>
    <i name="pawaedc">-115889.62880893 </i>
    <i name="eentropy">     -0.01461651 </i>
    <i name="bandstr">  16047.26443475 </i>
    <i name="atom"> 131866.99277783 </i>
    <i name="e_fr_energy">  21673.44771136 </i>
    <i name="e_wo_entrp">  21673.46232787 </i>
    <i name="e_0_energy">  21673.45501962 </i>
   </energy>
  </scstep>
  <scstep>
   <time name="dav">    1.69    1.69</time>
   <time name="total">    1.69    1.69</time>
   <energy>
    <i name="e_fr_energy">   4800.77910579 </i>
    <i name="e_wo_entrp">   4800.79419466 </i>
    <i name="e_0_energy">   4800.78665023 </i>
   </energy>
  </scstep>
  <scstep>
   <time name="dav">    2.07    2.07</time>
   <time name="total">    2.07    2.07</time>
   <energy>
    <i name="e_fr_energy">   -143.10556498 </i>
    <i name="e_wo_entrp">   -143.10556498 </i>
    <i name="e_0_energy">   -143.10556498 </i>
   </energy>
  </scstep>
  <scstep>
   <time name="dav">    2.23    2.23</time>
   <time name="total">    2.23    2.23</time>
   <energy>
    <i name="e_fr_energy">   -763.03326230 </i>
    <i name="e_wo_entrp">   -763.03326230 </i>
    <i name="e_0_energy">   -763.03326230 </i>
   </energy>
  </scstep>
  <scstep>
   <time name="dav">    2.29    2.29</time>
   <time name="total">    2.55    2.55</time>
   <energy>
    <i name="e_fr_energy">   -806.56185928 </i>
    <i name="e_wo_entrp">   -806.56185928 </i>
    <i name="e_0_energy">   -806.56185928 </i>
   </energy>
  </scstep>
  <scstep>
   <time name="diag">    0.24    0.24</time>
   <time name="diis">    2.47    2.47</time>
   <time name="orth">    0.03    0.03</time>
   <time name="total">    3.12    3.12</time>
   <energy>
    <i name="e_fr_energy">   -696.99781311 </i>
    <i name="e_wo_entrp">   -696.97385229 </i>
    <i name="e_0_energy">   -696.98583270 </i>
   </energy>
  </scstep>
  <scstep>
   <time name="diag">    0.24    0.24</time>
   <time name="diis">    2.90    2.90</time>
   <time name="orth">    0.03    0.03</time>
   <time name="total">    3.54    3.54</time>
   <energy>
    <i name="e_fr_energy">   -702.92915533 </i>
    <i name="e_wo_entrp">   -702.92915533 </i>
    <i name="e_0_energy">   -702.92915533 </i>
   </energy>
  </scstep>
  <scstep>
   <time name="diag">    0.24    0.24</time>
   <time name="diis">    2.89    2.89</time>
   <time name="orth">    0.03    0.03</time>
   <time name="total">    3.53    3.53</time>
   <energy>
    <i name="e_fr_energy">   -697.98568671 </i>
    <i name="e_wo_entrp">   -697.98568665 </i>
    <i name="e_0_energy">   -697.98568668 </i>
   </energy>
  </scstep>
  <scstep>
   <time name="diag">    0.24    0.24</time>
   <time name="diis">    2.47    2.47</time>
   <time name="orth">    0.03    0.03</time>
   <time name="total">    3.11    3.11</time>
   <energy>
    <i name="e_fr_energy">   -701.11805151 </i>
    <i name="e_wo_entrp">   -701.11805151 </i>
    <i name="e_0_energy">   -701.11805151 </i>
   </energy>
  </scstep>
  <scstep>
   <time name="diag">    0.24    0.24</time>
   <time name="diis">    2.59    2.59</time>
   <time name="orth">    0.03    0.03</time>
   <time name="total">    3.38    3.63</time>
   <energy>
    <i name="e_fr_energy">   -698.63531847 </i>
    <i name="e_wo_entrp">   -698.63531552 </i>
    <i name="e_0_energy">   -698.63531700 </i>
   </energy>
  </scstep>
  <scstep>
   <time name="diag">    0.24    0.24</time>
   <time name="diis">    2.65    2.65</time>
   <time name="orth">    0.03    0.03</time>
   <time name="total">    3.30    3.30</time>
   <energy>
    <i name="e_fr_energy">   -696.92652785 </i>
    <i name="e_wo_entrp">   -696.92652516 </i>
    <i name="e_0_energy">   -696.92652651 </i>
   </energy>
  </scstep>
  <scstep>
   <time name="diag">    0.24    0.24</time>
   <time name="diis">    2.49    2.49</time>
   <time name="orth">    0.03    0.03</time>
   <time name="total">    3.14    3.14</time>
   <energy>
    <i name="e_fr_energy">   -696.59384658 </i>
    <i name="e_wo_entrp">   -696.59338443 </i>
    <i name="e_0_energy">   -696.59361551 </i>
   </energy>
  </scstep>
  <scstep>
   <time name="diag">    0.24    0.24</time>
   <time name="diis">    2.63    2.63</time>
   <time name="orth">    0.03    0.03</time>
   <time name="total">    3.28    3.28</time>
   <energy>
    <i name="e_fr_energy">   -696.55553228 </i>
    <i name="e_wo_entrp">   -696.55470932 </i>
    <i name="e_0_energy">   -696.55512080 </i>
   </energy>
  </scstep>
  <scstep>
   <time name="diag">    0.24    0.24</time>
   <time name="diis">    2.87    2.87</time>
   <time name="orth">    0.03    0.03</time>
   <time name="total">    3.52    3.52</time>
   <energy>
    <i name="e_fr_energy">   -696.43661611 </i>
    <i name="e_wo_entrp">   -696.43054144 </i>
    <i name="e_0_energy">   -696.43357877 </i>
   </energy>
  </scstep>
  <scstep>
   <time name="diag">    0.24    0.24</time>
   <time name="diis">    2.81    2.81</time>
   <time name="orth">    0.03    0.03</time>
   <time name="total">    3.46    3.46</time>
   <energy>
    <i name="e_fr_energy">   -696.41536787 </i>
    <i name="e_wo_entrp">   -696.40966450 </i>
    <i name="e_0_energy">   -696.41251619 </i>
   </energy>
  </scstep>
  <scstep>
   <time name="diag">    0.24    0.24</time>
   <time name="diis">    2.45    2.45</time>
   <time name="orth">    0.03    0.03</time>
   <time name="total">    3.10    3.10</time>
   <energy>
    <i name="e_fr_energy">   -696.39762981 </i>
    <i name="e_wo_entrp">   -696.39640117 </i>
    <i name="e_0_energy">   -696.39701549 </i>
   </energy>
  </scstep>
  <scstep>
   <time name="diag">    0.24    0.24</time>
   <time name="diis">    2.75    2.75</time>
   <time name="orth">    0.03    0.03</time>
   <time name="total">    3.41    3.41</time>
   <energy>
    <i name="e_fr_energy">   -696.44983027 </i>
    <i name="e_wo_entrp">   -696.44707757 </i>
    <i name="e_0_energy">   -696.44845392 </i>
   </energy>
  </scstep>
  <scstep>
   <time name="diag">    0.24    0.24</time>
   <time name="diis">    2.83    2.83</time>
   <time name="orth">    0.03    0.03</time>
   <time name="total">    3.49    3.49</time>
   <energy>
    <i name="e_fr_energy">   -696.36810794 </i>
    <i name="e_wo_entrp">   -696.36424652 </i>
    <i name="e_0_energy">   -696.36617723 </i>
   </energy>
  </scstep>
  <scstep>
   <time name="diag">    0.24    0.24</time>
   <time name="diis">    2.44    2.44</time>
   <time name="orth">    0.03    0.03</time>
   <time name="total">    3.10    3.10</time>
   <energy>
    <i name="e_fr_energy">   -696.34983730 </i>
    <i name="e_wo_entrp">   -696.34632587 </i>
    <i name="e_0_energy">   -696.34808158 </i>
   </energy>
  </scstep>
  <scstep>
   <time name="diag">    0.24    0.24</time>
   <time name="diis">    2.65    2.65</time>
   <time name="orth">    0.03    0.03</time>
   <time name="total">    3.31    3.31</time>
   <energy>
    <i name="e_fr_energy">   -696.35148707 </i>
    <i name="e_wo_entrp">   -696.34955469 </i>
    <i name="e_0_energy">   -696.35052088 </i>
   </energy>
  </scstep>
  <scstep>
   <time name="diag">    0.24    0.24</time>
   <time name="diis">    2.59    2.59</time>
   <time name="orth">    0.03    0.03</time>
   <time name="total">    3.26    3.26</time>
   <energy>
    <i name="e_fr_energy">   -696.35069766 </i>
    <i name="e_wo_entrp">   -696.34833145 </i>
    <i name="e_0_energy">   -696.34951455 </i>
   </energy>
  </scstep>
  <scstep>
   <time name="diag">    0.24    0.24</time>
   <time name="diis">    1.99    1.99</time>
   <time name="orth">    0.03    0.03</time>
   <time name="total">    2.66    2.66</time>
   <energy>
    <i name="e_fr_energy">   -696.35055250 </i>
    <i name="e_wo_entrp">   -696.34818680 </i>
    <i name="e_0_energy">   -696.34936965 </i>
   </energy>
  </scstep>
  <scstep>
   <time name="diag">    0.24    0.24</time>
   <time name="diis">    2.00    2.00</time>
   <time name="orth">    0.03    0.03</time>
   <time name="total">    2.68    2.68</time>
   <energy>
    <i name="e_fr_energy">   -696.35054333 </i>
    <i name="e_wo_entrp">   -696.34807310 </i>
    <i name="e_0_energy">   -696.34930821 </i>
   </energy>
  </scstep>
  <scstep>
   <time name="diag">    0.24    0.24</time>
   <time name="diis">    1.59    1.59</time>
   <time name="orth">    0.03    0.03</time>
   <time name="total">    1.98    1.98</time>
   <energy>
    <i name="alphaZ">   5376.25786726 </i>
    <i name="ewald"> -86356.72883845 </i>
    <i name="hartreedc"> -34002.05372910 </i>
    <i name="XCdc">   4137.11948445 </i>
    <i name="pawpsdc"> 118316.93930970 </i>
    <i name="pawaedc">-134365.60118213 </i>
    <i name="eentropy">     -0.00241094 </i>
    <i name="bandstr">  -5669.27381560 </i>
    <i name="atom"> 131866.99277783 </i>
    <i name="e_fr_energy">   -696.35053699 </i>
    <i name="e_wo_entrp">   -696.34812604 </i>
    <i name="e_0_energy">   -696.34933152 </i>
   </energy>
  </scstep>
  <structure>
   <crystal>
    <varray name="basis" >
     <v>       0.00000000      12.28047342       0.00000000 </v>
     <v>       9.14270205       0.00000000       0.00000000 </v>
     <v>       0.00000000      -2.76826177     -11.30069772 </v>
    </varray>
    <i name="volume">   1268.80515525 </i>
    <varray name="rec_basis" >
     <v>       0.00000000       0.08143009      -0.01994742 </v>
     <v>       0.10937686      -0.00000000       0.00000000 </v>
     <v>       0.00000000       0.00000000      -0.08849011 </v>
    </varray>
   </crystal>
   <varray name="positions" >
    <v>       0.65883830       0.00000000       0.15736517 </v>
    <v>       0.65883830       0.00000000       0.65736517 </v>
    <v>       0.65883830       0.33333333       0.15736517 </v>
    <v>       0.65883830       0.33333333       0.65736517 </v>
    <v>       0.65883830       0.66666667       0.15736517 </v>
    <v>       0.65883830       0.66666667       0.65736517 </v>
    <v>       0.84116170       0.16666667       0.34263483 </v>
    <v>       0.84116170       0.16666667       0.84263483 </v>
    <v>       0.84116170       0.50000000       0.34263483 </v>
    <v>       0.84116170       0.50000000       0.84263483 </v>
    <v>       0.84116170       0.83333333       0.34263483 </v>
    <v>       0.84116170       0.83333333       0.84263483 </v>
    <v>       0.59047440       0.16666667       0.39739300 </v>
    <v>       0.59047440       0.16666667       0.89739300 </v>
    <v>       0.59047440       0.50000000       0.39739300 </v>
    <v>       0.59047440       0.50000000       0.89739300 </v>
    <v>       0.59047440       0.83333333       0.39739300 </v>
    <v>       0.59047440       0.83333333       0.89739300 </v>
    <v>       0.90952560       0.00000000       0.10260700 </v>
    <v>       0.90952560       0.00000000       0.60260700 </v>
    <v>       0.90952560       0.33333333       0.10260700 </v>
    <v>       0.90952560       0.33333333       0.60260700 </v>
    <v>       0.90952560       0.66666667       0.10260700 </v>
    <v>       0.90952560       0.66666667       0.60260700 </v>
    <v>       0.15883830       0.16666667       0.15736517 </v>
    <v>       0.15883830       0.50000000       0.15736517 </v>
    <v>       0.15883830       0.50000000       0.65736517 </v>
    <v>       0.15883830       0.83333333       0.15736517 </v>
    <v>       0.15883830       0.83333333       0.65736517 </v>
    <v>       0.34116170       0.00000000       0.34263483 </v>
    <v>       0.34116170       0.00000000       0.84263483 </v>
    <v>       0.34116170       0.33333333       0.34263483 </v>
    <v>       0.34116170       0.33333333       0.84263483 </v>
    <v>       0.34116170       0.66666667       0.34263483 </v>
    <v>       0.34116170       0.66666667       0.84263483 </v>
    <v>       0.09047440       0.00000000       0.39739300 </v>
    <v>       0.09047440       0.00000000       0.89739300 </v>
    <v>       0.09047440       0.33333333       0.39739300 </v>
    <v>       0.09047440       0.33333333       0.89739300 </v>
    <v>       0.09047440       0.66666667       0.39739300 </v>
    <v>       0.09047440       0.66666667       0.89739300 </v>
    <v>       0.40952560       0.16666667       0.10260700 </v>
    <v>       0.40952560       0.16666667       0.60260700 </v>
    <v>       0.40952560       0.50000000       0.10260700 </v>
    <v>       0.40952560       0.50000000       0.60260700 </v>
    <v>       0.40952560       0.83333333       0.10260700 </v>
    <v>       0.40952560       0.83333333       0.60260700 </v>
    <v>       0.99646913       0.16666667       0.12833205 </v>
    <v>       0.99646913       0.16666667       0.62833205 </v>
    <v>       0.99646913       0.50000000       0.12833205 </v>
    <v>       0.99646913       0.50000000       0.62833205 </v>
    <v>       0.99646913       0.83333333       0.12833205 </v>
    <v>       0.99646913       0.83333333       0.62833205 </v>
    <v>       0.50353087       0.00000000       0.37166795 </v>
    <v>       0.50353087       0.00000000       0.87166795 </v>
    <v>       0.50353087       0.33333333       0.37166795 </v>
    <v>       0.50353087       0.33333333       0.87166795 </v>
    <v>       0.50353087       0.66666667       0.37166795 </v>
    <v>       0.50353087       0.66666667       0.87166795 </v>
    <v>       0.67337106       0.16666667       0.28161508 </v>
    <v>       0.67337106       0.16666667       0.78161508 </v>
    <v>       0.67337106       0.50000000       0.28161508 </v>
    <v>       0.67337106       0.50000000       0.78161508 </v>
    <v>       0.67337106       0.83333333       0.28161508 </v>
    <v>       0.67337106       0.83333333       0.78161508 </v>
    <v>       0.82662894       0.00000000       0.21838492 </v>
    <v>       0.82662894       0.00000000       0.71838492 </v>
    <v>       0.82662894       0.33333333       0.21838492 </v>
    <v>       0.82662894       0.33333333       0.71838492 </v>
    <v>       0.82662894       0.66666667       0.21838492 </v>
    <v>       0.82662894       0.66666667       0.71838492 </v>
    <v>       0.83549502       0.00000000       0.44542296 </v>
    <v>       0.83549502       0.00000000       0.94542296 </v>
    <v>       0.83549502       0.33333333       0.44542296 </v>
    <v>       0.83549502       0.33333333       0.94542296 </v>
    <v>       0.83549502       0.66666667       0.44542296 </v>
    <v>       0.83549502       0.66666667       0.94542296 </v>
    <v>       0.66450498       0.16666667       0.05457704 </v>
    <v>       0.66450498       0.16666667       0.55457704 </v>
    <v>       0.66450498       0.50000000       0.05457704 </v>
    <v>       0.66450498       0.50000000       0.55457704 </v>
    <v>       0.66450498       0.83333333       0.05457704 </v>
    <v>       0.66450498       0.83333333       0.55457704 </v>
    <v>       0.49646913       0.00000000       0.12833205 </v>
    <v>       0.49646913       0.00000000       0.62833205 </v>
    <v>       0.49646913       0.33333333       0.12833205 </v>
    <v>       0.49646913       0.33333333       0.62833205 </v>
    <v>       0.49646913       0.66666667       0.12833205 </v>
    <v>       0.49646913       0.66666667       0.62833205 </v>
    <v>       0.00353087       0.16666667       0.37166795 </v>
    <v>       0.00353087       0.16666667       0.87166795 </v>
    <v>       0.00353087       0.50000000       0.37166795 </v>
    <v>       0.00353087       0.50000000       0.87166795 </v>
    <v>       0.00353087       0.83333333       0.37166795 </v>
    <v>       0.00353087       0.83333333       0.87166795 </v>
    <v>       0.17337106       0.00000000       0.28161508 </v>
    <v>       0.17337106       0.00000000       0.78161508 </v>
    <v>       0.17337106       0.33333333       0.28161508 </v>
    <v>       0.17337106       0.33333333       0.78161508 </v>
    <v>       0.17337106       0.66666667       0.28161508 </v>
    <v>       0.17337106       0.66666667       0.78161508 </v>
    <v>       0.32662894       0.16666667       0.21838492 </v>
    <v>       0.32662894       0.16666667       0.71838492 </v>
    <v>       0.32662894       0.50000000       0.21838492 </v>
    <v>       0.32662894       0.50000000       0.71838492 </v>
    <v>       0.32662894       0.83333333       0.21838492 </v>
    <v>       0.32662894       0.83333333       0.71838492 </v>
    <v>       0.33549502       0.16666667       0.44542296 </v>
    <v>       0.33549502       0.16666667       0.94542296 </v>
    <v>       0.33549502       0.50000000       0.44542296 </v>
    <v>       0.33549502       0.50000000       0.94542296 </v>
    <v>       0.33549502       0.83333333       0.44542296 </v>
    <v>       0.33549502       0.83333333       0.94542296 </v>
    <v>       0.16450498       0.00000000       0.05457704 </v>
    <v>       0.16450498       0.33333333       0.05457704 </v>
    <v>       0.16450498       0.33333333       0.55457704 </v>
    <v>       0.16450498       0.66666667       0.05457704 </v>
    <v>       0.16450498       0.66666667       0.55457704 </v>
    <v>       0.16450498       0.00000000       0.55457704 </v>
   </varray>
  </structure>
  <varray name="forces" >
   <v>       0.01397521      -0.06374333       0.08829552 </v>
   <v>       0.03132331       0.04740148      -0.01405476 </v>
   <v>      -0.02065734      -0.03869955       0.06244612 </v>
   <v>      -0.03478907      -0.03729348       0.02657964 </v>
   <v>       0.00890965      -0.07141102       0.08384114 </v>
   <v>       0.00167606       0.00236809       0.00333044 </v>
   <v>       0.09165323       0.02908255      -0.18468073 </v>
   <v>      -0.00093817       0.23038968      -0.01148137 </v>
   <v>      -0.14016245       0.09065478      -0.15305138 </v>
   <v>      -0.04184022       0.21624309      -0.06777561 </v>
   <v>       0.06038647      -0.36787621      -0.03942038 </v>
   <v>       0.04951768       0.11299676      -0.03866115 </v>
   <v>       0.02845815       0.12709623      -0.08561014 </v>
   <v>      -0.04039537      -0.06215439       0.03799480 </v>
   <v>      -0.03807204       0.07728952      -0.08436112 </v>
   <v>       0.00503578      -0.02440209       0.00940538 </v>
   <v>       0.00880237       0.13224393      -0.05997408 </v>
   <v>       0.04135769      -0.02174615      -0.00513330 </v>
   <v>       0.06391620      -0.00978932       0.14787417 </v>
   <v>       0.80087171      -0.08817156      -0.23130981 </v>
   <v>       0.01481937       0.02872348       0.08439213 </v>
   <v>      -0.34839611       0.58785510       0.03838227 </v>
   <v>      -0.07947669       0.02870662       0.14155427 </v>
   <v>      -0.38599142      -0.03618390       0.00599798 </v>
   <v>       0.21223561      -0.04794993       0.26175925 </v>
   <v>      -0.15986508      -0.05119046       0.19856821 </v>
   <v>      -1.77842063      -0.21314654      -0.50126864 </v>
   <v>      -0.04792679      -0.03345644       0.28125043 </v>
   <v>      -5.66454326      -1.49080121      -5.62447603 </v>
   <v>       0.17440471       0.29378059       0.39039478 </v>
   <v>       0.74199953      -0.70217271       0.58983897 </v>
   <v>       0.21155661      -0.05235966       0.15665675 </v>
   <v>      -0.45794880      -1.14201954       0.82762855 </v>
   <v>      -0.39012814       0.08982164       0.26348870 </v>
   <v>      -0.20582278      -0.03542832      -0.02445961 </v>
   <v>       0.86223096      -2.96091713      11.38780378 </v>
   <v>       0.27876433       0.43144914       0.70993265 </v>
   <v>       0.05983638       0.13251644      -0.82646947 </v>
   <v>      -0.15172928       0.75236904       0.85639644 </v>
   <v>      -0.56733060      -0.00778591       0.07801942 </v>
   <v>      -0.09793236      -0.05358050       0.07387452 </v>
   <v>       0.01366029       0.01429727       0.23060763 </v>
   <v>       0.28495522      -0.39172571      -0.82262787 </v>
   <v>      -0.02975668      -0.01227632       0.12863361 </v>
   <v>      -0.17271874      -0.15478303      -0.20127299 </v>
   <v>       0.00914914       0.08380338       0.13530324 </v>
   <v>      -0.11175744       0.46442972      -0.56188051 </v>
   <v>      -0.04660651      -0.01223270      -0.08379018 </v>
   <v>      -0.97243937       0.28769019       0.08098202 </v>
   <v>       0.04205996      -0.02321071      -0.06531639 </v>
   <v>       0.34441318      -0.24610338       0.07785120 </v>
   <v>       0.00222947      -0.00120182      -0.15043121 </v>
   <v>      -0.07235172      -0.22519781       0.02800131 </v>
   <v>      -0.03940625      -0.15502272       0.02821362 </v>
   <v>      -0.07859798       0.12113214      -0.03421227 </v>
   <v>      -0.05051848      -0.10899867       0.04044036 </v>
   <v>       0.00130903       0.04377748      -0.00500899 </v>
   <v>       0.09560156      -0.14776984       0.02919234 </v>
   <v>       0.01678476       0.03884668       0.01952639 </v>
   <v>      -0.02206597      -0.06128628       0.01999007 </v>
   <v>      -0.00524250      -0.03803393       0.02163672 </v>
   <v>       0.03806918      -0.07409726       0.01831495 </v>
   <v>       0.02497514      -0.02384540       0.03159060 </v>
   <v>      -0.01460758      -0.05110767       0.00823581 </v>
   <v>      -0.02592640      -0.04739115       0.03641995 </v>
   <v>      -0.05787676       0.05861307      -0.04004828 </v>
   <v>      -0.14947454      -0.13832939      -0.08830763 </v>
   <v>       0.00415269       0.00626397       0.01852495 </v>
   <v>       0.03961566      -0.08611014      -0.06601860 </v>
   <v>       0.06739797       0.05267628      -0.06229096 </v>
   <v>       0.05814033      -0.00162291       0.03098908 </v>
   <v>      -0.24343456      -0.17153140       0.22645386 </v>
   <v>      -0.03343481      -0.20913329      -0.09943942 </v>
   <v>       0.12723423      -0.25897850       0.24762430 </v>
   <v>       0.01412874      -0.22275608      -0.07485859 </v>
   <v>       0.11343876      -0.14237982       0.04385417 </v>
   <v>       0.02059227      -0.21591225      -0.07608343 </v>
   <v>      -0.00032290       0.17218220      -0.00893545 </v>
   <v>      -0.02040151       0.11329490       0.09178127 </v>
   <v>       0.01001391       0.16940949       0.00170289 </v>
   <v>       0.04109769       0.14811797       0.08209425 </v>
   <v>      -0.01478595       0.17607402      -0.02342827 </v>
   <v>      -0.02025391       0.14355549       0.09247678 </v>
   <v>      -0.04163026       0.00059164      -0.09296798 </v>
   <v>      -0.18942608       0.04593691       0.12434010 </v>
   <v>       0.01714488       0.02063217      -0.08792898 </v>
   <v>       0.07374855       0.13290262       0.07107855 </v>
   <v>       0.01838401      -0.00421683      -0.07484290 </v>
   <v>       0.10574562      -0.03248119       0.06175615 </v>
   <v>      -0.05890938      -0.36592570       0.62232533 </v>
   <v>      -0.06456293      -0.37488586      -0.01702399 </v>
   <v>       0.29205979      -0.13810092       0.19358932 </v>
   <v>       0.19883332      -0.25624482      -0.02612806 </v>
   <v>      -0.01458667      -0.00237555       0.18981239 </v>
   <v>      -0.11653858      -0.16583199       0.03196750 </v>
   <v>      -0.09402955      -0.04652970       0.17083488 </v>
   <v>      -0.96801059      -0.00135616      -0.45433882 </v>
   <v>      -0.05596381       0.09202511       0.12272010 </v>
   <v>       1.08534183       0.10045776      -0.74127755 </v>
   <v>       0.12101996      -0.01479664      -0.10525498 </v>
   <v>       0.21572431       0.04794367       0.22415429 </v>
   <v>      -0.05931440       0.00746605      -0.18095538 </v>
   <v>      -0.64864336       0.90617479       0.26571556 </v>
   <v>       0.04321335       0.03087568      -0.09563357 </v>
   <v>       0.32441806       0.28892962       0.07579995 </v>
   <v>       0.00761965      -0.02068910      -0.21948755 </v>
   <v>      -0.25735314       0.57157478      -0.03111938 </v>
   <v>      -0.31645827      -0.29080585       0.00287509 </v>
   <v>      -0.05290619      -0.02864133      -0.31890530 </v>
   <v>       0.09377696      -0.12612511       0.04757079 </v>
   <v>       0.14139968      -0.06021137      -0.17466137 </v>
   <v>       0.32551781      -0.59352000      -0.23235016 </v>
   <v>      -0.08834646      -0.11461909      -0.08960299 </v>
   <v>      -0.02684645       0.16100106      -0.24338122 </v>
   <v>      -0.01603803       0.13147234      -0.27491721 </v>
   <v>       0.24037947       0.48960799       0.79272976 </v>
   <v>       0.04734018       0.18182952      -0.09484075 </v>
   <v>       0.07847608       0.26736157       0.31375657 </v>
   <v>       7.34301764       4.48873903      -7.91541726 </v>
  </varray>
  <varray name="stress" >
   <v>      74.14324185       3.23513973      13.38065687 </v>
   <v>       3.23514081      62.60768820      -9.38089861 </v>
   <v>      13.38065777      -9.38089782      91.64804812 </v>
  </varray>
  <energy>
   <i name="e_fr_energy">   -696.35053699 </i>
   <i name="e_wo_entrp">   -696.34812604 </i>
   <i name="e_0_energy">   -696.34933152 </i>
  </energy>
  <time name="totalsc">   80.22   80.48</time>
 </calculation>
 <calculation>
  <scstep>
   <time name="dav">    1.88    1.88</time>
   <time name="total">    2.25    2.25</time>
   <energy>
    <i name="alphaZ">   5376.25786726 </i>
    <i name="ewald"> -86050.17582288 </i>
    <i name="hartreedc"> -34308.88330710 </i>
    <i name="XCdc">   4137.14368716 </i>
    <i name="pawpsdc"> 118316.88988374 </i>
    <i name="pawaedc">-134365.55334577 </i>
    <i name="eentropy">     -0.02561891 </i>
    <i name="bandstr">  -5630.10467045 </i>
    <i name="atom"> 131866.99277783 </i>
    <i name="e_fr_energy">   -657.45854914 </i>
    <i name="e_wo_entrp">   -657.43293023 </i>
    <i name="e_0_energy">   -657.44573968 </i>
   </energy>
  </scstep>
  <scstep>
   <time name="diag">    0.24    0.24</time>
   <time name="diis">    2.64    2.64</time>
   <time name="orth">    0.03    0.03</time>
   <time name="total">    3.28    3.28</time>
   <energy>
    <i name="e_fr_energy">   -683.39163877 </i>
    <i name="e_wo_entrp">   -683.37061812 </i>
    <i name="e_0_energy">   -683.38112844 </i>
   </energy>
  </scstep>
  <scstep>
   <time name="diag">    0.24    0.24</time>
   <time name="diis">    2.67    2.67</time>
   <time name="orth">    0.03    0.03</time>
   <time name="total">    3.31    3.31</time>
   <energy>
    <i name="e_fr_energy">   -698.58788534 </i>
    <i name="e_wo_entrp">   -698.58102496 </i>
    <i name="e_0_energy">   -698.58445515 </i>
   </energy>
  </scstep>
  <scstep>
   <time name="diag">    0.24    0.24</time>
   <time name="diis">    2.97    2.97</time>
   <time name="orth">    0.03    0.03</time>
   <time name="total">    3.62    3.62</time>
   <energy>
    <i name="e_fr_energy">   -699.87142292 </i>
    <i name="e_wo_entrp">   -699.85266954 </i>
    <i name="e_0_energy">   -699.86204623 </i>
   </energy>
  </scstep>
  <scstep>
   <time name="diag">    0.24    0.24</time>
   <time name="diis">    2.93    2.93</time>
   <time name="orth">    0.03    0.03</time>
   <time name="total">    3.58    3.58</time>
   <energy>
    <i name="e_fr_energy">   -699.87846760 </i>
    <i name="e_wo_entrp">   -699.85956326 </i>
    <i name="e_0_energy">   -699.86901543 </i>
   </energy>
  </scstep>
  <scstep>
   <time name="diag">    0.24    0.24</time>
   <time name="diis">    2.53    2.53</time>
   <time name="orth">    0.03    0.03</time>
   <time name="total">    3.18    3.18</time>
   <energy>
    <i name="e_fr_energy">   -699.71422635 </i>
    <i name="e_wo_entrp">   -699.69469222 </i>
    <i name="e_0_energy">   -699.70445929 </i>
   </energy>
  </scstep>
  <scstep>
   <time name="diag">    0.24    0.24</time>
   <time name="diis">    2.52    2.52</time>
   <time name="orth">    0.03    0.03</time>
   <time name="total">    3.17    3.17</time>
   <energy>
    <i name="e_fr_energy">   -699.73780534 </i>
    <i name="e_wo_entrp">   -699.71389654 </i>
    <i name="e_0_energy">   -699.72585094 </i>
   </energy>
  </scstep>
  <scstep>
   <time name="diag">    0.24    0.24</time>
   <time name="diis">    2.98    2.98</time>
   <time name="orth">    0.03    0.03</time>
   <time name="total">    3.63    3.63</time>
   <energy>
    <i name="e_fr_energy">   -699.72077388 </i>
    <i name="e_wo_entrp">   -699.70047743 </i>
    <i name="e_0_energy">   -699.71062565 </i>
   </energy>
  </scstep>
  <scstep>
   <time name="diag">    0.24    0.24</time>
   <time name="diis">    2.53    2.53</time>
   <time name="orth">    0.03    0.03</time>
   <time name="total">    3.18    3.18</time>
   <energy>
    <i name="e_fr_energy">   -699.70651777 </i>
    <i name="e_wo_entrp">   -699.68507635 </i>
    <i name="e_0_energy">   -699.69579706 </i>
   </energy>
  </scstep>
  <scstep>
   <time name="diag">    0.24    0.24</time>
   <time name="diis">    2.53    2.53</time>
   <time name="orth">    0.03    0.03</time>
   <time name="total">    3.18    3.18</time>
   <energy>
    <i name="e_fr_energy">   -699.70065393 </i>
    <i name="e_wo_entrp">   -699.68051747 </i>
    <i name="e_0_energy">   -699.69058570 </i>
   </energy>
  </scstep>
  <scstep>
   <time name="diag">    0.24    0.24</time>
   <time name="diis">    2.94    2.94</time>
   <time name="orth">    0.03    0.03</time>
   <time name="total">    3.59    3.59</time>
   <energy>
    <i name="e_fr_energy">   -699.70054435 </i>
    <i name="e_wo_entrp">   -699.67988001 </i>
    <i name="e_0_energy">   -699.69021218 </i>
   </energy>
  </scstep>
  <scstep>
   <time name="diag">    0.24    0.24</time>
   <time name="diis">    2.68    2.68</time>
   <time name="orth">    0.03    0.03</time>
   <time name="total">    3.34    3.34</time>
   <energy>
    <i name="e_fr_energy">   -699.70061233 </i>
    <i name="e_wo_entrp">   -699.67992806 </i>
    <i name="e_0_energy">   -699.69027019 </i>
   </energy>
  </scstep>
  <scstep>
   <time name="diag">    0.24    0.24</time>
   <time name="diis">    2.37    2.37</time>
   <time name="orth">    0.03    0.03</time>
   <time name="total">    3.03    3.03</time>
   <energy>
    <i name="e_fr_energy">   -699.70061631 </i>
    <i name="e_wo_entrp">   -699.68000613 </i>
    <i name="e_0_energy">   -699.69031122 </i>
   </energy>
  </scstep>
  <scstep>
   <time name="diag">    0.24    0.24</time>
   <time name="diis">    2.08    2.08</time>
   <time name="orth">    0.03    0.03</time>
   <time name="total">    2.74    2.74</time>
   <energy>
    <i name="e_fr_energy">   -699.70063386 </i>
    <i name="e_wo_entrp">   -699.68002524 </i>
    <i name="e_0_energy">   -699.69032955 </i>
   </energy>
  </scstep>
  <scstep>
   <time name="diag">    0.24    0.24</time>
   <time name="diis">    1.59    1.59</time>
   <time name="orth">    0.03    0.03</time>
   <time name="total">    1.98    1.98</time>
   <energy>
    <i name="alphaZ">   5376.25786726 </i>
    <i name="ewald"> -86050.17582288 </i>
    <i name="hartreedc"> -34324.02372231 </i>
    <i name="XCdc">   4137.88742794 </i>
    <i name="pawpsdc"> 117952.33566674 </i>
    <i name="pawaedc">-134003.23426952 </i>
    <i name="eentropy">     -0.02062930 </i>
    <i name="bandstr">  -5655.71993315 </i>
    <i name="atom"> 131866.99277783 </i>
    <i name="e_fr_energy">   -699.70063740 </i>
    <i name="e_wo_entrp">   -699.68000810 </i>
    <i name="e_0_energy">   -699.69032275 </i>
   </energy>
  </scstep>
  <structure>
   <crystal>
    <varray name="basis" >
     <v>       0.00000000      12.28047342       0.00000000 </v>
     <v>       9.14270205       0.00000000       0.00000000 </v>
     <v>       0.00000000      -2.76826177     -11.30069772 </v>
    </varray>
    <i name="volume">   1268.80515525 </i>
    <varray name="rec_basis" >
     <v>       0.00000000       0.08143009      -0.01994742 </v>
     <v>       0.10937686      -0.00000000       0.00000000 </v>
     <v>       0.00000000       0.00000000      -0.08849011 </v>
    </varray>
   </crystal>
   <varray name="positions" >
    <v>       0.65850292       0.00007374       0.15698824 </v>
    <v>       0.65903804       0.00016528       0.65742517 </v>
    <v>       0.65862618       0.33322433       0.15709859 </v>
    <v>       0.65866622       0.33314976       0.65725170 </v>
    <v>       0.65847709       0.66671368       0.15700725 </v>
    <v>       0.65884440       0.66667551       0.65735095 </v>
    <v>       0.84145367       0.16715029       0.34342323 </v>
    <v>       0.84207781       0.16666172       0.84268384 </v>
    <v>       0.84166511       0.49926041       0.34328821 </v>
    <v>       0.84207641       0.49977922       0.84292416 </v>
    <v>       0.83975447       0.83365197       0.34280312 </v>
    <v>       0.84164280       0.83359462       0.84279987 </v>
    <v>       0.59105607       0.16681683       0.39775847 </v>
    <v>       0.59019367       0.16645352       0.89723080 </v>
    <v>       0.59085921       0.49979911       0.39775314 </v>
    <v>       0.59036949       0.50002657       0.89735285 </v>
    <v>       0.59105162       0.83337978       0.39764903 </v>
    <v>       0.59039391       0.83355156       0.89741491 </v>
    <v>       0.90934484       0.00033726       0.10197573 </v>
    <v>       0.90940182       0.00422590       0.60359446 </v>
    <v>       0.90955723       0.33341153       0.10224673 </v>
    <v>       0.91179800       0.33149498       0.60244315 </v>
    <v>       0.90950215       0.66624730       0.10200271 </v>
    <v>       0.90937768       0.66462993       0.60258139 </v>
    <v>       0.15839804       0.16778656       0.15624772 </v>
    <v>       0.15844612       0.49915645       0.15651748 </v>
    <v>       0.15848335       0.49061593       0.65950508 </v>
    <v>       0.15843622       0.83308044       0.15616451 </v>
    <v>       0.15839436       0.80344364       0.68137605 </v>
    <v>       0.34194011       0.00092027       0.34096824 </v>
    <v>       0.33783567       0.00391526       0.84011681 </v>
    <v>       0.34080526       0.33444964       0.34196606 </v>
    <v>       0.33587895       0.33091691       0.83910169 </v>
    <v>       0.34126100       0.66460810       0.34151000 </v>
    <v>       0.34104606       0.66558062       0.84273925 </v>
    <v>       0.06788405       0.00454967       0.34877849 </v>
    <v>       0.09148613       0.00147094       0.89436230 </v>
    <v>       0.09179030       0.33364907       0.40092120 </v>
    <v>       0.09260588       0.33253271       0.89373705 </v>
    <v>       0.09036873       0.66367307       0.39705994 </v>
    <v>       0.09019282       0.66614991       0.89707763 </v>
    <v>       0.40935985       0.16673875       0.10162254 </v>
    <v>       0.40877837       0.16817027       0.60611880 </v>
    <v>       0.40935359       0.49984298       0.10205786 </v>
    <v>       0.40911124       0.49908863       0.60346623 </v>
    <v>       0.40972461       0.83338161       0.10202939 </v>
    <v>       0.41189077       0.83274363       0.60500567 </v>
    <v>       0.99650171       0.16642074       0.12868975 </v>
    <v>       0.99752136       0.16153546       0.62798633 </v>
    <v>       0.99644080       0.50022193       0.12861088 </v>
    <v>       0.99542742       0.50181734       0.62799970 </v>
    <v>       0.99660917       0.83334510       0.12897424 </v>
    <v>       0.99555752       0.83295156       0.62821251 </v>
    <v>       0.50289473      -0.00020793       0.37154751 </v>
    <v>       0.50403965      -0.00041473       0.87181401 </v>
    <v>       0.50306376       0.33306677       0.37149532 </v>
    <v>       0.50370767       0.33334024       0.87168934 </v>
    <v>       0.50292228       0.66717112       0.37154333 </v>
    <v>       0.50366468       0.66675523       0.87158460 </v>
    <v>       0.67311107       0.16655023       0.28152974 </v>
    <v>       0.67320083       0.16663900       0.78152271 </v>
    <v>       0.67306236       0.50020088       0.28153689 </v>
    <v>       0.67324699       0.50013178       0.78148022 </v>
    <v>       0.67316237       0.83325625       0.28157992 </v>
    <v>       0.67314985       0.83319653       0.78145960 </v>
    <v>       0.82689773      -0.00030539       0.21855589 </v>
    <v>       0.82617050      -0.00078872       0.71876191 </v>
    <v>       0.82663572       0.33335525       0.21830584 </v>
[...]
   <v>      -0.00037979       0.00062390      -0.00089107 </v>
   <v>      -0.00429727      -0.00182830      -0.00412039 </v>
   <v>      -0.00051543      -0.00001630      -0.00015101 </v>
   <v>      -0.00130060      -0.00055971       0.00089864 </v>
   <v>      -0.00012854       0.00067113      -0.00132094 </v>
   <v>      -0.00003202       0.00151748       0.00130954 </v>
   <v>      -0.00228560       0.00244193      -0.00349968 </v>
   <v>       0.00094062      -0.00102266       0.00198388 </v>
   <v>      -0.00166619       0.00092548      -0.00005026 </v>
   <v>       0.00085930      -0.00168627       0.00072066 </v>
   <v>      -0.00077609       0.00058651       0.00099617 </v>
   <v>      -0.00016251      -0.00003688       0.00053595 </v>
   <v>      -0.00110051       0.00025904      -0.00172066 </v>
   <v>      -0.00095260       0.00000562      -0.00089015 </v>
   <v>       0.00337498      -0.00297703      -0.00034374 </v>
   <v>      -0.00210466      -0.00024841       0.00169391 </v>
   <v>       0.00084332       0.00080343       0.00100775 </v>
   <v>       0.00351097      -0.00135233       0.00244369 </v>
  </varray>
  <varray name="stress" >
   <v>      59.47986518      -1.28920988       1.78450110 </v>
   <v>      -1.28920957      50.97039135      -1.10752809 </v>
   <v>       1.78450169      -1.10752766      46.54537284 </v>
  </varray>
  <energy>
   <i name="e_fr_energy">   -706.50716063 </i>
   <i name="e_wo_entrp">   -706.50716063 </i>
   <i name="e_0_energy">   -706.50716063 </i>
  </energy>
  <time name="totalsc">   11.67   11.67</time>
 </calculation>
 <calculation>
  <scstep>
   <time name="dav">    1.94    1.94</time>
   <time name="total">    2.31    2.31</time>
   <energy>
    <i name="alphaZ">   5376.25786726 </i>
    <i name="ewald"> -86733.39307836 </i>
    <i name="hartreedc"> -33668.35312710 </i>
    <i name="XCdc">   4136.95870216 </i>
    <i name="pawpsdc"> 118201.35350389 </i>
    <i name="pawaedc">-134241.45712957 </i>
    <i name="eentropy">     -0.00000000 </i>
    <i name="bandstr">  -5644.86642781 </i>
    <i name="atom"> 131866.99277783 </i>
    <i name="e_fr_energy">   -706.50691172 </i>
    <i name="e_wo_entrp">   -706.50691172 </i>
    <i name="e_0_energy">   -706.50691172 </i>
   </energy>
  </scstep>
  <scstep>
   <time name="diag">    0.24    0.24</time>
   <time name="diis">    2.42    2.41</time>
   <time name="orth">    0.03    0.03</time>
   <time name="total">    3.06    3.06</time>
   <energy>
    <i name="e_fr_energy">   -706.50706033 </i>
    <i name="e_wo_entrp">   -706.50706033 </i>
    <i name="e_0_energy">   -706.50706033 </i>
   </energy>
  </scstep>
  <scstep>
   <time name="diag">    0.24    0.24</time>
   <time name="diis">    2.65    2.65</time>
   <time name="orth">    0.03    0.03</time>
   <time name="total">    3.30    3.30</time>
   <energy>
    <i name="e_fr_energy">   -706.50709303 </i>
    <i name="e_wo_entrp">   -706.50709303 </i>
    <i name="e_0_energy">   -706.50709303 </i>
   </energy>
  </scstep>
  <scstep>
   <time name="diag">    0.24    0.24</time>
   <time name="diis">    1.79    1.79</time>
   <time name="orth">    0.03    0.03</time>
   <time name="total">    2.17    2.17</time>
   <energy>
    <i name="alphaZ">   5376.25786726 </i>
    <i name="ewald"> -86733.39307836 </i>
    <i name="hartreedc"> -33668.35078342 </i>
    <i name="XCdc">   4136.95824857 </i>
    <i name="pawpsdc"> 118200.78318328 </i>
    <i name="pawaedc">-134240.88499754 </i>
    <i name="eentropy">     -0.00000000 </i>
    <i name="bandstr">  -5644.87031325 </i>
    <i name="atom"> 131866.99277783 </i>
    <i name="e_fr_energy">   -706.50709563 </i>
    <i name="e_wo_entrp">   -706.50709563 </i>
    <i name="e_0_energy">   -706.50709563 </i>
   </energy>
  </scstep>
  <structure>
   <crystal>
    <varray name="basis" >
     <v>       0.00000000      12.28047342       0.00000000 </v>
     <v>       9.14270205       0.00000000       0.00000000 </v>
     <v>       0.00000000      -2.76826177     -11.30069772 </v>
    </varray>
    <i name="volume">   1268.80515525 </i>
    <varray name="rec_basis" >
     <v>       0.00000000       0.08143009      -0.01994742 </v>
     <v>       0.10937686      -0.00000000       0.00000000 </v>
     <v>       0.00000000       0.00000000      -0.08849011 </v>
    </varray>
   </crystal>
   <varray name="positions" >
    <v>       0.65807267      -0.00198593       0.15553928 </v>
    <v>       0.66159477      -0.00130459       0.65619896 </v>
    <v>       0.65848893       0.33027301       0.15597044 </v>
    <v>       0.65954177       0.33190157       0.65744701 </v>
    <v>       0.65806105       0.66464031       0.15594527 </v>
    <v>       0.66162948       0.66495872       0.65638605 </v>
    <v>       0.84389540       0.16386200       0.34146052 </v>
    <v>       0.84188193       0.16233947       0.84500613 </v>
    <v>       0.83986410       0.50079997       0.34112411 </v>
    <v>       0.84227351       0.49754015       0.84361863 </v>
    <v>       0.84200174       0.83387360       0.34258442 </v>
    <v>       0.84140350       0.83000494       0.84540075 </v>
    <v>       0.59257660       0.16425710       0.39725500 </v>
    <v>       0.59125248       0.16386966       0.89681630 </v>
    <v>       0.59186680       0.49709553       0.39790948 </v>
    <v>       0.59300889       0.50144812       0.89765285 </v>
    <v>       0.59083076       0.83129914       0.39701639 </v>
    <v>       0.58893931       0.83223429       0.89613828 </v>
    <v>       0.91102113      -0.00386214       0.10435899 </v>
    <v>       0.90923432       0.00882750       0.60206190 </v>
    <v>       0.90929115       0.33038327       0.10177590 </v>
    <v>       0.90001021       0.35087513       0.59910963 </v>
    <v>       0.90924795       0.66302630       0.10243830 </v>
    <v>       0.90942995       0.67994123       0.60151832 </v>
    <v>       0.15902822       0.15989918       0.15902356 </v>
    <v>       0.15992827       0.49645907       0.15525952 </v>
    <v>       0.15574817       0.52025932       0.65668941 </v>
    <v>       0.15949865       0.83019995       0.15869062 </v>
    <v>       0.16095846       0.86671757       0.62820286 </v>
    <v>       0.34040134      -0.00290133       0.34256797 </v>
    <v>       0.33690387       0.00128661       0.83761461 </v>
    <v>       0.34169483       0.32941462       0.34360441 </v>
    <v>       0.34722027       0.32947833       0.83947659 </v>
    <v>       0.34128722       0.66297670       0.34195590 </v>
    <v>       0.33762631       0.66645720       0.84086449 </v>
    <v>       0.10730600      -0.01424291       0.42302136 </v>
    <v>       0.09392725      -0.01142126       0.89616573 </v>
    <v>       0.08563799       0.32571980       0.39067404 </v>
    <v>       0.08963847       0.32311062       0.89810330 </v>
    <v>       0.08757655       0.66501445       0.39311732 </v>
    <v>       0.09182844       0.66025991       0.89774236 </v>
    <v>       0.40688880       0.16400966       0.10000510 </v>
    <v>       0.41290104       0.16513513       0.60389191 </v>
    <v>       0.40754520       0.49578142       0.09896290 </v>
    <v>       0.40949396       0.49873490       0.60147851 </v>
    <v>       0.40857468       0.83048134       0.10014972 </v>
    <v>       0.41382149       0.83106863       0.60105617 </v>
    <v>       0.99675823       0.16409941       0.12909479 </v>
    <v>      -0.00349501       0.18573529       0.62782478 </v>
    <v>       0.99718358       0.49657717       0.12702930 </v>
    <v>       0.99358276       0.51060812       0.62704352 </v>
    <v>       0.99674839       0.82886804       0.12462570 </v>
    <v>       0.99848523       0.84497869       0.62580826 </v>
    <v>       0.50379430      -0.00137770       0.37310350 </v>
    <v>       0.50235901      -0.00121188       0.87210525 </v>
    <v>       0.50413001       0.33049781       0.37380904 </v>
    <v>       0.50807987       0.33377510       0.87371505 </v>
    <v>       0.50429949       0.66343737       0.37287556 </v>
    <v>       0.50147632       0.66488325       0.86895749 </v>
    <v>       0.67332575       0.16499497       0.27981616 </v>
    <v>       0.67378741       0.16483751       0.78043365 </v>
    <v>       0.67215593       0.49758306       0.27968276 </v>
    <v>       0.67417745       0.49981371       0.78028138 </v>
    <v>       0.67253255       0.83188000       0.27992282 </v>
    <v>       0.67364811       0.83259583       0.78075039 </v>
    <v>       0.82657573      -0.00192220       0.21863940 </v>
    <v>       0.82949586       0.00170136       0.71936448 </v>
    <v>       0.82868624       0.32974088       0.21926476 </v>
    <v>       0.82741835       0.33316017       0.72050575 </v>
    <v>       0.82643636       0.66344555       0.21807453 </v>
    <v>       0.82881563       0.66792970       0.71954373 </v>
    <v>       0.83208719       0.00246055       0.44653291 </v>
    <v>       0.83304541      -0.00338343       0.94720726 </v>
    <v>       0.83227039       0.33328307       0.44266945 </v>
    <v>       0.83365223       0.32983113       0.94533728 </v>
    <v>       0.83221577       0.66800040       0.44505228 </v>
    <v>       0.83192906       0.66188261       0.94601386 </v>
    <v>       0.66803895       0.16426677       0.05349583 </v>
    <v>       0.67001951       0.16620452       0.55405174 </v>
    <v>       0.66853950       0.49796337       0.05438714 </v>
    <v>       0.67195629       0.49758059       0.55392484 </v>
    <v>       0.66612495       0.83069154       0.05299198 </v>
    <v>       0.66932652       0.83163648       0.55357594 </v>
    <v>       0.49535203      -0.00188051       0.12664136 </v>
    <v>       0.50002159      -0.00176567       0.62571704 </v>
    <v>       0.49579595       0.32982013       0.12635495 </v>
    <v>       0.49844628       0.33376270       0.62563494 </v>
    <v>       0.49523164       0.66251540       0.12512888 </v>
    <v>       0.49898550       0.66323754       0.62678097 </v>
    <v>       0.00877125       0.15346164       0.38089408 </v>
    <v>       0.00447842       0.15642926       0.87081213 </v>
    <v>       0.00279466       0.49531705       0.37172578 </v>
    <v>       0.00514249       0.49189599       0.87171250 </v>
    <v>       0.00115805       0.83116161       0.36485415 </v>
    <v>       0.00253003       0.82530123       0.87281220 </v>
    <v>       0.17315344      -0.00459575       0.28383126 </v>
    <v>       0.17389455      -0.01508163       0.78085266 </v>
    <v>       0.17288929       0.32988615       0.28073239 </v>
    <v>       0.16213277       0.31831955       0.76584527 </v>
    <v>       0.17318305       0.66213142       0.27966234 </v>
    <v>       0.17420495       0.65840308       0.78395234 </v>
    <v>       0.32783993       0.16392701       0.22019505 </v>
    <v>       0.33846385       0.17019771       0.72392753 </v>
    <v>       0.32784948       0.49515151       0.21838156 </v>
    <v>       0.32400048       0.49597564       0.71529333 </v>
    <v>       0.32851623       0.82913372       0.21868487 </v>
    <v>       0.32485568       0.83622213       0.71053120 </v>
    <v>       0.32979628       0.16371785       0.44863174 </v>
    <v>       0.32858832       0.16755677       0.94362022 </v>
    <v>       0.33096355       0.49624512       0.44547503 </v>
    <v>       0.33083742       0.49297424       0.94136620 </v>
    <v>       0.33537697       0.82996211       0.44524949 </v>
    <v>       0.33453731       0.83201535       0.94313045 </v>
    <v>       0.16766987      -0.00448781       0.05464653 </v>
    <v>       0.16763704       0.32739512       0.05368912 </v>
    <v>       0.15076585       0.33888905       0.55775002 </v>
    <v>       0.16914268       0.66306876       0.05420319 </v>
    <v>       0.16566410       0.67132273       0.54956335 </v>
    <v>       0.13997354       0.19850107       0.64778690 </v>
   </varray>
  </structure>
  <varray name="forces" >
   <v>       0.00288654      -0.00196353       0.00039341 </v>
   <v>      -0.00284463      -0.00071066      -0.00260858 </v>
   <v>       0.00307056      -0.00148144       0.00163450 </v>
   <v>      -0.00173266       0.00244220       0.00108074 </v>
   <v>       0.00126235      -0.00064048       0.00326196 </v>
   <v>       0.00142691       0.00050506      -0.00138396 </v>
   <v>       0.00373406      -0.00134931       0.00066350 </v>
   <v>      -0.00457853       0.00167492      -0.00298935 </v>
   <v>      -0.00027490      -0.00328263      -0.00186672 </v>
   <v>      -0.00219359       0.00212273      -0.00155482 </v>
   <v>       0.00446488      -0.00242867      -0.00106142 </v>
   <v>      -0.00101054       0.00193120      -0.00284535 </v>
   <v>      -0.00291378       0.00257825      -0.00222343 </v>
   <v>       0.00104842      -0.00029174       0.00039420 </v>
   <v>      -0.00012177      -0.00054803      -0.00068573 </v>
   <v>      -0.00274061      -0.00112801       0.00167835 </v>
   <v>      -0.00127265      -0.00017491      -0.00149370 </v>
   <v>       0.00430966      -0.00234828       0.00111681 </v>
   <v>      -0.00286840       0.00070078      -0.00093723 </v>
   <v>       0.00297884       0.00012120       0.00122523 </v>
   <v>      -0.00423257       0.00253923      -0.00259267 </v>
   <v>       0.00612420      -0.00260837       0.00234801 </v>
   <v>      -0.00147262      -0.00043738      -0.00014286 </v>
   <v>       0.00347946      -0.00232399      -0.00174370 </v>
   <v>      -0.00134662       0.00225837      -0.00085572 </v>
   <v>      -0.00102405       0.00081129      -0.00063343 </v>
   <v>       0.00669380      -0.00141261       0.00117113 </v>
   <v>      -0.00253087       0.00186376       0.00027799 </v>
   <v>       0.00486179      -0.00032554       0.00213302 </v>
   <v>      -0.00177347       0.00073267      -0.00179612 </v>
   <v>      -0.00039319       0.00102228       0.00024370 </v>
   <v>      -0.00237931      -0.00016082      -0.00138434 </v>
   <v>       0.00114216      -0.00308348       0.00198561 </v>
   <v>      -0.00037632      -0.00088464       0.00159008 </v>
   <v>      -0.00228952      -0.00184568       0.00149835 </v>
   <v>       0.00341722      -0.00178683       0.00189220 </v>
   <v>      -0.00153519       0.00248495       0.00075326 </v>
   <v>       0.00364578      -0.00191498       0.00120826 </v>
   <v>       0.00247523       0.00230505      -0.00070815 </v>
   <v>       0.00121608       0.00193227      -0.00035704 </v>
   <v>      -0.00702059       0.00273980       0.00197341 </v>
   <v>       0.00435598      -0.00175922       0.00319882 </v>
   <v>      -0.00319468      -0.00342895      -0.00503311 </v>
   <v>       0.00098601      -0.00132838       0.00139966 </v>
   <v>      -0.00122703       0.00109557      -0.00123914 </v>
   <v>       0.00138273      -0.00055225       0.00014092 </v>
   <v>      -0.00363649       0.00066749       0.00261924 </v>
   <v>      -0.00300100       0.00096277      -0.00220497 </v>
   <v>       0.00147990      -0.00239800      -0.00033651 </v>
   <v>      -0.00311088       0.00025917      -0.00078070 </v>
   <v>       0.01060009       0.00100378      -0.00177492 </v>
   <v>      -0.00259066       0.00241184      -0.00111404 </v>
   <v>       0.00454972       0.00087581       0.00115375 </v>
   <v>      -0.00077050       0.00199804       0.00152014 </v>
   <v>      -0.00166372       0.00045181       0.00065893 </v>
   <v>      -0.00230687       0.00083874       0.00199685 </v>
   <v>       0.00087049      -0.00116495       0.00168863 </v>
   <v>      -0.00231038       0.00033320      -0.00062802 </v>
   <v>       0.00033433      -0.00025595       0.00065032 </v>
   <v>       0.00067124      -0.00225681       0.00011856 </v>
   <v>      -0.00198661       0.00053287      -0.00062346 </v>
   <v>       0.00138242      -0.00172300      -0.00016534 </v>
   <v>      -0.00331150       0.00110513      -0.00146772 </v>
   <v>       0.00108972      -0.00193959       0.00131735 </v>
   <v>      -0.00004271      -0.00083444      -0.00194318 </v>
   <v>       0.00100896      -0.00002639      -0.00055275 </v>
   <v>      -0.00078336       0.00179747      -0.00281658 </v>
   <v>       0.00193634      -0.00129339       0.00153371 </v>
   <v>      -0.00265252       0.00079804      -0.00214392 </v>
   <v>       0.00258142      -0.00165599      -0.00054150 </v>
   <v>      -0.00115390      -0.00097761       0.00033021 </v>
   <v>       0.00407959      -0.00156817       0.00100288 </v>
   <v>      -0.00252868       0.00010947      -0.00557609 </v>
   <v>       0.00479085       0.00017771      -0.00136595 </v>
   <v>      -0.00386432       0.00180735      -0.00267739 </v>
   <v>       0.00386771      -0.00177900       0.00239536 </v>
   <v>      -0.00252924       0.00189509      -0.00340580 </v>
   <v>       0.00320760      -0.00168126      -0.00168455 </v>
   <v>      -0.00222324       0.00151376      -0.00111491 </v>
   <v>       0.00168687      -0.00039856       0.00177448 </v>
   <v>      -0.00231093       0.00020071      -0.00112722 </v>
   <v>       0.00156194      -0.00280589      -0.00019610 </v>
   <v>      -0.00193694       0.00076723       0.00044476 </v>
   <v>       0.00412204      -0.00234152       0.00264786 </v>
   <v>      -0.00491354       0.00110353      -0.00033051 </v>
   <v>       0.00375582      -0.00126530       0.00239341 </v>
   <v>      -0.00238082       0.00163328      -0.00092630 </v>
   <v>       0.00241465      -0.00234708       0.00011804 </v>
   <v>      -0.00580617       0.00022296       0.00017189 </v>
   <v>       0.00470892      -0.00001974      -0.00126178 </v>
   <v>      -0.00681172       0.00143700      -0.00014408 </v>
   <v>       0.00504050       0.00057106       0.00321371 </v>
   <v>      -0.00437398       0.00274159       0.00077288 </v>
   <v>       0.00409275      -0.00150540      -0.00129383 </v>
   <v>      -0.00140963       0.00020591       0.00076525 </v>
   <v>       0.00006309       0.00089790      -0.00156092 </v>
   <v>       0.00064387       0.00002661       0.00111786 </v>
   <v>       0.00001356       0.00190225      -0.00200832 </v>
   <v>      -0.00158219      -0.00152934       0.00341739 </v>
   <v>      -0.00039385       0.00092124      -0.00020456 </v>
   <v>       0.00049663       0.00121578       0.00371241 </v>
   <v>      -0.00092278      -0.00059814       0.00034669 </v>
   <v>      -0.00259629       0.00362652       0.00250782 </v>
   <v>      -0.00094547      -0.00053911      -0.00015767 </v>
   <v>      -0.00019798       0.00041297       0.00325787 </v>
   <v>      -0.00120715       0.00134963       0.00102336 </v>
   <v>      -0.00334151       0.00032995      -0.00097257 </v>
   <v>      -0.00053277       0.00230226       0.00002883 </v>
   <v>       0.00018037      -0.00141848      -0.00081345 </v>
   <v>      -0.00249121       0.00264633      -0.00108947 </v>
   <v>      -0.00006668      -0.00110563       0.00051055 </v>
   <v>      -0.00056373       0.00136088      -0.00212734 </v>
   <v>       0.00004118       0.00015426       0.00154734 </v>
   <v>      -0.00180021       0.00093627       0.00110201 </v>
   <v>      -0.00181955       0.00018039      -0.00052858 </v>
   <v>       0.00143982      -0.00141109       0.00189332 </v>
   <v>      -0.00231821      -0.00178567       0.00018549 </v>
   <v>       0.00317514       0.00134691       0.00219834 </v>
   <v>       0.00368784      -0.00106825      -0.00160307 </v>
  </varray>
  <varray name="stress" >
   <v>      59.47052397      -1.28123257       1.78079025 </v>
   <v>      -1.28123405      50.96615655      -1.10728683 </v>
   <v>       1.78078849      -1.10728709      46.51669685 </v>
  </varray>
  <energy>
   <i name="e_fr_energy">   -706.50709563 </i>
   <i name="e_wo_entrp">   -706.50709563 </i>
   <i name="e_0_energy">   -706.50709563 </i>
  </energy>
