 running    4 mpi-ranks, on    1 nodes
 distrk:  each k-point on    1 cores,    4 groups
 distr:  one band on    1 cores,    1 groups
 OpenACC runtime initialized ...    4 GPUs detected
 vasp.6.4.2 20Jul23 (build Nov 12 2023 22:16:35) complex                         
 POSCAR found type information on POSCAR GaO P 
 POSCAR found :  3 types and     120 ions
 scaLAPACK will be used selectively (only on CPU)
 LDA part: xc-table for Pade appr. of Perdew
 POSCAR, INCAR and KPOINTS ok, starting setup
 FFT: planning ... GRIDC
 FFT: planning ... GRID_SOFT
 FFT: planning ... GRID
 WAVECAR not read
 initial charge from wavefunction
 entering main loop
       N       E                     dE             d eps       ncg     rms          ort
DAV:   1    -0.187740179269E+05   -0.18774E+05   -0.54565E+05  5064   0.749E+03
DAV:   2    -0.634536345147E+05   -0.44680E+05   -0.43171E+05  5064   0.124E+03
DAV:   3    -0.685739933517E+05   -0.51204E+04   -0.45635E+04  5064   0.372E+02
DAV:   4    -0.693068818096E+05   -0.73289E+03   -0.66649E+03  5064   0.118E+02
DAV:   5    -0.391728987806E+05    0.30134E+05   -0.68070E+02  5064   0.563E+01
 gam= 0.000 g(H,U,f)=  0.838E+05 0.153E+05 0.114E-16 ort(H,U,f) = 0.000E+00 0.000E+00 0.000E+00
SDA:   6     0.355131822335E+05    0.74686E+05   -0.68070E+02  5064   0.991E+05 0.000E+00
 gam= 0.000 trial= 0.400  step= 0.576 mean= 0.400
 gam= 1.101 g(H,U,f)=  0.635E+05 0.396E+05 0.600E+04 ort(H,U,f) =-0.146E+05-0.242E+05-0.414E+04
CGA:   7     0.148031209666E+05   -0.20710E+05   -0.28535E+05  5064   0.109E+06-0.429E+05
 gam= 1.101 trial= 0.409  step= 0.239 mean= 0.409
 gam= 0.395 g(H,U,f)=  0.338E+05 0.921E+04 0.106E+03 ort(H,U,f) = 0.474E+04 0.442E+04 0.115E+03
CGA:   8     0.102555908510E+05   -0.45475E+04   -0.73859E+04  5064   0.431E+05 0.928E+04
 gam= 0.395 trial= 0.400  step= 0.214 mean= 0.400
 gam= 0.502 g(H,U,f)=  0.186E+05 0.285E+04 0.167E+03 ort(H,U,f) = 0.307E+04-0.179E+03-0.653E+02
CGA:   9     0.634656831299E+04   -0.39090E+04   -0.50091E+04  5064   0.217E+05 0.283E+04
 gam= 0.502 trial= 0.391  step= 0.261 mean= 0.391
 gam= 0.578 g(H,U,f)=  0.969E+04 0.275E+04 0.746E+02 ort(H,U,f) = 0.368E+04-0.170E+04-0.127E+03
CGA:  10     0.371676037179E+04   -0.26298E+04   -0.30125E+04  5064   0.125E+05 0.186E+04
 gam= 0.578 trial= 0.384  step= 0.278 mean= 0.384
 gam= 0.553 g(H,U,f)=  0.494E+04 0.187E+04 0.109E+03 ort(H,U,f) = 0.804E+03 0.413E+02-0.406E+02
CGA:  11     0.206720557532E+04   -0.16496E+04   -0.18907E+04  5064   0.692E+04 0.804E+03
 gam= 0.553 trial= 0.379  step= 0.355 mean= 0.379
 gam= 0.426 g(H,U,f)=  0.257E+04 0.371E+03 0.313E+00 ort(H,U,f) = 0.605E+03 0.115E+03-0.183E-01
CGA:  12     0.782892688870E+03   -0.12843E+04   -0.13056E+04  5064   0.294E+04 0.720E+03
 gam= 0.426 trial= 0.378  step= 0.466 mean= 0.378
 gam= 0.493 g(H,U,f)=  0.124E+04 0.212E+03 0.114E+01 ort(H,U,f) = 0.230E+01 0.263E+03 0.720E+01
CGA:  13     0.626358472509E+01   -0.77663E+03   -0.75694E+03  5064   0.145E+04 0.273E+03
 gam= 0.493 trial= 0.382  step= 0.586 mean= 0.382
 gam= 0.578 g(H,U,f)=  0.689E+03 0.147E+03 0.346E+01 ort(H,U,f) =-0.231E+03 0.251E+03 0.546E+00
CGA:  14    -0.467133454785E+03   -0.47340E+03   -0.46467E+03  5064   0.840E+03 0.200E+02
 gam= 0.578 trial= 0.393  step= 0.521 mean= 0.393
 gam= 0.676 g(H,U,f)=  0.452E+03 0.114E+03 0.992E+00 ort(H,U,f) =-0.905E+02-0.147E+03 0.432E+00
CGA:  15    -0.672059993197E+03   -0.20493E+03   -0.22174E+03  5064   0.567E+03-0.237E+03
 gam= 0.676 trial= 0.399  step= 0.248 mean= 0.399
 gam= 0.871 g(H,U,f)=  0.307E+03 0.180E+03 0.699E+01 ort(H,U,f) = 0.170E+03-0.165E+03 0.151E+01
CGA:  16    -0.724047696078E+03   -0.51988E+02   -0.50463E+02  5064   0.494E+03 0.679E+01
 gam= 0.871 trial= 0.391  step= 0.251 mean= 0.391
 gam= 0.592 g(H,U,f)=  0.156E+03 0.134E+03 0.277E+01 ort(H,U,f) = 0.819E+02-0.798E+02 0.552E+01
CGA:  17    -0.785110805953E+03   -0.61063E+02   -0.62767E+02  5064   0.292E+03 0.765E+01
 gam= 0.592 trial= 0.384  step= 0.278 mean= 0.384
 gam= 0.634 g(H,U,f)=  0.116E+03 0.665E+02 0.285E+01 ort(H,U,f) =-0.961E+01 0.162E+02 0.782E+01
CGA:  18    -0.824423676881E+03   -0.39313E+02   -0.41224E+02  5064   0.185E+03 0.144E+02
 gam= 0.634 trial= 0.379  step= 0.339 mean= 0.379
 gam= 0.702 g(H,U,f)=  0.937E+02 0.364E+02 0.459E-21 ort(H,U,f) =-0.178E+02 0.314E+02-0.885E-22
CGA:  19    -0.856902771351E+03   -0.32479E+02   -0.32962E+02  5064   0.130E+03 0.136E+02
 gam= 0.702 trial= 0.377  step= 0.413 mean= 0.377
 gam= 0.719 g(H,U,f)=  0.699E+02 0.236E+02 0.121E-20 ort(H,U,f) =-0.216E+02 0.293E+02-0.276E-19
CGA:  20    -0.885888300456E+03   -0.28986E+02   -0.28823E+02  5064   0.935E+02 0.766E+01
 gam= 0.719 trial= 0.379  step= 0.422 mean= 0.379
 gam= 0.671 g(H,U,f)=  0.488E+02 0.140E+02 0.198E-27 ort(H,U,f) =-0.194E+02 0.224E+02-0.702E-26
CGA:  21    -0.906820015266E+03   -0.20932E+02   -0.20875E+02  5064   0.628E+02 0.305E+01
 gam= 0.671 trial= 0.381  step= 0.397 mean= 0.381
 gam= 0.681 g(H,U,f)=  0.343E+02 0.850E+01 0.474E-19 ort(H,U,f) =-0.941E+01 0.109E+02 0.914E-20
CGA:  22    -0.919705997968E+03   -0.12886E+02   -0.12879E+02  5064   0.428E+02 0.148E+01
 gam= 0.681 trial= 0.382  step= 0.393 mean= 0.382
 gam= 0.680 g(H,U,f)=  0.231E+02 0.596E+01 0.279E-17 ort(H,U,f) =-0.149E+01 0.284E+01 0.100E-17
CGA:  23    -0.928318572825E+03   -0.86126E+01   -0.86048E+01  5064   0.291E+02 0.135E+01
 gam= 0.680 trial= 0.382  step= 0.384 mean= 0.382
 gam= 0.581 g(H,U,f)=  0.126E+02 0.432E+01 0.394E-12 ort(H,U,f) = 0.659E+00 0.325E+00-0.188E-12
CGA:  24    -0.934081675552E+03   -0.57631E+01   -0.57621E+01  5064   0.169E+02 0.984E+00
 gam= 0.581 trial= 0.382  step= 0.393 mean= 0.382
 gam= 0.634 g(H,U,f)=  0.763E+01 0.310E+01 0.438E-12 ort(H,U,f) =-0.459E+00 0.883E+00 0.262E-12
CGA:  25    -0.937521283384E+03   -0.34396E+01   -0.34367E+01  5064   0.107E+02 0.424E+00
 gam= 0.634 trial= 0.383  step= 0.430 mean= 0.383
 gam= 0.786 g(H,U,f)=  0.620E+01 0.223E+01 0.271E-15 ort(H,U,f) =-0.110E+01 0.128E+01 0.789E-15
CGA:  26    -0.939888122428E+03   -0.23668E+01   -0.23617E+01  5064   0.843E+01 0.183E+00
 gam= 0.786 trial= 0.385  step= 0.410 mean= 0.385
 gam= 0.688 g(H,U,f)=  0.428E+01 0.152E+01 0.760E-18 ort(H,U,f) =-0.117E+01 0.122E+01 0.227E-16
CGA:  27    -0.941645827979E+03   -0.17577E+01   -0.17573E+01  5064   0.580E+01 0.523E-01
 gam= 0.688 trial= 0.387  step= 0.377 mean= 0.387
 gam= 0.631 g(H,U,f)=  0.266E+01 0.100E+01 0.163E-13 ort(H,U,f) =-0.968E+00 0.977E+00-0.736E-13
CGA:  28    -0.942746159022E+03   -0.11003E+01   -0.11002E+01  5064   0.366E+01 0.871E-02
 gam= 0.631 trial= 0.386  step= 0.417 mean= 0.386
 gam= 0.715 g(H,U,f)=  0.198E+01 0.630E+00 0.636E-14 ort(H,U,f) =-0.574E+00 0.579E+00-0.965E-14
CGA:  29    -0.943510200051E+03   -0.76404E+00   -0.76417E+00  5064   0.262E+01 0.566E-02
 gam= 0.715 trial= 0.388  step= 0.433 mean= 0.388
 gam= 0.639 g(H,U,f)=  0.128E+01 0.392E+00 0.307E-13 ort(H,U,f) =-0.196E+00 0.212E+00-0.157E-13
CGA:  30    -0.944077510690E+03   -0.56731E+00   -0.56694E+00  5064   0.167E+01 0.163E-01
 gam= 0.639 trial= 0.390  step= 0.433 mean= 0.390
 gam= 0.600 g(H,U,f)=  0.736E+00 0.267E+00 0.444E-14 ort(H,U,f) =-0.450E-01 0.578E-01 0.467E-14
CGA:  31    -0.944441614844E+03   -0.36410E+00   -0.36377E+00  5064   0.100E+01 0.128E-01
 gam= 0.600 trial= 0.392  step= 0.462 mean= 0.392
 gam= 0.736 g(H,U,f)=  0.530E+00 0.208E+00 0.454E-20 ort(H,U,f) =-0.506E-01 0.564E-01 0.135E-19
CGA:  32    -0.944675205460E+03   -0.23359E+00   -0.23335E+00  5064   0.738E+00 0.585E-02
 gam= 0.736 trial= 0.396  step= 0.464 mean= 0.396
 gam= 0.789 g(H,U,f)=  0.423E+00 0.159E+00 0.349E-12 ort(H,U,f) =-0.679E-01 0.706E-01 0.158E-11
CGA:  33    -0.944847464400E+03   -0.17226E+00   -0.17216E+00  5064   0.583E+00 0.268E-02
 gam= 0.789 trial= 0.399  step= 0.412 mean= 0.399
 gam= 0.685 g(H,U,f)=  0.293E+00 0.106E+00 0.109E-16 ort(H,U,f) =-0.627E-01 0.638E-01 0.528E-16
CGA:  34    -0.944967766645E+03   -0.12030E+00   -0.12030E+00  5064   0.399E+00 0.118E-02
 gam= 0.685 trial= 0.400  step= 0.379 mean= 0.400
 gam= 0.646 g(H,U,f)=  0.184E+00 0.732E-01 0.367E-14 ort(H,U,f) =-0.439E-01 0.447E-01 0.306E-13
CGA:  35    -0.945043469097E+03   -0.75702E-01   -0.75709E-01  5064   0.258E+00 0.709E-03
 gam= 0.646 trial= 0.399  step= 0.425 mean= 0.399
 gam= 0.723 g(H,U,f)=  0.133E+00 0.533E-01 0.451E-17 ort(H,U,f) =-0.302E-01 0.309E-01-0.356E-15
CGA:  36    -0.945098255616E+03   -0.54787E-01   -0.54776E-01  5064   0.186E+00 0.703E-03
 gam= 0.723 trial= 0.400  step= 0.449 mean= 0.400
 gam= 0.000 g(H,U,f)=  0.877E-01 0.346E-01 0.584E-19 ort(H,U,f) =-0.200E-01 0.206E-01-0.145E-18
SDA:  37    -0.945140208683E+03   -0.41953E-01   -0.41933E-01  5064   0.122E+00 0.680E-03
 gam= 0.000 trial= 0.402  step= 0.957 mean= 0.402
 gam= 0.382 g(H,U,f)=  0.346E-01 0.120E-01 0.108E-15 ort(H,U,f) =-0.151E-01 0.152E-01 0.196E-15
CGA:  38    -0.945198750480E+03   -0.58542E-01   -0.58525E-01  5064   0.467E-01 0.673E-04
 gam= 0.382 trial= 0.430  step= 0.862 mean= 0.430
 gam= 0.392 g(H,U,f)=  0.159E-01 0.241E-02 0.110E-15 ort(H,U,f) =-0.797E-02 0.797E-02 0.408E-15
CGA:  39    -0.945218865998E+03   -0.20116E-01   -0.20114E-01  5064   0.183E-01 0.317E-05
 gam= 0.392 trial= 0.452  step= 0.602 mean= 0.452
 gam= 0.227 g(H,U,f)=  0.365E-02 0.502E-03 0.655E-16 ort(H,U,f) =-0.222E-02 0.223E-02 0.389E-15
CGA:  40    -0.945224373907E+03   -0.55079E-02   -0.55081E-02  5064   0.415E-02 0.352E-05
 gam= 0.227 trial= 0.459  step= 0.723 mean= 0.459
 gam= 0.259 g(H,U,f)=  0.100E-02 0.731E-04 0.176E-15 ort(H,U,f) =-0.386E-03 0.354E-03 0.130E-14
CGA:  41    -0.945225868600E+03   -0.14947E-02   -0.14995E-02  5064   0.107E-02-0.316E-04
 gam= 0.259 trial= 0.472  step= 0.604 mean= 0.472
 gam= 0.228 g(H,U,f)=  0.226E-03 0.196E-04 0.174E-22 ort(H,U,f) =-0.615E-04 0.616E-04 0.118E-21
CGA:  42    -0.945226190289E+03   -0.32169E-03   -0.32185E-03  5064   0.245E-03 0.144E-06
 gam= 0.228 trial= 0.479  step= 0.778 mean= 0.479
 gam= 0.344 g(H,U,f)=  0.803E-04 0.412E-05 0.540E-24 ort(H,U,f) =-0.398E-05 0.949E-05 0.267E-23
CGA:  43    -0.945226286482E+03   -0.96193E-04   -0.95377E-04  5064   0.844E-04 0.550E-05
 gam= 0.344 trial= 0.494  step= 0.651 mean= 0.494
 gam= 0.331 g(H,U,f)=  0.267E-04 0.122E-05 0.321E-26 ort(H,U,f) = 0.120E-05 0.181E-05 0.495E-25
CGA:  44    -0.945226314865E+03   -0.28383E-04   -0.28101E-04  5064   0.279E-04 0.301E-05
 gam= 0.331 trial= 0.502  step= 0.707 mean= 0.502
 gam= 0.394 g(H,U,f)=  0.106E-04 0.401E-06 0.620E-18 ort(H,U,f) = 0.154E-05 0.390E-06-0.130E-18
CGA:  45    -0.945226325298E+03   -0.10433E-04   -0.10224E-04  5064   0.110E-04 0.193E-05
 gam= 0.394 trial= 0.512  step= 0.757 mean= 0.512
 gam= 0.424 g(H,U,f)=  0.447E-05 0.196E-06 0.118E-23 ort(H,U,f) = 0.932E-06 0.137E-06 0.393E-25
CGA:  46    -0.945226329881E+03   -0.45837E-05   -0.44500E-05  5064   0.467E-05 0.107E-05
 gam= 0.424 trial= 0.524  step= 0.859 mean= 0.524
 final diagonalization
   1 F= -.94522633E+03 E0= -.94522633E+03  d E =-.133466E-14
 writing wavefunctions
Warning: ieee_invalid is signaling
Warning: ieee_divide_by_zero is signaling
Warning: ieee_underflow is signaling
Warning: ieee_inexact is signaling
FORTRAN STOP
Warning: ieee_invalid is signaling
Warning: ieee_divide_by_zero is signaling
Warning: ieee_underflow is signaling
Warning: ieee_inexact is signaling
FORTRAN STOP
Warning: ieee_invalid is signaling
Warning: ieee_divide_by_zero is signaling
Warning: ieee_underflow is signaling
Warning: ieee_inexact is signaling
FORTRAN STOP
Warning: ieee_invalid is signaling
Warning: ieee_divide_by_zero is signaling
Warning: ieee_underflow is signaling
Warning: ieee_inexact is signaling
FORTRAN STOP
