       N       E                     dE             d eps       ncg     rms          ort
DAV:   1    -0.187740179269E+05   -0.18774E+05   -0.54565E+05  5064   0.749E+03
DAV:   2    -0.634536345147E+05   -0.44680E+05   -0.43171E+05  5064   0.124E+03
DAV:   3    -0.685739933517E+05   -0.51204E+04   -0.45635E+04  5064   0.372E+02
DAV:   4    -0.693068818096E+05   -0.73289E+03   -0.66649E+03  5064   0.118E+02
DAV:   5    -0.391728987806E+05    0.30134E+05   -0.68070E+02  5064   0.563E+01
SDA:   6     0.355131822335E+05    0.74686E+05   -0.68070E+02  5064   0.991E+05 0.000E+00
CGA:   7     0.148031209666E+05   -0.20710E+05   -0.28535E+05  5064   0.109E+06-0.429E+05
CGA:   8     0.102555908510E+05   -0.45475E+04   -0.73859E+04  5064   0.431E+05 0.928E+04
CGA:   9     0.634656831299E+04   -0.39090E+04   -0.50091E+04  5064   0.217E+05 0.283E+04
CGA:  10     0.371676037179E+04   -0.26298E+04   -0.30125E+04  5064   0.125E+05 0.186E+04
CGA:  11     0.206720557532E+04   -0.16496E+04   -0.18907E+04  5064   0.692E+04 0.804E+03
CGA:  12     0.782892688870E+03   -0.12843E+04   -0.13056E+04  5064   0.294E+04 0.720E+03
CGA:  13     0.626358472509E+01   -0.77663E+03   -0.75694E+03  5064   0.145E+04 0.273E+03
CGA:  14    -0.467133454785E+03   -0.47340E+03   -0.46467E+03  5064   0.840E+03 0.200E+02
CGA:  15    -0.672059993197E+03   -0.20493E+03   -0.22174E+03  5064   0.567E+03-0.237E+03
CGA:  16    -0.724047696078E+03   -0.51988E+02   -0.50463E+02  5064   0.494E+03 0.679E+01
CGA:  17    -0.785110805953E+03   -0.61063E+02   -0.62767E+02  5064   0.292E+03 0.765E+01
CGA:  18    -0.824423676881E+03   -0.39313E+02   -0.41224E+02  5064   0.185E+03 0.144E+02
CGA:  19    -0.856902771351E+03   -0.32479E+02   -0.32962E+02  5064   0.130E+03 0.136E+02
CGA:  20    -0.885888300456E+03   -0.28986E+02   -0.28823E+02  5064   0.935E+02 0.766E+01
CGA:  21    -0.906820015266E+03   -0.20932E+02   -0.20875E+02  5064   0.628E+02 0.305E+01
CGA:  22    -0.919705997968E+03   -0.12886E+02   -0.12879E+02  5064   0.428E+02 0.148E+01
CGA:  23    -0.928318572825E+03   -0.86126E+01   -0.86048E+01  5064   0.291E+02 0.135E+01
CGA:  24    -0.934081675552E+03   -0.57631E+01   -0.57621E+01  5064   0.169E+02 0.984E+00
CGA:  25    -0.937521283384E+03   -0.34396E+01   -0.34367E+01  5064   0.107E+02 0.424E+00
CGA:  26    -0.939888122428E+03   -0.23668E+01   -0.23617E+01  5064   0.843E+01 0.183E+00
CGA:  27    -0.941645827979E+03   -0.17577E+01   -0.17573E+01  5064   0.580E+01 0.523E-01
CGA:  28    -0.942746159022E+03   -0.11003E+01   -0.11002E+01  5064   0.366E+01 0.871E-02
CGA:  29    -0.943510200051E+03   -0.76404E+00   -0.76417E+00  5064   0.262E+01 0.566E-02
CGA:  30    -0.944077510690E+03   -0.56731E+00   -0.56694E+00  5064   0.167E+01 0.163E-01
CGA:  31    -0.944441614844E+03   -0.36410E+00   -0.36377E+00  5064   0.100E+01 0.128E-01
CGA:  32    -0.944675205460E+03   -0.23359E+00   -0.23335E+00  5064   0.738E+00 0.585E-02
CGA:  33    -0.944847464400E+03   -0.17226E+00   -0.17216E+00  5064   0.583E+00 0.268E-02
CGA:  34    -0.944967766645E+03   -0.12030E+00   -0.12030E+00  5064   0.399E+00 0.118E-02
CGA:  35    -0.945043469097E+03   -0.75702E-01   -0.75709E-01  5064   0.258E+00 0.709E-03
CGA:  36    -0.945098255616E+03   -0.54787E-01   -0.54776E-01  5064   0.186E+00 0.703E-03
SDA:  37    -0.945140208683E+03   -0.41953E-01   -0.41933E-01  5064   0.122E+00 0.680E-03
CGA:  38    -0.945198750480E+03   -0.58542E-01   -0.58525E-01  5064   0.467E-01 0.673E-04
CGA:  39    -0.945218865998E+03   -0.20116E-01   -0.20114E-01  5064   0.183E-01 0.317E-05
CGA:  40    -0.945224373907E+03   -0.55079E-02   -0.55081E-02  5064   0.415E-02 0.352E-05
CGA:  41    -0.945225868600E+03   -0.14947E-02   -0.14995E-02  5064   0.107E-02-0.316E-04
CGA:  42    -0.945226190289E+03   -0.32169E-03   -0.32185E-03  5064   0.245E-03 0.144E-06
CGA:  43    -0.945226286482E+03   -0.96193E-04   -0.95377E-04  5064   0.844E-04 0.550E-05
CGA:  44    -0.945226314865E+03   -0.28383E-04   -0.28101E-04  5064   0.279E-04 0.301E-05
CGA:  45    -0.945226325298E+03   -0.10433E-04   -0.10224E-04  5064   0.110E-04 0.193E-05
CGA:  46    -0.945226329881E+03   -0.45837E-05   -0.44500E-05  5064   0.467E-05 0.107E-05
   1 F= -.94522633E+03 E0= -.94522633E+03  d E =-.133466E-14
