<?xml version="1.0" encoding="ISO-8859-1"?>
<modeling>
 <generator>
  <i name="program" type="string">vasp </i>
  <i name="version" type="string">6.4.2  </i>
  <i name="subversion" type="string">20Jul23 (build Nov 12 2023 22:16:35) complex                          parallel </i>
  <i name="platform" type="string">LinuxNV </i>
  <i name="date" type="string">2025 03 18 </i>
  <i name="time" type="string">11:12:18 </i>
 </generator>
 <incar>
  <i type="int" name="ISTART">     0</i>
  <i type="string" name="PREC">Normal</i>
  <i type="string" name="ALGO">All</i>
  <i type="int" name="ISPIN">     1</i>
  <i type="int" name="ICHARG">     0</i>
  <i type="int" name="NELM">   500</i>
  <i type="int" name="IBRION">    -1</i>
  <i name="EDIFF">      0.00001000</i>
  <i name="EDIFFG">     -0.00500000</i>
  <i type="int" name="NSW">     0</i>
  <i type="int" name="ISIF">     2</i>
  <i name="ENCUT">    450.00000000</i>
  <i name="NELECT">   1056.00000000</i>
  <i type="string" name="LREAL">Auto</i>
  <i type="logical" name="LPLANE"> T  </i>
  <i name="TIME">      0.40000000</i>
  <i type="int" name="ISMEAR">     0</i>
  <i name="SIGMA">      0.05000000</i>
  <i type="logical" name="LWAVE"> T  </i>
  <i type="logical" name="LCHARG"> T  </i>
  <i name="HFSCREEN">      0.20000000</i>
  <i type="logical" name="LHFCALC"> T  </i>
  <i type="int" name="LMAXFOCK">     4</i>
  <i name="AEXX">      0.32000000</i>
  <i type="string" name="PRECFOCK">Fast</i>
 </incar>
 <primitive_cell>
  <structure name="primitive_cell" >
   <crystal>
    <varray name="basis" >
     <v>       0.00000000      12.28047342       0.00000000 </v>
     <v>       9.14270205       0.00000000       0.00000000 </v>
     <v>       0.00000000      -2.76826177     -11.30069772 </v>
    </varray>
    <i name="volume">   1268.80515525 </i>
    <varray name="rec_basis" >
     <v>       0.00000000       0.08143009      -0.01994742 </v>
     <v>       0.10937686      -0.00000000       0.00000000 </v>
     <v>       0.00000000       0.00000000      -0.08849011 </v>
    </varray>
   </crystal>
   <varray name="positions" >
    <v>       0.66050800       0.00000000       0.15551579 </v>
    <v>       0.65874487       0.00000000       0.65746193 </v>
    <v>       0.66016030       0.33494225       0.15511037 </v>
    <v>       0.66027753       0.33370282       0.65676405 </v>
    <v>       0.66016030       0.66505775       0.15511037 </v>
    <v>       0.66027753       0.66629718       0.65676405 </v>
    <v>       0.83478553       0.16916744       0.34376899 </v>
    <v>       0.83972740       0.16663187       0.84465807 </v>
    <v>       0.84065339       0.50000000       0.34369363 </v>
    <v>       0.83961174       0.50000000       0.84129976 </v>
    <v>       0.83478553       0.83083256       0.34376899 </v>
    <v>       0.83972740       0.83336813       0.84465807 </v>
    <v>       0.59153674       0.16879266       0.39829790 </v>
    <v>       0.59147078       0.16679186       0.89794384 </v>
    <v>       0.59570684       0.50000000       0.39812619 </v>
    <v>       0.59296016       0.50000000       0.89705339 </v>
    <v>       0.59153674       0.83120734       0.39829790 </v>
    <v>       0.59147078       0.83320814       0.89794384 </v>
    <v>       0.90999856       0.00000000       0.10334339 </v>
    <v>       0.90693539       0.00000000       0.60424689 </v>
    <v>       0.90455112       0.33471718       0.09989155 </v>
    <v>       0.90748755       0.33349461       0.60046142 </v>
    <v>       0.90455112       0.66528282       0.09989155 </v>
    <v>       0.90748755       0.66650539       0.60046142 </v>
    <v>       0.16071833       0.17076746       0.14764933 </v>
    <v>       0.15893829       0.16839468       0.66009840 </v>
    <v>       0.15734398       0.50000000       0.15960931 </v>
    <v>       0.15895295       0.50000000       0.65391569 </v>
    <v>       0.16071833       0.82923254       0.14764933 </v>
    <v>       0.15893829       0.83160532       0.66009840 </v>
    <v>       0.35034331       0.00000000       0.35376785 </v>
    <v>       0.34102578       0.00000000       0.84558497 </v>
    <v>       0.34292015       0.33429149       0.34082932 </v>
    <v>       0.34217205       0.33409951       0.84323596 </v>
    <v>       0.34292015       0.66570851       0.34082932 </v>
    <v>       0.34217205       0.66590049       0.84323596 </v>
    <v>       0.06839284       0.00000000       0.41609533 </v>
    <v>       0.08845761       0.00000000       0.89433934 </v>
    <v>       0.09100419       0.33285566       0.39575661 </v>
    <v>       0.08884782       0.33378042       0.89552482 </v>
    <v>       0.09100419       0.66714434       0.39575661 </v>
    <v>       0.08884782       0.66621958       0.89552482 </v>
    <v>       0.41314040       0.16848462       0.10187079 </v>
    <v>       0.41258898       0.16935298       0.60727808 </v>
    <v>       0.40982436       0.50000000       0.10202346 </v>
    <v>       0.41051520       0.50000000       0.60138938 </v>
    <v>       0.41314040       0.83151538       0.10187079 </v>
    <v>       0.41258898       0.83064702       0.60727808 </v>
    <v>       0.99101069       0.17074213       0.11754560 </v>
    <v>       0.99485522       0.16680872       0.62890975 </v>
    <v>       0.99324636       0.50000000       0.12534644 </v>
    <v>       0.99566552       0.50000000       0.62595585 </v>
    <v>       0.99101069       0.82925787       0.11754560 </v>
    <v>       0.99485522       0.83319128       0.62890975 </v>
    <v>       0.50739183       0.00000000       0.37160873 </v>
    <v>       0.50421287       0.00000000       0.87278905 </v>
    <v>       0.50725910       0.33592495       0.37225591 </v>
    <v>       0.50492050       0.33401818       0.87323239 </v>
    <v>       0.50725910       0.66407505       0.37225591 </v>
    <v>       0.50492050       0.66598182       0.87323239 </v>
    <v>       0.67087491       0.16629201       0.27919196 </v>
    <v>       0.67215424       0.16649234       0.78041027 </v>
    <v>       0.67304016       0.50000000       0.27811270 </v>
    <v>       0.67306394       0.50000000       0.77954039 </v>
    <v>       0.67087491       0.83370799       0.27919196 </v>
    <v>       0.67215424       0.83350766       0.78041027 </v>
    <v>       0.82782272       0.00000000       0.22100709 </v>
    <v>       0.82623012       0.00000000       0.72059926 </v>
    <v>       0.82635204       0.33406528       0.21984575 </v>
    <v>       0.82739812       0.33271967       0.71890861 </v>
    <v>       0.82635204       0.66593472       0.21984575 </v>
    <v>       0.82739812       0.66728033       0.71890861 </v>
    <v>       0.83036963       0.00000000       0.44720481 </v>
    <v>       0.83040048       0.00000000       0.94580191 </v>
    <v>       0.82362535       0.33617633       0.44656324 </v>
    <v>       0.82819960       0.33506402       0.94306484 </v>
    <v>       0.82362535       0.66382367       0.44656324 </v>
    <v>       0.82819960       0.66493598       0.94306484 </v>
    <v>       0.66991592       0.16692145       0.05385570 </v>
    <v>       0.66768918       0.16610758       0.55482313 </v>
    <v>       0.67278810       0.50000000       0.05242007 </v>
    <v>       0.66916291       0.50000000       0.55530060 </v>
    <v>       0.66991592       0.83307855       0.05385570 </v>
    <v>       0.66768918       0.83389242       0.55482313 </v>
    <v>       0.49880058       0.00000000       0.12463991 </v>
    <v>       0.49720683       0.00000000       0.62967755 </v>
    <v>       0.50003842       0.33601684       0.12301548 </v>
    <v>       0.49969712       0.33569533       0.63282576 </v>
    <v>       0.50003842       0.66398316       0.12301548 </v>
    <v>       0.49969712       0.66430467       0.63282576 </v>
    <v>       0.99332837       0.17634524       0.38340834 </v>
    <v>       0.00167314       0.16728463       0.87032794 </v>
    <v>       0.00222326       0.50000000       0.37462305 </v>
    <v>       0.00163120       0.50000000       0.87039925 </v>
    <v>       0.99332837       0.82365476       0.38340834 </v>
    <v>       0.00167314       0.83271537       0.87032794 </v>
    <v>       0.17376646       0.00000000       0.78228125 </v>
    <v>       0.17336927       0.34217921       0.28171865 </v>
    <v>       0.17236481       0.33413888       0.78035810 </v>
    <v>       0.17336927       0.65782079       0.28171865 </v>
    <v>       0.17236481       0.66586112       0.78035810 </v>
    <v>       0.33439210       0.17980462       0.21668715 </v>
    <v>       0.32807258       0.16743354       0.72093055 </v>
    <v>       0.32874097       0.50000000       0.21762074 </v>
    <v>       0.32733448       0.50000000       0.71815892 </v>
    <v>       0.33439210       0.82019538       0.21668715 </v>
    <v>       0.32807258       0.83256646       0.72093055 </v>
    <v>       0.34465684       0.17469324       0.45075071 </v>
    <v>       0.33542792       0.16851828       0.94554846 </v>
    <v>       0.33637679       0.50000000       0.44540851 </v>
    <v>       0.33270727       0.50000000       0.94501386 </v>
    <v>       0.34465684       0.82530676       0.45075071 </v>
    <v>       0.33542792       0.83148172       0.94554846 </v>
    <v>       0.17547241       0.00000000       0.04342363 </v>
    <v>       0.16385266       0.00000000       0.56285086 </v>
    <v>       0.16613637       0.33751953       0.05141818 </v>
    <v>       0.16716154       0.33208927       0.55376900 </v>
    <v>       0.16613637       0.66248047       0.05141818 </v>
    <v>       0.16716154       0.66791073       0.55376900 </v>
    <v>       0.16671645       0.00000000       0.28573925 </v>
   </varray>
  </structure>
  <varray name="primitive_index" >
   <v type="int" >        1 </v>
   <v type="int" >        2 </v>
   <v type="int" >        3 </v>
   <v type="int" >        4 </v>
   <v type="int" >        5 </v>
   <v type="int" >        6 </v>
   <v type="int" >        7 </v>
   <v type="int" >        8 </v>
   <v type="int" >        9 </v>
   <v type="int" >       10 </v>
   <v type="int" >       11 </v>
   <v type="int" >       12 </v>
   <v type="int" >       13 </v>
   <v type="int" >       14 </v>
   <v type="int" >       15 </v>
   <v type="int" >       16 </v>
   <v type="int" >       17 </v>
   <v type="int" >       18 </v>
   <v type="int" >       19 </v>
   <v type="int" >       20 </v>
   <v type="int" >       21 </v>
   <v type="int" >       22 </v>
   <v type="int" >       23 </v>
   <v type="int" >       24 </v>
   <v type="int" >       25 </v>
   <v type="int" >       26 </v>
   <v type="int" >       27 </v>
   <v type="int" >       28 </v>
   <v type="int" >       29 </v>
   <v type="int" >       30 </v>
   <v type="int" >       31 </v>
   <v type="int" >       32 </v>
   <v type="int" >       33 </v>
   <v type="int" >       34 </v>
   <v type="int" >       35 </v>
   <v type="int" >       36 </v>
   <v type="int" >       37 </v>
   <v type="int" >       38 </v>
   <v type="int" >       39 </v>
   <v type="int" >       40 </v>
   <v type="int" >       41 </v>
   <v type="int" >       42 </v>
   <v type="int" >       43 </v>
   <v type="int" >       44 </v>
   <v type="int" >       45 </v>
   <v type="int" >       46 </v>
   <v type="int" >       47 </v>
   <v type="int" >       48 </v>
   <v type="int" >       49 </v>
   <v type="int" >       50 </v>
   <v type="int" >       51 </v>
   <v type="int" >       52 </v>
   <v type="int" >       53 </v>
   <v type="int" >       54 </v>
   <v type="int" >       55 </v>
   <v type="int" >       56 </v>
   <v type="int" >       57 </v>
   <v type="int" >       58 </v>
   <v type="int" >       59 </v>
   <v type="int" >       60 </v>
   <v type="int" >       61 </v>
   <v type="int" >       62 </v>
   <v type="int" >       63 </v>
   <v type="int" >       64 </v>
   <v type="int" >       65 </v>
   <v type="int" >       66 </v>
   <v type="int" >       67 </v>
   <v type="int" >       68 </v>
   <v type="int" >       69 </v>
   <v type="int" >       70 </v>
   <v type="int" >       71 </v>
   <v type="int" >       72 </v>
   <v type="int" >       73 </v>
   <v type="int" >       74 </v>
   <v type="int" >       75 </v>
   <v type="int" >       76 </v>
   <v type="int" >       77 </v>
   <v type="int" >       78 </v>
   <v type="int" >       79 </v>
   <v type="int" >       80 </v>
   <v type="int" >       81 </v>
   <v type="int" >       82 </v>
   <v type="int" >       83 </v>
   <v type="int" >       84 </v>
   <v type="int" >       85 </v>
   <v type="int" >       86 </v>
   <v type="int" >       87 </v>
   <v type="int" >       88 </v>
   <v type="int" >       89 </v>
   <v type="int" >       90 </v>
   <v type="int" >       91 </v>
   <v type="int" >       92 </v>
   <v type="int" >       93 </v>
   <v type="int" >       94 </v>
   <v type="int" >       95 </v>
   <v type="int" >       96 </v>
   <v type="int" >       97 </v>
   <v type="int" >       98 </v>
   <v type="int" >       99 </v>
   <v type="int" >      100 </v>
   <v type="int" >      101 </v>
   <v type="int" >      102 </v>
   <v type="int" >      103 </v>
   <v type="int" >      104 </v>
   <v type="int" >      105 </v>
   <v type="int" >      106 </v>
   <v type="int" >      107 </v>
   <v type="int" >      108 </v>
   <v type="int" >      109 </v>
   <v type="int" >      110 </v>
   <v type="int" >      111 </v>
   <v type="int" >      112 </v>
   <v type="int" >      113 </v>
   <v type="int" >      114 </v>
   <v type="int" >      115 </v>
   <v type="int" >      116 </v>
   <v type="int" >      117 </v>
   <v type="int" >      118 </v>
   <v type="int" >      119 </v>
   <v type="int" >      120 </v>
  </varray>
 </primitive_cell>
 <kpoints>
  <generation param="Gamma">
   <v type="int" name="divisions">       2        2        2 </v>
   <v name="usershift">      0.00000000       0.00000000       0.00000000 </v>
   <v name="genvec1">      0.50000000       0.00000000       0.00000000 </v>
   <v name="genvec2">      0.00000000       0.50000000       0.00000000 </v>
   <v name="genvec3">      0.00000000       0.00000000       0.50000000 </v>
   <v name="shift">      0.00000000       0.00000000       0.00000000 </v>
  </generation>
  <varray name="kpointlist" >
   <v>       0.00000000       0.00000000       0.00000000 </v>
   <v>       0.50000000       0.00000000       0.00000000 </v>
   <v>       0.00000000       0.50000000       0.00000000 </v>
   <v>       0.50000000       0.50000000       0.00000000 </v>
   <v>       0.00000000       0.00000000       0.50000000 </v>
   <v>       0.50000000       0.00000000       0.50000000 </v>
   <v>       0.00000000       0.50000000       0.50000000 </v>
   <v>       0.50000000       0.50000000       0.50000000 </v>
  </varray>
  <varray name="weights" >
   <v>       0.12500000 </v>
   <v>       0.12500000 </v>
   <v>       0.12500000 </v>
   <v>       0.12500000 </v>
   <v>       0.12500000 </v>
   <v>       0.12500000 </v>
   <v>       0.12500000 </v>
   <v>       0.12500000 </v>
  </varray>
 </kpoints>
 <parameters>
  <separator name="general" >
   <i type="string" name="SYSTEM">unknown system</i>
   <i type="logical" name="LCOMPAT"> F  </i>
  </separator>
  <separator name="electronic" >
   <i type="string" name="PREC">normal</i>
   <i name="ENMAX">    450.00000000</i>
   <i name="ENAUG">    605.39200000</i>
   <i name="EDIFF">      0.00001000</i>
   <i type="int" name="IALGO">    58</i>
   <i type="int" name="IWAVPR">    10</i>
   <i type="int" name="NBANDS">   633</i>
   <i type="int" name="NBANDSLOW">    -1</i>
   <i type="int" name="NBANDSHIGH">    -1</i>
   <i name="NELECT">   1056.00000000</i>
   <i type="int" name="TURBO">     0</i>
   <i type="int" name="IRESTART">     0</i>
   <i type="int" name="NREBOOT">     0</i>
   <i type="int" name="NMIN">     0</i>
   <i name="EREF">      0.00000000</i>
   <separator name="electronic smearing" >
    <i type="int" name="ISMEAR">     0</i>
    <i name="SIGMA">      0.05000000</i>
    <i name="KSPACING">      0.50000000</i>
    <i type="logical" name="KGAMMA"> T  </i>
    <i type="logical" name="KBLOWUP"> T  </i>
   </separator>
   <separator name="electronic projectors" >
    <i type="logical" name="LREAL"> T  </i>
    <v name="ROPT">     -0.00050000     -0.00050000     -0.00050000</v>
    <i type="int" name="LMAXPAW">  -100</i>
    <i type="int" name="LMAXMIX">     2</i>
    <i type="logical" name="NLSPLINE"> F  </i>
   </separator>
   <separator name="electronic startup" >
    <i type="int" name="ISTART">     0</i>
    <i type="int" name="ICHARG">     0</i>
    <i type="int" name="INIWAV">     1</i>
   </separator>
   <separator name="electronic spin" >
    <i type="int" name="ISPIN">     1</i>
    <i type="logical" name="LNONCOLLINEAR"> F  </i>
    <v name="MAGMOM">      1.00000000      1.00000000      1.00000000      1.00000000      1.00000000      1.00000000      1.00000000      1.00000000      1.00000000      1.00000000      1.00000000      1.00000000      1.00000000      1.00000000      1.00000000      1.00000000      1.00000000      1.00000000      1.00000000      1.00000000
      1.00000000      1.00000000      1.00000000      1.00000000      1.00000000      1.00000000      1.00000000      1.00000000      1.00000000      1.00000000      1.00000000      1.00000000      1.00000000      1.00000000      1.00000000      1.00000000      1.00000000      1.00000000      1.00000000      1.00000000
      1.00000000      1.00000000      1.00000000      1.00000000      1.00000000      1.00000000      1.00000000      1.00000000      1.00000000      1.00000000      1.00000000      1.00000000      1.00000000      1.00000000      1.00000000      1.00000000      1.00000000      1.00000000      1.00000000      1.00000000
      1.00000000      1.00000000      1.00000000      1.00000000      1.00000000      1.00000000      1.00000000      1.00000000      1.00000000      1.00000000      1.00000000      1.00000000      1.00000000      1.00000000      1.00000000      1.00000000      1.00000000      1.00000000      1.00000000      1.00000000
      1.00000000      1.00000000      1.00000000      1.00000000      1.00000000      1.00000000      1.00000000      1.00000000      1.00000000      1.00000000      1.00000000      1.00000000      1.00000000      1.00000000      1.00000000      1.00000000      1.00000000      1.00000000      1.00000000      1.00000000
      1.00000000      1.00000000      1.00000000      1.00000000      1.00000000      1.00000000      1.00000000      1.00000000      1.00000000      1.00000000      1.00000000      1.00000000      1.00000000      1.00000000      1.00000000      1.00000000      1.00000000      1.00000000      1.00000000      1.00000000
</v>
    <i name="NUPDOWN">     -1.00000000</i>
    <i type="logical" name="LSORBIT"> F  </i>
    <v name="SAXIS">      0.00000000      0.00000000      1.00000000</v>
    <i type="logical" name="LSPIRAL"> F  </i>
    <v name="QSPIRAL">      0.00000000      0.00000000      0.00000000</v>
    <i type="logical" name="LZEROZ"> F  </i>
   </separator>
   <separator name="electronic exchange-correlation" >
    <i type="logical" name="LASPH"> F  </i>
    <i type="logical" name="LMETAGGA"> F  </i>
   </separator>
   <separator name="electronic convergence" >
    <i type="int" name="NELM">   500</i>
    <i type="int" name="NELMDL">    -5</i>
    <i type="int" name="NELMIN">     2</i>
    <i name="ENINI">    450.00000000</i>
    <separator name="electronic convergence detail" >
     <i type="logical" name="LDIAG"> T  </i>
     <i type="logical" name="LSUBROT"> F  </i>
     <i name="WEIMIN">      0.00000000</i>
     <i name="EBREAK">      0.00000000</i>
     <i name="DEPER">      0.30000000</i>
     <i type="int" name="NRMM">     4</i>
     <i name="TIME">      0.40000000</i>
    </separator>
   </separator>
   <separator name="electronic mixer" >
    <i name="AMIX">      0.40000000</i>
    <i name="BMIX">      1.00000000</i>
    <i name="AMIN">      0.10000000</i>
    <i name="AMIX_MAG">      1.60000000</i>
    <i name="BMIX_MAG">      1.00000000</i>
    <separator name="electronic mixer details" >
     <i type="int" name="IMIX">     4</i>
     <i type="logical" name="MIXFIRST"> F  </i>
     <i type="int" name="MAXMIX">   -45</i>
     <i name="WC">    100.00000000</i>
     <i type="int" name="INIMIX">     1</i>
     <i type="int" name="MIXPRE">     1</i>
     <i type="int" name="MREMOVE">     5</i>
    </separator>
   </separator>
   <separator name="electronic dipolcorrection" >
    <i type="logical" name="LDIPOL"> F  </i>
    <i type="logical" name="LMONO"> F  </i>
    <i type="int" name="IDIPOL">     0</i>
    <i name="EPSILON">      1.00000000</i>
    <v name="DIPOL">   -100.00000000   -100.00000000   -100.00000000</v>
    <i name="EFIELD">      0.00000000</i>
   </separator>
  </separator>
  <separator name="grids" >
   <i type="int" name="NGX">    64</i>
   <i type="int" name="NGY">    48</i>
   <i type="int" name="NGZ">    60</i>
   <i type="int" name="NGXF">   128</i>
   <i type="int" name="NGYF">    96</i>
   <i type="int" name="NGZF">   120</i>
   <i type="logical" name="ADDGRID"> F  </i>
  </separator>
  <separator name="ionic" >
   <i type="int" name="NSW">     0</i>
   <i type="int" name="IBRION">    -1</i>
   <i type="int" name="MDALGO">     0</i>
   <i type="int" name="ISIF">     2</i>
   <i name="PSTRESS">      0.00000000</i>
   <i name="EDIFFG">     -0.00500000</i>
   <i type="int" name="NFREE">     0</i>
   <i name="POTIM">      0.50000000</i>
   <i name="SMASS">     -3.00000000</i>
   <i name="SCALEE">      1.00000000</i>
  </separator>
  <separator name="ionic md" >
   <i name="TEBEG">      0.00010000</i>
   <i name="TEEND">      0.00010000</i>
   <i type="int" name="NBLOCK">     1</i>
   <i type="int" name="KBLOCK">     1</i>
   <i type="int" name="NPACO">   256</i>
   <i name="APACO">     10.00000000</i>
  </separator>
  <separator name="symmetry" >
   <i type="int" name="ISYM">     3</i>
   <i name="SYMPREC">      0.00001000</i>
  </separator>
  <separator name="dos" >
   <i type="int" name="LORBIT">     0</i>
   <v name="RWIGS">     -1.00000000     -1.00000000     -1.00000000</v>
   <i type="int" name="NEDOS">   301</i>
   <i name="EMIN">     10.00000000</i>
   <i name="EMAX">    -10.00000000</i>
   <i name="EFERMI">      0.00000000</i>
  </separator>
  <separator name="writing" >
   <i type="int" name="NWRITE">     2</i>
   <i type="logical" name="LWAVE"> T  </i>
   <i type="logical" name="LDOWNSAMPLE"> F  </i>
   <i type="logical" name="LCHARG"> T  </i>
   <i type="logical" name="LPARD"> F  </i>
   <i type="logical" name="LVTOT"> F  </i>
   <i type="logical" name="LVHAR"> F  </i>
   <i type="logical" name="LELF"> F  </i>
   <i type="logical" name="LOPTICS"> F  </i>
   <v name="STM">      0.00000000      0.00000000      0.00000000      0.00000000      0.00000000      0.00000000      0.00000000</v>
  </separator>
  <separator name="performance" >
   <i type="int" name="NPAR">     1</i>
   <i type="int" name="NSIM">     4</i>
   <i type="int" name="NBLK">    -1</i>
   <i type="logical" name="LPLANE"> T  </i>
   <i type="logical" name="LSCALAPACK"> T  </i>
   <i type="logical" name="LSCAAWARE"> F  </i>
   <i type="logical" name="LSCALU"> F  </i>
   <i type="logical" name="LASYNC"> F  </i>
   <i type="logical" name="LORBITALREAL"> F  </i>
  </separator>
  <separator name="miscellaneous" >
   <i type="int" name="IDIOT">     3</i>
   <i type="int" name="PHON_NSTRUCT">    -1</i>
   <i type="logical" name="LMUSIC"> F  </i>
   <v name="POMASS">     69.72300000     16.00000000     30.97400000</v>
   <v name="DARWINR">      0.00000000      0.00000000      0.00000000</v>
   <v name="DARWINV">      1.00000000      1.00000000      1.00000000</v>
   <i type="logical" name="LCORR"> T  </i>
  </separator>
  <i type="logical" name="GGA_COMPAT"> T  </i>
  <i type="logical" name="LBERRY"> F  </i>
  <i type="int" name="ICORELEVEL">     0</i>
  <i type="logical" name="LDAU"> F  </i>
  <i type="int" name="I_CONSTRAINED_M">     0</i>
  <separator name="electronic exchange-correlation" >
   <i type="string" name="GGA">--</i>
   <i type="int" name="VOSKOWN">     0</i>
   <i type="logical" name="LHFCALC"> T  </i>
   <i type="string" name="PRECFOCK">fast</i>
   <i type="logical" name="LSYMGRAD"> F  </i>
   <i type="logical" name="LHFONE"> F  </i>
   <i type="logical" name="LRHFCALC"> F  </i>
   <i type="logical" name="LTHOMAS"> F  </i>
   <i type="logical" name="LMODELHF"> F  </i>
   <i type="logical" name="LFOCKACE"> T  </i>
   <i name="ENCUT4O">     -1.00000000</i>
   <i type="int" name="EXXOEP">     0</i>
   <i type="int" name="FOURORBIT">     0</i>
   <i name="AEXX">      0.32000000</i>
   <i name="HFALPHA">     -1.00000000</i>
   <i name="MCALPHA">      0.00000000</i>
   <i name="ALDAX">      0.68000000</i>
   <i name="AGGAX">      0.68000000</i>
   <i name="ALDAC">      1.00000000</i>
   <i name="AGGAC">      1.00000000</i>
   <i type="int" name="NKREDX">     1</i>
   <i type="int" name="NKREDY">     1</i>
   <i type="int" name="NKREDZ">     1</i>
   <i type="logical" name="SHIFTRED"> F  </i>
   <i type="logical" name="ODDONLY"> F  </i>
   <i type="logical" name="EVENONLY"> F  </i>
   <i type="int" name="LMAXFOCK">     4</i>
   <i type="int" name="NMAXFOCKAE">     1</i>
   <i type="logical" name="LFOCKAEDFT"> F  </i>
   <i name="HFSCREEN">      0.20000000</i>
   <i name="HFSCREENC">      0.20000000</i>
   <i type="int" name="NBANDSGWLOW">     1</i>
  </separator>
  <separator name="vdW DFT" >
   <i type="logical" name="LUSE_VDW"> F  </i>
   <i type="int" name="IVDW_NL">     1</i>
   <i type="logical" name="LSPIN_VDW"> F  </i>
   <i name="Zab_VDW">     -0.84910000</i>
   <i name="PARAM1">      0.12340000</i>
   <i name="PARAM2">      1.00000000</i>
   <i name="PARAM3">      0.00000000</i>
  </separator>
  <separator name="model GW" >
   <i type="int" name="MODEL_GW">     0</i>
   <i name="MODEL_EPS0">      6.34402578</i>
   <i name="MODEL_ALPHA">      1.00000000</i>
  </separator>
  <separator name="linear response parameters" >
   <i type="logical" name="LEPSILON"> F  </i>
   <i type="logical" name="LRPA"> F  </i>
   <i type="logical" name="LNABLA"> F  </i>
   <i type="logical" name="LVEL"> F  </i>
   <i name="CSHIFT">      0.10000000</i>
   <i name="OMEGAMAX">     -1.00000000</i>
   <i name="DEG_THRESHOLD">      0.00200000</i>
   <i name="RTIME">     -0.10000000</i>
   <i name="WPLASMAI">      0.00000000</i>
   <v name="DFIELD">      0.00000000      0.00000000      0.00000000</v>
   <v name="WPLASMA">      0.00000000      0.00000000      0.00000000      0.00000000      0.00000000      0.00000000      0.00000000      0.00000000      0.00000000</v>
  </separator>
  <separator name="orbital magnetization" >
   <i type="logical" name="NUCIND"> F  </i>
   <v name="MAGPOS">      0.00000000      0.00000000      0.00000000</v>
   <i type="logical" name="LNICSALL"> T  </i>
   <i type="logical" name="ORBITALMAG"> F  </i>
   <i type="logical" name="LMAGBLOCH"> F  </i>
   <i type="logical" name="LCHIMAG"> F  </i>
   <i type="logical" name="LGAUGE"> T  </i>
   <i type="int" name="MAGATOM">     0</i>
   <v name="MAGDIPOL">      0.00000000      0.00000000      0.00000000</v>
   <v name="AVECCONST">      0.00000000      0.00000000      0.00000000</v>
  </separator>
  <separator name="response functions" >
   <i type="logical" name="LALL_IN_ONE"> F  </i>
   <i type="int" name="IALL_IN_ONE">    -1</i>
   <i type="int" name="NBANDS_WAVE">    -1</i>
   <i type="logical" name="LFINITE_TEMPERATURE"> F  </i>
   <i type="logical" name="LADDER"> F  </i>
   <i type="logical" name="LRPAFORCE"> F  </i>
   <i type="logical" name="LFXC"> F  </i>
   <i type="logical" name="LHARTREE"> T  </i>
   <i type="int" name="IBSE">     0</i>
   <v type="int" name="KPOINT">    -1     0     0     0</v>
   <i type="logical" name="LTCTC"> F  </i>
   <i type="logical" name="LTCTE"> F  </i>
   <i type="logical" name="LTETE"> F  </i>
   <i type="logical" name="LTRIPLET"> F  </i>
   <i type="logical" name="LFXCEPS"> F  </i>
   <i type="logical" name="LFXHEG"> F  </i>
   <i type="int" name="NATURALO">     2</i>
   <i type="logical" name="LHOLEGF"> F  </i>
   <i type="logical" name="L2ORDER"> F  </i>
   <i type="logical" name="LDMP1"> F  </i>
   <i type="logical" name="LMP2LT"> F  </i>
   <i type="logical" name="LSMP2LT"> F  </i>
   <i type="logical" name="LGWLF"> F  </i>
   <i name="ENCUTGW">     -1.60000002</i>
   <i name="ENCUTGWSOFT">     -1.60000002</i>
   <i name="ENCUTLF">     -1.00000000</i>
   <i type="logical" name="LESF_SPLINES"> F  </i>
   <i type="int" name="LMAXMP2">    -1</i>
   <i name="SCISSOR">      0.00000000</i>
   <i type="int" name="NOMEGA">     0</i>
   <i type="int" name="NOMEGAR">     0</i>
   <i type="int" name="NBANDSGW">    -1</i>
   <i type="int" name="NBANDSO">    -1</i>
   <i type="int" name="NBANDSV">    -1</i>
   <i type="int" name="NELMGW">     1</i>
   <i type="int" name="NELMHF">     1</i>
   <i type="int" name="DIM">     3</i>
   <i type="int" name="IESPILON">     4</i>
   <i type="int" name="ANTIRES">     0</i>
   <i name="OMEGAMAX">    -30.00000000</i>
   <i name="OMEGAMIN">    -30.00000000</i>
   <i name="OMEGATL">   -200.00000000</i>
   <i type="int" name="OMEGAGRID">     0</i>
   <i name="CSHIFT">     -0.10000000</i>
   <i type="logical" name="LSELFENERGY"> F  </i>
   <i type="logical" name="LSPECTRAL"> F  </i>
   <i type="logical" name="LSPECTRALGW"> F  </i>
   <i type="logical" name="LSINGLES"> F  </i>
   <i type="logical" name="LFERMIGW"> F  </i>
   <i type="logical" name="ODDONLYGW"> F  </i>
   <i type="logical" name="EVENONLYGW"> F  </i>
   <i type="int" name="NKREDLFX">     1</i>
   <i type="int" name="NKREDLFY">     1</i>
   <i type="int" name="NKREDLFZ">     1</i>
   <i type="int" name="MAXMEM">  2800</i>
   <i type="int" name="TELESCOPE">     0</i>
   <i type="int" name="NTAUPAR">    -1</i>
   <i type="int" name="NOMEGAPAR">    -1</i>
   <i name="DAMP_NEWTON">      0.80000001</i>
   <i name="LAMBDA">      1.00000000</i>
  </separator>
  <separator name="External order field" >
   <i name="OFIELD_KAPPA">      0.00000000</i>
   <v name="OFIELD_K">      0.00000000      0.00000000      0.00000000</v>
   <i name="OFIELD_Q6_NEAR">      0.00000000</i>
   <i name="OFIELD_Q6_FAR">      0.00000000</i>
   <i name="OFIELD_A">      0.00000000</i>
  </separator>
  <separator name="optional k-points parameters" >
   <i type="int" name="KPOINTS_OPT_MODE">     1</i>
   <i type="logical" name="LKPOINTS_OPT"> F  </i>
  </separator>
 </parameters>
 <atominfo>
  <atoms>     120 </atoms>
  <types>       3 </types>
  <array name="atoms" >
   <dimension dim="1">ion</dimension>
   <field type="string">element</field>
   <field type="int">atomtype</field>
   <set>
    <rc><c>Ga</c><c>   1</c></rc>
    <rc><c>Ga</c><c>   1</c></rc>
    <rc><c>Ga</c><c>   1</c></rc>
    <rc><c>Ga</c><c>   1</c></rc>
    <rc><c>Ga</c><c>   1</c></rc>
    <rc><c>Ga</c><c>   1</c></rc>
    <rc><c>Ga</c><c>   1</c></rc>
    <rc><c>Ga</c><c>   1</c></rc>
    <rc><c>Ga</c><c>   1</c></rc>
    <rc><c>Ga</c><c>   1</c></rc>
    <rc><c>Ga</c><c>   1</c></rc>
    <rc><c>Ga</c><c>   1</c></rc>
    <rc><c>Ga</c><c>   1</c></rc>
    <rc><c>Ga</c><c>   1</c></rc>
    <rc><c>Ga</c><c>   1</c></rc>
    <rc><c>Ga</c><c>   1</c></rc>
    <rc><c>Ga</c><c>   1</c></rc>
    <rc><c>Ga</c><c>   1</c></rc>
    <rc><c>Ga</c><c>   1</c></rc>
    <rc><c>Ga</c><c>   1</c></rc>
    <rc><c>Ga</c><c>   1</c></rc>
    <rc><c>Ga</c><c>   1</c></rc>
    <rc><c>Ga</c><c>   1</c></rc>
    <rc><c>Ga</c><c>   1</c></rc>
    <rc><c>Ga</c><c>   1</c></rc>
    <rc><c>Ga</c><c>   1</c></rc>
    <rc><c>Ga</c><c>   1</c></rc>
    <rc><c>Ga</c><c>   1</c></rc>
    <rc><c>Ga</c><c>   1</c></rc>
    <rc><c>Ga</c><c>   1</c></rc>
    <rc><c>Ga</c><c>   1</c></rc>
    <rc><c>Ga</c><c>   1</c></rc>
    <rc><c>Ga</c><c>   1</c></rc>
    <rc><c>Ga</c><c>   1</c></rc>
    <rc><c>Ga</c><c>   1</c></rc>
    <rc><c>Ga</c><c>   1</c></rc>
    <rc><c>Ga</c><c>   1</c></rc>
    <rc><c>Ga</c><c>   1</c></rc>
    <rc><c>Ga</c><c>   1</c></rc>
    <rc><c>Ga</c><c>   1</c></rc>
    <rc><c>Ga</c><c>   1</c></rc>
    <rc><c>Ga</c><c>   1</c></rc>
    <rc><c>Ga</c><c>   1</c></rc>
    <rc><c>Ga</c><c>   1</c></rc>
    <rc><c>Ga</c><c>   1</c></rc>
    <rc><c>Ga</c><c>   1</c></rc>
    <rc><c>Ga</c><c>   1</c></rc>
    <rc><c>Ga</c><c>   1</c></rc>
    <rc><c>O </c><c>   2</c></rc>
    <rc><c>O </c><c>   2</c></rc>
    <rc><c>O </c><c>   2</c></rc>
    <rc><c>O </c><c>   2</c></rc>
    <rc><c>O </c><c>   2</c></rc>
    <rc><c>O </c><c>   2</c></rc>
    <rc><c>O </c><c>   2</c></rc>
    <rc><c>O </c><c>   2</c></rc>
    <rc><c>O </c><c>   2</c></rc>
    <rc><c>O </c><c>   2</c></rc>
    <rc><c>O </c><c>   2</c></rc>
    <rc><c>O </c><c>   2</c></rc>
    <rc><c>O </c><c>   2</c></rc>
    <rc><c>O </c><c>   2</c></rc>
    <rc><c>O </c><c>   2</c></rc>
    <rc><c>O </c><c>   2</c></rc>
    <rc><c>O </c><c>   2</c></rc>
    <rc><c>O </c><c>   2</c></rc>
    <rc><c>O </c><c>   2</c></rc>
    <rc><c>O </c><c>   2</c></rc>
    <rc><c>O </c><c>   2</c></rc>
    <rc><c>O </c><c>   2</c></rc>
    <rc><c>O </c><c>   2</c></rc>
    <rc><c>O </c><c>   2</c></rc>
    <rc><c>O </c><c>   2</c></rc>
    <rc><c>O </c><c>   2</c></rc>
    <rc><c>O </c><c>   2</c></rc>
    <rc><c>O </c><c>   2</c></rc>
    <rc><c>O </c><c>   2</c></rc>
    <rc><c>O </c><c>   2</c></rc>
    <rc><c>O </c><c>   2</c></rc>
    <rc><c>O </c><c>   2</c></rc>
    <rc><c>O </c><c>   2</c></rc>
    <rc><c>O </c><c>   2</c></rc>
    <rc><c>O </c><c>   2</c></rc>
    <rc><c>O </c><c>   2</c></rc>
    <rc><c>O </c><c>   2</c></rc>
    <rc><c>O </c><c>   2</c></rc>
    <rc><c>O </c><c>   2</c></rc>
    <rc><c>O </c><c>   2</c></rc>
    <rc><c>O </c><c>   2</c></rc>
    <rc><c>O </c><c>   2</c></rc>
    <rc><c>O </c><c>   2</c></rc>
    <rc><c>O </c><c>   2</c></rc>
    <rc><c>O </c><c>   2</c></rc>
    <rc><c>O </c><c>   2</c></rc>
    <rc><c>O </c><c>   2</c></rc>
    <rc><c>O </c><c>   2</c></rc>
    <rc><c>O </c><c>   2</c></rc>
    <rc><c>O </c><c>   2</c></rc>
    <rc><c>O </c><c>   2</c></rc>
    <rc><c>O </c><c>   2</c></rc>
    <rc><c>O </c><c>   2</c></rc>
    <rc><c>O </c><c>   2</c></rc>
    <rc><c>O </c><c>   2</c></rc>
    <rc><c>O </c><c>   2</c></rc>
    <rc><c>O </c><c>   2</c></rc>
    <rc><c>O </c><c>   2</c></rc>
    <rc><c>O </c><c>   2</c></rc>
    <rc><c>O </c><c>   2</c></rc>
    <rc><c>O </c><c>   2</c></rc>
    <rc><c>O </c><c>   2</c></rc>
    <rc><c>O </c><c>   2</c></rc>
    <rc><c>O </c><c>   2</c></rc>
    <rc><c>O </c><c>   2</c></rc>
    <rc><c>O </c><c>   2</c></rc>
    <rc><c>O </c><c>   2</c></rc>
    <rc><c>O </c><c>   2</c></rc>
    <rc><c>O </c><c>   2</c></rc>
    <rc><c>O </c><c>   2</c></rc>
    <rc><c>O </c><c>   2</c></rc>
    <rc><c>P </c><c>   3</c></rc>
   </set>
  </array>
  <array name="atomtypes" >
   <dimension dim="1">type</dimension>
   <field type="int">atomspertype</field>
   <field type="string">element</field>
   <field>mass</field>
   <field>valence</field>
   <field type="string">pseudopotential</field>
   <set>
    <rc><c>  48</c><c>Ga</c><c>     69.72300000</c><c>     13.00000000</c><c>  PAW_PBE Ga_d 06Jul2010                </c></rc>
    <rc><c>  71</c><c>O </c><c>     16.00000000</c><c>      6.00000000</c><c>   PAW_PBE O 08Apr2002                  </c></rc>
    <rc><c>   1</c><c>P </c><c>     30.97400000</c><c>      5.00000000</c><c>  PAW_PBE P 06Sep2000                   </c></rc>
   </set>
  </array>
 </atominfo>
 <structure name="initialpos" >
  <crystal>
   <varray name="basis" >
    <v>       0.00000000      12.28047342       0.00000000 </v>
    <v>       9.14270205       0.00000000       0.00000000 </v>
    <v>       0.00000000      -2.76826177     -11.30069772 </v>
   </varray>
   <i name="volume">   1268.80515525 </i>
   <varray name="rec_basis" >
    <v>       0.00000000       0.08143009      -0.01994742 </v>
    <v>       0.10937686      -0.00000000       0.00000000 </v>
    <v>       0.00000000       0.00000000      -0.08849011 </v>
   </varray>
  </crystal>
  <varray name="positions" >
   <v>       0.66050800       0.00000000       0.15551579 </v>
   <v>       0.65874487       0.00000000       0.65746193 </v>
   <v>       0.66016030       0.33494225       0.15511037 </v>
   <v>       0.66027753       0.33370282       0.65676405 </v>
   <v>       0.66016030       0.66505775       0.15511037 </v>
   <v>       0.66027753       0.66629718       0.65676405 </v>
   <v>       0.83478553       0.16916744       0.34376899 </v>
   <v>       0.83972740       0.16663187       0.84465807 </v>
   <v>       0.84065339       0.50000000       0.34369363 </v>
   <v>       0.83961174       0.50000000       0.84129976 </v>
   <v>       0.83478553       0.83083256       0.34376899 </v>
   <v>       0.83972740       0.83336813       0.84465807 </v>
   <v>       0.59153674       0.16879266       0.39829790 </v>
   <v>       0.59147078       0.16679186       0.89794384 </v>
   <v>       0.59570684       0.50000000       0.39812619 </v>
   <v>       0.59296016       0.50000000       0.89705339 </v>
   <v>       0.59153674       0.83120734       0.39829790 </v>
   <v>       0.59147078       0.83320814       0.89794384 </v>
   <v>       0.90999856       0.00000000       0.10334339 </v>
   <v>       0.90693539       0.00000000       0.60424689 </v>
   <v>       0.90455112       0.33471718       0.09989155 </v>
   <v>       0.90748755       0.33349461       0.60046142 </v>
   <v>       0.90455112       0.66528282       0.09989155 </v>
   <v>       0.90748755       0.66650539       0.60046142 </v>
   <v>       0.16071833       0.17076746       0.14764933 </v>
   <v>       0.15893829       0.16839468       0.66009840 </v>
   <v>       0.15734398       0.50000000       0.15960931 </v>
   <v>       0.15895295       0.50000000       0.65391569 </v>
   <v>       0.16071833       0.82923254       0.14764933 </v>
   <v>       0.15893829       0.83160532       0.66009840 </v>
   <v>       0.35034331       0.00000000       0.35376785 </v>
   <v>       0.34102578       0.00000000       0.84558497 </v>
   <v>       0.34292015       0.33429149       0.34082932 </v>
   <v>       0.34217205       0.33409951       0.84323596 </v>
   <v>       0.34292015       0.66570851       0.34082932 </v>
   <v>       0.34217205       0.66590049       0.84323596 </v>
   <v>       0.06839284       0.00000000       0.41609533 </v>
   <v>       0.08845761       0.00000000       0.89433934 </v>
   <v>       0.09100419       0.33285566       0.39575661 </v>
   <v>       0.08884782       0.33378042       0.89552482 </v>
   <v>       0.09100419       0.66714434       0.39575661 </v>
   <v>       0.08884782       0.66621958       0.89552482 </v>
   <v>       0.41314040       0.16848462       0.10187079 </v>
   <v>       0.41258898       0.16935298       0.60727808 </v>
   <v>       0.40982436       0.50000000       0.10202346 </v>
   <v>       0.41051520       0.50000000       0.60138938 </v>
   <v>       0.41314040       0.83151538       0.10187079 </v>
   <v>       0.41258898       0.83064702       0.60727808 </v>
   <v>       0.99101069       0.17074213       0.11754560 </v>
   <v>       0.99485522       0.16680872       0.62890975 </v>
   <v>       0.99324636       0.50000000       0.12534644 </v>
   <v>       0.99566552       0.50000000       0.62595585 </v>
   <v>       0.99101069       0.82925787       0.11754560 </v>
   <v>       0.99485522       0.83319128       0.62890975 </v>
   <v>       0.50739183       0.00000000       0.37160873 </v>
   <v>       0.50421287       0.00000000       0.87278905 </v>
   <v>       0.50725910       0.33592495       0.37225591 </v>
   <v>       0.50492050       0.33401818       0.87323239 </v>
   <v>       0.50725910       0.66407505       0.37225591 </v>
   <v>       0.50492050       0.66598182       0.87323239 </v>
   <v>       0.67087491       0.16629201       0.27919196 </v>
   <v>       0.67215424       0.16649234       0.78041027 </v>
   <v>       0.67304016       0.50000000       0.27811270 </v>
   <v>       0.67306394       0.50000000       0.77954039 </v>
   <v>       0.67087491       0.83370799       0.27919196 </v>
   <v>       0.67215424       0.83350766       0.78041027 </v>
   <v>       0.82782272       0.00000000       0.22100709 </v>
   <v>       0.82623012       0.00000000       0.72059926 </v>
   <v>       0.82635204       0.33406528       0.21984575 </v>
   <v>       0.82739812       0.33271967       0.71890861 </v>
   <v>       0.82635204       0.66593472       0.21984575 </v>
   <v>       0.82739812       0.66728033       0.71890861 </v>
   <v>       0.83036963       0.00000000       0.44720481 </v>
   <v>       0.83040048       0.00000000       0.94580191 </v>
   <v>       0.82362535       0.33617633       0.44656324 </v>
   <v>       0.82819960       0.33506402       0.94306484 </v>
   <v>       0.82362535       0.66382367       0.44656324 </v>
   <v>       0.82819960       0.66493598       0.94306484 </v>
   <v>       0.66991592       0.16692145       0.05385570 </v>
   <v>       0.66768918       0.16610758       0.55482313 </v>
   <v>       0.67278810       0.50000000       0.05242007 </v>
   <v>       0.66916291       0.50000000       0.55530060 </v>
   <v>       0.66991592       0.83307855       0.05385570 </v>
   <v>       0.66768918       0.83389242       0.55482313 </v>
   <v>       0.49880058       0.00000000       0.12463991 </v>
   <v>       0.49720683       0.00000000       0.62967755 </v>
   <v>       0.50003842       0.33601684       0.12301548 </v>
   <v>       0.49969712       0.33569533       0.63282576 </v>
   <v>       0.50003842       0.66398316       0.12301548 </v>
   <v>       0.49969712       0.66430467       0.63282576 </v>
   <v>       0.99332837       0.17634524       0.38340834 </v>
   <v>       0.00167314       0.16728463       0.87032794 </v>
   <v>       0.00222326       0.50000000       0.37462305 </v>
   <v>       0.00163120       0.50000000       0.87039925 </v>
   <v>       0.99332837       0.82365476       0.38340834 </v>
   <v>       0.00167314       0.83271537       0.87032794 </v>
   <v>       0.17376646       0.00000000       0.78228125 </v>
   <v>       0.17336927       0.34217921       0.28171865 </v>
   <v>       0.17236481       0.33413888       0.78035810 </v>
   <v>       0.17336927       0.65782079       0.28171865 </v>
   <v>       0.17236481       0.66586112       0.78035810 </v>
   <v>       0.33439210       0.17980462       0.21668715 </v>
   <v>       0.32807258       0.16743354       0.72093055 </v>
   <v>       0.32874097       0.50000000       0.21762074 </v>
   <v>       0.32733448       0.50000000       0.71815892 </v>
   <v>       0.33439210       0.82019538       0.21668715 </v>
   <v>       0.32807258       0.83256646       0.72093055 </v>
   <v>       0.34465684       0.17469324       0.45075071 </v>
   <v>       0.33542792       0.16851828       0.94554846 </v>
   <v>       0.33637679       0.50000000       0.44540851 </v>
   <v>       0.33270727       0.50000000       0.94501386 </v>
   <v>       0.34465684       0.82530676       0.45075071 </v>
   <v>       0.33542792       0.83148172       0.94554846 </v>
   <v>       0.17547241       0.00000000       0.04342363 </v>
   <v>       0.16385266       0.00000000       0.56285086 </v>
   <v>       0.16613637       0.33751953       0.05141818 </v>
   <v>       0.16716154       0.33208927       0.55376900 </v>
   <v>       0.16613637       0.66248047       0.05141818 </v>
   <v>       0.16716154       0.66791073       0.55376900 </v>
   <v>       0.16671645       0.00000000       0.28573925 </v>
  </varray>
 </structure>
 <calculation>
  <scstep>
   <time name="total">    4.00    4.01</time>
   <energy>
    <i name="alphaZ">   5529.70323211 </i>
    <i name="ewald"> -88550.87271456 </i>
    <i name="hartreedc">  -2120.67838164 </i>
    <i name="XCdc">   2796.64281289 </i>
    <i name="pawpsdc"> 339425.14578583 </i>
    <i name="pawaedc">-368765.86705723 </i>
    <i name="eentropy">     -0.01086692 </i>
    <i name="bandstr"> -40735.01359722 </i>
    <i name="atom"> 133646.93285989 </i>
    <i name="e_fr_energy"> -18774.01792685 </i>
    <i name="e_wo_entrp"> -18774.00705993 </i>
    <i name="e_0_energy"> -18774.01249339 </i>
   </energy>
  </scstep>
  <scstep>
   <time name="total">    3.17    3.17</time>
   <energy>
    <i name="e_fr_energy"> -63453.63451466 </i>
    <i name="e_wo_entrp"> -63453.61041390 </i>
    <i name="e_0_energy"> -63453.62246428 </i>
   </energy>
  </scstep>
  <scstep>
   <time name="total">    3.35    3.35</time>
   <energy>
    <i name="e_fr_energy"> -68573.99335171 </i>
    <i name="e_wo_entrp"> -68573.97133284 </i>
    <i name="e_0_energy"> -68573.98234228 </i>
   </energy>
  </scstep>
  <scstep>
   <time name="total">    3.90    3.90</time>
   <energy>
    <i name="e_fr_energy"> -69306.88180962 </i>
    <i name="e_wo_entrp"> -69306.85305480 </i>
    <i name="e_0_energy"> -69306.86743221 </i>
   </energy>
  </scstep>
  <scstep>
   <time name="total">  236.33  236.34</time>
   <energy>
    <i name="e_fr_energy"> -39172.89878062 </i>
    <i name="e_wo_entrp"> -39172.89878062 </i>
    <i name="e_0_energy"> -39172.89878062 </i>
   </energy>
  </scstep>
  <scstep>
   <time name="total">  472.06  472.05</time>
   <energy>
    <i name="e_fr_energy">  35513.18223347 </i>
    <i name="e_wo_entrp">  35513.22833474 </i>
    <i name="e_0_energy">  35513.20528411 </i>
   </energy>
  </scstep>
  <scstep>
   <time name="total">  473.39  473.36</time>
   <energy>
    <i name="e_fr_energy">  14803.12096658 </i>
    <i name="e_wo_entrp">  14803.13757683 </i>
    <i name="e_0_energy">  14803.12927171 </i>
   </energy>
  </scstep>
  <scstep>
   <time name="total">  471.86  471.85</time>
   <energy>
    <i name="e_fr_energy">  10255.59085098 </i>
    <i name="e_wo_entrp">  10255.62754817 </i>
    <i name="e_0_energy">  10255.60919958 </i>
   </energy>
  </scstep>
  <scstep>
   <time name="total">  472.26  472.28</time>
   <energy>
    <i name="e_fr_energy">   6346.56831299 </i>
    <i name="e_wo_entrp">   6346.59626713 </i>
    <i name="e_0_energy">   6346.58229006 </i>
   </energy>
  </scstep>
  <scstep>
   <time name="total">  472.39  472.40</time>
   <energy>
    <i name="e_fr_energy">   3716.76037179 </i>
    <i name="e_wo_entrp">   3716.79063741 </i>
    <i name="e_0_energy">   3716.77550460 </i>
   </energy>
  </scstep>
  <scstep>
   <time name="total">  471.78  471.77</time>
   <energy>
    <i name="e_fr_energy">   2067.20557532 </i>
    <i name="e_wo_entrp">   2067.22055265 </i>
    <i name="e_0_energy">   2067.21306399 </i>
   </energy>
  </scstep>
  <scstep>
   <time name="total">  470.98  470.99</time>
   <energy>
    <i name="e_fr_energy">    782.89268887 </i>
    <i name="e_wo_entrp">    782.90958893 </i>
    <i name="e_0_energy">    782.90113890 </i>
   </energy>
  </scstep>
  <scstep>
   <time name="total">  470.93  470.90</time>
   <energy>
    <i name="e_fr_energy">      6.26358473 </i>
    <i name="e_wo_entrp">      6.27756563 </i>
    <i name="e_0_energy">      6.27057518 </i>
   </energy>
  </scstep>
  <scstep>
   <time name="total">  470.80  470.78</time>
   <energy>
    <i name="e_fr_energy">   -467.13345479 </i>
    <i name="e_wo_entrp">   -467.12618741 </i>
    <i name="e_0_energy">   -467.12982110 </i>
   </energy>
  </scstep>
  <scstep>
   <time name="total">  470.97  470.97</time>
   <energy>
    <i name="e_fr_energy">   -672.05999320 </i>
    <i name="e_wo_entrp">   -672.04548822 </i>
    <i name="e_0_energy">   -672.05274071 </i>
   </energy>
  </scstep>
  <scstep>
   <time name="total">  470.69  470.69</time>
   <energy>
    <i name="e_fr_energy">   -724.04769608 </i>
    <i name="e_wo_entrp">   -724.03998433 </i>
    <i name="e_0_energy">   -724.04384020 </i>
   </energy>
  </scstep>
  <scstep>
   <time name="total">  470.48  470.48</time>
   <energy>
    <i name="e_fr_energy">   -785.11080595 </i>
    <i name="e_wo_entrp">   -785.10480337 </i>
    <i name="e_0_energy">   -785.10780466 </i>
   </energy>
  </scstep>
  <scstep>
   <time name="total">  470.49  470.49</time>
   <energy>
    <i name="e_fr_energy">   -824.42367688 </i>
    <i name="e_wo_entrp">   -824.42367688 </i>
    <i name="e_0_energy">   -824.42367688 </i>
   </energy>
  </scstep>
  <scstep>
   <time name="total">  470.21  470.21</time>
   <energy>
    <i name="e_fr_energy">   -856.90277135 </i>
    <i name="e_wo_entrp">   -856.90277135 </i>
    <i name="e_0_energy">   -856.90277135 </i>
   </energy>
  </scstep>
  <scstep>
   <time name="total">  470.22  470.21</time>
   <energy>
    <i name="e_fr_energy">   -885.88830046 </i>
    <i name="e_wo_entrp">   -885.88830046 </i>
    <i name="e_0_energy">   -885.88830046 </i>
   </energy>
  </scstep>
  <scstep>
   <time name="total">  470.67  470.64</time>
   <energy>
    <i name="e_fr_energy">   -906.82001527 </i>
    <i name="e_wo_entrp">   -906.82001527 </i>
    <i name="e_0_energy">   -906.82001527 </i>
   </energy>
  </scstep>
  <scstep>
   <time name="total">  470.50  470.48</time>
   <energy>
    <i name="e_fr_energy">   -919.70599797 </i>
    <i name="e_wo_entrp">   -919.70599797 </i>
    <i name="e_0_energy">   -919.70599797 </i>
   </energy>
  </scstep>
  <scstep>
   <time name="total">  470.14  470.17</time>
   <energy>
    <i name="e_fr_energy">   -928.31857283 </i>
    <i name="e_wo_entrp">   -928.31857283 </i>
    <i name="e_0_energy">   -928.31857283 </i>
   </energy>
  </scstep>
  <scstep>
   <time name="total">  470.53  470.50</time>
   <energy>
    <i name="e_fr_energy">   -934.08167555 </i>
    <i name="e_wo_entrp">   -934.08167555 </i>
    <i name="e_0_energy">   -934.08167555 </i>
   </energy>
  </scstep>
  <scstep>
   <time name="total">  470.36  470.34</time>
   <energy>
    <i name="e_fr_energy">   -937.52128338 </i>
    <i name="e_wo_entrp">   -937.52128338 </i>
    <i name="e_0_energy">   -937.52128338 </i>
   </energy>
  </scstep>
  <scstep>
   <time name="total">  470.11  470.09</time>
   <energy>
    <i name="e_fr_energy">   -939.88812243 </i>
    <i name="e_wo_entrp">   -939.88812243 </i>
    <i name="e_0_energy">   -939.88812243 </i>
   </energy>
  </scstep>
  <scstep>
   <time name="total">  470.24  470.24</time>
   <energy>
    <i name="e_fr_energy">   -941.64582798 </i>
    <i name="e_wo_entrp">   -941.64582798 </i>
    <i name="e_0_energy">   -941.64582798 </i>
   </energy>
  </scstep>
  <scstep>
   <time name="total">  470.56  470.56</time>
   <energy>
    <i name="e_fr_energy">   -942.74615902 </i>
    <i name="e_wo_entrp">   -942.74615902 </i>
    <i name="e_0_energy">   -942.74615902 </i>
   </energy>
  </scstep>
  <scstep>
   <time name="total">  470.17  470.18</time>
   <energy>
    <i name="e_fr_energy">   -943.51020005 </i>
    <i name="e_wo_entrp">   -943.51020005 </i>
    <i name="e_0_energy">   -943.51020005 </i>
   </energy>
  </scstep>
  <scstep>
   <time name="total">  470.22  470.23</time>
   <energy>
    <i name="e_fr_energy">   -944.07751069 </i>
    <i name="e_wo_entrp">   -944.07751069 </i>
    <i name="e_0_energy">   -944.07751069 </i>
   </energy>
  </scstep>
  <scstep>
   <time name="total">  470.39  470.39</time>
   <energy>
    <i name="e_fr_energy">   -944.44161484 </i>
    <i name="e_wo_entrp">   -944.44161484 </i>
    <i name="e_0_energy">   -944.44161484 </i>
   </energy>
  </scstep>
  <scstep>
   <time name="total">  470.46  470.48</time>
   <energy>
    <i name="e_fr_energy">   -944.67520546 </i>
    <i name="e_wo_entrp">   -944.67520546 </i>
    <i name="e_0_energy">   -944.67520546 </i>
   </energy>
  </scstep>
  <scstep>
   <time name="total">  470.27  470.27</time>
   <energy>
    <i name="e_fr_energy">   -944.84746440 </i>
    <i name="e_wo_entrp">   -944.84746440 </i>
    <i name="e_0_energy">   -944.84746440 </i>
   </energy>
  </scstep>
  <scstep>
   <time name="total">  470.15  470.14</time>
   <energy>
    <i name="e_fr_energy">   -944.96776665 </i>
    <i name="e_wo_entrp">   -944.96776665 </i>
    <i name="e_0_energy">   -944.96776665 </i>
   </energy>
  </scstep>
  <scstep>
   <time name="total">  470.42  470.40</time>
   <energy>
    <i name="e_fr_energy">   -945.04346910 </i>
    <i name="e_wo_entrp">   -945.04346910 </i>
    <i name="e_0_energy">   -945.04346910 </i>
   </energy>
  </scstep>
  <scstep>
   <time name="total">  470.44  470.43</time>
   <energy>
    <i name="e_fr_energy">   -945.09825562 </i>
    <i name="e_wo_entrp">   -945.09825562 </i>
    <i name="e_0_energy">   -945.09825562 </i>
   </energy>
  </scstep>
  <scstep>
   <time name="total">  470.22  470.22</time>
   <energy>
    <i name="e_fr_energy">   -945.14020868 </i>
    <i name="e_wo_entrp">   -945.14020868 </i>
    <i name="e_0_energy">   -945.14020868 </i>
   </energy>
  </scstep>
  <scstep>
   <time name="total">  470.23  470.25</time>
   <energy>
    <i name="e_fr_energy">   -945.19875048 </i>
    <i name="e_wo_entrp">   -945.19875048 </i>
    <i name="e_0_energy">   -945.19875048 </i>
   </energy>
  </scstep>
  <scstep>
   <time name="total">  470.41  470.40</time>
   <energy>
    <i name="e_fr_energy">   -945.21886600 </i>
    <i name="e_wo_entrp">   -945.21886600 </i>
    <i name="e_0_energy">   -945.21886600 </i>
   </energy>
  </scstep>
  <scstep>
   <time name="total">  470.29  470.29</time>
   <energy>
    <i name="e_fr_energy">   -945.22437391 </i>
    <i name="e_wo_entrp">   -945.22437391 </i>
    <i name="e_0_energy">   -945.22437391 </i>
   </energy>
  </scstep>
  <scstep>
   <time name="total">  470.14  470.12</time>
   <energy>
    <i name="e_fr_energy">   -945.22586860 </i>
    <i name="e_wo_entrp">   -945.22586860 </i>
    <i name="e_0_energy">   -945.22586860 </i>
   </energy>
  </scstep>
  <scstep>
   <time name="total">  470.20  470.21</time>
   <energy>
    <i name="e_fr_energy">   -945.22619029 </i>
    <i name="e_wo_entrp">   -945.22619029 </i>
    <i name="e_0_energy">   -945.22619029 </i>
   </energy>
  </scstep>
  <scstep>
   <time name="total">  470.33  470.31</time>
   <energy>
    <i name="e_fr_energy">   -945.22628648 </i>
    <i name="e_wo_entrp">   -945.22628648 </i>
    <i name="e_0_energy">   -945.22628648 </i>
   </energy>
  </scstep>
  <scstep>
   <time name="total">  470.56  470.52</time>
   <energy>
    <i name="e_fr_energy">   -945.22631486 </i>
    <i name="e_wo_entrp">   -945.22631486 </i>
    <i name="e_0_energy">   -945.22631486 </i>
   </energy>
  </scstep>
  <scstep>
   <time name="total">  470.42  470.43</time>
   <energy>
    <i name="e_fr_energy">   -945.22632530 </i>
    <i name="e_wo_entrp">   -945.22632530 </i>
    <i name="e_0_energy">   -945.22632530 </i>
   </energy>
  </scstep>
  <scstep>
   <time name="total">  701.36  701.34</time>
   <energy>
    <i name="alphaZ">   5529.70323211 </i>
    <i name="ewald"> -88550.87271456 </i>
    <i name="hartreedc"> -34044.40687555 </i>
    <i name="XCdc">   2905.07781232 </i>
    <i name="pawpsdc"> 122698.65577937 </i>
    <i name="pawaedc">-138271.25428305 </i>
    <i name="eentropy">     -0.00000000 </i>
    <i name="bandstr">  -8744.46505274 </i>
    <i name="atom"> 133646.93285989 </i>
    <i name="e_fr_energy">   -945.22632988 </i>
    <i name="e_wo_entrp">   -945.22632988 </i>
    <i name="e_0_energy">   -945.22632988 </i>
   </energy>
  </scstep>
  <structure>
   <crystal>
    <varray name="basis" >
     <v>       0.00000000      12.28047342       0.00000000 </v>
     <v>       9.14270205       0.00000000       0.00000000 </v>
     <v>       0.00000000      -2.76826177     -11.30069772 </v>
    </varray>
    <i name="volume">   1268.80515525 </i>
    <varray name="rec_basis" >
     <v>       0.00000000       0.08143009      -0.01994742 </v>
     <v>       0.10937686      -0.00000000       0.00000000 </v>
     <v>       0.00000000       0.00000000      -0.08849011 </v>
    </varray>
   </crystal>
   <varray name="positions" >
    <v>       0.66050800       0.00000000       0.15551579 </v>
    <v>       0.65874487       0.00000000       0.65746193 </v>
    <v>       0.66016030       0.33494225       0.15511037 </v>
    <v>       0.66027753       0.33370282       0.65676405 </v>
    <v>       0.66016030       0.66505775       0.15511037 </v>
    <v>       0.66027753       0.66629718       0.65676405 </v>
    <v>       0.83478553       0.16916744       0.34376899 </v>
    <v>       0.83972740       0.16663187       0.84465807 </v>
    <v>       0.84065339       0.50000000       0.34369363 </v>
    <v>       0.83961174       0.50000000       0.84129976 </v>
    <v>       0.83478553       0.83083256       0.34376899 </v>
    <v>       0.83972740       0.83336813       0.84465807 </v>
    <v>       0.59153674       0.16879266       0.39829790 </v>
    <v>       0.59147078       0.16679186       0.89794384 </v>
    <v>       0.59570684       0.50000000       0.39812619 </v>
    <v>       0.59296016       0.50000000       0.89705339 </v>
    <v>       0.59153674       0.83120734       0.39829790 </v>
    <v>       0.59147078       0.83320814       0.89794384 </v>
    <v>       0.90999856       0.00000000       0.10334339 </v>
    <v>       0.90693539       0.00000000       0.60424689 </v>
    <v>       0.90455112       0.33471718       0.09989155 </v>
    <v>       0.90748755       0.33349461       0.60046142 </v>
    <v>       0.90455112       0.66528282       0.09989155 </v>
    <v>       0.90748755       0.66650539       0.60046142 </v>
    <v>       0.16071833       0.17076746       0.14764933 </v>
    <v>       0.15893829       0.16839468       0.66009840 </v>
    <v>       0.15734398       0.50000000       0.15960931 </v>
    <v>       0.15895295       0.50000000       0.65391569 </v>
    <v>       0.16071833       0.82923254       0.14764933 </v>
    <v>       0.15893829       0.83160532       0.66009840 </v>
    <v>       0.35034331       0.00000000       0.35376785 </v>
    <v>       0.34102578       0.00000000       0.84558497 </v>
    <v>       0.34292015       0.33429149       0.34082932 </v>
    <v>       0.34217205       0.33409951       0.84323596 </v>
    <v>       0.34292015       0.66570851       0.34082932 </v>
    <v>       0.34217205       0.66590049       0.84323596 </v>
    <v>       0.06839284       0.00000000       0.41609533 </v>
    <v>       0.08845761       0.00000000       0.89433934 </v>
    <v>       0.09100419       0.33285566       0.39575661 </v>
    <v>       0.08884782       0.33378042       0.89552482 </v>
    <v>       0.09100419       0.66714434       0.39575661 </v>
    <v>       0.08884782       0.66621958       0.89552482 </v>
    <v>       0.41314040       0.16848462       0.10187079 </v>
    <v>       0.41258898       0.16935298       0.60727808 </v>
    <v>       0.40982436       0.50000000       0.10202346 </v>
    <v>       0.41051520       0.50000000       0.60138938 </v>
    <v>       0.41314040       0.83151538       0.10187079 </v>
    <v>       0.41258898       0.83064702       0.60727808 </v>
    <v>       0.99101069       0.17074213       0.11754560 </v>
    <v>       0.99485522       0.16680872       0.62890975 </v>
    <v>       0.99324636       0.50000000       0.12534644 </v>
    <v>       0.99566552       0.50000000       0.62595585 </v>
    <v>       0.99101069       0.82925787       0.11754560 </v>
    <v>       0.99485522       0.83319128       0.62890975 </v>
    <v>       0.50739183       0.00000000       0.37160873 </v>
    <v>       0.50421287       0.00000000       0.87278905 </v>
    <v>       0.50725910       0.33592495       0.37225591 </v>
    <v>       0.50492050       0.33401818       0.87323239 </v>
    <v>       0.50725910       0.66407505       0.37225591 </v>
    <v>       0.50492050       0.66598182       0.87323239 </v>
    <v>       0.67087491       0.16629201       0.27919196 </v>
    <v>       0.67215424       0.16649234       0.78041027 </v>
    <v>       0.67304016       0.50000000       0.27811270 </v>
    <v>       0.67306394       0.50000000       0.77954039 </v>
    <v>       0.67087491       0.83370799       0.27919196 </v>
    <v>       0.67215424       0.83350766       0.78041027 </v>
    <v>       0.82782272       0.00000000       0.22100709 </v>
    <v>       0.82623012       0.00000000       0.72059926 </v>
    <v>       0.82635204       0.33406528       0.21984575 </v>
    <v>       0.82739812       0.33271967       0.71890861 </v>
    <v>       0.82635204       0.66593472       0.21984575 </v>
    <v>       0.82739812       0.66728033       0.71890861 </v>
    <v>       0.83036963       0.00000000       0.44720481 </v>
    <v>       0.83040048       0.00000000       0.94580191 </v>
    <v>       0.82362535       0.33617633       0.44656324 </v>
    <v>       0.82819960       0.33506402       0.94306484 </v>
    <v>       0.82362535       0.66382367       0.44656324 </v>
    <v>       0.82819960       0.66493598       0.94306484 </v>
    <v>       0.66991592       0.16692145       0.05385570 </v>
    <v>       0.66768918       0.16610758       0.55482313 </v>
    <v>       0.67278810       0.50000000       0.05242007 </v>
    <v>       0.66916291       0.50000000       0.55530060 </v>
    <v>       0.66991592       0.83307855       0.05385570 </v>
    <v>       0.66768918       0.83389242       0.55482313 </v>
    <v>       0.49880058       0.00000000       0.12463991 </v>
    <v>       0.49720683       0.00000000       0.62967755 </v>
    <v>       0.50003842       0.33601684       0.12301548 </v>
    <v>       0.49969712       0.33569533       0.63282576 </v>
    <v>       0.50003842       0.66398316       0.12301548 </v>
    <v>       0.49969712       0.66430467       0.63282576 </v>
    <v>       0.99332837       0.17634524       0.38340834 </v>
    <v>       0.00167314       0.16728463       0.87032794 </v>
    <v>       0.00222326       0.50000000       0.37462305 </v>
    <v>       0.00163120       0.50000000       0.87039925 </v>
    <v>       0.99332837       0.82365476       0.38340834 </v>
    <v>       0.00167314       0.83271537       0.87032794 </v>
    <v>       0.17376646       0.00000000       0.78228125 </v>
    <v>       0.17336927       0.34217921       0.28171865 </v>
    <v>       0.17236481       0.33413888       0.78035810 </v>
    <v>       0.17336927       0.65782079       0.28171865 </v>
    <v>       0.17236481       0.66586112       0.78035810 </v>
    <v>       0.33439210       0.17980462       0.21668715 </v>
    <v>       0.32807258       0.16743354       0.72093055 </v>
    <v>       0.32874097       0.50000000       0.21762074 </v>
    <v>       0.32733448       0.50000000       0.71815892 </v>
    <v>       0.33439210       0.82019538       0.21668715 </v>
    <v>       0.32807258       0.83256646       0.72093055 </v>
    <v>       0.34465684       0.17469324       0.45075071 </v>
    <v>       0.33542792       0.16851828       0.94554846 </v>
    <v>       0.33637679       0.50000000       0.44540851 </v>
    <v>       0.33270727       0.50000000       0.94501386 </v>
    <v>       0.34465684       0.82530676       0.45075071 </v>
    <v>       0.33542792       0.83148172       0.94554846 </v>
    <v>       0.17547241       0.00000000       0.04342363 </v>
    <v>       0.16385266       0.00000000       0.56285086 </v>
    <v>       0.16613637       0.33751953       0.05141818 </v>
    <v>       0.16716154       0.33208927       0.55376900 </v>
    <v>       0.16613637       0.66248047       0.05141818 </v>
    <v>       0.16716154       0.66791073       0.55376900 </v>
    <v>       0.16671645       0.00000000       0.28573925 </v>
   </varray>
  </structure>
  <varray name="forces" >
   <v>      -0.00000000       0.04502087       0.00472840 </v>
   <v>      -0.00000000       0.05930516       0.00301648 </v>
   <v>       0.02119804       0.04938290       0.00818118 </v>
   <v>       0.01609640       0.05207610      -0.00226389 </v>
   <v>      -0.02119804       0.04938290       0.00818118 </v>
   <v>      -0.01609640       0.05207610      -0.00226389 </v>
   <v>       0.02628828      -0.01982539      -0.02508641 </v>
   <v>      -0.00505607      -0.07061684      -0.01103217 </v>
   <v>      -0.00000000      -0.08164619      -0.00163492 </v>
   <v>      -0.00000000      -0.08449726      -0.02058124 </v>
   <v>      -0.02628828      -0.01982539      -0.02508641 </v>
   <v>       0.00505607      -0.07061684      -0.01103217 </v>
   <v>      -0.00098496      -0.04421743       0.03678517 </v>
   <v>       0.00450796      -0.01045570       0.01764518 </v>
   <v>      -0.00000000      -0.08502141       0.03942733 </v>
   <v>      -0.00000000      -0.01529759       0.02122181 </v>
   <v>       0.00098496      -0.04421743       0.03678517 </v>
   <v>      -0.00450796      -0.01045570       0.01764518 </v>
   <v>      -0.00000000       0.05306251       0.03433333 </v>
   <v>      -0.00000000      -0.00627215      -0.04234912 </v>
   <v>      -0.04503481       0.09735467      -0.00001497 </v>
   <v>       0.00228950      -0.00206098      -0.03164692 </v>
   <v>       0.04503481       0.09735467      -0.00001497 </v>
   <v>      -0.00228950      -0.00206098      -0.03164692 </v>
   <v>       0.08473628       0.08358007       0.05668316 </v>
   <v>      -0.03027418       0.08515848       0.03863592 </v>
   <v>      -0.00000000       0.07147658      -0.08079201 </v>
   <v>      -0.00000000       0.07889811       0.02731166 </v>
   <v>      -0.08473628       0.08358007       0.05668316 </v>
   <v>       0.03027418       0.08515848       0.03863592 </v>
   <v>      -0.00000000       0.03871316      -0.17008649 </v>
   <v>      -0.00000000      -0.08450742      -0.02709589 </v>
   <v>      -0.04131808      -0.05569482       0.02317539 </v>
   <v>      -0.01358967      -0.06576670      -0.03319665 </v>
   <v>       0.04131808      -0.05569482       0.02317539 </v>
   <v>       0.01358967      -0.06576670      -0.03319665 </v>
   <v>      -0.00000000      -0.01498517      -0.11430798 </v>
   <v>      -0.00000000       0.07908221      -0.03907203 </v>
   <v>       0.01655540      -0.02784783      -0.00292671 </v>
   <v>       0.01906786      -0.01145330      -0.01136104 </v>
   <v>      -0.01655540      -0.02784783      -0.00292671 </v>
   <v>      -0.01906786      -0.01145330      -0.01136104 </v>
   <v>       0.02472050      -0.05019570      -0.05631292 </v>
   <v>       0.00681542       0.02259541       0.06354432 </v>
   <v>      -0.00000000       0.00883673      -0.01983585 </v>
   <v>      -0.00000000       0.03604108      -0.00499047 </v>
   <v>      -0.02472050      -0.05019570      -0.05631292 </v>
   <v>      -0.00681542       0.02259541       0.06354432 </v>
   <v>       0.02891708      -0.33891833       0.12879343 </v>
   <v>      -0.00496412      -0.19091140       0.12954260 </v>
   <v>      -0.00000000      -0.23215719       0.12101784 </v>
   <v>      -0.00000000      -0.18126459       0.12373102 </v>
   <v>      -0.02891708      -0.33891833       0.12879343 </v>
   <v>       0.00496412      -0.19091140       0.12954260 </v>
   <v>      -0.00000000       0.08866596      -0.15560465 </v>
   <v>      -0.00000000       0.18368215      -0.12659957 </v>
   <v>      -0.02178125       0.24889463      -0.13690706 </v>
   <v>      -0.00858995       0.18039102      -0.10632726 </v>
   <v>       0.02178125       0.24889463      -0.13690706 </v>
   <v>       0.00858995       0.18039102      -0.10632726 </v>
   <v>       0.00555618       0.04220050      -0.15230369 </v>
   <v>      -0.00879726      -0.02976130      -0.12711994 </v>
   <v>      -0.00000000      -0.01824732      -0.10953341 </v>
   <v>      -0.00000000      -0.01300879      -0.12566948 </v>
   <v>      -0.00555618       0.04220050      -0.15230369 </v>
   <v>       0.00879726      -0.02976130      -0.12711994 </v>
   <v>      -0.00000000      -0.00136033       0.13054935 </v>
   <v>      -0.00000000       0.03942158       0.13801598 </v>
   <v>       0.00912991      -0.01603275       0.12950539 </v>
   <v>       0.02079021       0.00846514       0.12745806 </v>
   <v>      -0.00912991      -0.01603275       0.12950539 </v>
   <v>      -0.02079021       0.00846514       0.12745806 </v>
   <v>      -0.00000000       0.36209267      -0.10146878 </v>
   <v>      -0.00000000       0.39518955      -0.02186371 </v>
   <v>      -0.01492507       0.44836344      -0.07383216 </v>
   <v>      -0.01405530       0.40748668      -0.06881931 </v>
   <v>       0.01492507       0.44836344      -0.07383216 </v>
   <v>       0.01405530       0.40748668      -0.06881931 </v>
   <v>      -0.00562780      -0.40467580       0.08165069 </v>
   <v>       0.01239448      -0.38789921       0.07198835 </v>
   <v>      -0.00000000      -0.43075932       0.06952026 </v>
   <v>      -0.00000000      -0.38309511       0.07214085 </v>
   <v>       0.00562780      -0.40467580       0.08165069 </v>
   <v>      -0.01239448      -0.38789921       0.07198835 </v>
   <v>      -0.00000000      -0.12623142       0.09947162 </v>
   <v>      -0.00000000      -0.11846036       0.07876730 </v>
   <v>      -0.01684969      -0.14609463       0.08029015 </v>
   <v>      -0.02370146      -0.15897174       0.14622546 </v>
   <v>       0.01684969      -0.14609463       0.08029015 </v>
   <v>       0.02370146      -0.15897174       0.14622546 </v>
   <v>      -0.07095420       0.06993281      -0.07804536 </v>
   <v>      -0.00034662       0.16184105      -0.11686356 </v>
   <v>      -0.00000000       0.12447932      -0.08067954 </v>
   <v>      -0.00000000       0.16024965      -0.10809228 </v>
   <v>       0.07095420       0.06993281      -0.07804536 </v>
   <v>       0.00034662       0.16184105      -0.11686356 </v>
   <v>      -0.00000000      -0.06479759      -0.11794892 </v>
   <v>       0.12488469      -0.08789054      -0.12037042 </v>
   <v>      -0.04351028      -0.06004423      -0.08058788 </v>
   <v>      -0.12488469      -0.08789054      -0.12037042 </v>
   <v>       0.04351028      -0.06004423      -0.08058788 </v>
   <v>       0.13124617       0.18100757       0.20098710 </v>
   <v>       0.03318776       0.06323199       0.09212569 </v>
   <v>      -0.00000000       0.10785619       0.10377977 </v>
   <v>      -0.00000000       0.03472438       0.09834010 </v>
   <v>      -0.13124617       0.18100757       0.20098710 </v>
   <v>      -0.03318776       0.06323199       0.09212569 </v>
   <v>       0.01021306       0.37764832      -0.16718975 </v>
   <v>      -0.00335494       0.39224677      -0.03837462 </v>
   <v>      -0.00000000       0.37912945      -0.11378420 </v>
   <v>      -0.00000000       0.41050682      -0.04099317 </v>
   <v>      -0.01021306       0.37764832      -0.16718975 </v>
   <v>       0.00335494       0.39224677      -0.03837462 </v>
   <v>      -0.00000000      -0.46320292       0.22868949 </v>
   <v>      -0.00000000      -0.50607078      -0.03086781 </v>
   <v>      -0.11058691      -0.39986137       0.06414977 </v>
   <v>       0.03911059      -0.39214485       0.03148177 </v>
   <v>       0.11058691      -0.39986137       0.06414977 </v>
   <v>      -0.03911059      -0.39214485       0.03148177 </v>
   <v>      -0.00000000       0.15341542       0.08325673 </v>
  </varray>
  <varray name="stress" >
   <v>     -11.04935299       0.00000000       0.00000000 </v>
   <v>       0.00000000      -3.23976450       2.73379464 </v>
   <v>       0.00000000       2.73379454      -0.68561468 </v>
  </varray>
  <energy>
   <i name="e_fr_energy">   -945.22632988 </i>
   <i name="e_wo_entrp">   -945.22632988 </i>
   <i name="e_0_energy">   -945.22632988 </i>
  </energy>
  <time name="totalsc">20371.4820373.78</time>
  <eigenvalues>
   <array>
    <dimension dim="1">band</dimension>
    <dimension dim="2">kpoint</dimension>
    <dimension dim="3">spin</dimension>
    <field>eigene</field>
    <field>occ</field>
    <set>
     <set comment="spin 1">
      <set comment="kpoint 1">
       <r>  -18.6598    1.0000 </r>
       <r>  -18.4020    1.0000 </r>
       <r>  -18.3190    1.0000 </r>
       <r>  -18.1165    1.0000 </r>
       <r>  -18.0279    1.0000 </r>
       <r>  -17.9712    1.0000 </r>
       <r>  -17.9701    1.0000 </r>
       <r>  -17.8916    1.0000 </r>
       <r>  -17.8204    1.0000 </r>
       <r>  -17.8151    1.0000 </r>
       <r>  -17.7496    1.0000 </r>
       <r>  -17.7209    1.0000 </r>
       <r>  -17.7148    1.0000 </r>
       <r>  -17.6832    1.0000 </r>
       <r>  -17.6618    1.0000 </r>
       <r>  -17.6152    1.0000 </r>
       <r>  -17.5771    1.0000 </r>
       <r>  -17.5188    1.0000 </r>
       <r>  -17.5072    1.0000 </r>
       <r>  -17.4982    1.0000 </r>
       <r>  -17.4615    1.0000 </r>
       <r>  -17.4581    1.0000 </r>
       <r>  -17.4364    1.0000 </r>
       <r>  -17.3685    1.0000 </r>
       <r>  -17.3657    1.0000 </r>
       <r>  -17.3622    1.0000 </r>
       <r>  -17.3558    1.0000 </r>
       <r>  -17.3397    1.0000 </r>
       <r>  -17.3222    1.0000 </r>
       <r>  -17.3025    1.0000 </r>
       <r>  -17.2920    1.0000 </r>
       <r>  -17.2758    1.0000 </r>
       <r>  -17.2754    1.0000 </r>
       <r>  -17.2584    1.0000 </r>
       <r>  -17.2021    1.0000 </r>
       <r>  -17.1967    1.0000 </r>
       <r>  -17.1870    1.0000 </r>
       <r>  -17.1824    1.0000 </r>
       <r>  -17.1767    1.0000 </r>
       <r>  -17.1587    1.0000 </r>
       <r>  -17.1488    1.0000 </r>
       <r>  -17.1430    1.0000 </r>
       <r>  -17.1166    1.0000 </r>
       <r>  -17.0949    1.0000 </r>
       <r>  -17.0273    1.0000 </r>
       <r>  -17.0180    1.0000 </r>
       <r>  -16.9994    1.0000 </r>
       <r>  -16.9913    1.0000 </r>
       <r>  -16.9749    1.0000 </r>
       <r>  -16.9527    1.0000 </r>
       <r>  -16.9481    1.0000 </r>
       <r>  -16.9314    1.0000 </r>
       <r>  -16.9188    1.0000 </r>
       <r>  -16.9044    1.0000 </r>
       <r>  -16.8858    1.0000 </r>
       <r>  -16.8843    1.0000 </r>
       <r>  -16.8607    1.0000 </r>
       <r>  -16.8593    1.0000 </r>
       <r>  -16.8551    1.0000 </r>
       <r>  -16.8549    1.0000 </r>
       <r>  -16.8401    1.0000 </r>
       <r>  -16.8094    1.0000 </r>
       <r>  -16.8040    1.0000 </r>
       <r>  -16.7954    1.0000 </r>
       <r>  -16.7731    1.0000 </r>
       <r>  -16.7241    1.0000 </r>
       <r>  -16.7194    1.0000 </r>
       <r>  -16.6876    1.0000 </r>
       <r>  -16.5778    1.0000 </r>
       <r>  -16.5652    1.0000 </r>
       <r>  -16.4545    1.0000 </r>
       <r>  -13.0184    1.0000 </r>
       <r>  -13.0061    1.0000 </r>
       <r>  -13.0034    1.0000 </r>
       <r>  -12.9982    1.0000 </r>
       <r>  -12.9956    1.0000 </r>
       <r>  -12.9608    1.0000 </r>
       <r>  -12.9555    1.0000 </r>
       <r>  -12.9483    1.0000 </r>
       <r>  -12.9366    1.0000 </r>
       <r>  -12.9319    1.0000 </r>
       <r>  -12.9236    1.0000 </r>
       <r>  -12.9202    1.0000 </r>
       <r>  -12.9128    1.0000 </r>
       <r>  -12.9084    1.0000 </r>
       <r>  -12.9059    1.0000 </r>
       <r>  -12.9022    1.0000 </r>
       <r>  -12.8921    1.0000 </r>
       <r>  -12.8914    1.0000 </r>
       <r>  -12.8908    1.0000 </r>
       <r>  -12.8869    1.0000 </r>
       <r>  -12.8866    1.0000 </r>
       <r>  -12.8794    1.0000 </r>
       <r>  -12.8726    1.0000 </r>
       <r>  -12.8717    1.0000 </r>
       <r>  -12.8646    1.0000 </r>
       <r>  -12.8626    1.0000 </r>
       <r>  -12.8618    1.0000 </r>
       <r>  -12.8550    1.0000 </r>
       <r>  -12.8524    1.0000 </r>
       <r>  -12.8507    1.0000 </r>
       <r>  -12.8495    1.0000 </r>
       <r>  -12.8484    1.0000 </r>
       <r>  -12.8464    1.0000 </r>
       <r>  -12.8398    1.0000 </r>
       <r>  -12.8372    1.0000 </r>
       <r>  -12.8351    1.0000 </r>
       <r>  -12.8286    1.0000 </r>
       <r>  -12.8265    1.0000 </r>
       <r>  -12.8261    1.0000 </r>
       <r>  -12.8239    1.0000 </r>
       <r>  -12.8204    1.0000 </r>
       <r>  -12.8175    1.0000 </r>
       <r>  -12.8158    1.0000 </r>
       <r>  -12.8095    1.0000 </r>
       <r>  -12.8055    1.0000 </r>
       <r>  -12.8025    1.0000 </r>
       <r>  -12.8012    1.0000 </r>
       <r>  -12.8010    1.0000 </r>
       <r>  -12.7986    1.0000 </r>
       <r>  -12.7895    1.0000 </r>
       <r>  -12.7872    1.0000 </r>
       <r>  -12.7804    1.0000 </r>
       <r>  -12.7794    1.0000 </r>
       <r>  -12.7729    1.0000 </r>
       <r>  -12.7695    1.0000 </r>
       <r>  -12.7686    1.0000 </r>
       <r>  -12.7680    1.0000 </r>
       <r>  -12.7633    1.0000 </r>
       <r>  -12.7597    1.0000 </r>
       <r>  -12.7575    1.0000 </r>
       <r>  -12.7567    1.0000 </r>
       <r>  -12.7532    1.0000 </r>
       <r>  -12.7518    1.0000 </r>
       <r>  -12.7445    1.0000 </r>
       <r>  -12.7400    1.0000 </r>
       <r>  -12.7395    1.0000 </r>
       <r>  -12.7348    1.0000 </r>
       <r>  -12.7331    1.0000 </r>
       <r>  -12.7279    1.0000 </r>
       <r>  -12.7252    1.0000 </r>
       <r>  -12.7194    1.0000 </r>
       <r>  -12.7178    1.0000 </r>
       <r>  -12.7176    1.0000 </r>
       <r>  -12.7092    1.0000 </r>
       <r>  -12.7061    1.0000 </r>
       <r>  -12.7025    1.0000 </r>
       <r>  -12.6988    1.0000 </r>
       <r>  -12.6948    1.0000 </r>
       <r>  -12.6910    1.0000 </r>
       <r>  -12.6902    1.0000 </r>
       <r>  -12.6874    1.0000 </r>
       <r>  -12.6825    1.0000 </r>
       <r>  -12.6801    1.0000 </r>
       <r>  -12.6792    1.0000 </r>
       <r>  -12.6715    1.0000 </r>
       <r>  -12.6691    1.0000 </r>
       <r>  -12.6677    1.0000 </r>
       <r>  -12.6674    1.0000 </r>
       <r>  -12.6646    1.0000 </r>
       <r>  -12.6637    1.0000 </r>
       <r>  -12.6608    1.0000 </r>
       <r>  -12.6587    1.0000 </r>
       <r>  -12.6585    1.0000 </r>
       <r>  -12.6453    1.0000 </r>
       <r>  -12.6439    1.0000 </r>
       <r>  -12.6433    1.0000 </r>
       <r>  -12.6418    1.0000 </r>
       <r>  -12.6386    1.0000 </r>
       <r>  -12.6347    1.0000 </r>
       <r>  -12.6319    1.0000 </r>
       <r>  -12.6291    1.0000 </r>
       <r>  -12.6289    1.0000 </r>
       <r>  -12.6255    1.0000 </r>
       <r>  -12.6206    1.0000 </r>
       <r>  -12.6186    1.0000 </r>
       <r>  -12.6109    1.0000 </r>
       <r>  -12.6066    1.0000 </r>
       <r>  -12.6048    1.0000 </r>
       <r>  -12.6025    1.0000 </r>
       <r>  -12.5986    1.0000 </r>
       <r>  -12.5958    1.0000 </r>
       <r>  -12.5937    1.0000 </r>
       <r>  -12.5915    1.0000 </r>
       <r>  -12.5855    1.0000 </r>
       <r>  -12.5851    1.0000 </r>
       <r>  -12.5826    1.0000 </r>
       <r>  -12.5794    1.0000 </r>
       <r>  -12.5757    1.0000 </r>
       <r>  -12.5753    1.0000 </r>
       <r>  -12.5701    1.0000 </r>
       <r>  -12.5699    1.0000 </r>
       <r>  -12.5668    1.0000 </r>
       <r>  -12.5654    1.0000 </r>
       <r>  -12.5623    1.0000 </r>
       <r>  -12.5613    1.0000 </r>
       <r>  -12.5589    1.0000 </r>
       <r>  -12.5572    1.0000 </r>
       <r>  -12.5531    1.0000 </r>
       <r>  -12.5512    1.0000 </r>
       <r>  -12.5498    1.0000 </r>
       <r>  -12.5491    1.0000 </r>
       <r>  -12.5443    1.0000 </r>
       <r>  -12.5414    1.0000 </r>
       <r>  -12.5408    1.0000 </r>
       <r>  -12.5405    1.0000 </r>
       <r>  -12.5342    1.0000 </r>
       <r>  -12.5338    1.0000 </r>
       <r>  -12.5329    1.0000 </r>
       <r>  -12.5293    1.0000 </r>
       <r>  -12.5277    1.0000 </r>
       <r>  -12.5263    1.0000 </r>
       <r>  -12.5234    1.0000 </r>
       <r>  -12.5222    1.0000 </r>
       <r>  -12.5187    1.0000 </r>
       <r>  -12.5165    1.0000 </r>
       <r>  -12.5143    1.0000 </r>
       <r>  -12.5076    1.0000 </r>
       <r>  -12.5044    1.0000 </r>
[...]
       <r>   -12.3261   308.8258   504.3939 </r>
       <r>   -12.1952   196.3263   530.1047 </r>
       <r>   -12.0642   208.9932   557.4744 </r>
       <r>   -11.9332   143.5015   576.2673 </r>
       <r>   -11.8023   106.0373   590.1539 </r>
       <r>   -11.6713   119.5506   605.8102 </r>
       <r>   -11.5404    80.9875   616.4163 </r>
       <r>   -11.4094    36.5449   621.2022 </r>
       <r>   -11.2784     6.0904   621.9998 </r>
       <r>   -11.1475     0.0018   622.0000 </r>
       <r>   -11.0165     0.0000   622.0000 </r>
       <r>   -10.8856     0.0000   622.0000 </r>
       <r>   -10.7546     0.0000   622.0000 </r>
       <r>   -10.6236     0.0000   622.0000 </r>
       <r>   -10.4927     0.0000   622.0000 </r>
       <r>   -10.3617     0.0000   622.0000 </r>
       <r>   -10.2308     0.0000   622.0000 </r>
       <r>   -10.0998     0.0000   622.0000 </r>
       <r>    -9.9688     0.0000   622.0000 </r>
       <r>    -9.8379     0.0000   622.0000 </r>
       <r>    -9.7069     0.0000   622.0000 </r>
       <r>    -9.5760     0.0000   622.0000 </r>
       <r>    -9.4450     0.0000   622.0000 </r>
       <r>    -9.3140     0.0000   622.0000 </r>
       <r>    -9.1831     0.0000   622.0000 </r>
       <r>    -9.0521     0.0000   622.0000 </r>
       <r>    -8.9212     0.0000   622.0000 </r>
       <r>    -8.7902     0.0000   622.0000 </r>
       <r>    -8.6592     0.0000   622.0000 </r>
       <r>    -8.5283     0.0000   622.0000 </r>
       <r>    -8.3973     0.0000   622.0000 </r>
       <r>    -8.2664     0.0000   622.0000 </r>
       <r>    -8.1354     0.0000   622.0000 </r>
       <r>    -8.0044     0.0000   622.0000 </r>
       <r>    -7.8735     0.0000   622.0000 </r>
       <r>    -7.7425     0.0000   622.0000 </r>
       <r>    -7.6116     0.0000   622.0000 </r>
       <r>    -7.4806     0.0000   622.0000 </r>
       <r>    -7.3496     0.0000   622.0000 </r>
       <r>    -7.2187     0.0000   622.0000 </r>
       <r>    -7.0877     0.0000   622.0000 </r>
       <r>    -6.9568     0.0278   622.0036 </r>
       <r>    -6.8258    11.7249   623.5391 </r>
       <r>    -6.6948     3.5191   624.0000 </r>
       <r>    -6.5639     0.0001   624.0000 </r>
       <r>    -6.4329     0.0000   624.0000 </r>
       <r>    -6.3020     0.0000   624.0000 </r>
       <r>    -6.1710     0.0000   624.0000 </r>
       <r>    -6.0401     0.0000   624.0000 </r>
       <r>    -5.9091     0.0000   624.0000 </r>
       <r>    -5.7781     0.0000   624.0000 </r>
       <r>    -5.6472     0.0000   624.0000 </r>
       <r>    -5.5162     0.0000   624.0000 </r>
       <r>    -5.3853     0.0000   624.0000 </r>
       <r>    -5.2543     0.0000   624.0000 </r>
       <r>    -5.1233     1.0612   624.1390 </r>
       <r>    -4.9924     8.0229   625.1896 </r>
       <r>    -4.8614    17.8251   627.5240 </r>
       <r>    -4.7305    24.4584   630.7271 </r>
       <r>    -4.5995    33.9871   635.1780 </r>
       <r>    -4.4685    25.9900   638.5817 </r>
       <r>    -4.3376    45.3976   644.5269 </r>
       <r>    -4.2066    40.9620   649.8913 </r>
       <r>    -4.0757    56.6910   657.3155 </r>
       <r>    -3.9447    48.7637   663.7016 </r>
       <r>    -3.8137    41.4317   669.1275 </r>
       <r>    -3.6828    51.3959   675.8582 </r>
       <r>    -3.5518    37.3974   680.7558 </r>
       <r>    -3.4209    33.3697   685.1259 </r>
       <r>    -3.2899    34.8069   689.6842 </r>
       <r>    -3.1589    30.4020   693.6656 </r>
       <r>    -3.0280    38.9319   698.7641 </r>
       <r>    -2.8970    37.4209   703.6647 </r>
       <r>    -2.7661    31.7613   707.8242 </r>
       <r>    -2.6351    34.6481   712.3617 </r>
       <r>    -2.5041    31.6036   716.5005 </r>
       <r>    -2.3732    37.6822   721.4353 </r>
       <r>    -2.2422    38.6938   726.5027 </r>
       <r>    -2.1113    51.4483   733.2403 </r>
       <r>    -1.9803    37.8160   738.1927 </r>
       <r>    -1.8493    37.8473   743.1491 </r>
       <r>    -1.7184    60.1923   751.0319 </r>
       <r>    -1.5874    72.2616   760.4952 </r>
       <r>    -1.4565    61.9024   768.6020 </r>
       <r>    -1.3255    49.5536   775.0915 </r>
       <r>    -1.1945    66.8452   783.8455 </r>
       <r>    -1.0636    54.3433   790.9623 </r>
       <r>    -0.9326    50.4877   797.5741 </r>
       <r>    -0.8017    64.1665   805.9773 </r>
       <r>    -0.6707    71.9591   815.4011 </r>
       <r>    -0.5397    67.9339   824.2977 </r>
       <r>    -0.4088    73.0777   833.8679 </r>
       <r>    -0.2778    65.2367   842.4113 </r>
       <r>    -0.1469    64.3178   850.8343 </r>
       <r>    -0.0159    69.2280   859.9004 </r>
       <r>     0.1151    75.3385   869.7667 </r>
       <r>     0.2460    83.4630   880.6970 </r>
       <r>     0.3770    68.2747   889.6382 </r>
       <r>     0.5079    74.4546   899.3888 </r>
       <r>     0.6389    61.7645   907.4774 </r>
       <r>     0.7698    89.2997   919.1721 </r>
       <r>     0.9008    94.5039   931.5483 </r>
       <r>     1.0318    90.0983   943.3475 </r>
       <r>     1.1627    87.5635   954.8148 </r>
       <r>     1.2937   115.4546   969.9347 </r>
       <r>     1.4246   108.2620   984.1126 </r>
       <r>     1.5556   133.6244  1001.6120 </r>
       <r>     1.6866   114.5835  1016.6178 </r>
       <r>     1.8175    91.1812  1028.5589 </r>
       <r>     1.9485    66.3144  1037.2434 </r>
       <r>     2.0794    62.4843  1045.4263 </r>
       <r>     2.2104    34.0836  1049.8899 </r>
       <r>     2.3414     0.8410  1050.0000 </r>
       <r>     2.4723     0.0000  1050.0000 </r>
       <r>     2.6033     0.0000  1050.0000 </r>
       <r>     2.7342     0.0000  1050.0000 </r>
       <r>     2.8652     0.0000  1050.0000 </r>
       <r>     2.9962     0.0000  1050.0000 </r>
       <r>     3.1271     0.0000  1050.0000 </r>
       <r>     3.2581     0.0000  1050.0000 </r>
       <r>     3.3890     1.2476  1050.1634 </r>
       <r>     3.5200     9.4909  1051.4063 </r>
       <r>     3.6510     4.5255  1051.9990 </r>
       <r>     3.7819     0.0079  1052.0000 </r>
       <r>     3.9129     0.0000  1052.0000 </r>
       <r>     4.0438     0.6879  1052.0901 </r>
       <r>     4.1748    17.0196  1054.3190 </r>
       <r>     4.3058     8.1017  1055.3800 </r>
       <r>     4.4367     4.7320  1055.9997 </r>
       <r>     4.5677     0.0026  1056.0000 </r>
       <r>     4.6986     0.0000  1056.0000 </r>
       <r>     4.8296     0.0000  1056.0000 </r>
       <r>     4.9606     0.0000  1056.0000 </r>
       <r>     5.0915     0.0000  1056.0000 </r>
       <r>     5.2225     0.0000  1056.0000 </r>
       <r>     5.3534     0.0000  1056.0000 </r>
       <r>     5.4844     0.0000  1056.0000 </r>
       <r>     5.6154     0.0000  1056.0000 </r>
       <r>     5.7463     0.0000  1056.0000 </r>
       <r>     5.8773     0.0000  1056.0000 </r>
       <r>     6.0082     0.0000  1056.0000 </r>
       <r>     6.1392     0.0000  1056.0000 </r>
       <r>     6.2702     0.0000  1056.0000 </r>
       <r>     6.4011     0.0000  1056.0000 </r>
       <r>     6.5321     0.0000  1056.0000 </r>
       <r>     6.6630     0.0000  1056.0000 </r>
       <r>     6.7940     0.0000  1056.0000 </r>
       <r>     6.9249     0.3487  1056.0457 </r>
       <r>     7.0559     1.5554  1056.2494 </r>
       <r>     7.1869     0.0049  1056.2500 </r>
       <r>     7.3178     0.0000  1056.2500 </r>
       <r>     7.4488     0.0000  1056.2500 </r>
       <r>     7.5797     0.0000  1056.2500 </r>
       <r>     7.7107     0.5876  1056.3270 </r>
       <r>     7.8417     4.5571  1056.9238 </r>
       <r>     7.9726     2.2265  1057.2153 </r>
       <r>     8.1036     1.7250  1057.4412 </r>
       <r>     8.2345     3.9466  1057.9581 </r>
       <r>     8.3655     2.2271  1058.2497 </r>
       <r>     8.4965     0.0022  1058.2500 </r>
       <r>     8.6274     1.7443  1058.4785 </r>
       <r>     8.7584     7.4813  1059.4582 </r>
       <r>     8.8893     5.9828  1060.2417 </r>
       <r>     9.0203     5.9135  1061.0161 </r>
       <r>     9.1513     5.9813  1061.7994 </r>
       <r>     9.2822     2.6549  1062.1471 </r>
       <r>     9.4132     5.8133  1062.9084 </r>
       <r>     9.5441    10.7324  1064.3140 </r>
       <r>     9.6751     5.6623  1065.0555 </r>
       <r>     9.8061     3.3278  1065.4913 </r>
       <r>     9.9370    15.3164  1067.4971 </r>
       <r>    10.0680    13.0641  1069.2080 </r>
       <r>    10.1989    19.1173  1071.7116 </r>
       <r>    10.3299    14.8587  1073.6575 </r>
       <r>    10.4609    19.9325  1076.2678 </r>
       <r>    10.5918    21.6396  1079.1017 </r>
       <r>    10.7228    36.8549  1083.9282 </r>
       <r>    10.8537    34.7962  1088.4851 </r>
       <r>    10.9847    37.5009  1093.3962 </r>
       <r>    11.1157    37.3295  1098.2849 </r>
       <r>    11.2466    29.1667  1102.1046 </r>
       <r>    11.3776    31.9373  1106.2871 </r>
       <r>    11.5085    32.6843  1110.5674 </r>
       <r>    11.6395    24.8101  1113.8165 </r>
       <r>    11.7705    38.1706  1118.8153 </r>
       <r>    11.9014    39.6765  1124.0113 </r>
       <r>    12.0324    39.8150  1129.2255 </r>
       <r>    12.1633    33.3941  1133.5988 </r>
       <r>    12.2943    28.3672  1137.3137 </r>
       <r>    12.4253    34.7178  1141.8604 </r>
       <r>    12.5562    42.1892  1147.3854 </r>
       <r>    12.6872    39.9221  1152.6136 </r>
       <r>    12.8181    32.3843  1156.8546 </r>
       <r>    12.9491    30.9967  1160.9140 </r>
       <r>    13.0801    25.7427  1164.2852 </r>
       <r>    13.2110    29.1876  1168.1076 </r>
       <r>    13.3420    39.0361  1173.2198 </r>
       <r>    13.4729    37.7093  1178.1582 </r>
       <r>    13.6039    33.1093  1182.4941 </r>
       <r>    13.7348    40.7033  1187.8246 </r>
       <r>    13.8658    29.1541  1191.6426 </r>
       <r>    13.9968    15.9596  1193.7327 </r>
       <r>    14.1277    18.2538  1196.1232 </r>
       <r>    14.2587    23.0659  1199.1439 </r>
       <r>    14.3896    20.5673  1201.8374 </r>
       <r>    14.5206    47.9137  1208.1121 </r>
       <r>    14.6516    50.5287  1214.7294 </r>
       <r>    14.7825    29.9583  1218.6527 </r>
       <r>    14.9135    43.5971  1224.3621 </r>
       <r>    15.0444    29.4817  1228.2231 </r>
       <r>    15.1754    31.7704  1232.3837 </r>
       <r>    15.3064    28.8143  1236.1572 </r>
       <r>    15.4373    19.9678  1238.7722 </r>
       <r>    15.5683    25.2032  1242.0728 </r>
       <r>    15.6992    23.4163  1245.1394 </r>
       <r>    15.8302    21.0116  1247.8910 </r>
       <r>    15.9612    25.9412  1251.2883 </r>
       <r>    16.0921    23.9663  1254.4269 </r>
       <r>    16.2231    15.2056  1256.4182 </r>
       <r>    16.3540    16.0920  1258.5256 </r>
       <r>    16.4850    19.2830  1261.0509 </r>
       <r>    16.6160    11.2889  1262.5293 </r>
       <r>    16.7469     9.2841  1263.7451 </r>
       <r>    16.8779     8.4504  1264.8518 </r>
       <r>    17.0088     4.5144  1265.4430 </r>
       <r>    17.1398     4.2339  1265.9975 </r>
       <r>    17.2708     0.0193  1266.0000 </r>
       <r>    17.4017     0.0000  1266.0000 </r>
       <r>    17.5327     0.0000  1266.0000 </r>
       <r>    17.6636     0.0000  1266.0000 </r>
       <r>    17.7946     0.0000  1266.0000 </r>
       <r>    17.9256     0.0000  1266.0000 </r>
       <r>    18.0565     0.0000  1266.0000 </r>
       <r>    18.1875     0.0000  1266.0000 </r>
       <r>    18.3184     0.0000  1266.0000 </r>
       <r>    18.4494     0.0000  1266.0000 </r>
       <r>    18.5804     0.0000  1266.0000 </r>
       <r>    18.7113     0.0000  1266.0000 </r>
       <r>    18.8423     0.0000  1266.0000 </r>
      </set>
     </set>
    </array>
   </total>
  </dos>
 </calculation>
 <structure name="finalpos" >
  <crystal>
   <varray name="basis" >
    <v>       0.00000000      12.28047342       0.00000000 </v>
    <v>       9.14270205       0.00000000       0.00000000 </v>
    <v>       0.00000000      -2.76826177     -11.30069772 </v>
   </varray>
   <i name="volume">   1268.80515525 </i>
   <varray name="rec_basis" >
    <v>       0.00000000       0.08143009      -0.01994742 </v>
    <v>       0.10937686      -0.00000000       0.00000000 </v>
    <v>       0.00000000       0.00000000      -0.08849011 </v>
   </varray>
  </crystal>
  <varray name="positions" >
   <v>       0.66050800       0.00000000       0.15551579 </v>
   <v>       0.65874487       0.00000000       0.65746193 </v>
   <v>       0.66016030       0.33494225       0.15511037 </v>
   <v>       0.66027753       0.33370282       0.65676405 </v>
   <v>       0.66016030       0.66505775       0.15511037 </v>
   <v>       0.66027753       0.66629718       0.65676405 </v>
   <v>       0.83478553       0.16916744       0.34376899 </v>
   <v>       0.83972740       0.16663187       0.84465807 </v>
   <v>       0.84065339       0.50000000       0.34369363 </v>
   <v>       0.83961174       0.50000000       0.84129976 </v>
   <v>       0.83478553       0.83083256       0.34376899 </v>
   <v>       0.83972740       0.83336813       0.84465807 </v>
   <v>       0.59153674       0.16879266       0.39829790 </v>
   <v>       0.59147078       0.16679186       0.89794384 </v>
   <v>       0.59570684       0.50000000       0.39812619 </v>
   <v>       0.59296016       0.50000000       0.89705339 </v>
   <v>       0.59153674       0.83120734       0.39829790 </v>
   <v>       0.59147078       0.83320814       0.89794384 </v>
   <v>       0.90999856       0.00000000       0.10334339 </v>
   <v>       0.90693539       0.00000000       0.60424689 </v>
   <v>       0.90455112       0.33471718       0.09989155 </v>
   <v>       0.90748755       0.33349461       0.60046142 </v>
   <v>       0.90455112       0.66528282       0.09989155 </v>
   <v>       0.90748755       0.66650539       0.60046142 </v>
   <v>       0.16071833       0.17076746       0.14764933 </v>
   <v>       0.15893829       0.16839468       0.66009840 </v>
   <v>       0.15734398       0.50000000       0.15960931 </v>
   <v>       0.15895295       0.50000000       0.65391569 </v>
   <v>       0.16071833       0.82923254       0.14764933 </v>
   <v>       0.15893829       0.83160532       0.66009840 </v>
   <v>       0.35034331       0.00000000       0.35376785 </v>
   <v>       0.34102578       0.00000000       0.84558497 </v>
   <v>       0.34292015       0.33429149       0.34082932 </v>
   <v>       0.34217205       0.33409951       0.84323596 </v>
   <v>       0.34292015       0.66570851       0.34082932 </v>
   <v>       0.34217205       0.66590049       0.84323596 </v>
   <v>       0.06839284       0.00000000       0.41609533 </v>
   <v>       0.08845761       0.00000000       0.89433934 </v>
   <v>       0.09100419       0.33285566       0.39575661 </v>
   <v>       0.08884782       0.33378042       0.89552482 </v>
   <v>       0.09100419       0.66714434       0.39575661 </v>
   <v>       0.08884782       0.66621958       0.89552482 </v>
   <v>       0.41314040       0.16848462       0.10187079 </v>
   <v>       0.41258898       0.16935298       0.60727808 </v>
   <v>       0.40982436       0.50000000       0.10202346 </v>
   <v>       0.41051520       0.50000000       0.60138938 </v>
   <v>       0.41314040       0.83151538       0.10187079 </v>
   <v>       0.41258898       0.83064702       0.60727808 </v>
   <v>       0.99101069       0.17074213       0.11754560 </v>
   <v>       0.99485522       0.16680872       0.62890975 </v>
   <v>       0.99324636       0.50000000       0.12534644 </v>
   <v>       0.99566552       0.50000000       0.62595585 </v>
   <v>       0.99101069       0.82925787       0.11754560 </v>
   <v>       0.99485522       0.83319128       0.62890975 </v>
   <v>       0.50739183       0.00000000       0.37160873 </v>
   <v>       0.50421287       0.00000000       0.87278905 </v>
   <v>       0.50725910       0.33592495       0.37225591 </v>
   <v>       0.50492050       0.33401818       0.87323239 </v>
   <v>       0.50725910       0.66407505       0.37225591 </v>
   <v>       0.50492050       0.66598182       0.87323239 </v>
   <v>       0.67087491       0.16629201       0.27919196 </v>
   <v>       0.67215424       0.16649234       0.78041027 </v>
   <v>       0.67304016       0.50000000       0.27811270 </v>
   <v>       0.67306394       0.50000000       0.77954039 </v>
   <v>       0.67087491       0.83370799       0.27919196 </v>
   <v>       0.67215424       0.83350766       0.78041027 </v>
   <v>       0.82782272       0.00000000       0.22100709 </v>
   <v>       0.82623012       0.00000000       0.72059926 </v>
   <v>       0.82635204       0.33406528       0.21984575 </v>
   <v>       0.82739812       0.33271967       0.71890861 </v>
   <v>       0.82635204       0.66593472       0.21984575 </v>
   <v>       0.82739812       0.66728033       0.71890861 </v>
   <v>       0.83036963       0.00000000       0.44720481 </v>
   <v>       0.83040048       0.00000000       0.94580191 </v>
   <v>       0.82362535       0.33617633       0.44656324 </v>
   <v>       0.82819960       0.33506402       0.94306484 </v>
   <v>       0.82362535       0.66382367       0.44656324 </v>
   <v>       0.82819960       0.66493598       0.94306484 </v>
   <v>       0.66991592       0.16692145       0.05385570 </v>
   <v>       0.66768918       0.16610758       0.55482313 </v>
   <v>       0.67278810       0.50000000       0.05242007 </v>
   <v>       0.66916291       0.50000000       0.55530060 </v>
   <v>       0.66991592       0.83307855       0.05385570 </v>
   <v>       0.66768918       0.83389242       0.55482313 </v>
   <v>       0.49880058       0.00000000       0.12463991 </v>
   <v>       0.49720683       0.00000000       0.62967755 </v>
   <v>       0.50003842       0.33601684       0.12301548 </v>
   <v>       0.49969712       0.33569533       0.63282576 </v>
   <v>       0.50003842       0.66398316       0.12301548 </v>
   <v>       0.49969712       0.66430467       0.63282576 </v>
   <v>       0.99332837       0.17634524       0.38340834 </v>
   <v>       0.00167314       0.16728463       0.87032794 </v>
   <v>       0.00222326       0.50000000       0.37462305 </v>
   <v>       0.00163120       0.50000000       0.87039925 </v>
   <v>       0.99332837       0.82365476       0.38340834 </v>
   <v>       0.00167314       0.83271537       0.87032794 </v>
   <v>       0.17376646       0.00000000       0.78228125 </v>
   <v>       0.17336927       0.34217921       0.28171865 </v>
   <v>       0.17236481       0.33413888       0.78035810 </v>
   <v>       0.17336927       0.65782079       0.28171865 </v>
   <v>       0.17236481       0.66586112       0.78035810 </v>
   <v>       0.33439210       0.17980462       0.21668715 </v>
   <v>       0.32807258       0.16743354       0.72093055 </v>
   <v>       0.32874097       0.50000000       0.21762074 </v>
   <v>       0.32733448       0.50000000       0.71815892 </v>
   <v>       0.33439210       0.82019538       0.21668715 </v>
   <v>       0.32807258       0.83256646       0.72093055 </v>
   <v>       0.34465684       0.17469324       0.45075071 </v>
   <v>       0.33542792       0.16851828       0.94554846 </v>
   <v>       0.33637679       0.50000000       0.44540851 </v>
   <v>       0.33270727       0.50000000       0.94501386 </v>
   <v>       0.34465684       0.82530676       0.45075071 </v>
   <v>       0.33542792       0.83148172       0.94554846 </v>
   <v>       0.17547241       0.00000000       0.04342363 </v>
   <v>       0.16385266       0.00000000       0.56285086 </v>
   <v>       0.16613637       0.33751953       0.05141818 </v>
   <v>       0.16716154       0.33208927       0.55376900 </v>
   <v>       0.16613637       0.66248047       0.05141818 </v>
   <v>       0.16716154       0.66791073       0.55376900 </v>
   <v>       0.16671645       0.00000000       0.28573925 </v>
  </varray>
 </structure>
</modeling>
