 vasp.6.4.2 20Jul23 (build Nov 12 2023 22:16:35) complex                         
 executed on              LinuxNV date 2025.03.21  23:23:20
 running    4 mpi-ranks, on    1 nodes
 distrk:  each k-point on    1 cores,    4 groups
 distr:  one band on NCORE=   1 cores,    1 groups
 OpenACC runtime initialized ...    4 GPUs detected


--------------------------------------------------------------------------------------------------------


 INCAR:
   PREC = Normal
   ENCUT = 450
   IBRION = 2
   ISPIN = 2
   NSW = 300
   ISIF = 2
   EDIFF = 1E-5
   EDIFFG = -5E-3
   ALGO = Fast
   ISTART = 0
   ICHARG = 2
   ISMEAR = 0
   SIGMA = 0.01
   LWAVE = .F.
   LCHARG = .F.
   LREAL = Auto
   LPLANE = .TRUE.
   NPAR = 4
   KPAR = 4
   NCORE = 1

 POTCAR:    PAW_PBE N 08Apr2002                   
 -----------------------------------------------------------------------------
|                                                                             |
|           W    W    AA    RRRRR   N    N  II  N    N   GGGG   !!!           |
|           W    W   A  A   R    R  NN   N  II  NN   N  G    G  !!!           |
|           W    W  A    A  R    R  N N  N  II  N N  N  G       !!!           |
|           W WW W  AAAAAA  RRRRR   N  N N  II  N  N N  G  GGG   !            |
|           WW  WW  A    A  R   R   N   NN  II  N   NN  G    G                |
|           W    W  A    A  R    R  N    N  II  N    N   GGGG   !!!           |
|                                                                             |
|     You use a magnetic or noncollinear calculation, but did not specify     |
|     the initial magnetic moment with the MAGMOM tag. Note that a            |
|     default of 1 will be used for all atoms. This ferromagnetic setup       |
|     may break the symmetry of the crystal, in particular it may rule        |
|     out finding an antiferromagnetic solution. Thence, we recommend         |
|     setting the initial magnetic moment manually or verifying carefully     |
|     that this magnetic setup is desired.                                    |
|                                                                             |
 -----------------------------------------------------------------------------

 POTCAR:    PAW_PBE N 08Apr2002                   
   SHA256 =  e053789ff3a61a86a1b75d8a110fcc91f86041011e7b0817c7c99e4e8a6349d7 N/POTCAR              
   COPYR  = (c) Copyright 08Apr2002 Georg Kresse                                                    
   COPYR  = This file is part of the software VASP. Any use, copying, and all other rights are regul
   COPYR  = If you do not have a valid VASP license, you may not use, copy or distribute this file. 
   VRHFIN =N: s2p3                                                                                  
   LEXCH  = PE                                                                                      
   EATOM  =   264.5486 eV,   19.4438 Ry                                                             
                                                                                                    
   TITEL  = PAW_PBE N 08Apr2002                                                                     
   LULTRA =        F    use ultrasoft PP ?                                                          
   IUNSCR =        1    unscreen: 0-lin 1-nonlin 2-no                                               
   RPACOR =    1.200    partial core radius                                                         
   POMASS =   14.001; ZVAL   =    5.000    mass and valenz                                          
   RCORE  =    1.500    outmost cutoff radius                                                       
   RWIGS  =    1.400; RWIGS  =    0.741    wigner-seitz radius (au A)                               
   ENMAX  =  400.000; ENMIN  =  300.000 eV                                                          
   ICORE  =        2    local potential                                                             
   LCOR   =        T    correct aug charges                                                         
   LPAW   =        T    paw PP                                                                      
   EAUG   =  627.112                                                                                
   DEXC   =    0.000                                                                                
   RMAX   =    1.529    core radius for proj-oper                                                   
   RAUG   =    1.300    factor for augmentation sphere                                              
   RDEP   =    1.514    radius for radial grids                                                     
   RDEPT  =    1.338    core radius for aug-charge                                                  
                                                                                                    
   Atomic configuration                                                                             
    4 entries                                                                                       
     n  l   j            E        occ.                                                              
     1  0  0.50      -384.7179   2.0000                                                             
     2  0  0.50       -18.5828   2.0000                                                             
     2  1  0.50        -7.0898   3.0000                                                             
     3  2  1.50        -6.8029   0.0000                                                             
   Description                                                                                      
     l       E           TYP  RCUT    TYP  RCUT                                                     
     0    -18.5828119     23  1.200                                                                 
     0    -13.5018863     23  1.200                                                                 
     1     -7.0897853     23  1.500                                                                 
     1      9.5240782     23  1.500                                                                 
     2     -6.8029130      7  1.500                                                                 
  local pseudopotential read in
  partial core-charges read in
  partial kinetic energy density read in
  atomic valenz-charges read in
  non local Contribution for L=            0  read in
    real space projection operators read in
  non local Contribution for L=            0  read in
    real space projection operators read in
  non local Contribution for L=            1  read in
    real space projection operators read in
  non local Contribution for L=            1  read in
    real space projection operators read in
    PAW grid and wavefunctions read in
 
   number of l-projection  operators is LMAX  =            4
   number of lm-projection operators is LMMAX =            8
 
 -----------------------------------------------------------------------------
|                                                                             |
|               ----> ADVICE to this user running VASP <----                  |
|                                                                             |
|     You have a (more or less) 'small supercell' and for smaller cells       |
|     it is recommended to use the reciprocal-space projection scheme!        |
|     The real-space optimization is not efficient for small cells and it     |
|     is also less accurate ...                                               |
|     Therefore, set LREAL=.FALSE. in the INCAR file.                         |
|                                                                             |
 -----------------------------------------------------------------------------

 Optimization of the real space projectors (new method)

 maximal supplied QI-value         = 25.13
 optimisation between [QCUT,QGAM] = [ 10.81, 21.61] = [ 32.71,130.83] Ry 
 Optimized for a Real-space Cutoff    1.23 Angstroem

   l    n(q)    QCUT    max X(q) W(low)/X(q) W(high)/X(q)  e(spline) 
   0      8    10.807    79.467    0.34E-03    0.68E-03    0.21E-06
   0      8    10.807    66.151    0.34E-03    0.67E-03    0.21E-06
   1      7    10.807    14.030    0.45E-03    0.13E-02    0.11E-05
   1      7    10.807     9.831    0.48E-03    0.13E-02    0.11E-05
  PAW_PBE N 08Apr2002                   :
 energy of atom  1       EATOM= -264.5486
 kinetic energy error for atom=    0.0253 (will be added to EATOM!!)
 
 
 POSCAR: O
  positions in cartesian coordinates
  No initial velocities read in
 exchange correlation table for  LEXCH =        8
   RHO(1)=    0.500       N(1)  =     2000
   RHO(2)=  100.500       N(2)  =     4000
 


--------------------------------------------------------------------------------------------------------


 ion  position               nearest neighbor table
   1  0.000  0.000  0.000-   2 1.10
   2  0.000  0.000  0.124-   1 1.10
 
  LATTYP: Found a simple orthorhombic cell.
 ALAT       =     7.5000000000
 B/A-ratio  =     1.0666666667
 C/A-ratio  =     1.1866666667
  
  Lattice vectors:
  
 A1 = (   7.5000000000,   0.0000000000,   0.0000000000)
 A2 = (   0.0000000000,   8.0000000000,   0.0000000000)
 A3 = (   0.0000000000,   0.0000000000,   8.9000000000)


Analysis of symmetry for initial positions (statically):
=====================================================================
 Subroutine PRICEL returns:
 Original cell was already a primitive cell.
 

 Routine SETGRP: Setting up the symmetry group for a 
 simple orthorhombic supercell.


 Subroutine GETGRP returns: Found  8 space group operations
 (whereof  4 operations were pure point group operations)
 out of a pool of  8 trial point group operations.


The static configuration has the point symmetry C_2v.
 The point group associated with its full space group is D_2h.


Analysis of symmetry for dynamics (positions and initial velocities):
=====================================================================
 Subroutine PRICEL returns:
 Original cell was already a primitive cell.
 

 Routine SETGRP: Setting up the symmetry group for a 
 simple orthorhombic supercell.


 Subroutine GETGRP returns: Found  8 space group operations
 (whereof  4 operations were pure point group operations)
 out of a pool of  8 trial point group operations.


The dynamic configuration has the point symmetry C_2v.
 The point group associated with its full space group is D_2h.


Analysis of structural, dynamic, and magnetic symmetry:
=====================================================================
 Subroutine PRICEL returns:
 Original cell was already a primitive cell.
 

 Routine SETGRP: Setting up the symmetry group for a 
 simple orthorhombic supercell.


 Subroutine GETGRP returns: Found  8 space group operations
 (whereof  4 operations were pure point group operations)
 out of a pool of  8 trial point group operations.


The overall configuration has the point symmetry C_2v.
 The point group associated with its full space group is D_2h.


 Subroutine INISYM returns: Found  8 space group operations
 (whereof  4 operations are pure point group operations),
 and found     1 'primitive' translations


----------------------------------------------------------------------------------------

                                     Primitive cell                                     

  volume of cell :     534.0000

  direct lattice vectors                    reciprocal lattice vectors
     7.500000000  0.000000000  0.000000000     0.133333333  0.000000000  0.000000000
     0.000000000  8.000000000  0.000000000     0.000000000  0.125000000  0.000000000
     0.000000000  0.000000000  8.900000000     0.000000000  0.000000000  0.112359551

  length of vectors
     7.500000000  8.000000000  8.900000000     0.133333333  0.125000000  0.112359551

  position of ions in fractional coordinates (direct lattice)
     0.000000000  0.000000000  0.000000000
     0.000000000  0.000000000  0.123595506

  ion indices of the primitive-cell ions
   primitive index   ion index
                 1           1
                 2           2

----------------------------------------------------------------------------------------

 
 
 KPOINTS: Automatic mesh                          

Automatic generation of k-mesh.
 Grid dimensions read from file:
 generate k-points for:    2    2    2

 Generating k-lattice:

  Cartesian coordinates                     Fractional coordinates (reciprocal lattice)
     0.066666667  0.000000000  0.000000000     0.500000000  0.000000000  0.000000000
     0.000000000  0.062500000  0.000000000     0.000000000  0.500000000  0.000000000
     0.000000000  0.000000000  0.056179775     0.000000000  0.000000000  0.500000000

  Length of vectors
     0.066666667  0.062500000  0.056179775

  Shift w.r.t. Gamma in fractional coordinates (k-lattice)
     0.000000000  0.000000000  0.000000000

 
 Subroutine IBZKPT returns following result:
 ===========================================
 
 Found      8 irreducible k-points:
 
 Following reciprocal coordinates:
            Coordinates               Weight
  0.000000  0.000000  0.000000      1.000000
  0.500000  0.000000  0.000000      1.000000
  0.000000  0.500000  0.000000      1.000000
  0.500000  0.500000  0.000000      1.000000
  0.000000  0.000000  0.500000      1.000000
  0.500000  0.000000  0.500000      1.000000
  0.000000  0.500000  0.500000      1.000000
  0.500000  0.500000  0.500000      1.000000
 
 Following cartesian coordinates:
            Coordinates               Weight
  0.000000  0.000000  0.000000      1.000000
  0.066667  0.000000  0.000000      1.000000
  0.000000  0.062500  0.000000      1.000000
  0.066667  0.062500  0.000000      1.000000
  0.000000  0.000000  0.056180      1.000000
  0.066667  0.000000  0.056180      1.000000
  0.000000  0.062500  0.056180      1.000000
  0.066667  0.062500  0.056180      1.000000
 


--------------------------------------------------------------------------------------------------------




 Dimension of arrays:
   k-points           NKPTS =      8   k-points in BZ     NKDIM =      8   number of bands    NBANDS=     10
   number of dos      NEDOS =    301   number of ions     NIONS =      2
   non local maximal  LDIM  =      4   non local SUM 2l+1 LMDIM =      8
   total plane-waves  NPLWV =  80640
   max r-space proj   IRMAX =   1218   max aug-charges    IRDMAX=   2058
   dimension x,y,z NGX =    40 NGY =   42 NGZ =   48
   dimension x,y,z NGXF=    80 NGYF=   84 NGZF=   96
   support grid    NGXF=    80 NGYF=   84 NGZF=   96
   ions per type =               2
   NGX,Y,Z   is equivalent  to a cutoff of   8.87,  8.73,  8.97 a.u.
   NGXF,Y,Z  is equivalent  to a cutoff of  17.73, 17.46, 17.93 a.u.

 SYSTEM =  unknown system                          
 POSCAR =  O                                       

 Startparameter for this run:
   NWRITE =      2    write-flag & timer
   PREC   = normal    normal or accurate (medium, high low for compatibility)
   ISTART =      0    job   : 0-new  1-cont  2-samecut
   ICHARG =      2    charge: 1-file 2-atom 10-const
   ISPIN  =      2    spin polarized calculation?
   LNONCOLLINEAR =      F non collinear calculations
   LSORBIT =      F    spin-orbit coupling
   INIWAV =      1    electr: 0-lowe 1-rand  2-diag
   LASPH  =      F    aspherical Exc in radial PAW
 Electronic Relaxation 1
   ENCUT  =  450.0 eV  33.07 Ry    5.75 a.u.  12.97 13.84 15.39*2*pi/ulx,y,z
   ENINI  =  450.0     initial cutoff
   ENAUG  =  627.1 eV  augmentation charge cutoff
   NELM   =     60;   NELMIN=  2; NELMDL= -5     # of ELM steps 
   EDIFF  = 0.1E-04   stopping-criterion for ELM
   LREAL  =      T    real-space projection
   NLSPLINE    = F    spline interpolate recip. space projectors
   LCOMPAT=      F    compatible to vasp.4.4
   GGA_COMPAT  = T    GGA compatible to vasp.4.4-vasp.4.6
   LMAXPAW     = -100 max onsite density
   LMAXMIX     =    2 max onsite mixed and CHGCAR
   VOSKOWN=      0    Vosko Wilk Nusair interpolation
   ROPT   =   -0.00050
 Ionic relaxation
   EDIFFG = -.5E-02   stopping-criterion for IOM
   NSW    =    300    number of steps for IOM
   NBLOCK =      1;   KBLOCK =    300    inner block; outer block 
   IBRION =      2    ionic relax: 0-MD 1-quasi-New 2-CG
   NFREE  =      1    steps in history (QN), initial steepest desc. (CG)
   ISIF   =      2    stress and relaxation
   IWAVPR =     11    prediction:  0-non 1-charg 2-wave 3-comb
   ISYM   =      2    0-nonsym 1-usesym 2-fastsym
   LCORR  =      T    Harris-Foulkes like correction to forces

   POTIM  = 0.5000    time-step for ionic-motion
   TEIN   =    0.0    initial temperature
   TEBEG  =    0.0;   TEEND  =   0.0 temperature during run
   SMASS  =  -3.00    Nose mass-parameter (am)
   estimated Nose-frequenzy (Omega)   =  0.10E-29 period in steps = 0.13E+47 mass=  -0.129E-26a.u.
   SCALEE = 1.0000    scale energy and forces
   NPACO  =    256;   APACO  = 10.0  distance and # of slots for P.C.
   PSTRESS=    0.0 pullay stress

  Mass of Ions in am
   POMASS =  14.00
  Ionic Valenz
   ZVAL   =   5.00
  Atomic Wigner-Seitz radii
   RWIGS  =  -1.00
  virtual crystal weights 
   VCA    =   1.00
   NELECT =      10.0000    total number of electrons
   NUPDOWN=      -1.0000    fix difference up-down

 DOS related values:
   EMIN   =  10.00;   EMAX   =-10.00  energy-range for DOS
   EFERMI =   0.00;   METHOD = LEGACY      
   ISMEAR =     0;   SIGMA  =   0.01  broadening in eV -4-tet -1-fermi 0-gaus

 Electronic relaxation 2 (details)
   IALGO  =     68    algorithm
   LDIAG  =      T    sub-space diagonalisation (order eigenvalues)
   LSUBROT=      F    optimize rotation matrix (better conditioning)
   TURBO    =      0    0=normal 1=particle mesh
   IRESTART =      0    0=no restart 2=restart with 2 vectors
   NREBOOT  =      0    no. of reboots
   NMIN     =      0    reboot dimension
   EREF     =   0.00    reference energy to select bands
   IMIX   =      4    mixing-type and parameters
     AMIX     =   0.40;   BMIX     =  1.00
     AMIX_MAG =   1.60;   BMIX_MAG =  1.00
     AMIN     =   0.10
     WC   =   100.;   INIMIX=   1;  MIXPRE=   1;  MAXMIX= -45

 Intra band minimization:
   WEIMIN = 0.0010     energy-eigenvalue tresh-hold
   EBREAK =  0.25E-06  absolut break condition
   DEPER  =   0.30     relativ break condition  

   TIME   =   0.40     timestep for ELM

  volume/ion in A,a.u.               =     267.00      1801.80
  Fermi-wavevector in a.u.,A,eV,Ry     =   0.434738  0.821536  2.571464  0.188997
  Thomas-Fermi vector in A             =   1.405943
 
 Write flags
   LWAVE        =      F    write WAVECAR
   LDOWNSAMPLE  =      F    k-point downsampling of WAVECAR
   LCHARG       =      F    write CHGCAR
   LVTOT        =      F    write LOCPOT, total local potential
   LVHAR        =      F    write LOCPOT, Hartree potential only
   LELF         =      F    write electronic localiz. function (ELF)
   LORBIT       =      0    0 simple, 1 ext, 2 COOP (PROOUT), +10 PAW based schemes


 Dipole corrections
   LMONO  =      F    monopole corrections only (constant potential shift)
   LDIPOL =      F    correct potential (dipole corrections)
   IDIPOL =      0    1-x, 2-y, 3-z, 4-all directions 
   EPSILON=  1.0000000 bulk dielectric constant

 Exchange correlation treatment:
   GGA     =    --    GGA type
   LEXCH   =     8    internal setting for exchange type
   LIBXC   =     F    Libxc                    
   VOSKOWN =     0    Vosko Wilk Nusair interpolation
   LHFCALC =     F    Hartree Fock is set to
   LHFONE  =     F    Hartree Fock one center treatment
   AEXX    =    0.0000 exact exchange contribution

 Linear response parameters
   LEPSILON=     F    determine dielectric tensor
   LRPA    =     F    only Hartree local field effects (RPA)
   LNABLA  =     F    use nabla operator in PAW spheres
   LVEL    =     F    velocity operator in full k-point grid
   CSHIFT  =0.1000    complex shift for real part using Kramers Kronig
   OMEGAMAX=  -1.0    maximum frequency
   DEG_THRESHOLD= 0.2000000E-02 threshold for treating states as degnerate
   RTIME   =   -0.100 relaxation time in fs
  (WPLASMAI=    0.000 imaginary part of plasma frequency in eV, 0.658/RTIME)
   DFIELD  = 0.0000000 0.0000000 0.0000000 field for delta impulse in time
 
  Optional k-point grid parameters
   LKPOINTS_OPT  =     F    use optional k-point grid
   KPOINTS_OPT_MODE=     1    mode for optional k-point grid
 
 Orbital magnetization related:
   ORBITALMAG=     F  switch on orbital magnetization
   LCHIMAG   =     F  perturbation theory with respect to B field
   DQ        =  0.001000  dq finite difference perturbation B field
   LLRAUG    =     F  two centre corrections for induced B field
   LBONE     =     F  B-component reconstruction in AE one-centre
   LVGVCALC  =     T  calculate vGv susceptibility
   LVGVAPPL  =     F  apply vGv susceptibility instead of pGv for G=0

 Random number generation:
   RANDOM_GENERATOR = DEFAULT
   PCG_SEED         = not used


--------------------------------------------------------------------------------------------------------


 conjugate gradient relaxation of ions
 charge density and potential will be updated during run
 spin polarized calculation
 RMM-DIIS sequential band-by-band and
  variant of blocked Davidson during initial phase
 perform sub-space diagonalisation
    before iterative eigenvector-optimisation
 modified Broyden-mixing scheme, WC =      100.0
 initial mixing is a Kerker type mixing with AMIX =  0.4000 and BMIX =      1.0000
 Hartree-type preconditioning will be used
 using additional bands             5
 real space projection scheme for non local part
 use partial core corrections
 calculate Harris-corrections to forces 
   (improved forces if not selfconsistent)
 use gradient corrections 
 use of overlap-Matrix (Vanderbilt PP)
 Gauss-broadening in eV      SIGMA  =   0.01


--------------------------------------------------------------------------------------------------------


  energy-cutoff  :      450.00
  volume of cell :      534.00
      direct lattice vectors                 reciprocal lattice vectors
     7.500000000  0.000000000  0.000000000     0.133333333  0.000000000  0.000000000
     0.000000000  8.000000000  0.000000000     0.000000000  0.125000000  0.000000000
     0.000000000  0.000000000  8.900000000     0.000000000  0.000000000  0.112359551

  length of vectors
     7.500000000  8.000000000  8.900000000     0.133333333  0.125000000  0.112359551


 
 k-points in units of 2pi/SCALE and weight: Automatic mesh                          
   0.00000000  0.00000000  0.00000000       0.125
   0.06666667  0.00000000  0.00000000       0.125
   0.00000000  0.06250000  0.00000000       0.125
   0.06666667  0.06250000  0.00000000       0.125
   0.00000000  0.00000000  0.05617978       0.125
   0.06666667  0.00000000  0.05617978       0.125
   0.00000000  0.06250000  0.05617978       0.125
   0.06666667  0.06250000  0.05617978       0.125
 
 k-points in reciprocal lattice and weights: Automatic mesh                          
   0.00000000  0.00000000  0.00000000       0.125
   0.50000000  0.00000000  0.00000000       0.125
   0.00000000  0.50000000  0.00000000       0.125
   0.50000000  0.50000000  0.00000000       0.125
   0.00000000  0.00000000  0.50000000       0.125
   0.50000000  0.00000000  0.50000000       0.125
   0.00000000  0.50000000  0.50000000       0.125
   0.50000000  0.50000000  0.50000000       0.125
 
 position of ions in fractional coordinates (direct lattice) 
   0.00000000  0.00000000  0.00000000
   0.00000000  0.00000000  0.12359551
 
 position of ions in cartesian coordinates  (Angst):
   0.00000000  0.00000000  0.00000000
   0.00000000  0.00000000  1.10000000
 


--------------------------------------------------------------------------------------------------------


 k-point   1 :   0.0000 0.0000 0.0000  plane waves:   11565
 k-point   2 :   0.5000 0.0000 0.0000  plane waves:   11594
 k-point   3 :   0.0000 0.5000 0.0000  plane waves:   11568
 k-point   4 :   0.5000 0.5000 0.0000  plane waves:   11596
 k-point   5 :   0.0000 0.0000 0.5000  plane waves:   11570
 k-point   6 :   0.5000 0.0000 0.5000  plane waves:   11560
 k-point   7 :   0.0000 0.5000 0.5000  plane waves:   11576
 k-point   8 :   0.5000 0.5000 0.5000  plane waves:   11576

 maximum and minimum number of plane-waves per node :     11596    11560

 maximum number of plane-waves:     11596
 maximum index in each direction: 
   IXMAX=   12   IYMAX=   13   IZMAX=   15
   IXMIN=  -13   IYMIN=  -14   IZMIN=  -15


 serial   3D FFT for wavefunctions
 parallel 3D FFT for charge:
    minimum data exchange during FFTs selected (reduces bandwidth)


 total amount of memory used by VASP MPI-rank0   136061. kBytes
=======================================================================

   base      :      30000. kBytes
   nonlr-proj:        201. kBytes
   fftplans  :      22416. kBytes
   grid      :      53706. kBytes
   one-center:         12. kBytes
   wavefun   :      29726. kBytes
 
     INWAV:  cpu time      0.0000: real time      0.0001
 Broyden mixing: mesh for mixing (old mesh)
   NGX = 25   NGY = 27   NGZ = 31
  (NGX  = 80   NGY  = 84   NGZ  = 96)
  gives a total of  20925 points

 initial charge density was supplied:
 charge density of overlapping atoms calculated
 number of electron      10.0000000 magnetization       2.0000000
 keeping initial charge density in first step


--------------------------------------------------------------------------------------------------------


 Maximum index for non-local projection operator          1149
 Maximum index for augmentation-charges          1827 (set IRDMAX)


--------------------------------------------------------------------------------------------------------


 First call to EWALD:  gamma=   0.218
 Maximum number of real-space cells 3x 3x 3
 Maximum number of reciprocal cells 3x 3x 3

    FEWALD:  cpu time      0.0010: real time      0.0010


--------------------------------------- Ionic step        1  -------------------------------------------




--------------------------------------- Iteration      1(   1)  ---------------------------------------


    POTLOK:  cpu time      0.0612: real time      0.0612
    SETDIJ:  cpu time      0.0126: real time      0.0126
     EDDAV:  cpu time      0.2999: real time      0.2998
       DOS:  cpu time      0.0005: real time      0.0005
    --------------------------------------------
      LOOP:  cpu time      0.3743: real time      0.3742

 eigenvalue-minimisations  :   328
 total energy-change (2. order) : 0.7109966E+02  (-0.2299457E+03)
 number of electron      10.0000000 magnetization       2.0000000
 augmentation part       10.0000000 magnetization       2.0000000

 Free energy of the ion-electron system (eV)
  ---------------------------------------------------
  alpha Z        PSCENC =         0.80708599
  Ewald energy   TEWEN  =        78.44961200
  -Hartree energ DENC   =      -492.09190816
  -exchange      EXHF   =         0.00000000
  -V(xc)+E(xc)   XCENC  =        38.36329014
  PAW double counting   =       409.59252718     -411.96220189
  entropy T*S    EENTRO =        -0.00014071
  eigenvalues    EBANDS =       -81.10519661
  atomic energy  EATOM  =       529.04659352
  Solvation  Ediel_sol  =         0.00000000
  ---------------------------------------------------
  free energy    TOTEN  =        71.09966146 eV

  energy without entropy =       71.09980217  energy(sigma->0) =       71.09973181


--------------------------------------------------------------------------------------------------------




--------------------------------------- Iteration      1(   2)  ---------------------------------------


     EDDAV:  cpu time      0.1023: real time      0.1028
       DOS:  cpu time      0.0002: real time      0.0002
    --------------------------------------------
      LOOP:  cpu time      0.1025: real time      0.1030

 eigenvalue-minimisations  :   552
 total energy-change (2. order) :-0.7827787E+02  (-0.7623679E+02)
 number of electron      10.0000000 magnetization       2.0000000
 augmentation part       10.0000000 magnetization       2.0000000

 Free energy of the ion-electron system (eV)
  ---------------------------------------------------
  alpha Z        PSCENC =         0.80708599
  Ewald energy   TEWEN  =        78.44961200
  -Hartree energ DENC   =      -492.09190816
  -exchange      EXHF   =         0.00000000
  -V(xc)+E(xc)   XCENC  =        38.36329014
  PAW double counting   =       409.59252718     -411.96220189
  entropy T*S    EENTRO =        -0.00000000
  eigenvalues    EBANDS =      -159.38320759
  atomic energy  EATOM  =       529.04659352
  Solvation  Ediel_sol  =         0.00000000
  ---------------------------------------------------
  free energy    TOTEN  =        -7.17820881 eV

  energy without entropy =       -7.17820881  energy(sigma->0) =       -7.17820881


--------------------------------------------------------------------------------------------------------




--------------------------------------- Iteration      1(   3)  ---------------------------------------


     EDDAV:  cpu time      0.0969: real time      0.0974
       DOS:  cpu time      0.0002: real time      0.0002
    --------------------------------------------
      LOOP:  cpu time      0.0972: real time      0.0976

 eigenvalue-minimisations  :   512
 total energy-change (2. order) :-0.9435634E+01  (-0.9430494E+01)
 number of electron      10.0000000 magnetization       2.0000000
 augmentation part       10.0000000 magnetization       2.0000000

 Free energy of the ion-electron system (eV)
  ---------------------------------------------------
  alpha Z        PSCENC =         0.80708599
  Ewald energy   TEWEN  =        78.44961200
  -Hartree energ DENC   =      -492.09190816
  -exchange      EXHF   =         0.00000000
  -V(xc)+E(xc)   XCENC  =        38.36329014
  PAW double counting   =       409.59252718     -411.96220189
  entropy T*S    EENTRO =        -0.00000000
  eigenvalues    EBANDS =      -168.81884162
  atomic energy  EATOM  =       529.04659352
  Solvation  Ediel_sol  =         0.00000000
  ---------------------------------------------------
  free energy    TOTEN  =       -16.61384285 eV

  energy without entropy =      -16.61384285  energy(sigma->0) =      -16.61384285


--------------------------------------------------------------------------------------------------------




--------------------------------------- Iteration      1(   4)  ---------------------------------------


     EDDAV:  cpu time      0.0806: real time      0.0811
       DOS:  cpu time      0.0002: real time      0.0002
    --------------------------------------------
      LOOP:  cpu time      0.0809: real time      0.0813

 eigenvalue-minimisations  :   480
 total energy-change (2. order) :-0.1306589E+00  (-0.1306087E+00)
 number of electron      10.0000000 magnetization       2.0000000
 augmentation part       10.0000000 magnetization       2.0000000

 Free energy of the ion-electron system (eV)
  ---------------------------------------------------
  alpha Z        PSCENC =         0.80708599
  Ewald energy   TEWEN  =        78.44961200
  -Hartree energ DENC   =      -492.09190816
  -exchange      EXHF   =         0.00000000
  -V(xc)+E(xc)   XCENC  =        38.36329014
  PAW double counting   =       409.59252718     -411.96220189
  entropy T*S    EENTRO =        -0.00000000
  eigenvalues    EBANDS =      -168.94950052
  atomic energy  EATOM  =       529.04659352
  Solvation  Ediel_sol  =         0.00000000
  ---------------------------------------------------
  free energy    TOTEN  =       -16.74450175 eV

  energy without entropy =      -16.74450175  energy(sigma->0) =      -16.74450175


--------------------------------------------------------------------------------------------------------




--------------------------------------- Iteration      1(   5)  ---------------------------------------


     EDDAV:  cpu time      0.0619: real time      0.0623
       DOS:  cpu time      0.0002: real time      0.0002
    CHARGE:  cpu time      0.0512: real time      0.0511
    MIXING:  cpu time      0.0177: real time      0.0177
    --------------------------------------------
      LOOP:  cpu time      0.1310: real time      0.1313

 eigenvalue-minimisations  :   402
 total energy-change (2. order) :-0.2976632E-03  (-0.2976545E-03)
 number of electron       9.9999974 magnetization       0.9356085
 augmentation part        0.3966242 magnetization       0.9404452

 Broyden mixing:
  rms(total) = 0.11047E+01    rms(broyden)= 0.11035E+01
  rms(prec ) = 0.11957E+01
  weight for this iteration     100.00

 Free energy of the ion-electron system (eV)
  ---------------------------------------------------
  alpha Z        PSCENC =         0.80708599
  Ewald energy   TEWEN  =        78.44961200
  -Hartree energ DENC   =      -492.09190816
  -exchange      EXHF   =         0.00000000
  -V(xc)+E(xc)   XCENC  =        38.36329014
  PAW double counting   =       409.59252718     -411.96220189
  entropy T*S    EENTRO =        -0.00000000
  eigenvalues    EBANDS =      -168.94979819
  atomic energy  EATOM  =       529.04659352
  Solvation  Ediel_sol  =         0.00000000
  ---------------------------------------------------
  free energy    TOTEN  =       -16.74479941 eV

  energy without entropy =      -16.74479941  energy(sigma->0) =      -16.74479941


--------------------------------------------------------------------------------------------------------




--------------------------------------- Iteration      1(   6)  ---------------------------------------


    POTLOK:  cpu time      0.0137: real time      0.0144
    SETDIJ:  cpu time      0.0110: real time      0.0110
    EDDIAG:  cpu time      0.0078: real time      0.0078
  RMM-DIIS:  cpu time      0.0532: real time      0.0590
    ORTHCH:  cpu time      0.0015: real time      0.0015
       DOS:  cpu time      0.0002: real time      0.0002
    CHARGE:  cpu time      0.0512: real time      0.0512
    MIXING:  cpu time      0.0187: real time      0.0187
    --------------------------------------------
      LOOP:  cpu time      0.1573: real time      0.1638

 eigenvalue-minimisations  :   320
 total energy-change (2. order) : 0.4475927E+01  (-0.3595615E+00)
 number of electron       9.9999974 magnetization       0.3842976
 augmentation part        0.3840928 magnetization       0.3742881

 Broyden mixing:
  rms(total) = 0.50505E+00    rms(broyden)= 0.50493E+00
  rms(prec ) = 0.56804E+00
  weight for this iteration     100.00

 eigenvalues of (default mixing * dielectric matrix)
  average eigenvalue GAMMA=   0.9007
  0.9007

 Free energy of the ion-electron system (eV)
  ---------------------------------------------------
  alpha Z        PSCENC =         0.80708599
  Ewald energy   TEWEN  =        78.44961200
  -Hartree energ DENC   =      -504.00248514
  -exchange      EXHF   =         0.00000000
  -V(xc)+E(xc)   XCENC  =        42.40219848
  PAW double counting   =       605.63079383     -608.16618740
  entropy T*S    EENTRO =        -0.00000000
  eigenvalues    EBANDS =      -156.43648344
  atomic energy  EATOM  =       529.04659352
  Solvation  Ediel_sol  =         0.00000000
  ---------------------------------------------------
  free energy    TOTEN  =       -12.26887216 eV

  energy without entropy =      -12.26887216  energy(sigma->0) =      -12.26887216


--------------------------------------------------------------------------------------------------------




--------------------------------------- Iteration      1(   7)  ---------------------------------------


    POTLOK:  cpu time      0.0138: real time      0.0142
    SETDIJ:  cpu time      0.0109: real time      0.0109
    EDDIAG:  cpu time      0.0066: real time      0.0066
  RMM-DIIS:  cpu time      0.0533: real time      0.0533
    ORTHCH:  cpu time      0.0015: real time      0.0015
       DOS:  cpu time      0.0003: real time      0.0003
    CHARGE:  cpu time      0.0516: real time      0.0515
    MIXING:  cpu time      0.0186: real time      0.0186
    --------------------------------------------
      LOOP:  cpu time      0.1564: real time      0.1568

 eigenvalue-minimisations  :   320
 total energy-change (2. order) :-0.3299860E+01  (-0.2084154E+00)
 number of electron       9.9999975 magnetization      -0.0295036
 augmentation part        0.3766616 magnetization      -0.0362038

 Broyden mixing:
  rms(total) = 0.26407E+00    rms(broyden)= 0.26407E+00
  rms(prec ) = 0.28610E+00
  weight for this iteration     100.00

 eigenvalues of (default mixing * dielectric matrix)
  average eigenvalue GAMMA=   1.2832
  0.8010  1.7655

 Free energy of the ion-electron system (eV)
  ---------------------------------------------------
  alpha Z        PSCENC =         0.80708599
  Ewald energy   TEWEN  =        78.44961200
  -Hartree energ DENC   =      -512.01184686
  -exchange      EXHF   =         0.00000000
  -V(xc)+E(xc)   XCENC  =        40.16297743
  PAW double counting   =       767.99572411     -770.62449972
  entropy T*S    EENTRO =        -0.00000000
  eigenvalues    EBANDS =      -149.39437902
  atomic energy  EATOM  =       529.04659352
  Solvation  Ediel_sol  =         0.00000000
  ---------------------------------------------------
  free energy    TOTEN  =       -15.56873254 eV

  energy without entropy =      -15.56873254  energy(sigma->0) =      -15.56873254


--------------------------------------------------------------------------------------------------------




--------------------------------------- Iteration      1(   8)  ---------------------------------------


    POTLOK:  cpu time      0.0137: real time      0.0141
    SETDIJ:  cpu time      0.0110: real time      0.0110
    EDDIAG:  cpu time      0.0069: real time      0.0069
  RMM-DIIS:  cpu time      0.0528: real time      0.0528
    ORTHCH:  cpu time      0.0015: real time      0.0015
       DOS:  cpu time      0.0002: real time      0.0003
    CHARGE:  cpu time      0.0513: real time      0.0513
    MIXING:  cpu time      0.0188: real time      0.0187
    --------------------------------------------
      LOOP:  cpu time      0.1562: real time      0.1565

 eigenvalue-minimisations  :   320
 total energy-change (2. order) :-0.8607824E+00  (-0.1257917E+00)
 number of electron       9.9999975 magnetization      -0.0074181
 augmentation part        0.3630876 magnetization      -0.0106160

 Broyden mixing:
  rms(total) = 0.10799E+00    rms(broyden)= 0.10796E+00
  rms(prec ) = 0.12258E+00
  weight for this iteration     100.00

 eigenvalues of (default mixing * dielectric matrix)
  average eigenvalue GAMMA=   1.2559
  2.0777  0.9925  0.6976

 Free energy of the ion-electron system (eV)
  ---------------------------------------------------
  alpha Z        PSCENC =         0.80708599
  Ewald energy   TEWEN  =        78.44961200
  -Hartree energ DENC   =      -517.63217764
  -exchange      EXHF   =         0.00000000
  -V(xc)+E(xc)   XCENC  =        39.73015371
  PAW double counting   =       943.44437652     -946.15085441
  entropy T*S    EENTRO =        -0.00000000
  eigenvalues    EBANDS =      -144.12430460
  atomic energy  EATOM  =       529.04659352
  Solvation  Ediel_sol  =         0.00000000
  ---------------------------------------------------
  free energy    TOTEN  =       -16.42951490 eV

  energy without entropy =      -16.42951490  energy(sigma->0) =      -16.42951490


--------------------------------------------------------------------------------------------------------




--------------------------------------- Iteration      1(   9)  ---------------------------------------


    POTLOK:  cpu time      0.0137: real time      0.0141
    SETDIJ:  cpu time      0.0109: real time      0.0109
    EDDIAG:  cpu time      0.0063: real time      0.0063
  RMM-DIIS:  cpu time      0.0532: real time      0.0532
    ORTHCH:  cpu time      0.0015: real time      0.0015
       DOS:  cpu time      0.0002: real time      0.0002
    CHARGE:  cpu time      0.0513: real time      0.0512
    MIXING:  cpu time      0.0197: real time      0.0197
    --------------------------------------------
      LOOP:  cpu time      0.1567: real time      0.1571

 eigenvalue-minimisations  :   321
 total energy-change (2. order) :-0.1593252E+00  (-0.1919722E-01)
 number of electron       9.9999976 magnetization       0.0337086
 augmentation part        0.3621343 magnetization       0.0320951

 Broyden mixing:
  rms(total) = 0.67472E-01    rms(broyden)= 0.67462E-01
  rms(prec ) = 0.81192E-01
  weight for this iteration     100.00

 eigenvalues of (default mixing * dielectric matrix)
  average eigenvalue GAMMA=   1.3244
  1.9466  1.8003  0.8649  0.6858

 Free energy of the ion-electron system (eV)
  ---------------------------------------------------
  alpha Z        PSCENC =         0.80708599
  Ewald energy   TEWEN  =        78.44961200
  -Hartree energ DENC   =      -516.26338518
  -exchange      EXHF   =         0.00000000
  -V(xc)+E(xc)   XCENC  =        39.52737571
  PAW double counting   =       967.31257305     -970.01026866
  entropy T*S    EENTRO =        -0.00000000
  eigenvalues    EBANDS =      -145.45842655
  atomic energy  EATOM  =       529.04659352
  Solvation  Ediel_sol  =         0.00000000
  ---------------------------------------------------
  free energy    TOTEN  =       -16.58884012 eV

  energy without entropy =      -16.58884012  energy(sigma->0) =      -16.58884012


--------------------------------------------------------------------------------------------------------




--------------------------------------- Iteration      1(  10)  ---------------------------------------


    POTLOK:  cpu time      0.0137: real time      0.0142
    SETDIJ:  cpu time      0.0108: real time      0.0108
    EDDIAG:  cpu time      0.0063: real time      0.0063
  RMM-DIIS:  cpu time      0.0532: real time      0.0531
    ORTHCH:  cpu time      0.0015: real time      0.0015
       DOS:  cpu time      0.0002: real time      0.0002
    CHARGE:  cpu time      0.0516: real time      0.0516
    MIXING:  cpu time      0.0200: real time      0.0200
    --------------------------------------------
      LOOP:  cpu time      0.1573: real time      0.1578

 eigenvalue-minimisations  :   320
 total energy-change (2. order) : 0.3028198E-01  (-0.4827809E-02)
 number of electron       9.9999975 magnetization       0.0013883
 augmentation part        0.3640043 magnetization       0.0009719

 Broyden mixing:
  rms(total) = 0.25772E-01    rms(broyden)= 0.25770E-01
  rms(prec ) = 0.29188E-01
  weight for this iteration     100.00

 eigenvalues of (default mixing * dielectric matrix)
  average eigenvalue GAMMA=   1.3410
  2.2764  1.9291  1.0934  0.7406  0.6655

 Free energy of the ion-electron system (eV)
  ---------------------------------------------------
  alpha Z        PSCENC =         0.80708599
  Ewald energy   TEWEN  =        78.44961200
  -Hartree energ DENC   =      -513.12745290
  -exchange      EXHF   =         0.00000000
  -V(xc)+E(xc)   XCENC  =        39.35064592
  PAW double counting   =       994.27457978     -996.95381883
  entropy T*S    EENTRO =        -0.00000000
  eigenvalues    EBANDS =      -148.40580362
  atomic energy  EATOM  =       529.04659352
  Solvation  Ediel_sol  =         0.00000000
  ---------------------------------------------------
  free energy    TOTEN  =       -16.55855814 eV

  energy without entropy =      -16.55855814  energy(sigma->0) =      -16.55855814


--------------------------------------------------------------------------------------------------------




--------------------------------------- Iteration      1(  11)  ---------------------------------------


    POTLOK:  cpu time      0.0137: real time      0.0141
    SETDIJ:  cpu time      0.0108: real time      0.0108
    EDDIAG:  cpu time      0.0063: real time      0.0063
  RMM-DIIS:  cpu time      0.0526: real time      0.0526
    ORTHCH:  cpu time      0.0015: real time      0.0015
       DOS:  cpu time      0.0002: real time      0.0002
    CHARGE:  cpu time      0.0507: real time      0.0507
    MIXING:  cpu time      0.0224: real time      0.0224
    --------------------------------------------
      LOOP:  cpu time      0.1582: real time      0.1586

 eigenvalue-minimisations  :   320
 total energy-change (2. order) :-0.4604707E-01  (-0.1464467E-02)
 number of electron       9.9999975 magnetization      -0.0018891
 augmentation part        0.3632261 magnetization      -0.0022973

 Broyden mixing:
  rms(total) = 0.85299E-02    rms(broyden)= 0.85272E-02
  rms(prec ) = 0.10931E-01
  weight for this iteration     100.00

 eigenvalues of (default mixing * dielectric matrix)
  average eigenvalue GAMMA=   1.2213
  2.2646  1.7456  1.1407  0.8219  0.7045  0.6504

 Free energy of the ion-electron system (eV)
  ---------------------------------------------------
  alpha Z        PSCENC =         0.80708599
  Ewald energy   TEWEN  =        78.44961200
  -Hartree energ DENC   =      -513.59365745
  -exchange      EXHF   =         0.00000000
  -V(xc)+E(xc)   XCENC  =        39.34258973
  PAW double counting   =      1005.57665138    -1008.26323917
  entropy T*S    EENTRO =        -0.00000000
  eigenvalues    EBANDS =      -147.97024120
  atomic energy  EATOM  =       529.04659352
  Solvation  Ediel_sol  =         0.00000000
  ---------------------------------------------------
  free energy    TOTEN  =       -16.60460521 eV

  energy without entropy =      -16.60460521  energy(sigma->0) =      -16.60460521


--------------------------------------------------------------------------------------------------------




--------------------------------------- Iteration      1(  12)  ---------------------------------------


    POTLOK:  cpu time      0.0142: real time      0.0147
    SETDIJ:  cpu time      0.0104: real time      0.0104
    EDDIAG:  cpu time      0.0063: real time      0.0063
  RMM-DIIS:  cpu time      0.0534: real time      0.0534
    ORTHCH:  cpu time      0.0015: real time      0.0015
       DOS:  cpu time      0.0002: real time      0.0002
    CHARGE:  cpu time      0.0508: real time      0.0508
    MIXING:  cpu time      0.0227: real time      0.0227
    --------------------------------------------
      LOOP:  cpu time      0.1595: real time      0.1599

 eigenvalue-minimisations  :   321
 total energy-change (2. order) :-0.2384444E-02  (-0.3509041E-03)
 number of electron       9.9999976 magnetization       0.0028142
 augmentation part        0.3625952 magnetization       0.0026152

 Broyden mixing:
  rms(total) = 0.45396E-02    rms(broyden)= 0.45376E-02
  rms(prec ) = 0.73152E-02
  weight for this iteration     100.00

 eigenvalues of (default mixing * dielectric matrix)
  average eigenvalue GAMMA=   1.2053
  1.9454  1.9454  1.1722  1.1722  0.7814  0.7814  0.6389

 Free energy of the ion-electron system (eV)
  ---------------------------------------------------
  alpha Z        PSCENC =         0.80708599
  Ewald energy   TEWEN  =        78.44961200
  -Hartree energ DENC   =      -513.81053659
  -exchange      EXHF   =         0.00000000
  -V(xc)+E(xc)   XCENC  =        39.35353273
  PAW double counting   =      1003.98632768    -1006.67463880
  entropy T*S    EENTRO =        -0.00000000
  eigenvalues    EBANDS =      -147.76496619
  atomic energy  EATOM  =       529.04659352
  Solvation  Ediel_sol  =         0.00000000
  ---------------------------------------------------
  free energy    TOTEN  =       -16.60698965 eV

  energy without entropy =      -16.60698965  energy(sigma->0) =      -16.60698965


--------------------------------------------------------------------------------------------------------




--------------------------------------- Iteration      1(  13)  ---------------------------------------


    POTLOK:  cpu time      0.0136: real time      0.0141
    SETDIJ:  cpu time      0.0109: real time      0.0109
    EDDIAG:  cpu time      0.0063: real time      0.0063
  RMM-DIIS:  cpu time      0.0537: real time      0.0537
    ORTHCH:  cpu time      0.0015: real time      0.0015
       DOS:  cpu time      0.0003: real time      0.0003
    CHARGE:  cpu time      0.0506: real time      0.0506
    MIXING:  cpu time      0.0236: real time      0.0236
    --------------------------------------------
      LOOP:  cpu time      0.1604: real time      0.1608

 eigenvalue-minimisations  :   321
 total energy-change (2. order) :-0.1548440E-02  (-0.9338011E-04)
 number of electron       9.9999976 magnetization       0.0014275
 augmentation part        0.3624424 magnetization       0.0013055

 Broyden mixing:
  rms(total) = 0.39782E-02    rms(broyden)= 0.39775E-02
  rms(prec ) = 0.52447E-02
  weight for this iteration     100.00

 eigenvalues of (default mixing * dielectric matrix)
  average eigenvalue GAMMA=   1.3362
  2.3662  2.3662  1.6549  1.0596  1.0596  0.6385  0.7724  0.7724

 Free energy of the ion-electron system (eV)
  ---------------------------------------------------
  alpha Z        PSCENC =         0.80708599
  Ewald energy   TEWEN  =        78.44961200
  -Hartree energ DENC   =      -513.68159807
  -exchange      EXHF   =         0.00000000
  -V(xc)+E(xc)   XCENC  =        39.34239002
  PAW double counting   =       999.06672692    -1001.75374092
  entropy T*S    EENTRO =        -0.00000000
  eigenvalues    EBANDS =      -147.88560756
  atomic energy  EATOM  =       529.04659352
  Solvation  Ediel_sol  =         0.00000000
  ---------------------------------------------------
  free energy    TOTEN  =       -16.60853809 eV

  energy without entropy =      -16.60853809  energy(sigma->0) =      -16.60853809


--------------------------------------------------------------------------------------------------------




--------------------------------------- Iteration      1(  14)  ---------------------------------------


    POTLOK:  cpu time      0.0138: real time      0.0141
    SETDIJ:  cpu time      0.0109: real time      0.0109
    EDDIAG:  cpu time      0.0063: real time      0.0063
  RMM-DIIS:  cpu time      0.0526: real time      0.0526
    ORTHCH:  cpu time      0.0015: real time      0.0015
       DOS:  cpu time      0.0002: real time      0.0002
    CHARGE:  cpu time      0.0512: real time      0.0512
    MIXING:  cpu time      0.0251: real time      0.0251
    --------------------------------------------
      LOOP:  cpu time      0.1616: real time      0.1619

 eigenvalue-minimisations  :   320
 total energy-change (2. order) :-0.7334136E-03  (-0.3202851E-04)
 number of electron       9.9999976 magnetization       0.0007317
 augmentation part        0.3624774 magnetization       0.0006805

 Broyden mixing:
  rms(total) = 0.15292E-02    rms(broyden)= 0.15290E-02
  rms(prec ) = 0.23049E-02
  weight for this iteration     100.00

 eigenvalues of (default mixing * dielectric matrix)
  average eigenvalue GAMMA=   1.3346
  2.8819  2.4107  1.6911  1.0769  1.0769  0.7770  0.7770  0.6432  0.6765

 Free energy of the ion-electron system (eV)
  ---------------------------------------------------
  alpha Z        PSCENC =         0.80708599
  Ewald energy   TEWEN  =        78.44961200
  -Hartree energ DENC   =      -513.53005182
  -exchange      EXHF   =         0.00000000
  -V(xc)+E(xc)   XCENC  =        39.33201692
  PAW double counting   =      1000.71427429    -1003.40066142
  entropy T*S    EENTRO =        -0.00000000
  eigenvalues    EBANDS =      -148.02814099
  atomic energy  EATOM  =       529.04659352
  Solvation  Ediel_sol  =         0.00000000
  ---------------------------------------------------
  free energy    TOTEN  =       -16.60927151 eV

  energy without entropy =      -16.60927151  energy(sigma->0) =      -16.60927151


--------------------------------------------------------------------------------------------------------




--------------------------------------- Iteration      1(  15)  ---------------------------------------


    POTLOK:  cpu time      0.0137: real time      0.0142
    SETDIJ:  cpu time      0.0108: real time      0.0108
    EDDIAG:  cpu time      0.0063: real time      0.0063
  RMM-DIIS:  cpu time      0.0500: real time      0.0500
    ORTHCH:  cpu time      0.0015: real time      0.0015
       DOS:  cpu time      0.0002: real time      0.0002
    CHARGE:  cpu time      0.0508: real time      0.0508
    MIXING:  cpu time      0.0277: real time      0.0277
    --------------------------------------------
      LOOP:  cpu time      0.1610: real time      0.1614

 eigenvalue-minimisations  :   302
 total energy-change (2. order) :-0.1851918E-03  (-0.7152149E-05)
 number of electron       9.9999976 magnetization      -0.0013022
 augmentation part        0.3624450 magnetization      -0.0013399

 Broyden mixing:
  rms(total) = 0.98974E-03    rms(broyden)= 0.98961E-03
  rms(prec ) = 0.17329E-02
  weight for this iteration     100.00

 eigenvalues of (default mixing * dielectric matrix)
  average eigenvalue GAMMA=   1.3541
  2.9253  2.1486  2.1486  1.2969  1.0938  1.0938  0.7631  0.7631  0.6462  0.6615

 Free energy of the ion-electron system (eV)
  ---------------------------------------------------
  alpha Z        PSCENC =         0.80708599
  Ewald energy   TEWEN  =        78.44961200
  -Hartree energ DENC   =      -513.53376634
  -exchange      EXHF   =         0.00000000
  -V(xc)+E(xc)   XCENC  =        39.33215922
  PAW double counting   =      1001.17732127    -1003.86375289
  entropy T*S    EENTRO =        -0.00000000
  eigenvalues    EBANDS =      -148.02470947
  atomic energy  EATOM  =       529.04659352
  Solvation  Ediel_sol  =         0.00000000
  ---------------------------------------------------
  free energy    TOTEN  =       -16.60945670 eV

  energy without entropy =      -16.60945670  energy(sigma->0) =      -16.60945670


--------------------------------------------------------------------------------------------------------




--------------------------------------- Iteration      1(  16)  ---------------------------------------


    POTLOK:  cpu time      0.0140: real time      0.0143
    SETDIJ:  cpu time      0.0106: real time      0.0106
    EDDIAG:  cpu time      0.0070: real time      0.0070
  RMM-DIIS:  cpu time      0.0553: real time      0.0553
    ORTHCH:  cpu time      0.0015: real time      0.0015
       DOS:  cpu time      0.0003: real time      0.0003
    CHARGE:  cpu time      0.0511: real time      0.0511
    MIXING:  cpu time      0.0273: real time      0.0273
    --------------------------------------------
      LOOP:  cpu time      0.1670: real time      0.1674

 eigenvalue-minimisations  :   304
 total energy-change (2. order) :-0.3799985E-03  (-0.1202564E-04)
 number of electron       9.9999976 magnetization      -0.0002213
 augmentation part        0.3623593 magnetization      -0.0002307

 Broyden mixing:
  rms(total) = 0.10376E-02    rms(broyden)= 0.10375E-02
  rms(prec ) = 0.13649E-02
  weight for this iteration     100.00

 eigenvalues of (default mixing * dielectric matrix)
  average eigenvalue GAMMA=   1.4422
  3.8253  2.4293  2.1515  1.7273  1.0985  1.0985  0.8022  0.8022  0.6827  0.6423
  0.6040

 Free energy of the ion-electron system (eV)
  ---------------------------------------------------
  alpha Z        PSCENC =         0.80708599
  Ewald energy   TEWEN  =        78.44961200
  -Hartree energ DENC   =      -513.60691994
  -exchange      EXHF   =         0.00000000
  -V(xc)+E(xc)   XCENC  =        39.33679481
  PAW double counting   =      1001.97552255    -1004.66220367
  entropy T*S    EENTRO =        -0.00000000
  eigenvalues    EBANDS =      -147.95632195
  atomic energy  EATOM  =       529.04659352
  Solvation  Ediel_sol  =         0.00000000
  ---------------------------------------------------
  free energy    TOTEN  =       -16.60983670 eV

  energy without entropy =      -16.60983670  energy(sigma->0) =      -16.60983670


--------------------------------------------------------------------------------------------------------




--------------------------------------- Iteration      1(  17)  ---------------------------------------


    POTLOK:  cpu time      0.0146: real time      0.0150
    SETDIJ:  cpu time      0.0111: real time      0.0111
    EDDIAG:  cpu time      0.0070: real time      0.0070
  RMM-DIIS:  cpu time      0.0470: real time      0.0470
    ORTHCH:  cpu time      0.0016: real time      0.0016
       DOS:  cpu time      0.0002: real time      0.0002
    CHARGE:  cpu time      0.0512: real time      0.0512
    MIXING:  cpu time      0.0281: real time      0.0281
    --------------------------------------------
      LOOP:  cpu time      0.1610: real time      0.1613

 eigenvalue-minimisations  :   256
 total energy-change (2. order) :-0.9287864E-04  (-0.2711283E-05)
 number of electron       9.9999976 magnetization       0.0000750
 augmentation part        0.3623705 magnetization       0.0000632

 Broyden mixing:
  rms(total) = 0.38781E-03    rms(broyden)= 0.38777E-03
  rms(prec ) = 0.56759E-03
  weight for this iteration     100.00

 eigenvalues of (default mixing * dielectric matrix)
  average eigenvalue GAMMA=   1.4599
  4.3297  2.5045  2.0269  2.0269  1.0915  0.9729  0.9729  0.8891  0.7169  0.7169
  0.6350  0.6350

 Free energy of the ion-electron system (eV)
  ---------------------------------------------------
  alpha Z        PSCENC =         0.80708599
  Ewald energy   TEWEN  =        78.44961200
  -Hartree energ DENC   =      -513.57145085
  -exchange      EXHF   =         0.00000000
  -V(xc)+E(xc)   XCENC  =        39.33448075
  PAW double counting   =      1001.64038470    -1004.32674242
  entropy T*S    EENTRO =        -0.00000000
  eigenvalues    EBANDS =      -147.98989326
  atomic energy  EATOM  =       529.04659352
  Solvation  Ediel_sol  =         0.00000000
  ---------------------------------------------------
  free energy    TOTEN  =       -16.60992958 eV

  energy without entropy =      -16.60992958  energy(sigma->0) =      -16.60992958


--------------------------------------------------------------------------------------------------------




--------------------------------------- Iteration      1(  18)  ---------------------------------------


    POTLOK:  cpu time      0.0147: real time      0.0152
    SETDIJ:  cpu time      0.0115: real time      0.0115
    EDDIAG:  cpu time      0.0071: real time      0.0071
  RMM-DIIS:  cpu time      0.0469: real time      0.0468
    ORTHCH:  cpu time      0.0016: real time      0.0016
       DOS:  cpu time      0.0003: real time      0.0003
    CHARGE:  cpu time      0.0512: real time      0.0512
    MIXING:  cpu time      0.0297: real time      0.0297
    --------------------------------------------
      LOOP:  cpu time      0.1629: real time      0.1633

 eigenvalue-minimisations  :   254
 total energy-change (2. order) :-0.3764429E-04  (-0.1013526E-05)
 number of electron       9.9999976 magnetization      -0.0000404
 augmentation part        0.3623874 magnetization      -0.0000460

 Broyden mixing:
  rms(total) = 0.26130E-03    rms(broyden)= 0.26124E-03
  rms(prec ) = 0.34651E-03
  weight for this iteration     100.00

 eigenvalues of (default mixing * dielectric matrix)
  average eigenvalue GAMMA=   1.5875
  5.3982  2.5155  2.2473  2.2473  1.6116  1.0788  1.0788  0.9665  0.7799  0.7799
  0.6871  0.6370  0.6097

 Free energy of the ion-electron system (eV)
  ---------------------------------------------------
  alpha Z        PSCENC =         0.80708599
  Ewald energy   TEWEN  =        78.44961200
  -Hartree energ DENC   =      -513.55158670
  -exchange      EXHF   =         0.00000000
  -V(xc)+E(xc)   XCENC  =        39.33325793
  PAW double counting   =      1001.63464985    -1004.32088717
  entropy T*S    EENTRO =        -0.00000000
  eigenvalues    EBANDS =      -148.00869263
  atomic energy  EATOM  =       529.04659352
  Solvation  Ediel_sol  =         0.00000000
  ---------------------------------------------------
  free energy    TOTEN  =       -16.60996722 eV

  energy without entropy =      -16.60996722  energy(sigma->0) =      -16.60996722


--------------------------------------------------------------------------------------------------------




--------------------------------------- Iteration      1(  19)  ---------------------------------------


    POTLOK:  cpu time      0.0149: real time      0.0153
    SETDIJ:  cpu time      0.0111: real time      0.0111
    EDDIAG:  cpu time      0.0071: real time      0.0071
  RMM-DIIS:  cpu time      0.0449: real time      0.0449
    ORTHCH:  cpu time      0.0016: real time      0.0016
       DOS:  cpu time      0.0003: real time      0.0003
    CHARGE:  cpu time      0.0528: real time      0.0527
    MIXING:  cpu time      0.0317: real time      0.0317
    --------------------------------------------
      LOOP:  cpu time      0.1644: real time      0.1649

 eigenvalue-minimisations  :   230
 total energy-change (2. order) :-0.2712718E-04  (-0.5471377E-06)
 number of electron       9.9999976 magnetization      -0.0000420
 augmentation part        0.3623864 magnetization      -0.0000455

 Broyden mixing:
  rms(total) = 0.16816E-03    rms(broyden)= 0.16813E-03
  rms(prec ) = 0.22968E-03
  weight for this iteration     100.00

 eigenvalues of (default mixing * dielectric matrix)
  average eigenvalue GAMMA=   1.5959
  5.9192  2.5930  2.3125  2.3125  1.7962  1.0904  1.0904  0.8948  0.8948  0.7590
  0.7590  0.6629  0.6288  0.6288

 Free energy of the ion-electron system (eV)
  ---------------------------------------------------
  alpha Z        PSCENC =         0.80708599
  Ewald energy   TEWEN  =        78.44961200
  -Hartree energ DENC   =      -513.55006990
  -exchange      EXHF   =         0.00000000
  -V(xc)+E(xc)   XCENC  =        39.33315605
  PAW double counting   =      1001.55179120    -1004.23804996
  entropy T*S    EENTRO =        -0.00000000
  eigenvalues    EBANDS =      -148.01011325
  atomic energy  EATOM  =       529.04659352
  Solvation  Ediel_sol  =         0.00000000
  ---------------------------------------------------
  free energy    TOTEN  =       -16.60999435 eV

  energy without entropy =      -16.60999435  energy(sigma->0) =      -16.60999435


--------------------------------------------------------------------------------------------------------




--------------------------------------- Iteration      1(  20)  ---------------------------------------


    POTLOK:  cpu time      0.0149: real time      0.0154
    SETDIJ:  cpu time      0.0112: real time      0.0111
    EDDIAG:  cpu time      0.0075: real time      0.0075
  RMM-DIIS:  cpu time      0.0431: real time      0.0431
    ORTHCH:  cpu time      0.0016: real time      0.0016
       DOS:  cpu time      0.0003: real time      0.0003
    --------------------------------------------
      LOOP:  cpu time      0.0786: real time      0.0790

 eigenvalue-minimisations  :   199
 total energy-change (2. order) :-0.5572858E-05  (-0.1374254E-06)
 number of electron       9.9999976 magnetization      -0.0000420
 augmentation part        0.3623864 magnetization      -0.0000455

 Free energy of the ion-electron system (eV)
  ---------------------------------------------------
  alpha Z        PSCENC =         0.80708599
  Ewald energy   TEWEN  =        78.44961200
  -Hartree energ DENC   =      -513.55360553
  -exchange      EXHF   =         0.00000000
  -V(xc)+E(xc)   XCENC  =        39.33339632
  PAW double counting   =      1001.49438157    -1004.18066378
  entropy T*S    EENTRO =        -0.00000000
  eigenvalues    EBANDS =      -148.00680001
  atomic energy  EATOM  =       529.04659352
  Solvation  Ediel_sol  =         0.00000000
  ---------------------------------------------------
  free energy    TOTEN  =       -16.60999992 eV

  energy without entropy =      -16.60999992  energy(sigma->0) =      -16.60999992


--------------------------------------------------------------------------------------------------------




 average (electrostatic) potential at core
  the test charge radii are     0.7089
  (the norm of the test charge is              1.0000)
       1 -75.8996       2 -75.8996
 
 
 
 E-fermi :  -9.8003     XC(G=0):  -1.0483     alpha+bet : -0.3254

 Fermi energy:        -9.8002727640

 spin component 1

 k-point     1 :       0.0000    0.0000    0.0000
  band No.  band energies     occupation 
      1     -28.1366      1.00000
      2     -13.1787      1.00000
      3     -11.3913      1.00000
      4     -11.3907      1.00000
      5      -9.9059      1.00000
      6      -1.7185      0.00000
      7      -1.7157      0.00000
      8      -0.2228      0.00000
      9       1.5186      0.00000
     10       1.5887      0.00000

 k-point     2 :       0.5000    0.0000    0.0000
  band No.  band energies     occupation 
      1     -28.1366      1.00000
      2     -13.1787      1.00000
      3     -11.3917      1.00000
      4     -11.3911      1.00000
      5      -9.9057      1.00000
      6      -1.7255      0.00000
      7      -1.7175      0.00000
      8       0.3967      0.00000
      9       0.4301      0.00000
     10       2.0168      0.00000

 k-point     3 :       0.0000    0.5000    0.0000
  band No.  band energies     occupation 
      1     -28.1366      1.00000
      2     -13.1787      1.00000
      3     -11.3917      1.00000
      4     -11.3907      1.00000
      5      -9.9056      1.00000
      6      -1.7238      0.00000
      7      -1.7155      0.00000
      8       0.2945      0.00000
      9       0.3828      0.00000
     10       1.9267      0.00000

 k-point     4 :       0.5000    0.5000    0.0000
  band No.  band energies     occupation 
      1     -28.1367      1.00000
      2     -13.1787      1.00000
      3     -11.3915      1.00000
      4     -11.3914      1.00000
      5      -9.9054      1.00000
      6      -1.7247      0.00000
      7      -1.7223      0.00000
      8       0.8340      0.00000
      9       0.8839      0.00000
     10       1.0030      0.00000

 k-point     5 :       0.0000    0.0000    0.5000
  band No.  band energies     occupation 
      1     -28.1366      1.00000
      2     -13.1788      1.00000
      3     -11.3911      1.00000
      4     -11.3907      1.00000
      5      -9.9058      1.00000
      6      -1.7206      0.00000
      7      -1.7181      0.00000
      8       0.0769      0.00000
      9       0.3737      0.00000
     10       2.0535      0.00000

 k-point     6 :       0.5000    0.0000    0.5000
  band No.  band energies     occupation 
      1     -28.1366      1.00000
      2     -13.1787      1.00000
      3     -11.3917      1.00000
      4     -11.3911      1.00000
      5      -9.9054      1.00000
      6      -1.7289      0.00000
      7      -1.7192      0.00000
      8       0.7003      0.00000
      9       0.7156      0.00000
     10       0.8930      0.00000

 k-point     7 :       0.0000    0.5000    0.5000
  band No.  band energies     occupation 
      1     -28.1366      1.00000
      2     -13.1787      1.00000
      3     -11.3916      1.00000
      4     -11.3908      1.00000
      5      -9.9056      1.00000
      6      -1.7273      0.00000
      7      -1.7173      0.00000
      8       0.6032      0.00000
      9       0.6628      0.00000
     10       0.8080      0.00000

 k-point     8 :       0.5000    0.5000    0.5000
  band No.  band energies     occupation 
      1     -28.1366      1.00000
      2     -13.1787      1.00000
      3     -11.3914      1.00000
      4     -11.3914      1.00000
      5      -9.9052      1.00000
      6      -1.7279      0.00000
      7      -1.7255      0.00000
      8       1.0743      0.00000
      9       1.1354      0.00000
     10       1.2972      0.00000
 Fermi energy:        -9.8002727640

 spin component 2

 k-point     1 :       0.0000    0.0000    0.0000
  band No.  band energies     occupation 
      1     -28.1366      1.00000
      2     -13.1787      1.00000
      3     -11.3913      1.00000
      4     -11.3907      1.00000
      5      -9.9059      1.00000
      6      -1.7186      0.00000
      7      -1.7158      0.00000
      8      -0.2066      0.00000
      9       1.5361      0.00000
     10       1.5889      0.00000

 k-point     2 :       0.5000    0.0000    0.0000
  band No.  band energies     occupation 
      1     -28.1366      1.00000
      2     -13.1787      1.00000
      3     -11.3917      1.00000
      4     -11.3911      1.00000
      5      -9.9057      1.00000
      6      -1.7254      0.00000
      7      -1.7175      0.00000
      8       0.4003      0.00000
      9       0.4567      0.00000
     10       2.0220      0.00000

 k-point     3 :       0.0000    0.5000    0.0000
  band No.  band energies     occupation 
      1     -28.1366      1.00000
      2     -13.1787      1.00000
      3     -11.3917      1.00000
      4     -11.3907      1.00000
      5      -9.9057      1.00000
      6      -1.7237      0.00000
      7      -1.7156      0.00000
      8       0.2957      0.00000
      9       0.4132      0.00000
     10       1.9664      0.00000

 k-point     4 :       0.5000    0.5000    0.0000
  band No.  band energies     occupation 
      1     -28.1367      1.00000
      2     -13.1787      1.00000
      3     -11.3915      1.00000
      4     -11.3914      1.00000
      5      -9.9054      1.00000
      6      -1.7247      0.00000
      7      -1.7222      0.00000
      8       0.8411      0.00000
      9       0.8950      0.00000
     10       0.9962      0.00000

 k-point     5 :       0.0000    0.0000    0.5000
  band No.  band energies     occupation 
      1     -28.1366      1.00000
      2     -13.1788      1.00000
      3     -11.3912      1.00000
      4     -11.3908      1.00000
      5      -9.9058      1.00000
      6      -1.7207      0.00000
      7      -1.7182      0.00000
      8       0.0981      0.00000
      9       0.3792      0.00000
     10       2.0591      0.00000

 k-point     6 :       0.5000    0.0000    0.5000
  band No.  band energies     occupation 
      1     -28.1367      1.00000
      2     -13.1787      1.00000
      3     -11.3917      1.00000
      4     -11.3911      1.00000
      5      -9.9054      1.00000
      6      -1.7289      0.00000
      7      -1.7192      0.00000
      8       0.7229      0.00000
      9       0.7308      0.00000
     10       0.8900      0.00000

 k-point     7 :       0.0000    0.5000    0.5000
  band No.  band energies     occupation 
      1     -28.1366      1.00000
      2     -13.1788      1.00000
      3     -11.3916      1.00000
      4     -11.3908      1.00000
      5      -9.9057      1.00000
      6      -1.7272      0.00000
      7      -1.7174      0.00000
      8       0.6080      0.00000
      9       0.6979      0.00000
     10       0.8038      0.00000

 k-point     8 :       0.5000    0.5000    0.5000
  band No.  band energies     occupation 
      1     -28.1366      1.00000
      2     -13.1787      1.00000
      3     -11.3914      1.00000
      4     -11.3914      1.00000
      5      -9.9052      1.00000
      6      -1.7278      0.00000
      7      -1.7255      0.00000
      8       1.0823      0.00000
      9       1.1474      0.00000
     10       1.2836      0.00000


--------------------------------------------------------------------------------------------------------


 soft charge-density along one line, spin component            1
         0         1         2         3         4         5         6         7         8         9
 total charge-density along one line
 
 soft charge-density along one line, spin component            2
         0         1         2         3         4         5         6         7         8         9
 total charge-density along one line
 
 pseudopotential strength for first ion, spin component:            1
 14.184  17.037   0.000  -0.017   0.000   0.000  -0.046   0.000
 17.037  20.466   0.000  -0.021   0.000   0.000  -0.057   0.000
  0.000   0.000  -7.532  -0.000   0.000 -10.482  -0.000   0.000
 -0.017  -0.021  -0.000  -7.606   0.000  -0.000 -10.603   0.000
  0.000   0.000   0.000   0.000  -7.532   0.000   0.000 -10.482
  0.000   0.000 -10.482  -0.000   0.000 -13.945  -0.000   0.000
 -0.046  -0.057  -0.000 -10.603   0.000  -0.000 -14.138   0.000
  0.000   0.000   0.000   0.000 -10.482   0.000   0.000 -13.945
 pseudopotential strength for first ion, spin component:            2
 14.184  17.038   0.000  -0.017   0.000   0.000  -0.046   0.000
 17.038  20.466   0.000  -0.021   0.000   0.000  -0.057   0.000
  0.000   0.000  -7.532  -0.000   0.000 -10.482  -0.000   0.000
 -0.017  -0.021  -0.000  -7.606   0.000  -0.000 -10.603   0.000
  0.000   0.000   0.000   0.000  -7.532   0.000   0.000 -10.482
  0.000   0.000 -10.482  -0.000   0.000 -13.945  -0.000   0.000
 -0.046  -0.057  -0.000 -10.603   0.000  -0.000 -14.138   0.000
  0.000   0.000   0.000   0.000 -10.482   0.000   0.000 -13.945
 total augmentation occupancy for first ion, spin component:            1
  7.983  -4.042   0.000   2.737   0.000   0.000  -0.900   0.000
 -4.042   2.509   0.000  -2.244   0.000   0.000   0.656   0.000
  0.000   0.000   1.734   0.000   0.000  -0.275   0.000   0.000
  2.737  -2.244   0.000   3.100   0.000   0.000  -0.630   0.000
  0.000   0.000   0.000   0.000   1.733   0.000   0.000  -0.275
  0.000   0.000  -0.275   0.000   0.000   0.044   0.000   0.000
 -0.900   0.656   0.000  -0.630   0.000   0.000   0.192   0.000
  0.000   0.000   0.000   0.000  -0.275   0.000   0.000   0.043
 total augmentation occupancy for first ion, spin component:            2
  0.000   0.000   0.000  -0.000   0.000   0.000   0.000   0.000
  0.000  -0.000   0.000   0.000   0.000   0.000  -0.000   0.000
  0.000   0.000  -0.000   0.000   0.000  -0.000   0.000   0.000
 -0.000   0.000   0.000  -0.000   0.000   0.000   0.000   0.000
  0.000   0.000   0.000   0.000  -0.000   0.000   0.000  -0.000
  0.000   0.000  -0.000   0.000   0.000   0.000   0.000   0.000
  0.000  -0.000   0.000   0.000   0.000   0.000  -0.000   0.000
  0.000   0.000   0.000   0.000  -0.000   0.000   0.000   0.000


------------------------ aborting loop because EDIFF is reached ----------------------------------------


    CHARGE:  cpu time      0.0613: real time      0.0613
    FORLOC:  cpu time      0.0037: real time      0.0037
    FORNL :  cpu time      0.0348: real time      0.0347
    STRESS:  cpu time      0.1115: real time      0.1115
    FORCOR:  cpu time      0.0169: real time      0.0169
    FORHAR:  cpu time      0.0023: real time      0.0023
    MIXING:  cpu time      0.0346: real time      0.0346
    OFIELD:  cpu time      0.0000: real time      0.0000

  FORCE on cell =-STRESS in cart. coord.  units (eV):
  Direction    XX          YY          ZZ          XY          YZ          ZX
  --------------------------------------------------------------------------------------
  Alpha Z     0.80709     0.80709     0.80709
  Ewald     -64.59918   -80.49341   223.54222     0.00000    -0.00000    -0.00000
  Hartree   149.88034   134.76993   228.90131    -0.00000    -0.00000    -0.00000
  E(xc)     -42.42429   -42.42421   -41.18173    -0.00000    -0.00000     0.00000
  Local    -224.14968  -193.14263  -559.80615     0.00000     0.00000    -0.00000
  n-local   -16.33837   -16.32386   -28.87305    -0.00000     0.00000     0.00000
  augment     1.33591     1.33623     1.55507     0.00000    -0.00000    -0.00000
  Kinetic   195.13465   195.13983   177.28287    -0.00000    -0.00000    -0.00000
  Fock        0.00000     0.00000     0.00000     0.00000     0.00000     0.00000
  -------------------------------------------------------------------------------------
  Total      -0.35353    -0.33104     2.22763     0.00000     0.00000     0.00000
  in kB      -1.06072    -0.99323     6.68362     0.00000     0.00000     0.00000
  external pressure =        1.54 kB  Pullay stress =        0.00 kB


 VOLUME and BASIS-vectors are now :
 -----------------------------------------------------------------------------
  energy-cutoff  :      450.00
  volume of cell :      534.00
      direct lattice vectors                 reciprocal lattice vectors
     7.500000000  0.000000000  0.000000000     0.133333333  0.000000000  0.000000000
     0.000000000  8.000000000  0.000000000     0.000000000  0.125000000  0.000000000
     0.000000000  0.000000000  8.900000000     0.000000000  0.000000000  0.112359551

  length of vectors
     7.500000000  8.000000000  8.900000000     0.133333333  0.125000000  0.112359551


 FORCES acting on ions
    electron-ion (+dipol)            ewald-force                    non-local-force                 convergence-correction
 -----------------------------------------------------------------------------------------------
   0.535E-15 0.241E-13 0.247E+03   -.507E-16 -.568E-17 -.296E+03   -.662E-23 0.000E+00 0.459E+02   -.322E-14 -.474E-14 0.305E-03
   0.114E-14 -.168E-12 -.247E+03   0.958E-16 -.513E-16 0.296E+03   0.414E-23 0.000E+00 -.459E+02   0.929E-14 -.133E-13 -.305E-03
 -----------------------------------------------------------------------------------------------
   0.168E-14 -.144E-12 0.663E-04   0.450E-16 -.570E-16 0.000E+00   -.248E-23 0.000E+00 -.711E-14   0.608E-14 -.180E-13 -.467E-08
 
 
 POSITION                                       TOTAL-FORCE (eV/Angst)
 -----------------------------------------------------------------------------------
      0.00000      0.00000      0.00000        -0.000000      0.000000     -2.378381
      0.00000      0.00000      1.10000         0.000000      0.000000      2.378381
 -----------------------------------------------------------------------------------
    total drift:                                0.000000     -0.000000      0.000066


--------------------------------------------------------------------------------------------------------



  FREE ENERGIE OF THE ION-ELECTRON SYSTEM (eV)
  ---------------------------------------------------
  free  energy   TOTEN  =       -16.60999992 eV

  energy  without entropy=      -16.60999992  energy(sigma->0) =      -16.60999992
 


--------------------------------------------------------------------------------------------------------


    POTLOK:  cpu time      0.0303: real time      0.0303


--------------------------------------------------------------------------------------------------------




--------------------------------------------------------------------------------------------------------


    WAVPRE:  cpu time      0.0459: real time      0.0492
    FEWALD:  cpu time      0.0002: real time      0.0002
    ORTHCH:  cpu time      0.0412: real time      0.0412
     LOOP+:  cpu time      3.5253: real time      3.5494


--------------------------------------- Ionic step        2  -------------------------------------------




--------------------------------------- Iteration      2(   1)  ---------------------------------------


    POTLOK:  cpu time      0.0154: real time      0.0154
    SETDIJ:  cpu time      0.0110: real time      0.0110
     EDDAV:  cpu time      0.0581: real time      0.0581
       DOS:  cpu time      0.0002: real time      0.0002
    CHARGE:  cpu time      0.0524: real time      0.0524
    MIXING:  cpu time      0.0168: real time      0.0168
    --------------------------------------------
      LOOP:  cpu time      0.1540: real time      0.1540

 eigenvalue-minimisations  :   328
 total energy-change (2. order) : 0.1801836E+01  (-0.1344940E+02)
 number of electron       9.9999991 magnetization      -0.0000141
 augmentation part        0.2259496 magnetization       0.0001823

 Broyden mixing:
  rms(total) = 0.45051E+00    rms(broyden)= 0.44944E+00
  rms(prec ) = 0.53508E+00
[...]


    POTLOK:  cpu time      0.0317: real time      0.0317


--------------------------------------------------------------------------------------------------------




--------------------------------------------------------------------------------------------------------


    WAVPRE:  cpu time      0.0465: real time      0.0507
    FEWALD:  cpu time      0.0002: real time      0.0002
    ORTHCH:  cpu time      0.0441: real time      0.0441
     LOOP+:  cpu time      0.8692: real time      0.8809


--------------------------------------- Ionic step        5  -------------------------------------------




--------------------------------------- Iteration      5(   1)  ---------------------------------------


    POTLOK:  cpu time      0.0169: real time      0.0169
    SETDIJ:  cpu time      0.0111: real time      0.0111
     EDDAV:  cpu time      0.0963: real time      0.0962
       DOS:  cpu time      0.0002: real time      0.0002
    CHARGE:  cpu time      0.0522: real time      0.0522
    MIXING:  cpu time      0.0171: real time      0.0171
    --------------------------------------------
      LOOP:  cpu time      0.1938: real time      0.1937

 eigenvalue-minimisations  :   428
 total energy-change (2. order) : 0.3566438E-05  (-0.4022125E-05)
 number of electron       9.9999974 magnetization      -0.0000000
 augmentation part        0.3519566 magnetization      -0.0000001

 Broyden mixing:
  rms(total) = 0.46167E-03    rms(broyden)= 0.46115E-03
  rms(prec ) = 0.49092E-03
  weight for this iteration     100.00

 Free energy of the ion-electron system (eV)
  ---------------------------------------------------
  alpha Z        PSCENC =         0.80708599
  Ewald energy   TEWEN  =        74.13840714
  -Hartree energ DENC   =      -509.91689844
  -exchange      EXHF   =         0.00000000
  -V(xc)+E(xc)   XCENC  =        39.19527863
  PAW double counting   =       976.23260675     -978.88507845
  entropy T*S    EENTRO =        -0.00000000
  eigenvalues    EBANDS =      -147.24528829
  atomic energy  EATOM  =       529.04659352
  Solvation  Ediel_sol  =         0.00000000
  ---------------------------------------------------
  free energy    TOTEN  =       -16.62729315 eV

  energy without entropy =      -16.62729315  energy(sigma->0) =      -16.62729315


--------------------------------------------------------------------------------------------------------




--------------------------------------- Iteration      5(   2)  ---------------------------------------


    POTLOK:  cpu time      0.0169: real time      0.0174
    SETDIJ:  cpu time      0.0110: real time      0.0110
    EDDIAG:  cpu time      0.0088: real time      0.0088
  RMM-DIIS:  cpu time      0.0458: real time      0.0458
    ORTHCH:  cpu time      0.0018: real time      0.0018
       DOS:  cpu time      0.0002: real time      0.0002
    --------------------------------------------
      LOOP:  cpu time      0.0845: real time      0.0849

 eigenvalue-minimisations  :   172
 total energy-change (2. order) :-0.1031822E-06  (-0.5070706E-07)
 number of electron       9.9999974 magnetization      -0.0000000
 augmentation part        0.3519566 magnetization      -0.0000001

 Free energy of the ion-electron system (eV)
  ---------------------------------------------------
  alpha Z        PSCENC =         0.80708599
  Ewald energy   TEWEN  =        74.13840714
  -Hartree energ DENC   =      -509.91551841
  -exchange      EXHF   =         0.00000000
  -V(xc)+E(xc)   XCENC  =        39.19517548
  PAW double counting   =       976.41682138     -979.06947684
  entropy T*S    EENTRO =        -0.00000000
  eigenvalues    EBANDS =      -147.24638151
  atomic energy  EATOM  =       529.04659352
  Solvation  Ediel_sol  =         0.00000000
  ---------------------------------------------------
  free energy    TOTEN  =       -16.62729325 eV

  energy without entropy =      -16.62729325  energy(sigma->0) =      -16.62729325


--------------------------------------------------------------------------------------------------------




 average (electrostatic) potential at core
  the test charge radii are     0.7089
  (the norm of the test charge is              1.0000)
       1 -75.9061       2 -75.9060
 
 
 
 E-fermi :  -9.8234     XC(G=0):  -1.0829     alpha+bet : -0.3254

 Fermi energy:        -9.8233932852

 spin component 1

 k-point     1 :       0.0000    0.0000    0.0000
  band No.  band energies     occupation 
      1     -27.9035      1.00000
      2     -13.2846      1.00000
      3     -11.2685      1.00000
      4     -11.2680      1.00000
      5      -9.8984      1.00000
      6      -1.8891      0.00000
      7      -1.8866      0.00000
      8      -0.2414      0.00000
      9       1.4962      0.00000
     10       1.5627      0.00000

 k-point     2 :       0.5000    0.0000    0.0000
  band No.  band energies     occupation 
      1     -27.9035      1.00000
      2     -13.2846      1.00000
      3     -11.2690      1.00000
      4     -11.2684      1.00000
      5      -9.8982      1.00000
      6      -1.8954      0.00000
      7      -1.8882      0.00000
      8       0.3794      0.00000
      9       0.4143      0.00000
     10       1.9984      0.00000

 k-point     3 :       0.0000    0.5000    0.0000
  band No.  band energies     occupation 
      1     -27.9034      1.00000
      2     -13.2846      1.00000
      3     -11.2689      1.00000
      4     -11.2680      1.00000
      5      -9.8981      1.00000
      6      -1.8938      0.00000
      7      -1.8864      0.00000
      8       0.2738      0.00000
      9       0.3699      0.00000
     10       1.9032      0.00000

 k-point     4 :       0.5000    0.5000    0.0000
  band No.  band energies     occupation 
      1     -27.9035      1.00000
      2     -13.2845      1.00000
      3     -11.2688      1.00000
      4     -11.2687      1.00000
      5      -9.8979      1.00000
      6      -1.8948      0.00000
      7      -1.8925      0.00000
      8       0.8177      0.00000
      9       0.8724      0.00000
     10       0.9839      0.00000

 k-point     5 :       0.0000    0.0000    0.5000
  band No.  band energies     occupation 
      1     -27.9034      1.00000
      2     -13.2846      1.00000
      3     -11.2684      1.00000
      4     -11.2680      1.00000
      5      -9.8983      1.00000
      6      -1.8910      0.00000
      7      -1.8888      0.00000
      8       0.0671      0.00000
      9       0.3402      0.00000
     10       2.0511      0.00000

 k-point     6 :       0.5000    0.0000    0.5000
  band No.  band energies     occupation 
      1     -27.9035      1.00000
      2     -13.2846      1.00000
      3     -11.2690      1.00000
      4     -11.2683      1.00000
      5      -9.8979      1.00000
      6      -1.8986      0.00000
      7      -1.8897      0.00000
      8       0.6949      0.00000
      9       0.7069      0.00000
     10       0.8635      0.00000

 k-point     7 :       0.0000    0.5000    0.5000
  band No.  band energies     occupation 
      1     -27.9035      1.00000
      2     -13.2846      1.00000
      3     -11.2689      1.00000
      4     -11.2681      1.00000
      5      -9.8981      1.00000
      6      -1.8971      0.00000
      7      -1.8880      0.00000
      8       0.5909      0.00000
      9       0.6606      0.00000
     10       0.7760      0.00000

 k-point     8 :       0.5000    0.5000    0.5000
  band No.  band energies     occupation 
      1     -27.9035      1.00000
      2     -13.2846      1.00000
      3     -11.2687      1.00000
      4     -11.2686      1.00000
      5      -9.8977      1.00000
      6      -1.8977      0.00000
      7      -1.8954      0.00000
      8       1.0686      0.00000
      9       1.1349      0.00000
     10       1.2698      0.00000
 Fermi energy:        -9.8233932852

 spin component 2

 k-point     1 :       0.0000    0.0000    0.0000
  band No.  band energies     occupation 
      1     -27.9035      1.00000
      2     -13.2846      1.00000
      3     -11.2685      1.00000
      4     -11.2680      1.00000
      5      -9.8984      1.00000
      6      -1.8891      0.00000
      7      -1.8866      0.00000
      8      -0.2413      0.00000
      9       1.4963      0.00000
     10       1.5629      0.00000

 k-point     2 :       0.5000    0.0000    0.0000
  band No.  band energies     occupation 
      1     -27.9035      1.00000
      2     -13.2846      1.00000
      3     -11.2690      1.00000
      4     -11.2684      1.00000
      5      -9.8982      1.00000
      6      -1.8954      0.00000
      7      -1.8882      0.00000
      8       0.3795      0.00000
      9       0.4145      0.00000
     10       1.9984      0.00000

 k-point     3 :       0.0000    0.5000    0.0000
  band No.  band energies     occupation 
      1     -27.9034      1.00000
      2     -13.2846      1.00000
      3     -11.2689      1.00000
      4     -11.2680      1.00000
      5      -9.8981      1.00000
      6      -1.8938      0.00000
      7      -1.8864      0.00000
      8       0.2738      0.00000
      9       0.3702      0.00000
     10       1.9032      0.00000

 k-point     4 :       0.5000    0.5000    0.0000
  band No.  band energies     occupation 
      1     -27.9036      1.00000
      2     -13.2845      1.00000
      3     -11.2688      1.00000
      4     -11.2687      1.00000
      5      -9.8979      1.00000
      6      -1.8948      0.00000
      7      -1.8925      0.00000
      8       0.8178      0.00000
      9       0.8726      0.00000
     10       0.9840      0.00000

 k-point     5 :       0.0000    0.0000    0.5000
  band No.  band energies     occupation 
      1     -27.9034      1.00000
      2     -13.2846      1.00000
      3     -11.2684      1.00000
      4     -11.2680      1.00000
      5      -9.8983      1.00000
      6      -1.8910      0.00000
      7      -1.8888      0.00000
      8       0.0672      0.00000
      9       0.3404      0.00000
     10       2.0511      0.00000

 k-point     6 :       0.5000    0.0000    0.5000
  band No.  band energies     occupation 
      1     -27.9035      1.00000
      2     -13.2846      1.00000
      3     -11.2690      1.00000
      4     -11.2683      1.00000
      5      -9.8979      1.00000
      6      -1.8986      0.00000
      7      -1.8897      0.00000
      8       0.6950      0.00000
      9       0.7069      0.00000
     10       0.8637      0.00000

 k-point     7 :       0.0000    0.5000    0.5000
  band No.  band energies     occupation 
      1     -27.9035      1.00000
      2     -13.2846      1.00000
      3     -11.2689      1.00000
      4     -11.2681      1.00000
      5      -9.8981      1.00000
      6      -1.8971      0.00000
      7      -1.8880      0.00000
      8       0.5909      0.00000
      9       0.6607      0.00000
     10       0.7761      0.00000

 k-point     8 :       0.5000    0.5000    0.5000
  band No.  band energies     occupation 
      1     -27.9035      1.00000
      2     -13.2846      1.00000
      3     -11.2687      1.00000
      4     -11.2686      1.00000
      5      -9.8977      1.00000
      6      -1.8977      0.00000
      7      -1.8954      0.00000
      8       1.0686      0.00000
      9       1.1349      0.00000
     10       1.2698      0.00000


--------------------------------------------------------------------------------------------------------


 soft charge-density along one line, spin component            1
         0         1         2         3         4         5         6         7         8         9
 total charge-density along one line
 
 soft charge-density along one line, spin component            2
         0         1         2         3         4         5         6         7         8         9
 total charge-density along one line
 
 pseudopotential strength for first ion, spin component:            1
 14.183  17.036  -0.000  -0.015   0.000  -0.000  -0.043   0.000
 17.036  20.464  -0.000  -0.019   0.000  -0.000  -0.052   0.000
 -0.000  -0.000  -7.538  -0.000  -0.000 -10.493  -0.000  -0.000
 -0.015  -0.019  -0.000  -7.602  -0.000  -0.000 -10.598  -0.000
  0.000   0.000  -0.000  -0.000  -7.538  -0.000  -0.000 -10.493
 -0.000  -0.000 -10.493  -0.000  -0.000 -13.963  -0.000  -0.000
 -0.043  -0.052  -0.000 -10.598  -0.000  -0.000 -14.130  -0.000
  0.000   0.000  -0.000  -0.000 -10.493  -0.000  -0.000 -13.963
 pseudopotential strength for first ion, spin component:            2
 14.183  17.036  -0.000  -0.015   0.000  -0.000  -0.043   0.000
 17.036  20.464  -0.000  -0.019   0.000  -0.000  -0.052   0.000
 -0.000  -0.000  -7.538  -0.000  -0.000 -10.493  -0.000  -0.000
 -0.015  -0.019  -0.000  -7.602   0.000  -0.000 -10.598   0.000
  0.000   0.000  -0.000   0.000  -7.538  -0.000   0.000 -10.493
 -0.000  -0.000 -10.493  -0.000  -0.000 -13.963  -0.000  -0.000
 -0.043  -0.052  -0.000 -10.598   0.000  -0.000 -14.130   0.000
  0.000   0.000  -0.000   0.000 -10.493  -0.000   0.000 -13.963
 total augmentation occupancy for first ion, spin component:            1
  7.721  -3.881   0.000   2.697   0.000   0.000  -0.896   0.000
 -3.881   2.421   0.000  -2.217   0.000   0.000   0.650   0.000
  0.000   0.000   1.710   0.000   0.000  -0.268   0.000   0.000
  2.697  -2.217   0.000   3.104   0.000   0.000  -0.640   0.000
  0.000   0.000   0.000   0.000   1.709   0.000   0.000  -0.268
  0.000   0.000  -0.268   0.000   0.000   0.042   0.000   0.000
 -0.896   0.650   0.000  -0.640   0.000   0.000   0.191   0.000
  0.000   0.000   0.000   0.000  -0.268   0.000   0.000   0.042
 total augmentation occupancy for first ion, spin component:            2
 -0.000   0.000   0.000  -0.000   0.000   0.000   0.000   0.000
  0.000  -0.000   0.000   0.000   0.000   0.000  -0.000   0.000
  0.000   0.000  -0.000   0.000   0.000   0.000   0.000   0.000
 -0.000   0.000   0.000  -0.000   0.000   0.000   0.000   0.000
  0.000   0.000   0.000   0.000  -0.000   0.000   0.000   0.000
  0.000   0.000   0.000   0.000   0.000  -0.000   0.000   0.000
  0.000  -0.000   0.000   0.000   0.000   0.000  -0.000   0.000
  0.000   0.000   0.000   0.000   0.000   0.000   0.000  -0.000


------------------------ aborting loop because EDIFF is reached ----------------------------------------


    CHARGE:  cpu time      0.0621: real time      0.0621
    FORLOC:  cpu time      0.0036: real time      0.0036
    FORNL :  cpu time      0.0386: real time      0.0386
    STRESS:  cpu time      0.1204: real time      0.1203
    FORCOR:  cpu time      0.0170: real time      0.0170
    FORHAR:  cpu time      0.0027: real time      0.0027
    MIXING:  cpu time      0.0190: real time      0.0190
    OFIELD:  cpu time      0.0000: real time      0.0000

  FORCE on cell =-STRESS in cart. coord.  units (eV):
  Direction    XX          YY          ZZ          XY          YZ          ZX
  --------------------------------------------------------------------------------------
  Alpha Z     0.80709     0.80709     0.80709
  Ewald     -64.64056   -80.52460   219.30358    -0.00000    -0.00000    -0.00000
  Hartree   148.45385   133.35500   228.10406    -0.00000    -0.00000    -0.00000
  E(xc)     -42.28092   -42.28084   -41.04296     0.00000    -0.00000     0.00000
  Local    -222.32826  -191.34308  -556.99739    -0.00000    -0.00000    -0.00000
  n-local   -16.08554   -16.06978   -28.52321     0.00000    -0.00000     0.00000
  augment     1.30103     1.30135     1.61721     0.00000     0.00000    -0.00000
  Kinetic   194.43378   194.43889   176.38412    -0.00000     0.00000     0.00000
  Fock        0.00000     0.00000     0.00000     0.00000     0.00000     0.00000
  -------------------------------------------------------------------------------------
  Total      -0.33953    -0.31597    -0.34751     0.00000     0.00000     0.00000
  in kB      -1.01870    -0.94802    -1.04264     0.00000     0.00000     0.00000
  external pressure =       -1.00 kB  Pullay stress =        0.00 kB


 VOLUME and BASIS-vectors are now :
 -----------------------------------------------------------------------------
  energy-cutoff  :      450.00
  volume of cell :      534.00
      direct lattice vectors                 reciprocal lattice vectors
     7.500000000  0.000000000  0.000000000     0.133333333  0.000000000  0.000000000
     0.000000000  8.000000000  0.000000000     0.000000000  0.125000000  0.000000000
     0.000000000  0.000000000  8.900000000     0.000000000  0.000000000  0.112359551

  length of vectors
     7.500000000  8.000000000  8.900000000     0.133333333  0.125000000  0.112359551


 FORCES acting on ions
    electron-ion (+dipol)            ewald-force                    non-local-force                 convergence-correction
 -----------------------------------------------------------------------------------------------
   0.612E-15 0.382E-13 0.242E+03   0.876E-16 0.873E-18 -.288E+03   -.827E-24 0.000E+00 0.454E+02   0.914E-14 0.109E-13 -.102E-02
   -.140E-14 -.239E-12 -.242E+03   -.425E-16 -.579E-16 0.288E+03   0.775E-24 0.000E+00 -.454E+02   0.221E-13 -.126E-13 0.102E-02
 -----------------------------------------------------------------------------------------------
   -.786E-15 -.201E-12 0.489E-04   0.450E-16 -.570E-16 0.000E+00   -.517E-25 0.000E+00 -.142E-13   0.313E-13 -.171E-14 -.503E-06
 
 
 POSITION                                       TOTAL-FORCE (eV/Angst)
 -----------------------------------------------------------------------------------
     -0.00000      0.00000     -0.00739        -0.000000      0.000000     -0.002168
      0.00000      0.00000      1.10739         0.000000      0.000000      0.002168
 -----------------------------------------------------------------------------------
    total drift:                                0.000000     -0.000000      0.000048


--------------------------------------------------------------------------------------------------------



  FREE ENERGIE OF THE ION-ELECTRON SYSTEM (eV)
  ---------------------------------------------------
  free  energy   TOTEN  =       -16.62729325 eV

  energy  without entropy=      -16.62729325  energy(sigma->0) =      -16.62729325
 
 d Force = 0.9661445E-06[-0.262E-06, 0.219E-05]  d Energy = 0.1053043E-05-0.869E-07
 d Force =-0.3473906E-01[-0.347E-01,-0.347E-01]  d Ewald  =-0.3473906E-01-0.193E-09


--------------------------------------------------------------------------------------------------------


    POTLOK:  cpu time      0.0317: real time      0.0317


--------------------------------------------------------------------------------------------------------




--------------------------------------------------------------------------------------------------------


  
 reached required accuracy - stopping structural energy minimisation
     LOOP+:  cpu time      0.6004: real time      0.6111
    4ORBIT:  cpu time      0.0000: real time      0.0000

 total amount of memory used by VASP MPI-rank0   136061. kBytes
=======================================================================

   base      :      30000. kBytes
   nonlr-proj:        201. kBytes
   fftplans  :      22416. kBytes
   grid      :      53706. kBytes
   one-center:         12. kBytes
   wavefun   :      29726. kBytes
 
  
  
 General timing and accounting informations for this job:
 ========================================================
  
                  Total CPU time used (sec):       13.776
                            User time (sec):       12.040
                          System time (sec):        1.736
                         Elapsed time (sec):       15.449
  
                   Maximum memory used (kb):     3696320.
                   Average memory used (kb):          N/A
  
                          Minor page faults:        68147
                          Major page faults:            4
                 Voluntary context switches:         4243
