<?xml version="1.0" encoding="ISO-8859-1"?>
<modeling>
 <generator>
  <i name="program" type="string">vasp </i>
  <i name="version" type="string">6.4.2  </i>
  <i name="subversion" type="string">20Jul23 (build Nov 12 2023 22:16:35) complex                          parallel </i>
  <i name="platform" type="string">LinuxNV </i>
  <i name="date" type="string">2025 03 21 </i>
  <i name="time" type="string">23:23:20 </i>
 </generator>
 <incar>
  <i type="int" name="ISTART">     0</i>
  <i type="string" name="PREC">Normal</i>
  <i type="string" name="ALGO">Fast</i>
  <i type="int" name="ISPIN">     2</i>
  <i type="int" name="ICHARG">     2</i>
  <i type="int" name="IBRION">     2</i>
  <i name="EDIFF">      0.00001000</i>
  <i name="EDIFFG">     -0.00500000</i>
  <i type="int" name="NSW">   300</i>
  <i type="int" name="ISIF">     2</i>
  <i name="ENCUT">    450.00000000</i>
  <i type="string" name="LREAL">Auto</i>
  <i type="logical" name="LPLANE"> T  </i>
  <i type="int" name="ISMEAR">     0</i>
  <i name="SIGMA">      0.01000000</i>
  <i type="logical" name="LWAVE"> F  </i>
  <i type="logical" name="LCHARG"> F  </i>
 </incar>
 <primitive_cell>
  <structure name="primitive_cell" >
   <crystal>
    <varray name="basis" >
     <v>       7.50000000       0.00000000       0.00000000 </v>
     <v>       0.00000000       8.00000000       0.00000000 </v>
     <v>       0.00000000       0.00000000       8.90000000 </v>
    </varray>
    <i name="volume">    534.00000000 </i>
    <varray name="rec_basis" >
     <v>       0.13333333       0.00000000       0.00000000 </v>
     <v>       0.00000000       0.12500000       0.00000000 </v>
     <v>       0.00000000       0.00000000       0.11235955 </v>
    </varray>
   </crystal>
   <varray name="positions" >
    <v>       0.00000000       0.00000000       0.00000000 </v>
    <v>       0.00000000       0.00000000       0.12359551 </v>
   </varray>
  </structure>
  <varray name="primitive_index" >
   <v type="int" >        1 </v>
   <v type="int" >        2 </v>
  </varray>
 </primitive_cell>
 <kpoints>
  <generation param="Gamma">
   <v type="int" name="divisions">       2        2        2 </v>
   <v name="usershift">      0.00000000       0.00000000       0.00000000 </v>
   <v name="genvec1">      0.50000000       0.00000000       0.00000000 </v>
   <v name="genvec2">      0.00000000       0.50000000       0.00000000 </v>
   <v name="genvec3">      0.00000000       0.00000000       0.50000000 </v>
   <v name="shift">      0.00000000       0.00000000       0.00000000 </v>
  </generation>
  <varray name="kpointlist" >
   <v>       0.00000000       0.00000000       0.00000000 </v>
   <v>       0.50000000       0.00000000       0.00000000 </v>
   <v>       0.00000000       0.50000000       0.00000000 </v>
   <v>       0.50000000       0.50000000       0.00000000 </v>
   <v>       0.00000000       0.00000000       0.50000000 </v>
   <v>       0.50000000       0.00000000       0.50000000 </v>
   <v>       0.00000000       0.50000000       0.50000000 </v>
   <v>       0.50000000       0.50000000       0.50000000 </v>
  </varray>
  <varray name="weights" >
   <v>       0.12500000 </v>
   <v>       0.12500000 </v>
   <v>       0.12500000 </v>
   <v>       0.12500000 </v>
   <v>       0.12500000 </v>
   <v>       0.12500000 </v>
   <v>       0.12500000 </v>
   <v>       0.12500000 </v>
  </varray>
 </kpoints>
 <parameters>
  <separator name="general" >
   <i type="string" name="SYSTEM">unknown system</i>
   <i type="logical" name="LCOMPAT"> F  </i>
  </separator>
  <separator name="electronic" >
   <i type="string" name="PREC">normal</i>
   <i name="ENMAX">    450.00000000</i>
   <i name="ENAUG">    627.11200000</i>
   <i name="EDIFF">      0.00001000</i>
   <i type="int" name="IALGO">    68</i>
   <i type="int" name="IWAVPR">    11</i>
   <i type="int" name="NBANDS">    10</i>
   <i type="int" name="NBANDSLOW">    -1</i>
   <i type="int" name="NBANDSHIGH">    -1</i>
   <i name="NELECT">     10.00000000</i>
   <i type="int" name="TURBO">     0</i>
   <i type="int" name="IRESTART">     0</i>
   <i type="int" name="NREBOOT">     0</i>
   <i type="int" name="NMIN">     0</i>
   <i name="EREF">      0.00000000</i>
   <separator name="electronic smearing" >
    <i type="int" name="ISMEAR">     0</i>
    <i name="SIGMA">      0.01000000</i>
    <i name="KSPACING">      0.50000000</i>
    <i type="logical" name="KGAMMA"> T  </i>
    <i type="logical" name="KBLOWUP"> T  </i>
   </separator>
   <separator name="electronic projectors" >
    <i type="logical" name="LREAL"> T  </i>
    <v name="ROPT">     -0.00050000</v>
    <i type="int" name="LMAXPAW">  -100</i>
    <i type="int" name="LMAXMIX">     2</i>
    <i type="logical" name="NLSPLINE"> F  </i>
   </separator>
   <separator name="electronic startup" >
    <i type="int" name="ISTART">     0</i>
    <i type="int" name="ICHARG">     2</i>
    <i type="int" name="INIWAV">     1</i>
   </separator>
   <separator name="electronic spin" >
    <i type="int" name="ISPIN">     2</i>
    <i type="logical" name="LNONCOLLINEAR"> F  </i>
    <v name="MAGMOM">      1.00000000      1.00000000</v>
    <i name="NUPDOWN">     -1.00000000</i>
    <i type="logical" name="LSORBIT"> F  </i>
    <v name="SAXIS">      0.00000000      0.00000000      1.00000000</v>
    <i type="logical" name="LSPIRAL"> F  </i>
    <v name="QSPIRAL">      0.00000000      0.00000000      0.00000000</v>
    <i type="logical" name="LZEROZ"> F  </i>
   </separator>
   <separator name="electronic exchange-correlation" >
    <i type="logical" name="LASPH"> F  </i>
    <i type="logical" name="LMETAGGA"> F  </i>
   </separator>
   <separator name="electronic convergence" >
    <i type="int" name="NELM">    60</i>
    <i type="int" name="NELMDL">    -5</i>
    <i type="int" name="NELMIN">     2</i>
    <i name="ENINI">    450.00000000</i>
    <separator name="electronic convergence detail" >
     <i type="logical" name="LDIAG"> T  </i>
     <i type="logical" name="LSUBROT"> F  </i>
     <i name="WEIMIN">      0.00100000</i>
     <i name="EBREAK">      0.00000025</i>
     <i name="DEPER">      0.30000000</i>
     <i type="int" name="NRMM">     4</i>
     <i name="TIME">      0.40000000</i>
    </separator>
   </separator>
   <separator name="electronic mixer" >
    <i name="AMIX">      0.40000000</i>
    <i name="BMIX">      1.00000000</i>
    <i name="AMIN">      0.10000000</i>
    <i name="AMIX_MAG">      1.60000000</i>
    <i name="BMIX_MAG">      1.00000000</i>
    <separator name="electronic mixer details" >
     <i type="int" name="IMIX">     4</i>
     <i type="logical" name="MIXFIRST"> F  </i>
     <i type="int" name="MAXMIX">   -45</i>
     <i name="WC">    100.00000000</i>
     <i type="int" name="INIMIX">     1</i>
     <i type="int" name="MIXPRE">     1</i>
     <i type="int" name="MREMOVE">     5</i>
    </separator>
   </separator>
   <separator name="electronic dipolcorrection" >
    <i type="logical" name="LDIPOL"> F  </i>
    <i type="logical" name="LMONO"> F  </i>
    <i type="int" name="IDIPOL">     0</i>
    <i name="EPSILON">      1.00000000</i>
    <v name="DIPOL">   -100.00000000   -100.00000000   -100.00000000</v>
    <i name="EFIELD">      0.00000000</i>
   </separator>
  </separator>
  <separator name="grids" >
   <i type="int" name="NGX">    40</i>
   <i type="int" name="NGY">    42</i>
   <i type="int" name="NGZ">    48</i>
   <i type="int" name="NGXF">    80</i>
   <i type="int" name="NGYF">    84</i>
   <i type="int" name="NGZF">    96</i>
   <i type="logical" name="ADDGRID"> F  </i>
  </separator>
  <separator name="ionic" >
   <i type="int" name="NSW">   300</i>
   <i type="int" name="IBRION">     2</i>
   <i type="int" name="MDALGO">     0</i>
   <i type="int" name="ISIF">     2</i>
   <i name="PSTRESS">      0.00000000</i>
   <i name="EDIFFG">     -0.00500000</i>
   <i type="int" name="NFREE">     1</i>
   <i name="POTIM">      0.50000000</i>
   <i name="SMASS">     -3.00000000</i>
   <i name="SCALEE">      1.00000000</i>
  </separator>
  <separator name="ionic md" >
   <i name="TEBEG">      0.00010000</i>
   <i name="TEEND">      0.00010000</i>
   <i type="int" name="NBLOCK">     1</i>
   <i type="int" name="KBLOCK">   300</i>
   <i type="int" name="NPACO">   256</i>
   <i name="APACO">     10.00000000</i>
  </separator>
  <separator name="symmetry" >
   <i type="int" name="ISYM">     2</i>
   <i name="SYMPREC">      0.00001000</i>
  </separator>
  <separator name="dos" >
   <i type="int" name="LORBIT">     0</i>
   <v name="RWIGS">     -1.00000000</v>
   <i type="int" name="NEDOS">   301</i>
   <i name="EMIN">     10.00000000</i>
   <i name="EMAX">    -10.00000000</i>
   <i name="EFERMI">      0.00000000</i>
  </separator>
  <separator name="writing" >
   <i type="int" name="NWRITE">     2</i>
   <i type="logical" name="LWAVE"> F  </i>
   <i type="logical" name="LDOWNSAMPLE"> F  </i>
   <i type="logical" name="LCHARG"> F  </i>
   <i type="logical" name="LPARD"> F  </i>
   <i type="logical" name="LVTOT"> F  </i>
   <i type="logical" name="LVHAR"> F  </i>
   <i type="logical" name="LELF"> F  </i>
   <i type="logical" name="LOPTICS"> F  </i>
   <v name="STM">      0.00000000      0.00000000      0.00000000      0.00000000      0.00000000      0.00000000      0.00000000</v>
  </separator>
  <separator name="performance" >
   <i type="int" name="NPAR">     1</i>
   <i type="int" name="NSIM">     4</i>
   <i type="int" name="NBLK">    -1</i>
   <i type="logical" name="LPLANE"> T  </i>
   <i type="logical" name="LSCALAPACK"> T  </i>
   <i type="logical" name="LSCAAWARE"> F  </i>
   <i type="logical" name="LSCALU"> F  </i>
   <i type="logical" name="LASYNC"> F  </i>
   <i type="logical" name="LORBITALREAL"> F  </i>
  </separator>
  <separator name="miscellaneous" >
   <i type="int" name="IDIOT">     3</i>
   <i type="int" name="PHON_NSTRUCT">    -1</i>
   <i type="logical" name="LMUSIC"> F  </i>
   <v name="POMASS">     14.00100000</v>
   <v name="DARWINR">      0.00000000</v>
   <v name="DARWINV">      1.00000000</v>
   <i type="logical" name="LCORR"> T  </i>
  </separator>
  <i type="logical" name="GGA_COMPAT"> T  </i>
  <i type="logical" name="LBERRY"> F  </i>
  <i type="int" name="ICORELEVEL">     0</i>
  <i type="logical" name="LDAU"> F  </i>
  <i type="int" name="I_CONSTRAINED_M">     0</i>
  <separator name="electronic exchange-correlation" >
   <i type="string" name="GGA">--</i>
   <i type="int" name="VOSKOWN">     0</i>
   <i type="logical" name="LHFCALC"> F  </i>
   <i type="string" name="PRECFOCK"></i>
   <i type="logical" name="LSYMGRAD"> F  </i>
   <i type="logical" name="LHFONE"> F  </i>
   <i type="logical" name="LRHFCALC"> F  </i>
   <i type="logical" name="LTHOMAS"> F  </i>
   <i type="logical" name="LMODELHF"> F  </i>
   <i type="logical" name="LFOCKACE"> F  </i>
   <i name="ENCUT4O">     -1.00000000</i>
   <i type="int" name="EXXOEP">     0</i>
   <i type="int" name="FOURORBIT">     0</i>
   <i name="AEXX">      0.00000000</i>
   <i name="HFALPHA">      0.00000000</i>
   <i name="MCALPHA">      0.00000000</i>
   <i name="ALDAX">      1.00000000</i>
   <i name="AGGAX">      1.00000000</i>
   <i name="ALDAC">      1.00000000</i>
   <i name="AGGAC">      1.00000000</i>
   <i type="int" name="NKREDX">     1</i>
   <i type="int" name="NKREDY">     1</i>
   <i type="int" name="NKREDZ">     1</i>
   <i type="logical" name="SHIFTRED"> F  </i>
   <i type="logical" name="ODDONLY"> F  </i>
   <i type="logical" name="EVENONLY"> F  </i>
   <i type="int" name="LMAXFOCK">     0</i>
   <i type="int" name="NMAXFOCKAE">     0</i>
   <i type="logical" name="LFOCKAEDFT"> F  </i>
   <i name="HFSCREEN">      0.00000000</i>
   <i name="HFSCREENC">      0.00000000</i>
   <i type="int" name="NBANDSGWLOW">     0</i>
  </separator>
  <separator name="vdW DFT" >
   <i type="logical" name="LUSE_VDW"> F  </i>
   <i type="int" name="IVDW_NL">     1</i>
   <i type="logical" name="LSPIN_VDW"> F  </i>
   <i name="Zab_VDW">     -0.84910000</i>
   <i name="PARAM1">      0.12340000</i>
   <i name="PARAM2">      1.00000000</i>
   <i name="PARAM3">      0.00000000</i>
  </separator>
  <separator name="model GW" >
   <i type="int" name="MODEL_GW">     0</i>
   <i name="MODEL_EPS0">    160.20000000</i>
   <i name="MODEL_ALPHA">      1.00000000</i>
  </separator>
  <separator name="linear response parameters" >
   <i type="logical" name="LEPSILON"> F  </i>
   <i type="logical" name="LRPA"> F  </i>
   <i type="logical" name="LNABLA"> F  </i>
   <i type="logical" name="LVEL"> F  </i>
   <i name="CSHIFT">      0.10000000</i>
   <i name="OMEGAMAX">     -1.00000000</i>
   <i name="DEG_THRESHOLD">      0.00200000</i>
   <i name="RTIME">     -0.10000000</i>
   <i name="WPLASMAI">      0.00000000</i>
   <v name="DFIELD">      0.00000000      0.00000000      0.00000000</v>
   <v name="WPLASMA">      0.00000000      0.00000000      0.00000000      0.00000000      0.00000000      0.00000000      0.00000000      0.00000000      0.00000000</v>
  </separator>
  <separator name="orbital magnetization" >
   <i type="logical" name="NUCIND"> F  </i>
   <v name="MAGPOS">      0.00000000      0.00000000      0.00000000</v>
   <i type="logical" name="LNICSALL"> T  </i>
   <i type="logical" name="ORBITALMAG"> F  </i>
   <i type="logical" name="LMAGBLOCH"> F  </i>
   <i type="logical" name="LCHIMAG"> F  </i>
   <i type="logical" name="LGAUGE"> T  </i>
   <i type="int" name="MAGATOM">     0</i>
   <v name="MAGDIPOL">      0.00000000      0.00000000      0.00000000</v>
   <v name="AVECCONST">      0.00000000      0.00000000      0.00000000</v>
  </separator>
  <separator name="response functions" >
   <i type="logical" name="LALL_IN_ONE"> F  </i>
   <i type="int" name="IALL_IN_ONE">    -1</i>
   <i type="int" name="NBANDS_WAVE">    -1</i>
   <i type="logical" name="LFINITE_TEMPERATURE"> F  </i>
   <i type="logical" name="LADDER"> F  </i>
   <i type="logical" name="LRPAFORCE"> F  </i>
   <i type="logical" name="LFXC"> F  </i>
   <i type="logical" name="LHARTREE"> T  </i>
   <i type="int" name="IBSE">     0</i>
   <v type="int" name="KPOINT">    -1     0     0     0</v>
   <i type="logical" name="LTCTC"> F  </i>
   <i type="logical" name="LTCTE"> F  </i>
   <i type="logical" name="LTETE"> F  </i>
   <i type="logical" name="LTRIPLET"> F  </i>
   <i type="logical" name="LFXCEPS"> F  </i>
   <i type="logical" name="LFXHEG"> F  </i>
   <i type="int" name="NATURALO">     2</i>
   <i type="logical" name="LHOLEGF"> F  </i>
   <i type="logical" name="L2ORDER"> F  </i>
   <i type="logical" name="LDMP1"> F  </i>
   <i type="logical" name="LMP2LT"> F  </i>
   <i type="logical" name="LSMP2LT"> F  </i>
   <i type="logical" name="LGWLF"> F  </i>
   <i name="ENCUTGW">     -1.60000002</i>
   <i name="ENCUTGWSOFT">     -1.60000002</i>
   <i name="ENCUTLF">     -1.00000000</i>
   <i type="logical" name="LESF_SPLINES"> F  </i>
   <i type="int" name="LMAXMP2">    -1</i>
   <i name="SCISSOR">      0.00000000</i>
   <i type="int" name="NOMEGA">     0</i>
   <i type="int" name="NOMEGAR">     0</i>
   <i type="int" name="NBANDSGW">    -1</i>
   <i type="int" name="NBANDSO">    -1</i>
   <i type="int" name="NBANDSV">    -1</i>
   <i type="int" name="NELMGW">     1</i>
   <i type="int" name="NELMHF">     1</i>
   <i type="int" name="DIM">     3</i>
   <i type="int" name="IESPILON">     4</i>
   <i type="int" name="ANTIRES">     0</i>
   <i name="OMEGAMAX">    -30.00000000</i>
   <i name="OMEGAMIN">    -30.00000000</i>
   <i name="OMEGATL">   -200.00000000</i>
   <i type="int" name="OMEGAGRID">     0</i>
   <i name="CSHIFT">     -0.10000000</i>
   <i type="logical" name="LSELFENERGY"> F  </i>
   <i type="logical" name="LSPECTRAL"> F  </i>
   <i type="logical" name="LSPECTRALGW"> F  </i>
   <i type="logical" name="LSINGLES"> F  </i>
   <i type="logical" name="LFERMIGW"> F  </i>
   <i type="logical" name="ODDONLYGW"> F  </i>
   <i type="logical" name="EVENONLYGW"> F  </i>
   <i type="int" name="NKREDLFX">     1</i>
   <i type="int" name="NKREDLFY">     1</i>
   <i type="int" name="NKREDLFZ">     1</i>
   <i type="int" name="MAXMEM">  2800</i>
   <i type="int" name="TELESCOPE">     0</i>
   <i type="int" name="NTAUPAR">    -1</i>
   <i type="int" name="NOMEGAPAR">    -1</i>
   <i name="DAMP_NEWTON">      0.80000001</i>
   <i name="LAMBDA">      1.00000000</i>
  </separator>
  <separator name="External order field" >
   <i name="OFIELD_KAPPA">      0.00000000</i>
   <v name="OFIELD_K">      0.00000000      0.00000000      0.00000000</v>
   <i name="OFIELD_Q6_NEAR">      0.00000000</i>
   <i name="OFIELD_Q6_FAR">      0.00000000</i>
   <i name="OFIELD_A">      0.00000000</i>
  </separator>
  <separator name="optional k-points parameters" >
   <i type="int" name="KPOINTS_OPT_MODE">     1</i>
   <i type="logical" name="LKPOINTS_OPT"> F  </i>
  </separator>
 </parameters>
 <atominfo>
  <atoms>       2 </atoms>
  <types>       1 </types>
  <array name="atoms" >
   <dimension dim="1">ion</dimension>
   <field type="string">element</field>
   <field type="int">atomtype</field>
   <set>
    <rc><c>N </c><c>   1</c></rc>
    <rc><c>N </c><c>   1</c></rc>
   </set>
  </array>
  <array name="atomtypes" >
   <dimension dim="1">type</dimension>
   <field type="int">atomspertype</field>
   <field type="string">element</field>
   <field>mass</field>
   <field>valence</field>
   <field type="string">pseudopotential</field>
   <set>
    <rc><c>   2</c><c>N </c><c>     14.00100000</c><c>      5.00000000</c><c>  PAW_PBE N 08Apr2002                   </c></rc>
   </set>
  </array>
 </atominfo>
 <structure name="initialpos" >
  <crystal>
   <varray name="basis" >
    <v>       7.50000000       0.00000000       0.00000000 </v>
    <v>       0.00000000       8.00000000       0.00000000 </v>
    <v>       0.00000000       0.00000000       8.90000000 </v>
   </varray>
   <i name="volume">    534.00000000 </i>
   <varray name="rec_basis" >
    <v>       0.13333333       0.00000000       0.00000000 </v>
    <v>       0.00000000       0.12500000       0.00000000 </v>
    <v>       0.00000000       0.00000000       0.11235955 </v>
   </varray>
  </crystal>
  <varray name="positions" >
   <v>       0.00000000       0.00000000       0.00000000 </v>
   <v>       0.00000000       0.00000000       0.12359551 </v>
  </varray>
 </structure>
 <calculation>
  <scstep>
   <time name="dav">    0.30    0.30</time>
   <time name="total">    0.37    0.37</time>
   <energy>
    <i name="alphaZ">      0.80708599 </i>
    <i name="ewald">     78.44961200 </i>
    <i name="hartreedc">   -492.09190816 </i>
    <i name="XCdc">     38.36329014 </i>
    <i name="pawpsdc">    409.59252718 </i>
    <i name="pawaedc">   -411.96220189 </i>
    <i name="eentropy">     -0.00014071 </i>
    <i name="bandstr">    -81.10519661 </i>
    <i name="atom">    529.04659352 </i>
    <i name="e_fr_energy">     71.09966146 </i>
    <i name="e_wo_entrp">     71.09980217 </i>
    <i name="e_0_energy">     71.09973181 </i>
   </energy>
  </scstep>
  <scstep>
   <time name="dav">    0.10    0.10</time>
   <time name="total">    0.10    0.10</time>
   <energy>
    <i name="e_fr_energy">     -7.17820881 </i>
    <i name="e_wo_entrp">     -7.17820881 </i>
    <i name="e_0_energy">     -7.17820881 </i>
   </energy>
  </scstep>
  <scstep>
   <time name="dav">    0.10    0.10</time>
   <time name="total">    0.10    0.10</time>
   <energy>
    <i name="e_fr_energy">    -16.61384285 </i>
    <i name="e_wo_entrp">    -16.61384285 </i>
    <i name="e_0_energy">    -16.61384285 </i>
   </energy>
  </scstep>
  <scstep>
   <time name="dav">    0.08    0.08</time>
   <time name="total">    0.08    0.08</time>
   <energy>
    <i name="e_fr_energy">    -16.74450175 </i>
    <i name="e_wo_entrp">    -16.74450175 </i>
    <i name="e_0_energy">    -16.74450175 </i>
   </energy>
  </scstep>
  <scstep>
   <time name="dav">    0.06    0.06</time>
   <time name="total">    0.13    0.13</time>
   <energy>
    <i name="e_fr_energy">    -16.74479941 </i>
    <i name="e_wo_entrp">    -16.74479941 </i>
    <i name="e_0_energy">    -16.74479941 </i>
   </energy>
  </scstep>
  <scstep>
   <time name="diag">    0.01    0.01</time>
   <time name="diis">    0.05    0.06</time>
   <time name="orth">    0.00    0.00</time>
   <time name="total">    0.16    0.16</time>
   <energy>
    <i name="e_fr_energy">    -12.26887216 </i>
    <i name="e_wo_entrp">    -12.26887216 </i>
    <i name="e_0_energy">    -12.26887216 </i>
   </energy>
  </scstep>
  <scstep>
   <time name="diag">    0.01    0.01</time>
   <time name="diis">    0.05    0.05</time>
   <time name="orth">    0.00    0.00</time>
   <time name="total">    0.16    0.16</time>
   <energy>
    <i name="e_fr_energy">    -15.56873254 </i>
    <i name="e_wo_entrp">    -15.56873254 </i>
    <i name="e_0_energy">    -15.56873254 </i>
   </energy>
  </scstep>
  <scstep>
   <time name="diag">    0.01    0.01</time>
   <time name="diis">    0.05    0.05</time>
   <time name="orth">    0.00    0.00</time>
   <time name="total">    0.16    0.16</time>
   <energy>
    <i name="e_fr_energy">    -16.42951490 </i>
    <i name="e_wo_entrp">    -16.42951490 </i>
    <i name="e_0_energy">    -16.42951490 </i>
   </energy>
  </scstep>
  <scstep>
   <time name="diag">    0.01    0.01</time>
   <time name="diis">    0.05    0.05</time>
   <time name="orth">    0.00    0.00</time>
   <time name="total">    0.16    0.16</time>
   <energy>
    <i name="e_fr_energy">    -16.58884012 </i>
    <i name="e_wo_entrp">    -16.58884012 </i>
    <i name="e_0_energy">    -16.58884012 </i>
   </energy>
  </scstep>
  <scstep>
   <time name="diag">    0.01    0.01</time>
   <time name="diis">    0.05    0.05</time>
   <time name="orth">    0.00    0.00</time>
   <time name="total">    0.16    0.16</time>
   <energy>
    <i name="e_fr_energy">    -16.55855814 </i>
    <i name="e_wo_entrp">    -16.55855814 </i>
    <i name="e_0_energy">    -16.55855814 </i>
   </energy>
  </scstep>
  <scstep>
   <time name="diag">    0.01    0.01</time>
   <time name="diis">    0.05    0.05</time>
   <time name="orth">    0.00    0.00</time>
   <time name="total">    0.16    0.16</time>
   <energy>
    <i name="e_fr_energy">    -16.60460521 </i>
    <i name="e_wo_entrp">    -16.60460521 </i>
    <i name="e_0_energy">    -16.60460521 </i>
   </energy>
  </scstep>
  <scstep>
   <time name="diag">    0.01    0.01</time>
   <time name="diis">    0.05    0.05</time>
   <time name="orth">    0.00    0.00</time>
   <time name="total">    0.16    0.16</time>
   <energy>
    <i name="e_fr_energy">    -16.60698965 </i>
    <i name="e_wo_entrp">    -16.60698965 </i>
    <i name="e_0_energy">    -16.60698965 </i>
   </energy>
  </scstep>
  <scstep>
   <time name="diag">    0.01    0.01</time>
   <time name="diis">    0.05    0.05</time>
   <time name="orth">    0.00    0.00</time>
   <time name="total">    0.16    0.16</time>
   <energy>
    <i name="e_fr_energy">    -16.60853809 </i>
    <i name="e_wo_entrp">    -16.60853809 </i>
    <i name="e_0_energy">    -16.60853809 </i>
   </energy>
  </scstep>
  <scstep>
   <time name="diag">    0.01    0.01</time>
   <time name="diis">    0.05    0.05</time>
   <time name="orth">    0.00    0.00</time>
   <time name="total">    0.16    0.16</time>
   <energy>
    <i name="e_fr_energy">    -16.60927151 </i>
    <i name="e_wo_entrp">    -16.60927151 </i>
    <i name="e_0_energy">    -16.60927151 </i>
   </energy>
  </scstep>
  <scstep>
   <time name="diag">    0.01    0.01</time>
   <time name="diis">    0.05    0.05</time>
   <time name="orth">    0.00    0.00</time>
   <time name="total">    0.16    0.16</time>
   <energy>
    <i name="e_fr_energy">    -16.60945670 </i>
    <i name="e_wo_entrp">    -16.60945670 </i>
    <i name="e_0_energy">    -16.60945670 </i>
   </energy>
  </scstep>
  <scstep>
   <time name="diag">    0.01    0.01</time>
   <time name="diis">    0.06    0.06</time>
   <time name="orth">    0.00    0.00</time>
   <time name="total">    0.17    0.17</time>
   <energy>
    <i name="e_fr_energy">    -16.60983670 </i>
    <i name="e_wo_entrp">    -16.60983670 </i>
    <i name="e_0_energy">    -16.60983670 </i>
   </energy>
  </scstep>
  <scstep>
   <time name="diag">    0.01    0.01</time>
   <time name="diis">    0.05    0.05</time>
   <time name="orth">    0.00    0.00</time>
   <time name="total">    0.16    0.16</time>
   <energy>
    <i name="e_fr_energy">    -16.60992958 </i>
    <i name="e_wo_entrp">    -16.60992958 </i>
    <i name="e_0_energy">    -16.60992958 </i>
   </energy>
  </scstep>
  <scstep>
   <time name="diag">    0.01    0.01</time>
   <time name="diis">    0.05    0.05</time>
   <time name="orth">    0.00    0.00</time>
   <time name="total">    0.16    0.16</time>
   <energy>
    <i name="e_fr_energy">    -16.60996722 </i>
    <i name="e_wo_entrp">    -16.60996722 </i>
    <i name="e_0_energy">    -16.60996722 </i>
   </energy>
  </scstep>
  <scstep>
   <time name="diag">    0.01    0.01</time>
   <time name="diis">    0.04    0.04</time>
   <time name="orth">    0.00    0.00</time>
   <time name="total">    0.16    0.16</time>
   <energy>
    <i name="e_fr_energy">    -16.60999435 </i>
    <i name="e_wo_entrp">    -16.60999435 </i>
    <i name="e_0_energy">    -16.60999435 </i>
   </energy>
  </scstep>
  <scstep>
   <time name="diag">    0.01    0.01</time>
   <time name="diis">    0.04    0.04</time>
   <time name="orth">    0.00    0.00</time>
   <time name="total">    0.08    0.08</time>
   <energy>
    <i name="alphaZ">      0.80708599 </i>
    <i name="ewald">     78.44961200 </i>
    <i name="hartreedc">   -513.55360553 </i>
    <i name="XCdc">     39.33339632 </i>
    <i name="pawpsdc">   1001.49438157 </i>
    <i name="pawaedc">  -1004.18066378 </i>
    <i name="eentropy">     -0.00000000 </i>
    <i name="bandstr">   -148.00680001 </i>
    <i name="atom">    529.04659352 </i>
    <i name="e_fr_energy">    -16.60999992 </i>
    <i name="e_wo_entrp">    -16.60999992 </i>
    <i name="e_0_energy">    -16.60999992 </i>
   </energy>
  </scstep>
  <structure>
   <crystal>
    <varray name="basis" >
     <v>       7.50000000       0.00000000       0.00000000 </v>
     <v>       0.00000000       8.00000000       0.00000000 </v>
     <v>       0.00000000       0.00000000       8.90000000 </v>
    </varray>
    <i name="volume">    534.00000000 </i>
    <varray name="rec_basis" >
     <v>       0.13333333       0.00000000       0.00000000 </v>
     <v>       0.00000000       0.12500000       0.00000000 </v>
     <v>       0.00000000       0.00000000       0.11235955 </v>
    </varray>
   </crystal>
   <varray name="positions" >
    <v>       0.00000000       0.00000000       0.00000000 </v>
    <v>       0.00000000       0.00000000       0.12359551 </v>
   </varray>
  </structure>
  <varray name="forces" >
   <v>      -0.00000000       0.00000000      -2.37838080 </v>
   <v>       0.00000000       0.00000000       2.37838080 </v>
  </varray>
  <varray name="stress" >
   <v>      -1.06072135       0.00000000       0.00000000 </v>
   <v>       0.00000000      -0.99323299       0.00000000 </v>
   <v>       0.00000000       0.00000000       6.68361538 </v>
  </varray>
  <energy>
   <i name="e_fr_energy">    -16.60999992 </i>
   <i name="e_wo_entrp">    -16.60999992 </i>
   <i name="e_0_energy">    -16.60999992 </i>
  </energy>
  <time name="totalsc">    3.53    3.55</time>
 </calculation>
 <calculation>
  <scstep>
   <time name="dav">    0.06    0.06</time>
   <time name="total">    0.15    0.15</time>
   <energy>
    <i name="alphaZ">      0.80708599 </i>
    <i name="ewald">     22.47215896 </i>
    <i name="hartreedc">   -476.49634947 </i>
    <i name="XCdc">     38.30021964 </i>
    <i name="pawpsdc">   1001.47442935 </i>
    <i name="pawaedc">  -1004.16072379 </i>
    <i name="eentropy">     -0.00000000 </i>
    <i name="bandstr">   -126.25157233 </i>
    <i name="atom">    529.04659352 </i>
    <i name="e_fr_energy">    -14.80815813 </i>
    <i name="e_wo_entrp">    -14.80815813 </i>
    <i name="e_0_energy">    -14.80815813 </i>
   </energy>
  </scstep>
  <scstep>
   <time name="diag">    0.01    0.01</time>
   <time name="diis">    0.06    0.06</time>
   <time name="orth">    0.00    0.00</time>
   <time name="total">    0.17    0.17</time>
   <energy>
    <i name="e_fr_energy">    -14.58921731 </i>
    <i name="e_wo_entrp">    -14.58921731 </i>
    <i name="e_0_energy">    -14.58921731 </i>
   </energy>
  </scstep>
  <scstep>
   <time name="diag">    0.01    0.01</time>
   <time name="diis">    0.06    0.06</time>
   <time name="orth">    0.00    0.00</time>
   <time name="total">    0.17    0.17</time>
   <energy>
    <i name="e_fr_energy">    -14.55625286 </i>
    <i name="e_wo_entrp">    -14.55625286 </i>
    <i name="e_0_energy">    -14.55625286 </i>
   </energy>
  </scstep>
  <scstep>
   <time name="diag">    0.01    0.01</time>
   <time name="diis">    0.06    0.06</time>
   <time name="orth">    0.00    0.00</time>
   <time name="total">    0.17    0.17</time>
   <energy>
    <i name="e_fr_energy">    -14.55842622 </i>
    <i name="e_wo_entrp">    -14.55842622 </i>
    <i name="e_0_energy">    -14.55842622 </i>
   </energy>
  </scstep>
  <scstep>
   <time name="diag">    0.01    0.01</time>
   <time name="diis">    0.06    0.06</time>
   <time name="orth">    0.00    0.00</time>
   <time name="total">    0.17    0.17</time>
   <energy>
    <i name="e_fr_energy">    -14.55934854 </i>
    <i name="e_wo_entrp">    -14.55934854 </i>
    <i name="e_0_energy">    -14.55934854 </i>
   </energy>
  </scstep>
  <scstep>
   <time name="diag">    0.01    0.01</time>
   <time name="diis">    0.07    0.07</time>
   <time name="orth">    0.00    0.00</time>
   <time name="total">    0.17    0.17</time>
   <energy>
    <i name="e_fr_energy">    -14.55964542 </i>
    <i name="e_wo_entrp">    -14.55964542 </i>
    <i name="e_0_energy">    -14.55964542 </i>
   </energy>
  </scstep>
  <scstep>
   <time name="diag">    0.01    0.01</time>
   <time name="diis">    0.06    0.06</time>
   <time name="orth">    0.00    0.00</time>
   <time name="total">    0.17    0.17</time>
   <energy>
    <i name="e_fr_energy">    -14.55986328 </i>
    <i name="e_wo_entrp">    -14.55986328 </i>
    <i name="e_0_energy">    -14.55986328 </i>
   </energy>
  </scstep>
  <scstep>
   <time name="diag">    0.01    0.01</time>
   <time name="diis">    0.06    0.06</time>
   <time name="orth">    0.00    0.00</time>
   <time name="total">    0.17    0.17</time>
   <energy>
    <i name="e_fr_energy">    -14.55996704 </i>
    <i name="e_wo_entrp">    -14.55996704 </i>
    <i name="e_0_energy">    -14.55996704 </i>
   </energy>
  </scstep>
  <scstep>
   <time name="diag">    0.01    0.01</time>
   <time name="diis">    0.05    0.05</time>
   <time name="orth">    0.00    0.00</time>
   <time name="total">    0.16    0.16</time>
   <energy>
    <i name="e_fr_energy">    -14.56000738 </i>
    <i name="e_wo_entrp">    -14.56000738 </i>
    <i name="e_0_energy">    -14.56000738 </i>
   </energy>
  </scstep>
  <scstep>
   <time name="diag">    0.01    0.01</time>
   <time name="diis">    0.05    0.05</time>
   <time name="orth">    0.00    0.00</time>
   <time name="total">    0.16    0.16</time>
   <energy>
    <i name="e_fr_energy">    -14.56011174 </i>
    <i name="e_wo_entrp">    -14.56011174 </i>
    <i name="e_0_energy">    -14.56011174 </i>
   </energy>
  </scstep>
  <scstep>
   <time name="diag">    0.01    0.01</time>
   <time name="diis">    0.05    0.05</time>
   <time name="orth">    0.00    0.00</time>
   <time name="total">    0.09    0.09</time>
   <energy>
    <i name="alphaZ">      0.80708599 </i>
    <i name="ewald">     22.47215896 </i>
    <i name="hartreedc">   -464.30032074 </i>
    <i name="XCdc">     37.56553813 </i>
    <i name="pawpsdc">    675.14898294 </i>
    <i name="pawaedc">   -677.50975646 </i>
    <i name="eentropy">     -0.00000000 </i>
    <i name="bandstr">   -137.79040093 </i>
    <i name="atom">    529.04659352 </i>
    <i name="e_fr_energy">    -14.56011858 </i>
    <i name="e_wo_entrp">    -14.56011858 </i>
    <i name="e_0_energy">    -14.56011858 </i>
   </energy>
  </scstep>
  <structure>
   <crystal>
    <varray name="basis" >
     <v>       7.50000000       0.00000000       0.00000000 </v>
     <v>       0.00000000       8.00000000       0.00000000 </v>
     <v>       0.00000000       0.00000000       8.90000000 </v>
    </varray>
    <i name="volume">    534.00000000 </i>
    <varray name="rec_basis" >
     <v>       0.13333333       0.00000000       0.00000000 </v>
     <v>       0.00000000       0.12500000       0.00000000 </v>
     <v>       0.00000000       0.00000000       0.11235955 </v>
    </varray>
   </crystal>
   <varray name="positions" >
    <v>      -0.00000000       0.00000000      -0.01289207 </v>
    <v>       0.00000000       0.00000000       0.13648757 </v>
   </varray>
  </structure>
  <varray name="forces" >
   <v>       0.00000000       0.00000000      14.57154938 </v>
   <v>      -0.00000000       0.00000000     -14.57154938 </v>
  </varray>
  <varray name="stress" >
   <v>      -0.70338148       0.00000000       0.00000000 </v>
   <v>       0.00000000      -0.69183142       0.00000000 </v>
   <v>       0.00000000       0.00000000     -58.65196074 </v>
  </varray>
  <energy>
   <i name="e_fr_energy">    -14.56011858 </i>
   <i name="e_wo_entrp">    -14.56011858 </i>
   <i name="e_0_energy">    -14.56011858 </i>
  </energy>
  <time name="totalsc">    2.17    2.19</time>
 </calculation>
 <calculation>
  <scstep>
   <time name="dav">    0.06    0.06</time>
   <time name="total">    0.16    0.16</time>
   <energy>
    <i name="alphaZ">      0.80708599 </i>
    <i name="ewald">     73.59589283 </i>
    <i name="hartreedc">   -497.67784301 </i>
    <i name="XCdc">     38.48980106 </i>
    <i name="pawpsdc">    675.15694599 </i>
    <i name="pawaedc">   -677.51754016 </i>
    <i name="eentropy">     -0.00000000 </i>
    <i name="bandstr">   -158.63884660 </i>
    <i name="atom">    529.04659352 </i>
    <i name="e_fr_energy">    -16.73791037 </i>
    <i name="e_wo_entrp">    -16.73791037 </i>
    <i name="e_0_energy">    -16.73791037 </i>
   </energy>
  </scstep>
  <scstep>
   <time name="diag">    0.01    0.01</time>
   <time name="diis">    0.06    0.06</time>
   <time name="orth">    0.00    0.00</time>
   <time name="total">    0.17    0.17</time>
   <energy>
    <i name="e_fr_energy">    -16.69241073 </i>
    <i name="e_wo_entrp">    -16.69241073 </i>
    <i name="e_0_energy">    -16.69241073 </i>
   </energy>
  </scstep>
  <scstep>
   <time name="diag">    0.01    0.01</time>
   <time name="diis">    0.06    0.06</time>
   <time name="orth">    0.00    0.00</time>
   <time name="total">    0.17    0.17</time>
   <energy>
    <i name="e_fr_energy">    -16.62174939 </i>
    <i name="e_wo_entrp">    -16.62174939 </i>
    <i name="e_0_energy">    -16.62174939 </i>
   </energy>
  </scstep>
  <scstep>
   <time name="diag">    0.01    0.01</time>
   <time name="diis">    0.06    0.06</time>
   <time name="orth">    0.00    0.00</time>
   <time name="total">    0.17    0.18</time>
   <energy>
    <i name="e_fr_energy">    -16.62526183 </i>
    <i name="e_wo_entrp">    -16.62526183 </i>
    <i name="e_0_energy">    -16.62526183 </i>
   </energy>
  </scstep>
  <scstep>
   <time name="diag">    0.01    0.01</time>
   <time name="diis">    0.07    0.07</time>
   <time name="orth">    0.00    0.00</time>
   <time name="total">    0.18    0.18</time>
   <energy>
    <i name="e_fr_energy">    -16.62606517 </i>
    <i name="e_wo_entrp">    -16.62606517 </i>
    <i name="e_0_energy">    -16.62606517 </i>
   </energy>
  </scstep>
  <scstep>
   <time name="diag">    0.01    0.01</time>
   <time name="diis">    0.07    0.07</time>
   <time name="orth">    0.00    0.00</time>
   <time name="total">    0.18    0.18</time>
   <energy>
    <i name="e_fr_energy">    -16.62610353 </i>
    <i name="e_wo_entrp">    -16.62610353 </i>
    <i name="e_0_energy">    -16.62610353 </i>
   </energy>
  </scstep>
  <scstep>
   <time name="diag">    0.01    0.01</time>
   <time name="diis">    0.06    0.06</time>
   <time name="orth">    0.00    0.00</time>
   <time name="total">    0.18    0.18</time>
   <energy>
    <i name="e_fr_energy">    -16.62626887 </i>
    <i name="e_wo_entrp">    -16.62626887 </i>
    <i name="e_0_energy">    -16.62626887 </i>
   </energy>
  </scstep>
  <scstep>
   <time name="diag">    0.01    0.01</time>
   <time name="diis">    0.06    0.06</time>
   <time name="orth">    0.00    0.00</time>
   <time name="total">    0.18    0.18</time>
   <energy>
    <i name="e_fr_energy">    -16.62670964 </i>
    <i name="e_wo_entrp">    -16.62670964 </i>
    <i name="e_0_energy">    -16.62670964 </i>
   </energy>
  </scstep>
  <scstep>
   <time name="diag">    0.01    0.01</time>
   <time name="diis">    0.06    0.06</time>
   <time name="orth">    0.00    0.00</time>
   <time name="total">    0.17    0.17</time>
   <energy>
    <i name="e_fr_energy">    -16.62682221 </i>
    <i name="e_wo_entrp">    -16.62682221 </i>
    <i name="e_0_energy">    -16.62682221 </i>
   </energy>
  </scstep>
  <scstep>
   <time name="diag">    0.01    0.01</time>
   <time name="diis">    0.05    0.05</time>
   <time name="orth">    0.00    0.00</time>
   <time name="total">    0.17    0.17</time>
   <energy>
    <i name="e_fr_energy">    -16.62698715 </i>
    <i name="e_wo_entrp">    -16.62698715 </i>
    <i name="e_0_energy">    -16.62698715 </i>
   </energy>
  </scstep>
  <scstep>
   <time name="diag">    0.01    0.01</time>
   <time name="diis">    0.05    0.05</time>
   <time name="orth">    0.00    0.00</time>
   <time name="total">    0.17    0.17</time>
   <energy>
    <i name="e_fr_energy">    -16.62700527 </i>
    <i name="e_wo_entrp">    -16.62700527 </i>
    <i name="e_0_energy">    -16.62700527 </i>
   </energy>
  </scstep>
  <scstep>
   <time name="diag">    0.01    0.01</time>
   <time name="diis">    0.05    0.05</time>
   <time name="orth">    0.00    0.00</time>
   <time name="total">    0.17    0.17</time>
   <energy>
    <i name="e_fr_energy">    -16.62701906 </i>
    <i name="e_wo_entrp">    -16.62701906 </i>
    <i name="e_0_energy">    -16.62701906 </i>
   </energy>
  </scstep>
  <scstep>
   <time name="diag">    0.01    0.01</time>
   <time name="diis">    0.05    0.05</time>
   <time name="orth">    0.00    0.00</time>
   <time name="total">    0.09    0.09</time>
   <energy>
    <i name="alphaZ">      0.80708599 </i>
    <i name="ewald">     73.59589283 </i>
    <i name="hartreedc">   -509.46203361 </i>
    <i name="XCdc">     39.17803081 </i>
    <i name="pawpsdc">    973.56415664 </i>
    <i name="pawaedc">   -976.21306771 </i>
    <i name="eentropy">     -0.00000000 </i>
    <i name="bandstr">   -147.14368580 </i>
    <i name="atom">    529.04659352 </i>
    <i name="e_fr_energy">    -16.62702732 </i>
    <i name="e_wo_entrp">    -16.62702732 </i>
    <i name="e_0_energy">    -16.62702732 </i>
   </energy>
  </scstep>
  <structure>
   <crystal>
    <varray name="basis" >
     <v>       7.50000000       0.00000000       0.00000000 </v>
     <v>       0.00000000       8.00000000       0.00000000 </v>
     <v>       0.00000000       0.00000000       8.90000000 </v>
    </varray>
    <i name="volume">    534.00000000 </i>
    <varray name="rec_basis" >
     <v>       0.13333333       0.00000000       0.00000000 </v>
     <v>       0.00000000       0.12500000       0.00000000 </v>
     <v>       0.00000000       0.00000000       0.11235955 </v>
    </varray>
   </crystal>
   <varray name="positions" >
    <v>      -0.00000000       0.00000000      -0.00093681 </v>
    <v>       0.00000000       0.00000000       0.12453232 </v>
   </varray>
  </structure>
  <varray name="forces" >
   <v>       0.00000000       0.00000000       0.28214646 </v>
   <v>      -0.00000000       0.00000000      -0.28214646 </v>
  </varray>
  <varray name="stress" >
   <v>      -1.02043271       0.00000000       0.00000000 </v>
   <v>       0.00000000      -0.94066256       0.00000000 </v>
   <v>       0.00000000       0.00000000      -1.97783540 </v>
  </varray>
  <energy>
   <i name="e_fr_energy">    -16.62702732 </i>
   <i name="e_wo_entrp">    -16.62702732 </i>
   <i name="e_0_energy">    -16.62702732 </i>
  </energy>
  <time name="totalsc">    2.56    2.58</time>
 </calculation>
 <calculation>
  <scstep>
   <time name="dav">    0.08    0.08</time>
   <time name="total">    0.18    0.18</time>
   <energy>
    <i name="alphaZ">      0.80708599 </i>
    <i name="ewald">     74.10366808 </i>
    <i name="hartreedc">   -509.76497210 </i>
    <i name="XCdc">     39.18718362 </i>
    <i name="pawpsdc">    973.53423193 </i>
    <i name="pawaedc">   -976.18313356 </i>
    <i name="eentropy">     -0.00000000 </i>
    <i name="bandstr">   -147.35797475 </i>
    <i name="atom">    529.04659352 </i>
    <i name="e_fr_energy">    -16.62731727 </i>
    <i name="e_wo_entrp">    -16.62731727 </i>
    <i name="e_0_energy">    -16.62731727 </i>
   </energy>
  </scstep>
  <scstep>
   <time name="diag">    0.01    0.01</time>
   <time name="diis">    0.07    0.07</time>
   <time name="orth">    0.00    0.00</time>
   <time name="total">    0.18    0.18</time>
   <energy>
    <i name="e_fr_energy">    -16.62729672 </i>
    <i name="e_wo_entrp">    -16.62729672 </i>
    <i name="e_0_energy">    -16.62729672 </i>
   </energy>
  </scstep>
  <scstep>
   <time name="diag">    0.01    0.01</time>
   <time name="diis">    0.07    0.07</time>
   <time name="orth">    0.00    0.00</time>
   <time name="total">    0.10    0.10</time>
   <energy>
    <i name="alphaZ">      0.80708599 </i>
    <i name="ewald">     74.10366808 </i>
    <i name="hartreedc">   -509.90510215 </i>
    <i name="XCdc">     39.19518190 </i>
    <i name="pawpsdc">    976.09468925 </i>
    <i name="pawaedc">   -978.74714292 </i>
    <i name="eentropy">     -0.00000000 </i>
    <i name="bandstr">   -147.22226587 </i>
    <i name="atom">    529.04659352 </i>
    <i name="e_fr_energy">    -16.62729220 </i>
    <i name="e_wo_entrp">    -16.62729220 </i>
    <i name="e_0_energy">    -16.62729220 </i>
   </energy>
  </scstep>
  <structure>
   <crystal>
    <varray name="basis" >
     <v>       7.50000000       0.00000000       0.00000000 </v>
     <v>       0.00000000       8.00000000       0.00000000 </v>
     <v>       0.00000000       0.00000000       8.90000000 </v>
    </varray>
    <i name="volume">    534.00000000 </i>
    <varray name="rec_basis" >
     <v>       0.13333333       0.00000000       0.00000000 </v>
     <v>       0.00000000       0.12500000       0.00000000 </v>
     <v>       0.00000000       0.00000000       0.11235955 </v>
    </varray>
   </crystal>
   <varray name="positions" >
    <v>      -0.00000000       0.00000000      -0.00083746 </v>
    <v>       0.00000000       0.00000000       0.12443297 </v>
   </varray>
  </structure>
  <varray name="forces" >
   <v>       0.00000000       0.00000000       0.01816679 </v>
   <v>       0.00000000       0.00000000      -0.01816679 </v>
  </varray>
  <varray name="stress" >
   <v>      -1.02759516       0.00000000       0.00000000 </v>
   <v>       0.00000000      -0.95723637       0.00000000 </v>
   <v>       0.00000000       0.00000000      -1.10230620 </v>
  </varray>
  <energy>
   <i name="e_fr_energy">    -16.62729220 </i>
   <i name="e_wo_entrp">    -16.62729220 </i>
   <i name="e_0_energy">    -16.62729220 </i>
  </energy>
  <time name="totalsc">    0.87    0.88</time>
 </calculation>
 <calculation>
  <scstep>
   <time name="dav">    0.10    0.10</time>
   <time name="total">    0.19    0.19</time>
   <energy>
    <i name="alphaZ">      0.80708599 </i>
    <i name="ewald">     74.13840714 </i>
    <i name="hartreedc">   -509.91689844 </i>
    <i name="XCdc">     39.19527863 </i>
    <i name="pawpsdc">    976.23260675 </i>
    <i name="pawaedc">   -978.88507845 </i>
    <i name="eentropy">     -0.00000000 </i>
    <i name="bandstr">   -147.24528829 </i>
    <i name="atom">    529.04659352 </i>
    <i name="e_fr_energy">    -16.62729315 </i>
    <i name="e_wo_entrp">    -16.62729315 </i>
    <i name="e_0_energy">    -16.62729315 </i>
   </energy>
  </scstep>
  <scstep>
   <time name="diag">    0.01    0.01</time>
   <time name="diis">    0.05    0.05</time>
   <time name="orth">    0.00    0.00</time>
   <time name="total">    0.08    0.08</time>
   <energy>
    <i name="alphaZ">      0.80708599 </i>
    <i name="ewald">     74.13840714 </i>
    <i name="hartreedc">   -509.91551841 </i>
    <i name="XCdc">     39.19517548 </i>
    <i name="pawpsdc">    976.41682138 </i>
    <i name="pawaedc">   -979.06947684 </i>
    <i name="eentropy">     -0.00000000 </i>
    <i name="bandstr">   -147.24638151 </i>
    <i name="atom">    529.04659352 </i>
    <i name="e_fr_energy">    -16.62729325 </i>
    <i name="e_wo_entrp">    -16.62729325 </i>
    <i name="e_0_energy">    -16.62729325 </i>
   </energy>
  </scstep>
  <structure>
   <crystal>
    <varray name="basis" >
     <v>       7.50000000       0.00000000       0.00000000 </v>
     <v>       0.00000000       8.00000000       0.00000000 </v>
     <v>       0.00000000       0.00000000       8.90000000 </v>
    </varray>
    <i name="volume">    534.00000000 </i>
    <varray name="rec_basis" >
     <v>       0.13333333       0.00000000       0.00000000 </v>
     <v>       0.00000000       0.12500000       0.00000000 </v>
     <v>       0.00000000       0.00000000       0.11235955 </v>
    </varray>
   </crystal>
   <varray name="positions" >
    <v>      -0.00000000       0.00000000      -0.00083068 </v>
    <v>       0.00000000       0.00000000       0.12442618 </v>
   </varray>
  </structure>
  <varray name="forces" >
   <v>      -0.00000000       0.00000000      -0.00216787 </v>
   <v>       0.00000000       0.00000000       0.00216787 </v>
  </varray>
  <varray name="stress" >
   <v>      -1.01870393       0.00000000       0.00000000 </v>
   <v>       0.00000000      -0.94801702       0.00000000 </v>
   <v>       0.00000000       0.00000000      -1.04264026 </v>
  </varray>
  <energy>
   <i name="e_fr_energy">    -16.62729325 </i>
   <i name="e_wo_entrp">    -16.62729325 </i>
   <i name="e_0_energy">    -16.62729325 </i>
  </energy>
  <time name="totalsc">    0.60    0.61</time>
  <eigenvalues>
   <array>
    <dimension dim="1">band</dimension>
    <dimension dim="2">kpoint</dimension>
    <dimension dim="3">spin</dimension>
    <field>eigene</field>
    <field>occ</field>
    <set>
     <set comment="spin 1">
      <set comment="kpoint 1">
       <r>  -27.9035    1.0000 </r>
       <r>  -13.2846    1.0000 </r>
       <r>  -11.2685    1.0000 </r>
       <r>  -11.2680    1.0000 </r>
       <r>   -9.8984    1.0000 </r>
       <r>   -1.8891    0.0000 </r>
       <r>   -1.8866    0.0000 </r>
       <r>   -0.2414    0.0000 </r>
       <r>    1.4962    0.0000 </r>
       <r>    1.5627    0.0000 </r>
      </set>
      <set comment="kpoint 2">
       <r>  -27.9035    1.0000 </r>
       <r>  -13.2846    1.0000 </r>
       <r>  -11.2690    1.0000 </r>
       <r>  -11.2684    1.0000 </r>
       <r>   -9.8982    1.0000 </r>
       <r>   -1.8954    0.0000 </r>
       <r>   -1.8882    0.0000 </r>
       <r>    0.3794    0.0000 </r>
       <r>    0.4143    0.0000 </r>
       <r>    1.9984    0.0000 </r>
      </set>
      <set comment="kpoint 3">
       <r>  -27.9034    1.0000 </r>
       <r>  -13.2846    1.0000 </r>
       <r>  -11.2689    1.0000 </r>
       <r>  -11.2680    1.0000 </r>
       <r>   -9.8981    1.0000 </r>
       <r>   -1.8938    0.0000 </r>
       <r>   -1.8864    0.0000 </r>
       <r>    0.2738    0.0000 </r>
       <r>    0.3699    0.0000 </r>
       <r>    1.9032    0.0000 </r>
      </set>
      <set comment="kpoint 4">
       <r>  -27.9035    1.0000 </r>
       <r>  -13.2845    1.0000 </r>
       <r>  -11.2688    1.0000 </r>
       <r>  -11.2687    1.0000 </r>
       <r>   -9.8979    1.0000 </r>
       <r>   -1.8948    0.0000 </r>
       <r>   -1.8925    0.0000 </r>
       <r>    0.8177    0.0000 </r>
       <r>    0.8724    0.0000 </r>
       <r>    0.9839    0.0000 </r>
      </set>
      <set comment="kpoint 5">
       <r>  -27.9034    1.0000 </r>
       <r>  -13.2846    1.0000 </r>
       <r>  -11.2684    1.0000 </r>
       <r>  -11.2680    1.0000 </r>
       <r>   -9.8983    1.0000 </r>
       <r>   -1.8910    0.0000 </r>
       <r>   -1.8888    0.0000 </r>
       <r>    0.0671    0.0000 </r>
       <r>    0.3402    0.0000 </r>
       <r>    2.0511    0.0000 </r>
      </set>
      <set comment="kpoint 6">
       <r>  -27.9035    1.0000 </r>
       <r>  -13.2846    1.0000 </r>
       <r>  -11.2690    1.0000 </r>
       <r>  -11.2683    1.0000 </r>
       <r>   -9.8979    1.0000 </r>
       <r>   -1.8986    0.0000 </r>
       <r>   -1.8897    0.0000 </r>
       <r>    0.6949    0.0000 </r>
       <r>    0.7069    0.0000 </r>
       <r>    0.8635    0.0000 </r>
      </set>
      <set comment="kpoint 7">
       <r>  -27.9035    1.0000 </r>
       <r>  -13.2846    1.0000 </r>
       <r>  -11.2689    1.0000 </r>
       <r>  -11.2681    1.0000 </r>
       <r>   -9.8981    1.0000 </r>
       <r>   -1.8971    0.0000 </r>
       <r>   -1.8880    0.0000 </r>
       <r>    0.5909    0.0000 </r>
       <r>    0.6606    0.0000 </r>
       <r>    0.7760    0.0000 </r>
      </set>
      <set comment="kpoint 8">
       <r>  -27.9035    1.0000 </r>
       <r>  -13.2846    1.0000 </r>
       <r>  -11.2687    1.0000 </r>
       <r>  -11.2686    1.0000 </r>
       <r>   -9.8977    1.0000 </r>
       <r>   -1.8977    0.0000 </r>
       <r>   -1.8954    0.0000 </r>
       <r>    1.0686    0.0000 </r>
       <r>    1.1349    0.0000 </r>
       <r>    1.2698    0.0000 </r>
      </set>
     </set>
     <set comment="spin 2">
      <set comment="kpoint 1">
       <r>  -27.9035    1.0000 </r>
       <r>  -13.2846    1.0000 </r>
       <r>  -11.2685    1.0000 </r>
       <r>  -11.2680    1.0000 </r>
       <r>   -9.8984    1.0000 </r>
       <r>   -1.8891    0.0000 </r>
       <r>   -1.8866    0.0000 </r>
       <r>   -0.2413    0.0000 </r>
       <r>    1.4963    0.0000 </r>
       <r>    1.5629    0.0000 </r>
      </set>
      <set comment="kpoint 2">
       <r>  -27.9035    1.0000 </r>
       <r>  -13.2846    1.0000 </r>
       <r>  -11.2690    1.0000 </r>
       <r>  -11.2684    1.0000 </r>
       <r>   -9.8982    1.0000 </r>
       <r>   -1.8954    0.0000 </r>
       <r>   -1.8882    0.0000 </r>
       <r>    0.3795    0.0000 </r>
       <r>    0.4145    0.0000 </r>
       <r>    1.9984    0.0000 </r>
      </set>
      <set comment="kpoint 3">
       <r>  -27.9034    1.0000 </r>
       <r>  -13.2846    1.0000 </r>
       <r>  -11.2689    1.0000 </r>
       <r>  -11.2680    1.0000 </r>
       <r>   -9.8981    1.0000 </r>
       <r>   -1.8938    0.0000 </r>
       <r>   -1.8864    0.0000 </r>
       <r>    0.2738    0.0000 </r>
       <r>    0.3702    0.0000 </r>
       <r>    1.9032    0.0000 </r>
      </set>
      <set comment="kpoint 4">
       <r>  -27.9036    1.0000 </r>
       <r>  -13.2845    1.0000 </r>
       <r>  -11.2688    1.0000 </r>
       <r>  -11.2687    1.0000 </r>
       <r>   -9.8979    1.0000 </r>
       <r>   -1.8948    0.0000 </r>
       <r>   -1.8925    0.0000 </r>
       <r>    0.8178    0.0000 </r>
       <r>    0.8726    0.0000 </r>
       <r>    0.9840    0.0000 </r>
      </set>
      <set comment="kpoint 5">
       <r>  -27.9034    1.0000 </r>
       <r>  -13.2846    1.0000 </r>
       <r>  -11.2684    1.0000 </r>
       <r>  -11.2680    1.0000 </r>
       <r>   -9.8983    1.0000 </r>
       <r>   -1.8910    0.0000 </r>
       <r>   -1.8888    0.0000 </r>
       <r>    0.0672    0.0000 </r>
       <r>    0.3404    0.0000 </r>
       <r>    2.0511    0.0000 </r>
      </set>
      <set comment="kpoint 6">
       <r>  -27.9035    1.0000 </r>
       <r>  -13.2846    1.0000 </r>
       <r>  -11.2690    1.0000 </r>
       <r>  -11.2683    1.0000 </r>
       <r>   -9.8979    1.0000 </r>
       <r>   -1.8986    0.0000 </r>
       <r>   -1.8897    0.0000 </r>
       <r>    0.6950    0.0000 </r>
       <r>    0.7069    0.0000 </r>
       <r>    0.8637    0.0000 </r>
      </set>
      <set comment="kpoint 7">
       <r>  -27.9035    1.0000 </r>
       <r>  -13.2846    1.0000 </r>
       <r>  -11.2689    1.0000 </r>
       <r>  -11.2681    1.0000 </r>
       <r>   -9.8981    1.0000 </r>
       <r>   -1.8971    0.0000 </r>
       <r>   -1.8880    0.0000 </r>
       <r>    0.5909    0.0000 </r>
       <r>    0.6607    0.0000 </r>
       <r>    0.7761    0.0000 </r>
      </set>
      <set comment="kpoint 8">
       <r>  -27.9035    1.0000 </r>
       <r>  -13.2846    1.0000 </r>
       <r>  -11.2687    1.0000 </r>
       <r>  -11.2686    1.0000 </r>
       <r>   -9.8977    1.0000 </r>
       <r>   -1.8977    0.0000 </r>
       <r>   -1.8954    0.0000 </r>
       <r>    1.0686    0.0000 </r>
       <r>    1.1349    0.0000 </r>
       <r>    1.2698    0.0000 </r>
      </set>
     </set>
    </set>
   </array>
  </eigenvalues>
  <separator name="orbital magnetization" >
   <v name="MAGDIPOLOUT">      0.00000000      0.00000000      0.00000000</v>
  </separator>
  <dos>
   <i name="efermi">     -9.82339329 </i>
   <total>
    <array>
     <dimension dim="1">gridpoints</dimension>
     <dimension dim="2">spin</dimension>
     <field>energy</field>
     <field>total</field>
     <field>integrated</field>
     <set>
      <set comment="spin 1">
       <r>   -29.4013     0.0000     0.0000 </r>
       <r>   -29.2915     0.0000     0.0000 </r>
       <r>   -29.1816     0.0000     0.0000 </r>
       <r>   -29.0718     0.0000     0.0000 </r>
       <r>   -28.9620     0.0000     0.0000 </r>
       <r>   -28.8521     0.0000     0.0000 </r>
       <r>   -28.7423     0.0000     0.0000 </r>
       <r>   -28.6324     0.0000     0.0000 </r>
       <r>   -28.5226     0.0000     0.0000 </r>
       <r>   -28.4128     0.0000     0.0000 </r>
       <r>   -28.3029     0.0000     0.0000 </r>
       <r>   -28.1931     0.0000     0.0000 </r>
       <r>   -28.0833     0.0000     0.0000 </r>
       <r>   -27.9734     0.0000     0.0000 </r>
       <r>   -27.8636     9.1047     1.0000 </r>
       <r>   -27.7538     0.0000     1.0000 </r>
       <r>   -27.6439     0.0000     1.0000 </r>
       <r>   -27.5341     0.0000     1.0000 </r>
       <r>   -27.4243     0.0000     1.0000 </r>
       <r>   -27.3144     0.0000     1.0000 </r>
       <r>   -27.2046     0.0000     1.0000 </r>
       <r>   -27.0948     0.0000     1.0000 </r>
       <r>   -26.9849     0.0000     1.0000 </r>
       <r>   -26.8751     0.0000     1.0000 </r>
       <r>   -26.7653     0.0000     1.0000 </r>
       <r>   -26.6554     0.0000     1.0000 </r>
       <r>   -26.5456     0.0000     1.0000 </r>
       <r>   -26.4358     0.0000     1.0000 </r>
       <r>   -26.3259     0.0000     1.0000 </r>
       <r>   -26.2161     0.0000     1.0000 </r>
       <r>   -26.1063     0.0000     1.0000 </r>
       <r>   -25.9964     0.0000     1.0000 </r>
       <r>   -25.8866     0.0000     1.0000 </r>
       <r>   -25.7768     0.0000     1.0000 </r>
       <r>   -25.6669     0.0000     1.0000 </r>
       <r>   -25.5571     0.0000     1.0000 </r>
       <r>   -25.4473     0.0000     1.0000 </r>
       <r>   -25.3374     0.0000     1.0000 </r>
       <r>   -25.2276     0.0000     1.0000 </r>
       <r>   -25.1178     0.0000     1.0000 </r>
       <r>   -25.0079     0.0000     1.0000 </r>
       <r>   -24.8981     0.0000     1.0000 </r>
       <r>   -24.7883     0.0000     1.0000 </r>
       <r>   -24.6784     0.0000     1.0000 </r>
       <r>   -24.5686     0.0000     1.0000 </r>
       <r>   -24.4588     0.0000     1.0000 </r>
       <r>   -24.3489     0.0000     1.0000 </r>
       <r>   -24.2391     0.0000     1.0000 </r>
       <r>   -24.1293     0.0000     1.0000 </r>
       <r>   -24.0194     0.0000     1.0000 </r>
       <r>   -23.9096     0.0000     1.0000 </r>
       <r>   -23.7998     0.0000     1.0000 </r>
       <r>   -23.6899     0.0000     1.0000 </r>
       <r>   -23.5801     0.0000     1.0000 </r>
       <r>   -23.4703     0.0000     1.0000 </r>
       <r>   -23.3604     0.0000     1.0000 </r>
       <r>   -23.2506     0.0000     1.0000 </r>
       <r>   -23.1408     0.0000     1.0000 </r>
       <r>   -23.0309     0.0000     1.0000 </r>
       <r>   -22.9211     0.0000     1.0000 </r>
       <r>   -22.8113     0.0000     1.0000 </r>
       <r>   -22.7014     0.0000     1.0000 </r>
       <r>   -22.5916     0.0000     1.0000 </r>
       <r>   -22.4818     0.0000     1.0000 </r>
       <r>   -22.3719     0.0000     1.0000 </r>
       <r>   -22.2621     0.0000     1.0000 </r>
       <r>   -22.1522     0.0000     1.0000 </r>
       <r>   -22.0424     0.0000     1.0000 </r>
       <r>   -21.9326     0.0000     1.0000 </r>
       <r>   -21.8227     0.0000     1.0000 </r>
       <r>   -21.7129     0.0000     1.0000 </r>
       <r>   -21.6031     0.0000     1.0000 </r>
       <r>   -21.4932     0.0000     1.0000 </r>
       <r>   -21.3834     0.0000     1.0000 </r>
       <r>   -21.2736     0.0000     1.0000 </r>
       <r>   -21.1637     0.0000     1.0000 </r>
       <r>   -21.0539     0.0000     1.0000 </r>
       <r>   -20.9441     0.0000     1.0000 </r>
       <r>   -20.8342     0.0000     1.0000 </r>
       <r>   -20.7244     0.0000     1.0000 </r>
       <r>   -20.6146     0.0000     1.0000 </r>
       <r>   -20.5047     0.0000     1.0000 </r>
       <r>   -20.3949     0.0000     1.0000 </r>
       <r>   -20.2851     0.0000     1.0000 </r>
       <r>   -20.1752     0.0000     1.0000 </r>
       <r>   -20.0654     0.0000     1.0000 </r>
       <r>   -19.9556     0.0000     1.0000 </r>
       <r>   -19.8457     0.0000     1.0000 </r>
       <r>   -19.7359     0.0000     1.0000 </r>
       <r>   -19.6261     0.0000     1.0000 </r>
       <r>   -19.5162     0.0000     1.0000 </r>
       <r>   -19.4064     0.0000     1.0000 </r>
       <r>   -19.2966     0.0000     1.0000 </r>
       <r>   -19.1867     0.0000     1.0000 </r>
       <r>   -19.0769     0.0000     1.0000 </r>
       <r>   -18.9671     0.0000     1.0000 </r>
       <r>   -18.8572     0.0000     1.0000 </r>
       <r>   -18.7474     0.0000     1.0000 </r>
       <r>   -18.6376     0.0000     1.0000 </r>
       <r>   -18.5277     0.0000     1.0000 </r>
       <r>   -18.4179     0.0000     1.0000 </r>
       <r>   -18.3081     0.0000     1.0000 </r>
       <r>   -18.1982     0.0000     1.0000 </r>
       <r>   -18.0884     0.0000     1.0000 </r>
       <r>   -17.9786     0.0000     1.0000 </r>
       <r>   -17.8687     0.0000     1.0000 </r>
       <r>   -17.7589     0.0000     1.0000 </r>
       <r>   -17.6491     0.0000     1.0000 </r>
       <r>   -17.5392     0.0000     1.0000 </r>
       <r>   -17.4294     0.0000     1.0000 </r>
       <r>   -17.3196     0.0000     1.0000 </r>
       <r>   -17.2097     0.0000     1.0000 </r>
       <r>   -17.0999     0.0000     1.0000 </r>
       <r>   -16.9901     0.0000     1.0000 </r>
       <r>   -16.8802     0.0000     1.0000 </r>
       <r>   -16.7704     0.0000     1.0000 </r>
       <r>   -16.6606     0.0000     1.0000 </r>
       <r>   -16.5507     0.0000     1.0000 </r>
       <r>   -16.4409     0.0000     1.0000 </r>
       <r>   -16.3311     0.0000     1.0000 </r>
       <r>   -16.2212     0.0000     1.0000 </r>
       <r>   -16.1114     0.0000     1.0000 </r>
       <r>   -16.0016     0.0000     1.0000 </r>
       <r>   -15.8917     0.0000     1.0000 </r>
       <r>   -15.7819     0.0000     1.0000 </r>
       <r>   -15.6720     0.0000     1.0000 </r>
       <r>   -15.5622     0.0000     1.0000 </r>
       <r>   -15.4524     0.0000     1.0000 </r>
       <r>   -15.3425     0.0000     1.0000 </r>
       <r>   -15.2327     0.0000     1.0000 </r>
       <r>   -15.1229     0.0000     1.0000 </r>
       <r>   -15.0130     0.0000     1.0000 </r>
       <r>   -14.9032     0.0000     1.0000 </r>
       <r>   -14.7934     0.0000     1.0000 </r>
       <r>   -14.6835     0.0000     1.0000 </r>
       <r>   -14.5737     0.0000     1.0000 </r>
       <r>   -14.4639     0.0000     1.0000 </r>
       <r>   -14.3540     0.0000     1.0000 </r>
       <r>   -14.2442     0.0000     1.0000 </r>
       <r>   -14.1344     0.0000     1.0000 </r>
       <r>   -14.0245     0.0000     1.0000 </r>
       <r>   -13.9147     0.0000     1.0000 </r>
       <r>   -13.8049     0.0000     1.0000 </r>
       <r>   -13.6950     0.0000     1.0000 </r>
       <r>   -13.5852     0.0000     1.0000 </r>
       <r>   -13.4754     0.0000     1.0000 </r>
       <r>   -13.3655     0.0000     1.0000 </r>
       <r>   -13.2557     9.1045     2.0000 </r>
       <r>   -13.1459     0.0000     2.0000 </r>
       <r>   -13.0360     0.0000     2.0000 </r>
       <r>   -12.9262     0.0000     2.0000 </r>
       <r>   -12.8164     0.0000     2.0000 </r>
       <r>   -12.7065     0.0000     2.0000 </r>
       <r>   -12.5967     0.0000     2.0000 </r>
       <r>   -12.4869     0.0000     2.0000 </r>
       <r>   -12.3770     0.0000     2.0000 </r>
       <r>   -12.2672     0.0000     2.0000 </r>
       <r>   -12.1574     0.0000     2.0000 </r>
       <r>   -12.0475     0.0000     2.0000 </r>
       <r>   -11.9377     0.0000     2.0000 </r>
       <r>   -11.8279     0.0000     2.0000 </r>
       <r>   -11.7180     0.0000     2.0000 </r>
       <r>   -11.6082     0.0000     2.0000 </r>
       <r>   -11.4984     0.0000     2.0000 </r>
       <r>   -11.3885     0.0000     2.0000 </r>
       <r>   -11.2787     1.3715     2.1506 </r>
       <r>   -11.1689     0.0000     4.0000 </r>
       <r>   -11.0590     0.0000     4.0000 </r>
       <r>   -10.9492     0.0000     4.0000 </r>
       <r>   -10.8394     0.0000     4.0000 </r>
       <r>   -10.7295     0.0000     4.0000 </r>
       <r>   -10.6197     0.0000     4.0000 </r>
       <r>   -10.5099     0.0000     4.0000 </r>
       <r>   -10.4000     0.0000     4.0000 </r>
       <r>   -10.2902     0.0000     4.0000 </r>
       <r>   -10.1804     0.0000     4.0000 </r>
       <r>   -10.0705     0.0000     4.0000 </r>
       <r>    -9.9607     0.0000     4.0000 </r>
       <r>    -9.8509     9.1047     5.0000 </r>
       <r>    -9.7410     0.0000     5.0000 </r>
       <r>    -9.6312     0.0000     5.0000 </r>
       <r>    -9.5214     0.0000     5.0000 </r>
       <r>    -9.4115     0.0000     5.0000 </r>
       <r>    -9.3017     0.0000     5.0000 </r>
       <r>    -9.1918     0.0000     5.0000 </r>
       <r>    -9.0820     0.0000     5.0000 </r>
       <r>    -8.9722     0.0000     5.0000 </r>
       <r>    -8.8623     0.0000     5.0000 </r>
       <r>    -8.7525     0.0000     5.0000 </r>
       <r>    -8.6427     0.0000     5.0000 </r>
       <r>    -8.5328     0.0000     5.0000 </r>
       <r>    -8.4230     0.0000     5.0000 </r>
       <r>    -8.3132     0.0000     5.0000 </r>
       <r>    -8.2033     0.0000     5.0000 </r>
       <r>    -8.0935     0.0000     5.0000 </r>
       <r>    -7.9837     0.0000     5.0000 </r>
       <r>    -7.8738     0.0000     5.0000 </r>
       <r>    -7.7640     0.0000     5.0000 </r>
       <r>    -7.6542     0.0000     5.0000 </r>
       <r>    -7.5443     0.0000     5.0000 </r>
       <r>    -7.4345     0.0000     5.0000 </r>
       <r>    -7.3247     0.0000     5.0000 </r>
       <r>    -7.2148     0.0000     5.0000 </r>
       <r>    -7.1050     0.0000     5.0000 </r>
       <r>    -6.9952     0.0000     5.0000 </r>
       <r>    -6.8853     0.0000     5.0000 </r>
       <r>    -6.7755     0.0000     5.0000 </r>
       <r>    -6.6657     0.0000     5.0000 </r>
       <r>    -6.5558     0.0000     5.0000 </r>
       <r>    -6.4460     0.0000     5.0000 </r>
       <r>    -6.3362     0.0000     5.0000 </r>
       <r>    -6.2263     0.0000     5.0000 </r>
       <r>    -6.1165     0.0000     5.0000 </r>
       <r>    -6.0067     0.0000     5.0000 </r>
       <r>    -5.8968     0.0000     5.0000 </r>
       <r>    -5.7870     0.0000     5.0000 </r>
       <r>    -5.6772     0.0000     5.0000 </r>
       <r>    -5.5673     0.0000     5.0000 </r>
       <r>    -5.4575     0.0000     5.0000 </r>
       <r>    -5.3477     0.0000     5.0000 </r>
       <r>    -5.2378     0.0000     5.0000 </r>
       <r>    -5.1280     0.0000     5.0000 </r>
       <r>    -5.0182     0.0000     5.0000 </r>
       <r>    -4.9083     0.0000     5.0000 </r>
       <r>    -4.7985     0.0000     5.0000 </r>
       <r>    -4.6887     0.0000     5.0000 </r>
       <r>    -4.5788     0.0000     5.0000 </r>
       <r>    -4.4690     0.0000     5.0000 </r>
       <r>    -4.3592     0.0000     5.0000 </r>
       <r>    -4.2493     0.0000     5.0000 </r>
       <r>    -4.1395     0.0000     5.0000 </r>
       <r>    -4.0297     0.0000     5.0000 </r>
       <r>    -3.9198     0.0000     5.0000 </r>
       <r>    -3.8100     0.0000     5.0000 </r>
       <r>    -3.7002     0.0000     5.0000 </r>
       <r>    -3.5903     0.0000     5.0000 </r>
       <r>    -3.4805     0.0000     5.0000 </r>
       <r>    -3.3707     0.0000     5.0000 </r>
       <r>    -3.2608     0.0000     5.0000 </r>
       <r>    -3.1510     0.0000     5.0000 </r>
       <r>    -3.0411     0.0000     5.0000 </r>
       <r>    -2.9313     0.0000     5.0000 </r>
       <r>    -2.8215     0.0000     5.0000 </r>
       <r>    -2.7116     0.0000     5.0000 </r>
       <r>    -2.6018     0.0000     5.0000 </r>
       <r>    -2.4920     0.0000     5.0000 </r>
       <r>    -2.3821     0.0000     5.0000 </r>
       <r>    -2.2723     0.0000     5.0000 </r>
       <r>    -2.1625     0.0000     5.0000 </r>
       <r>    -2.0526     0.0000     5.0000 </r>
       <r>    -1.9428     0.0000     5.0000 </r>
       <r>    -1.8330    18.2093     7.0000 </r>
       <r>    -1.7231     0.0000     7.0000 </r>
       <r>    -1.6133     0.0000     7.0000 </r>
       <r>    -1.5035     0.0000     7.0000 </r>
       <r>    -1.3936     0.0000     7.0000 </r>
       <r>    -1.2838     0.0000     7.0000 </r>
       <r>    -1.1740     0.0000     7.0000 </r>
       <r>    -1.0641     0.0000     7.0000 </r>
       <r>    -0.9543     0.0000     7.0000 </r>
       <r>    -0.8445     0.0000     7.0000 </r>
       <r>    -0.7346     0.0000     7.0000 </r>
       <r>    -0.6248     0.0000     7.0000 </r>
       <r>    -0.5150     0.0000     7.0000 </r>
       <r>    -0.4051     0.0000     7.0000 </r>
       <r>    -0.2953     0.0000     7.0000 </r>
       <r>    -0.1855     1.1381     7.1250 </r>
       <r>    -0.0756     0.0000     7.1250 </r>
       <r>     0.0342     0.0000     7.1250 </r>
       <r>     0.1440     1.1381     7.2500 </r>
       <r>     0.2539     0.0028     7.2503 </r>
       <r>     0.3637     1.3673     7.5252 </r>
       <r>     0.4735     1.1381     7.8750 </r>
       <r>     0.5834     0.1645     7.8931 </r>
       <r>     0.6932     1.6291     8.1789 </r>
       <r>     0.8030     1.1599     8.5024 </r>
       <r>     0.9129     2.2762     8.8750 </r>
       <r>     1.0227     1.1381     9.0000 </r>
       <r>     1.1325     1.5597     9.1713 </r>
       <r>     1.2424     0.0001     9.2500 </r>
       <r>     1.3522     0.0000     9.3750 </r>
       <r>     1.4620     0.0000     9.3750 </r>
       <r>     1.5719     2.1652     9.6128 </r>
       <r>     1.6817     0.0000     9.6250 </r>
       <r>     1.7915     0.0000     9.6250 </r>
       <r>     1.9014     0.4549     9.6750 </r>
       <r>     2.0112     1.0985     9.8707 </r>
       <r>     2.1210     1.1381    10.0000 </r>
       <r>     2.2309     0.0000    10.0000 </r>
       <r>     2.3407     0.0000    10.0000 </r>
       <r>     2.4505     0.0000    10.0000 </r>
       <r>     2.5604     0.0000    10.0000 </r>
       <r>     2.6702     0.0000    10.0000 </r>
       <r>     2.7800     0.0000    10.0000 </r>
       <r>     2.8899     0.0000    10.0000 </r>
       <r>     2.9997     0.0000    10.0000 </r>
       <r>     3.1095     0.0000    10.0000 </r>
       <r>     3.2194     0.0000    10.0000 </r>
       <r>     3.3292     0.0000    10.0000 </r>
       <r>     3.4391     0.0000    10.0000 </r>
       <r>     3.5489     0.0000    10.0000 </r>
      </set>
      <set comment="spin 2">
       <r>   -29.4013     0.0000     0.0000 </r>
       <r>   -29.2915     0.0000     0.0000 </r>
       <r>   -29.1816     0.0000     0.0000 </r>
       <r>   -29.0718     0.0000     0.0000 </r>
       <r>   -28.9620     0.0000     0.0000 </r>
       <r>   -28.8521     0.0000     0.0000 </r>
       <r>   -28.7423     0.0000     0.0000 </r>
       <r>   -28.6324     0.0000     0.0000 </r>
       <r>   -28.5226     0.0000     0.0000 </r>
       <r>   -28.4128     0.0000     0.0000 </r>
       <r>   -28.3029     0.0000     0.0000 </r>
       <r>   -28.1931     0.0000     0.0000 </r>
       <r>   -28.0833     0.0000     0.0000 </r>
       <r>   -27.9734     0.0000     0.0000 </r>
       <r>   -27.8636     9.1047     1.0000 </r>
       <r>   -27.7538     0.0000     1.0000 </r>
       <r>   -27.6439     0.0000     1.0000 </r>
       <r>   -27.5341     0.0000     1.0000 </r>
       <r>   -27.4243     0.0000     1.0000 </r>
       <r>   -27.3144     0.0000     1.0000 </r>
       <r>   -27.2046     0.0000     1.0000 </r>
       <r>   -27.0948     0.0000     1.0000 </r>
       <r>   -26.9849     0.0000     1.0000 </r>
       <r>   -26.8751     0.0000     1.0000 </r>
       <r>   -26.7653     0.0000     1.0000 </r>
       <r>   -26.6554     0.0000     1.0000 </r>
       <r>   -26.5456     0.0000     1.0000 </r>
       <r>   -26.4358     0.0000     1.0000 </r>
       <r>   -26.3259     0.0000     1.0000 </r>
       <r>   -26.2161     0.0000     1.0000 </r>
       <r>   -26.1063     0.0000     1.0000 </r>
       <r>   -25.9964     0.0000     1.0000 </r>
       <r>   -25.8866     0.0000     1.0000 </r>
       <r>   -25.7768     0.0000     1.0000 </r>
       <r>   -25.6669     0.0000     1.0000 </r>
       <r>   -25.5571     0.0000     1.0000 </r>
       <r>   -25.4473     0.0000     1.0000 </r>
       <r>   -25.3374     0.0000     1.0000 </r>
       <r>   -25.2276     0.0000     1.0000 </r>
       <r>   -25.1178     0.0000     1.0000 </r>
       <r>   -25.0079     0.0000     1.0000 </r>
       <r>   -24.8981     0.0000     1.0000 </r>
       <r>   -24.7883     0.0000     1.0000 </r>
       <r>   -24.6784     0.0000     1.0000 </r>
       <r>   -24.5686     0.0000     1.0000 </r>
       <r>   -24.4588     0.0000     1.0000 </r>
       <r>   -24.3489     0.0000     1.0000 </r>
       <r>   -24.2391     0.0000     1.0000 </r>
       <r>   -24.1293     0.0000     1.0000 </r>
       <r>   -24.0194     0.0000     1.0000 </r>
       <r>   -23.9096     0.0000     1.0000 </r>
       <r>   -23.7998     0.0000     1.0000 </r>
       <r>   -23.6899     0.0000     1.0000 </r>
       <r>   -23.5801     0.0000     1.0000 </r>
       <r>   -23.4703     0.0000     1.0000 </r>
       <r>   -23.3604     0.0000     1.0000 </r>
       <r>   -23.2506     0.0000     1.0000 </r>
       <r>   -23.1408     0.0000     1.0000 </r>
       <r>   -23.0309     0.0000     1.0000 </r>
       <r>   -22.9211     0.0000     1.0000 </r>
       <r>   -22.8113     0.0000     1.0000 </r>
       <r>   -22.7014     0.0000     1.0000 </r>
       <r>   -22.5916     0.0000     1.0000 </r>
       <r>   -22.4818     0.0000     1.0000 </r>
       <r>   -22.3719     0.0000     1.0000 </r>
       <r>   -22.2621     0.0000     1.0000 </r>
       <r>   -22.1522     0.0000     1.0000 </r>
       <r>   -22.0424     0.0000     1.0000 </r>
       <r>   -21.9326     0.0000     1.0000 </r>
       <r>   -21.8227     0.0000     1.0000 </r>
       <r>   -21.7129     0.0000     1.0000 </r>
       <r>   -21.6031     0.0000     1.0000 </r>
       <r>   -21.4932     0.0000     1.0000 </r>
       <r>   -21.3834     0.0000     1.0000 </r>
       <r>   -21.2736     0.0000     1.0000 </r>
       <r>   -21.1637     0.0000     1.0000 </r>
       <r>   -21.0539     0.0000     1.0000 </r>
       <r>   -20.9441     0.0000     1.0000 </r>
       <r>   -20.8342     0.0000     1.0000 </r>
       <r>   -20.7244     0.0000     1.0000 </r>
       <r>   -20.6146     0.0000     1.0000 </r>
       <r>   -20.5047     0.0000     1.0000 </r>
       <r>   -20.3949     0.0000     1.0000 </r>
       <r>   -20.2851     0.0000     1.0000 </r>
       <r>   -20.1752     0.0000     1.0000 </r>
       <r>   -20.0654     0.0000     1.0000 </r>
       <r>   -19.9556     0.0000     1.0000 </r>
       <r>   -19.8457     0.0000     1.0000 </r>
       <r>   -19.7359     0.0000     1.0000 </r>
       <r>   -19.6261     0.0000     1.0000 </r>
       <r>   -19.5162     0.0000     1.0000 </r>
       <r>   -19.4064     0.0000     1.0000 </r>
       <r>   -19.2966     0.0000     1.0000 </r>
       <r>   -19.1867     0.0000     1.0000 </r>
       <r>   -19.0769     0.0000     1.0000 </r>
       <r>   -18.9671     0.0000     1.0000 </r>
       <r>   -18.8572     0.0000     1.0000 </r>
       <r>   -18.7474     0.0000     1.0000 </r>
       <r>   -18.6376     0.0000     1.0000 </r>
       <r>   -18.5277     0.0000     1.0000 </r>
       <r>   -18.4179     0.0000     1.0000 </r>
       <r>   -18.3081     0.0000     1.0000 </r>
       <r>   -18.1982     0.0000     1.0000 </r>
       <r>   -18.0884     0.0000     1.0000 </r>
       <r>   -17.9786     0.0000     1.0000 </r>
       <r>   -17.8687     0.0000     1.0000 </r>
       <r>   -17.7589     0.0000     1.0000 </r>
       <r>   -17.6491     0.0000     1.0000 </r>
       <r>   -17.5392     0.0000     1.0000 </r>
       <r>   -17.4294     0.0000     1.0000 </r>
       <r>   -17.3196     0.0000     1.0000 </r>
       <r>   -17.2097     0.0000     1.0000 </r>
       <r>   -17.0999     0.0000     1.0000 </r>
       <r>   -16.9901     0.0000     1.0000 </r>
       <r>   -16.8802     0.0000     1.0000 </r>
       <r>   -16.7704     0.0000     1.0000 </r>
       <r>   -16.6606     0.0000     1.0000 </r>
       <r>   -16.5507     0.0000     1.0000 </r>
       <r>   -16.4409     0.0000     1.0000 </r>
       <r>   -16.3311     0.0000     1.0000 </r>
       <r>   -16.2212     0.0000     1.0000 </r>
       <r>   -16.1114     0.0000     1.0000 </r>
       <r>   -16.0016     0.0000     1.0000 </r>
       <r>   -15.8917     0.0000     1.0000 </r>
       <r>   -15.7819     0.0000     1.0000 </r>
       <r>   -15.6720     0.0000     1.0000 </r>
       <r>   -15.5622     0.0000     1.0000 </r>
       <r>   -15.4524     0.0000     1.0000 </r>
       <r>   -15.3425     0.0000     1.0000 </r>
       <r>   -15.2327     0.0000     1.0000 </r>
       <r>   -15.1229     0.0000     1.0000 </r>
       <r>   -15.0130     0.0000     1.0000 </r>
       <r>   -14.9032     0.0000     1.0000 </r>
       <r>   -14.7934     0.0000     1.0000 </r>
       <r>   -14.6835     0.0000     1.0000 </r>
       <r>   -14.5737     0.0000     1.0000 </r>
       <r>   -14.4639     0.0000     1.0000 </r>
       <r>   -14.3540     0.0000     1.0000 </r>
       <r>   -14.2442     0.0000     1.0000 </r>
       <r>   -14.1344     0.0000     1.0000 </r>
       <r>   -14.0245     0.0000     1.0000 </r>
       <r>   -13.9147     0.0000     1.0000 </r>
       <r>   -13.8049     0.0000     1.0000 </r>
       <r>   -13.6950     0.0000     1.0000 </r>
       <r>   -13.5852     0.0000     1.0000 </r>
       <r>   -13.4754     0.0000     1.0000 </r>
       <r>   -13.3655     0.0000     1.0000 </r>
       <r>   -13.2557     9.1045     2.0000 </r>
       <r>   -13.1459     0.0000     2.0000 </r>
       <r>   -13.0360     0.0000     2.0000 </r>
       <r>   -12.9262     0.0000     2.0000 </r>
       <r>   -12.8164     0.0000     2.0000 </r>
       <r>   -12.7065     0.0000     2.0000 </r>
       <r>   -12.5967     0.0000     2.0000 </r>
       <r>   -12.4869     0.0000     2.0000 </r>
       <r>   -12.3770     0.0000     2.0000 </r>
       <r>   -12.2672     0.0000     2.0000 </r>
       <r>   -12.1574     0.0000     2.0000 </r>
       <r>   -12.0475     0.0000     2.0000 </r>
       <r>   -11.9377     0.0000     2.0000 </r>
       <r>   -11.8279     0.0000     2.0000 </r>
       <r>   -11.7180     0.0000     2.0000 </r>
       <r>   -11.6082     0.0000     2.0000 </r>
       <r>   -11.4984     0.0000     2.0000 </r>
       <r>   -11.3885     0.0000     2.0000 </r>
       <r>   -11.2787     1.3718     2.1507 </r>
       <r>   -11.1689     0.0000     4.0000 </r>
       <r>   -11.0590     0.0000     4.0000 </r>
       <r>   -10.9492     0.0000     4.0000 </r>
       <r>   -10.8394     0.0000     4.0000 </r>
       <r>   -10.7295     0.0000     4.0000 </r>
       <r>   -10.6197     0.0000     4.0000 </r>
       <r>   -10.5099     0.0000     4.0000 </r>
       <r>   -10.4000     0.0000     4.0000 </r>
       <r>   -10.2902     0.0000     4.0000 </r>
       <r>   -10.1804     0.0000     4.0000 </r>
       <r>   -10.0705     0.0000     4.0000 </r>
       <r>    -9.9607     0.0000     4.0000 </r>
       <r>    -9.8509     9.1047     5.0000 </r>
       <r>    -9.7410     0.0000     5.0000 </r>
       <r>    -9.6312     0.0000     5.0000 </r>
       <r>    -9.5214     0.0000     5.0000 </r>
       <r>    -9.4115     0.0000     5.0000 </r>
       <r>    -9.3017     0.0000     5.0000 </r>
       <r>    -9.1918     0.0000     5.0000 </r>
       <r>    -9.0820     0.0000     5.0000 </r>
       <r>    -8.9722     0.0000     5.0000 </r>
       <r>    -8.8623     0.0000     5.0000 </r>
       <r>    -8.7525     0.0000     5.0000 </r>
       <r>    -8.6427     0.0000     5.0000 </r>
       <r>    -8.5328     0.0000     5.0000 </r>
       <r>    -8.4230     0.0000     5.0000 </r>
       <r>    -8.3132     0.0000     5.0000 </r>
       <r>    -8.2033     0.0000     5.0000 </r>
       <r>    -8.0935     0.0000     5.0000 </r>
       <r>    -7.9837     0.0000     5.0000 </r>
       <r>    -7.8738     0.0000     5.0000 </r>
       <r>    -7.7640     0.0000     5.0000 </r>
       <r>    -7.6542     0.0000     5.0000 </r>
       <r>    -7.5443     0.0000     5.0000 </r>
       <r>    -7.4345     0.0000     5.0000 </r>
       <r>    -7.3247     0.0000     5.0000 </r>
       <r>    -7.2148     0.0000     5.0000 </r>
       <r>    -7.1050     0.0000     5.0000 </r>
       <r>    -6.9952     0.0000     5.0000 </r>
       <r>    -6.8853     0.0000     5.0000 </r>
       <r>    -6.7755     0.0000     5.0000 </r>
       <r>    -6.6657     0.0000     5.0000 </r>
       <r>    -6.5558     0.0000     5.0000 </r>
       <r>    -6.4460     0.0000     5.0000 </r>
       <r>    -6.3362     0.0000     5.0000 </r>
       <r>    -6.2263     0.0000     5.0000 </r>
       <r>    -6.1165     0.0000     5.0000 </r>
       <r>    -6.0067     0.0000     5.0000 </r>
       <r>    -5.8968     0.0000     5.0000 </r>
       <r>    -5.7870     0.0000     5.0000 </r>
       <r>    -5.6772     0.0000     5.0000 </r>
       <r>    -5.5673     0.0000     5.0000 </r>
       <r>    -5.4575     0.0000     5.0000 </r>
       <r>    -5.3477     0.0000     5.0000 </r>
       <r>    -5.2378     0.0000     5.0000 </r>
       <r>    -5.1280     0.0000     5.0000 </r>
       <r>    -5.0182     0.0000     5.0000 </r>
       <r>    -4.9083     0.0000     5.0000 </r>
       <r>    -4.7985     0.0000     5.0000 </r>
       <r>    -4.6887     0.0000     5.0000 </r>
       <r>    -4.5788     0.0000     5.0000 </r>
       <r>    -4.4690     0.0000     5.0000 </r>
       <r>    -4.3592     0.0000     5.0000 </r>
       <r>    -4.2493     0.0000     5.0000 </r>
       <r>    -4.1395     0.0000     5.0000 </r>
       <r>    -4.0297     0.0000     5.0000 </r>
       <r>    -3.9198     0.0000     5.0000 </r>
       <r>    -3.8100     0.0000     5.0000 </r>
       <r>    -3.7002     0.0000     5.0000 </r>
       <r>    -3.5903     0.0000     5.0000 </r>
       <r>    -3.4805     0.0000     5.0000 </r>
       <r>    -3.3707     0.0000     5.0000 </r>
       <r>    -3.2608     0.0000     5.0000 </r>
       <r>    -3.1510     0.0000     5.0000 </r>
       <r>    -3.0411     0.0000     5.0000 </r>
       <r>    -2.9313     0.0000     5.0000 </r>
       <r>    -2.8215     0.0000     5.0000 </r>
       <r>    -2.7116     0.0000     5.0000 </r>
       <r>    -2.6018     0.0000     5.0000 </r>
       <r>    -2.4920     0.0000     5.0000 </r>
       <r>    -2.3821     0.0000     5.0000 </r>
       <r>    -2.2723     0.0000     5.0000 </r>
       <r>    -2.1625     0.0000     5.0000 </r>
       <r>    -2.0526     0.0000     5.0000 </r>
       <r>    -1.9428     0.0000     5.0000 </r>
       <r>    -1.8330    18.2093     7.0000 </r>
       <r>    -1.7231     0.0000     7.0000 </r>
       <r>    -1.6133     0.0000     7.0000 </r>
       <r>    -1.5035     0.0000     7.0000 </r>
       <r>    -1.3936     0.0000     7.0000 </r>
       <r>    -1.2838     0.0000     7.0000 </r>
       <r>    -1.1740     0.0000     7.0000 </r>
       <r>    -1.0641     0.0000     7.0000 </r>
       <r>    -0.9543     0.0000     7.0000 </r>
       <r>    -0.8445     0.0000     7.0000 </r>
       <r>    -0.7346     0.0000     7.0000 </r>
       <r>    -0.6248     0.0000     7.0000 </r>
       <r>    -0.5150     0.0000     7.0000 </r>
       <r>    -0.4051     0.0000     7.0000 </r>
       <r>    -0.2953     0.0000     7.0000 </r>
       <r>    -0.1855     1.1381     7.1250 </r>
       <r>    -0.0756     0.0000     7.1250 </r>
       <r>     0.0342     0.0000     7.1250 </r>
       <r>     0.1440     1.1381     7.2500 </r>
       <r>     0.2539     0.0027     7.2503 </r>
       <r>     0.3637     1.3580     7.5242 </r>
       <r>     0.4735     1.1381     7.8750 </r>
       <r>     0.5834     0.1641     7.8930 </r>
       <r>     0.6932     1.6239     8.1784 </r>
       <r>     0.8030     1.1593     8.5023 </r>
       <r>     0.9129     2.2762     8.8750 </r>
       <r>     1.0227     1.1381     9.0000 </r>
       <r>     1.1325     1.5570     9.1710 </r>
       <r>     1.2424     0.0001     9.2500 </r>
       <r>     1.3522     0.0000     9.3750 </r>
       <r>     1.4620     0.0000     9.3750 </r>
       <r>     1.5719     2.1603     9.6123 </r>
       <r>     1.6817     0.0000     9.6250 </r>
       <r>     1.7915     0.0000     9.6250 </r>
       <r>     1.9014     0.4514     9.6746 </r>
       <r>     2.0112     1.0980     9.8706 </r>
       <r>     2.1210     1.1381    10.0000 </r>
       <r>     2.2309     0.0000    10.0000 </r>
       <r>     2.3407     0.0000    10.0000 </r>
       <r>     2.4505     0.0000    10.0000 </r>
       <r>     2.5604     0.0000    10.0000 </r>
       <r>     2.6702     0.0000    10.0000 </r>
       <r>     2.7800     0.0000    10.0000 </r>
       <r>     2.8899     0.0000    10.0000 </r>
       <r>     2.9997     0.0000    10.0000 </r>
       <r>     3.1095     0.0000    10.0000 </r>
       <r>     3.2194     0.0000    10.0000 </r>
       <r>     3.3292     0.0000    10.0000 </r>
       <r>     3.4391     0.0000    10.0000 </r>
       <r>     3.5489     0.0000    10.0000 </r>
      </set>
     </set>
    </array>
   </total>
  </dos>
 </calculation>
 <structure name="finalpos" >
  <crystal>
   <varray name="basis" >
    <v>       7.50000000       0.00000000       0.00000000 </v>
    <v>       0.00000000       8.00000000       0.00000000 </v>
    <v>       0.00000000       0.00000000       8.90000000 </v>
   </varray>
   <i name="volume">    534.00000000 </i>
   <varray name="rec_basis" >
    <v>       0.13333333       0.00000000       0.00000000 </v>
    <v>       0.00000000       0.12500000       0.00000000 </v>
    <v>       0.00000000       0.00000000       0.11235955 </v>
   </varray>
  </crystal>
  <varray name="positions" >
   <v>      -0.00000000       0.00000000      -0.00083068 </v>
   <v>       0.00000000       0.00000000       0.12442618 </v>
  </varray>
 </structure>
</modeling>
