 running    4 mpi-ranks, on    1 nodes
 distrk:  each k-point on    1 cores,    4 groups
 distr:  one band on    1 cores,    1 groups
 OpenACC runtime initialized ...    4 GPUs detected
 vasp.6.4.2 20Jul23 (build Nov 12 2023 22:16:35) complex                         
 POSCAR found type information on POSCAR GaO P 
 POSCAR found :  3 types and     119 ions
 scaLAPACK will be used selectively (only on CPU)
 LDA part: xc-table for Pade appr. of Perdew
 POSCAR, INCAR and KPOINTS ok, starting setup
 FFT: planning ... GRIDC
 FFT: planning ... GRID_SOFT
 FFT: planning ... GRID
 WAVECAR not read
 initial charge from wavefunction
 entering main loop
       N       E                     dE             d eps       ncg     rms          ort
DAV:   1    -0.209591490322E+05   -0.20959E+05   -0.54713E+05  5064   0.754E+03
DAV:   2    -0.675491653115E+05   -0.46590E+05   -0.44773E+05  5064   0.129E+03
DAV:   3    -0.740255933647E+05   -0.64764E+04   -0.59401E+04  5064   0.409E+02
DAV:   4    -0.750089503512E+05   -0.98336E+03   -0.91230E+03  5064   0.140E+02
DAV:   5    -0.425701993687E+05    0.32439E+05   -0.74133E+02  5064   0.633E+01
 gam= 0.000 g(H,U,f)=  0.977E+05 0.148E+05 0.611E-07 ort(H,U,f) = 0.000E+00 0.000E+00 0.000E+00
SDA:   6     0.527454899069E+05    0.95316E+05   -0.74133E+02  5064   0.113E+06 0.000E+00
 gam= 0.000 trial= 0.400  step= 2.270 mean= 0.400
 gam= 0.000 trial= 2.600  step= 2.600 mean= 0.631
 gam= 4.794 g(H,U,f)=  0.536E+06 0.365E+04 0.933E+02 ort(H,U,f) =-0.149E+05-0.247E+03-0.299E+02
CGA:   7     0.629502679613E+05    0.10205E+05    0.14089E+05  5064   0.540E+06-0.152E+05
 gam= 4.794 trial= 0.730  step= 0.385 mean= 0.730
 gam= 0.329 g(H,U,f)=  0.174E+06 0.324E+04 0.113E+03 ort(H,U,f) =-0.150E+05-0.838E+02 0.115E+03
CGA:   8     0.474409429743E+05   -0.15509E+05   -0.89940E+05  5064   0.178E+06-0.150E+05
 gam= 0.329 trial= 0.712  step= 0.362 mean= 0.712
 gam= 2.594 g(H,U,f)=  0.458E+06 0.319E+04 0.896E+02 ort(H,U,f) = 0.265E+05-0.678E+03-0.195E+03
CGA:   9     0.501662754004E+05    0.27253E+04   -0.31278E+05  5064   0.461E+06 0.256E+05
 gam= 2.594 trial= 0.695  step= 0.348 mean= 0.695
 gam= 0.677 g(H,U,f)=  0.310E+06 0.157E+04 0.462E-05 ort(H,U,f) =-0.761E+04 0.366E+03 0.113E-04
CGA:  10     0.529469342655E+05    0.27807E+04   -0.91802E+05  5064   0.312E+06-0.724E+04
 gam= 0.677 trial= 0.678  step= 0.334 mean= 0.678
 gam= 1.920 g(H,U,f)=  0.594E+06 0.533E+04 0.160E-02 ort(H,U,f) =-0.133E+04 0.272E+04-0.180E+00
CGA:  11     0.655697426902E+05    0.12623E+05   -0.51233E+05  5064   0.599E+06 0.139E+04
 gam= 1.920 trial= 0.660  step= 0.328 mean= 0.660
 gam= 0.741 g(H,U,f)=  0.440E+06 0.366E+04 0.419E-01 ort(H,U,f) =-0.387E+04-0.725E+04-0.107E+02
CGA:  12     0.634901115008E+05   -0.20796E+04   -0.98720E+05  5064   0.444E+06-0.111E+05
 gam= 0.741 trial= 0.644  step= 0.307 mean= 0.644
 gam= 2.197 g(H,U,f)=  0.965E+06 0.109E+05 0.258E+03 ort(H,U,f) =-0.100E+05-0.181E+05-0.624E+03
CGA:  13     0.788782439216E+05    0.15388E+05   -0.66896E+05  5064   0.976E+06-0.288E+05
 gam= 2.197 trial= 0.627  step= 0.302 mean= 0.627
 gam= 0.810 g(H,U,f)=  0.780E+06 0.100E+05 0.120E+01 ort(H,U,f) =-0.923E+03-0.214E+04-0.313E+00
CGA:  14     0.100071549654E+06    0.21193E+05   -0.13776E+06  5064   0.790E+06-0.306E+04
 gam= 0.810 trial= 0.611  step= 0.300 mean= 0.611
 gam= 1.515 g(H,U,f)=  0.119E+07 0.844E+04 0.372E+02 ort(H,U,f) =-0.291E+04 0.312E+04-0.951E+01
CGA:  15     0.109752679537E+06    0.96811E+04   -0.11827E+06  5064   0.120E+07 0.208E+03
 gam= 1.515 trial= 0.595  step= 0.293 mean= 0.595
 gam= 0.624 g(H,U,f)=  0.739E+06 0.818E+04 0.704E-01 ort(H,U,f) =-0.666E+03 0.889E+04-0.559E-01
CGA:  16     0.122063006522E+06    0.12310E+05   -0.17565E+06  5064   0.747E+06 0.822E+04
 gam= 0.624 trial= 0.580  step= 0.289 mean= 0.580
 gam= 1.639 g(H,U,f)=  0.121E+07 0.107E+05 0.548E-15 ort(H,U,f) =-0.268E+04 0.157E+05-0.377E-16
CGA:  17     0.127764756168E+06    0.57017E+04   -0.10885E+06  5064   0.122E+07 0.130E+05
 gam= 1.639 trial= 0.566  step= 0.283 mean= 0.566
 gam= 0.453 g(H,U,f)=  0.545E+06 0.945E+04 0.592E+00 ort(H,U,f) = 0.632E+02 0.328E+05 0.379E+01
CGA:  18     0.133804670957E+06    0.60399E+04   -0.17658E+06  5064   0.555E+06 0.329E+05
 gam= 0.453 trial= 0.551  step= 0.278 mean= 0.551
 gam= 1.874 g(H,U,f)=  0.103E+07 0.880E+04 0.536E-04 ort(H,U,f) =-0.164E+04 0.260E+05 0.241E-03
CGA:  19     0.139446612478E+06    0.56419E+04   -0.79023E+05  5064   0.104E+07 0.243E+05
 gam= 1.874 trial= 0.538  step= 0.272 mean= 0.538
 gam= 0.406 g(H,U,f)=  0.416E+06 0.561E+04 0.277E+01 ort(H,U,f) = 0.574E+03 0.628E+05 0.883E+02
CGA:  20     0.138303955880E+06   -0.11427E+04   -0.14772E+06  5064   0.421E+06 0.635E+05
 gam= 0.406 trial= 0.524  step= 0.259 mean= 0.524
 gam= 1.806 g(H,U,f)=  0.757E+06 0.377E+04 0.145E+00 ort(H,U,f) =-0.821E+03 0.172E+05 0.485E+01
CGA:  21     0.143427067241E+06    0.51231E+04   -0.57970E+05  5064   0.761E+06 0.164E+05
 gam= 1.806 trial= 0.511  step= 0.241 mean= 0.511
 gam= 0.562 g(H,U,f)=  0.418E+06 0.931E+04 0.192E+02 ort(H,U,f) = 0.335E+03-0.501E+05-0.199E+03
CGA:  22     0.160712162084E+06    0.17285E+05   -0.95273E+05  5064   0.428E+06-0.499E+05
 gam= 0.562 trial= 0.498  step= 0.232 mean= 0.498
 gam= 1.801 g(H,U,f)=  0.761E+06 0.875E+04 0.924E-01 ort(H,U,f) =-0.217E+04-0.800E+04-0.461E+00
CGA:  23     0.174608439992E+06    0.13896E+05   -0.46355E+05  5064   0.770E+06-0.102E+05
 gam= 1.801 trial= 0.484  step= 0.227 mean= 0.484
 gam= 0.487 g(H,U,f)=  0.367E+06 0.792E+04 0.108E+02 ort(H,U,f) = 0.368E+03-0.126E+05-0.807E+02
CGA:  24     0.190801632117E+06    0.16193E+05   -0.85390E+05  5064   0.375E+06-0.123E+05
 gam= 0.487 trial= 0.472  step= 0.220 mean= 0.472
 gam= 1.797 g(H,U,f)=  0.665E+06 0.900E+04 0.484E+01 ort(H,U,f) =-0.262E+04-0.554E+04-0.449E+02
CGA:  25     0.201368068026E+06    0.10566E+05   -0.40677E+05  5064   0.674E+06-0.820E+04
 gam= 1.797 trial= 0.459  step= 0.211 mean= 0.459
 gam= 0.456 g(H,U,f)=  0.296E+06 0.115E+05 0.373E+03 ort(H,U,f) = 0.882E+03-0.225E+05-0.370E+03
CGA:  26     0.219061581805E+06    0.17694E+05   -0.69638E+05  5064   0.308E+06-0.220E+05
 gam= 0.456 trial= 0.447  step= 0.207 mean= 0.447
 gam= 1.702 g(H,U,f)=  0.510E+06 0.132E+05 0.252E-02 ort(H,U,f) = 0.227E+04-0.327E+04 0.581E-02
CGA:  27     0.229847922657E+06    0.10786E+05   -0.30804E+05  5064   0.524E+06-0.995E+03
 gam= 1.702 trial= 0.435  step= 0.201 mean= 0.435
 gam= 0.504 g(H,U,f)=  0.250E+06 0.139E+05 0.574E+00 ort(H,U,f) = 0.296E+04-0.273E+04-0.315E+00
CGA:  28     0.244245924308E+06    0.14398E+05   -0.52535E+05  5064   0.264E+06 0.231E+03
 gam= 0.504 trial= 0.423  step= 0.201 mean= 0.423
 gam= 1.435 g(H,U,f)=  0.365E+06 0.143E+05 0.277E+01 ort(H,U,f) = 0.197E+05 0.100E+05 0.285E+01
CGA:  29     0.251646032089E+06    0.74001E+04   -0.26517E+05  5064   0.379E+06 0.297E+05
 gam= 1.435 trial= 0.412  step= 0.191 mean= 0.412
 gam= 0.676 g(H,U,f)=  0.241E+06 0.156E+05 0.500E+02 ort(H,U,f) = 0.808E+04 0.168E+05-0.178E+03
CGA:  30     0.261821749974E+06    0.10176E+05   -0.40359E+05  5064   0.256E+06 0.247E+05
 gam= 0.676 trial= 0.401  step= 0.189 mean= 0.401
 gam= 1.034 g(H,U,f)=  0.248E+06 0.170E+05 0.103E+02 ort(H,U,f) = 0.303E+05 0.188E+05 0.111E+03
CGA:  31     0.266943841352E+06    0.51221E+04   -0.25789E+05  5064   0.265E+06 0.493E+05
 gam= 1.034 trial= 0.390  step= 0.178 mean= 0.390
 gam= 0.877 g(H,U,f)=  0.215E+06 0.169E+05 0.358E+00 ort(H,U,f) = 0.278E+05 0.153E+05 0.686E+01
CGA:  32     0.273119759574E+06    0.61759E+04   -0.28171E+05  5064   0.232E+06 0.431E+05
 gam= 0.877 trial= 0.380  step= 0.165 mean= 0.380
 gam= 0.846 g(H,U,f)=  0.182E+06 0.139E+05 0.195E+02 ort(H,U,f) = 0.578E+05-0.279E+04 0.684E+02
CGA:  33     0.280065952338E+06    0.69462E+04   -0.22208E+05  5064   0.196E+06 0.551E+05
 gam= 0.846 trial= 0.369  step= 0.168 mean= 0.369
 gam= 0.000 g(H,U,f)=  0.250E+06 0.142E+05 0.716E+02 ort(H,U,f) = 0.189E+06-0.657E+04 0.301E+01
CGA:  34     0.277380080843E+06   -0.26859E+04   -0.20403E+05  5064   0.265E+06 0.182E+06
 gam= 0.000 trial= 0.359  step=-2.543 mean= 0.359
 BOPT < 0, no correction made
 gam= 0.000 g(H,U,f)=  0.219E+06 0.368E+05 0.521E+02 ort(H,U,f) = 0.154E+06 0.158E+05 0.567E+01
CGA:  35     0.175758885834E+06   -0.10162E+06    0.33636E+06  5064   0.255E+06 0.170E+06
 gam= 0.000 trial= 0.359  step= 0.659 mean= 0.359
 gam= 0.334 g(H,U,f)=  0.740E+05 0.114E+05 0.316E-03 ort(H,U,f) = 0.160E+05 0.919E+04-0.864E-03
CGA:  36     0.905254118794E+05   -0.85233E+05   -0.84179E+05  5064   0.854E+05 0.252E+05
 gam= 0.334 trial= 0.374  step= 0.773 mean= 0.374
 gam= 0.233 g(H,U,f)=  0.162E+05 0.369E+04 0.138E+02 ort(H,U,f) = 0.122E+05 0.336E+04 0.269E+02
CGA:  37     0.522254201377E+05   -0.38300E+05   -0.36277E+05  5064   0.199E+05 0.155E+05
 gam= 0.233 trial= 0.394  step= 2.533 mean= 0.394
 gam= 0.233 trial= 2.560  step= 2.560 mean= 0.621
 gam= 1.325 g(H,U,f)=  0.199E+05 0.647E+04 0.594E+01 ort(H,U,f) = 0.302E+04-0.634E+04 0.117E+02
CGA:  38     0.359884227861E+05   -0.16237E+05   -0.37724E+03  5064   0.263E+05-0.331E+04
 gam= 1.325 trial= 0.718  step= 1.086 mean= 0.718
 gam= 0.112 g(H,U,f)=  0.250E+04 0.461E+03 0.285E+00 ort(H,U,f) = 0.396E+04-0.998E+02 0.903E+01
CGA:  39     0.232085640225E+05   -0.12780E+05   -0.11920E+05  5064   0.296E+04 0.387E+04
 gam= 0.112 trial= 0.737  step= 3.834 mean= 0.737
 gam= 0.112 trial= 4.788  step= 4.788 mean= 1.162
 gam= 7.153 g(H,U,f)=  0.105E+05 0.106E+05 0.902E+02 ort(H,U,f) =-0.293E+02 0.115E+04 0.232E+02
CGA:  40     0.386478939775E+05    0.15439E+05    0.16163E+04  5064   0.212E+05 0.114E+04
 gam= 7.153 trial= 1.344  step= 1.059 mean= 1.344
 gam= 0.262 g(H,U,f)=  0.398E+04 0.158E+04 0.296E+00 ort(H,U,f) = 0.380E+04 0.133E+04 0.829E+00
CGA:  41     0.253700642587E+05   -0.13278E+05   -0.15552E+05  5064   0.556E+04 0.514E+04
 gam= 0.262 trial= 1.329  step= 2.274 mean= 1.329
 gam= 0.681 g(H,U,f)=  0.220E+04 0.159E+04 0.613E+01 ort(H,U,f) =-0.103E+04-0.114E+04 0.187E+02
CGA:  42     0.182456640999E+05   -0.71244E+04   -0.78560E+04  5064   0.379E+04-0.214E+04
 gam= 0.681 trial= 1.377  step= 0.579 mean= 1.377
 gam= 1.399 g(H,U,f)=  0.217E+04 0.313E+04 0.242E+00 ort(H,U,f) = 0.121E+04-0.461E+03 0.336E+01
CGA:  43     0.172257783762E+05   -0.10199E+04   -0.67447E+03  5064   0.530E+04 0.749E+03
 gam= 1.399 trial= 1.337  step= 1.725 mean= 1.337
 gam= 0.265 g(H,U,f)=  0.105E+04 0.359E+03 0.462E-05 ort(H,U,f) = 0.702E+03-0.184E+03-0.145E-04
CGA:  44     0.117661767110E+05   -0.54596E+04   -0.54746E+04  5064   0.141E+04 0.518E+03
 gam= 0.265 trial= 1.356  step= 4.873 mean= 1.356
 gam= 0.000 g(H,U,f)=  0.351E+04 0.134E+05 0.110E+02 ort(H,U,f) =-0.610E+03-0.223E+05-0.668E+01
CGA:  45     0.261116744201E+05    0.14345E+05   -0.37591E+04  5064   0.170E+05-0.229E+05
 gam= 0.000 trial= 1.532  step= 1.439 mean= 1.532
 gam= 0.000 g(H,U,f)=  0.196E+04 0.199E+05 0.617E+02 ort(H,U,f) =-0.167E+04-0.126E+05 0.317E+00
CGA:  46     0.123494413380E+05   -0.13762E+05   -0.12207E+05  5064   0.220E+05-0.143E+05
 gam= 0.000 trial= 1.527  step= 0.559 mean= 1.527
 gam= 0.130 g(H,U,f)=  0.492E+03 0.236E+04 0.502E+01 ort(H,U,f) = 0.611E+03 0.487E+04 0.129E+02
CGA:  47     0.597129390545E+04   -0.63781E+04   -0.61342E+04  5064   0.286E+04 0.549E+04
 gam= 0.130 trial= 1.479  step= 0.197 mean= 1.479
 gam= 0.000 g(H,U,f)=  0.416E+03 0.142E+04 0.280E+01 ort(H,U,f) = 0.483E+03 0.246E+04 0.588E+01
CGA:  48     0.532307475321E+04   -0.64822E+03   -0.35157E+03  5064   0.184E+04 0.295E+04
 gam= 0.000 trial= 1.415  step= 0.786 mean= 1.415
 gam= 0.417 g(H,U,f)=  0.323E+03 0.444E+03 0.924E+00 ort(H,U,f) = 0.296E+03 0.355E+03-0.979E+00
CGA:  49     0.424825352995E+04   -0.10748E+04   -0.72325E+03  5064   0.767E+03 0.649E+03
 gam= 0.417 trial= 1.383  step= 0.140 mean= 1.383
 gam= 0.000 g(H,U,f)=  0.345E+03 0.422E+03 0.718E+00 ort(H,U,f) = 0.437E+03 0.548E+03 0.692E+00
CGA:  50     0.410617934007E+04   -0.14207E+03   -0.72758E+02  5064   0.768E+03 0.986E+03
 gam= 0.000 trial= 1.321  step= 2.538 mean= 1.321
 gam= 0.000 g(H,U,f)=  0.986E+03 0.923E+05 0.278E+04 ort(H,U,f) = 0.171E+03-0.102E+05-0.306E+03
CGA:  51     0.738664521935E+04    0.32805E+04   -0.97451E+03  5064   0.961E+05-0.104E+05
 gam= 0.000 trial= 1.382  step= 0.630 mean= 1.382
 gam= 0.454 g(H,U,f)=  0.104E+04 0.418E+05 0.697E+03 ort(H,U,f) =-0.598E+03-0.105E+05-0.215E+03
CGA:  52     0.766405846827E+04    0.27741E+03   -0.30287E+05  5064   0.436E+05-0.113E+05
 gam= 0.454 trial= 1.344  step= 0.714 mean= 1.344
 gam= 0.046 g(H,U,f)=  0.430E+03 0.158E+04 0.758E+01 ort(H,U,f) = 0.790E+02-0.160E+04-0.727E+01
CGA:  53     0.313155118046E+04   -0.45325E+04   -0.13731E+05  5064   0.202E+04-0.153E+04
 gam= 0.046 trial= 1.313  step= 0.387 mean= 1.313
 gam= 0.000 g(H,U,f)=  0.312E+03 0.355E+03 0.133E+01 ort(H,U,f) = 0.335E+03 0.760E+03 0.263E+01
CGA:  54     0.253014496014E+04   -0.60141E+03   -0.37762E+03  5064   0.669E+03 0.110E+04
 gam= 0.000 trial= 1.267  step= 0.957 mean= 1.267
 gam= 0.875 g(H,U,f)=  0.273E+03 0.310E+03 0.151E+01 ort(H,U,f) = 0.241E+03-0.258E+03-0.158E+01
CGA:  55     0.215545749414E+04   -0.37469E+03   -0.31997E+03  5064   0.585E+03-0.185E+02
 gam= 0.875 trial= 1.251  step= 0.045 mean= 1.251
 gam= 0.000 g(H,U,f)=  0.295E+03 0.305E+03 0.165E+01 ort(H,U,f) = 0.481E+03 0.723E+02 0.119E+00
CGA:  56     0.213089230010E+04   -0.24565E+02   -0.12777E+02  5064   0.602E+03 0.553E+03
 gam= 0.000 trial= 1.191  step= 0.918 mean= 1.191
 gam= 0.921 g(H,U,f)=  0.302E+03 0.251E+03 0.673E+00 ort(H,U,f) = 0.246E+03-0.227E+03-0.623E+00
CGA:  57     0.185933414856E+04   -0.27156E+03   -0.27616E+03  5064   0.554E+03 0.184E+02
 gam= 0.921 trial= 1.177  step= 0.487 mean= 1.177
 gam= 0.000 g(H,U,f)=  0.290E+03 0.191E+03 0.613E+00 ort(H,U,f) = 0.493E+03 0.223E+02 0.361E-01
CGA:  58     0.159425530172E+04   -0.26508E+03   -0.13906E+03  5064   0.482E+03 0.515E+03
 gam= 0.000 trial= 1.143  step= 0.916 mean= 1.143
 gam= 1.200 g(H,U,f)=  0.272E+03 0.306E+03 0.635E+00 ort(H,U,f) = 0.233E+03-0.239E+03-0.508E+00
CGA:  59     0.136281381870E+04   -0.23144E+03   -0.22072E+03  5064   0.578E+03-0.667E+01
 gam= 1.200 trial= 1.131  step= 4.754 mean= 1.131
 gam= 2.883 g(H,U,f)=  0.156E+03 0.150E+04 0.115E+02 ort(H,U,f) = 0.584E+02-0.101E+03-0.914E+00
CGA:  60     0.292357290546E+02   -0.13336E+04   -0.13554E+04  5064   0.167E+04-0.430E+02
 gam= 2.883 trial= 1.313  step= 0.598 mean= 1.313
 gam= 0.163 g(H,U,f)=  0.209E+03 0.629E+02 0.724E-03 ort(H,U,f) =-0.196E+03 0.566E+02 0.391E-03
CGA:  61    -0.224896884359E+03   -0.25413E+03   -0.46095E+03  5064   0.272E+03-0.139E+03
 gam= 0.163 trial= 1.277  step= 1.809 mean= 1.277
 gam= 0.824 g(H,U,f)=  0.101E+03 0.118E+03 0.401E+01 ort(H,U,f) = 0.811E+02-0.677E+02-0.149E+01
CGA:  62    -0.455685295116E+03   -0.23079E+03   -0.22520E+03  5064   0.224E+03 0.118E+02
 gam= 0.824 trial= 1.303  step= 1.438 mean= 1.303
 gam= 0.483 g(H,U,f)=  0.446E+02 0.615E+02 0.209E+01 ort(H,U,f) = 0.413E+02-0.421E+02-0.184E+01
CGA:  63    -0.623649538780E+03   -0.16796E+03   -0.16792E+03  5064   0.108E+03-0.265E+01
 gam= 0.483 trial= 1.310  step= 1.565 mean= 1.310
 gam= 0.604 g(H,U,f)=  0.375E+02 0.278E+02 0.710E-01 ort(H,U,f) = 0.227E+02-0.130E+02-0.413E-01
CGA:  64    -0.709254448641E+03   -0.85605E+02   -0.83630E+02  5064   0.653E+02 0.964E+01
 gam= 0.604 trial= 1.323  step= 2.194 mean= 1.323
 gam= 0.640 g(H,U,f)=  0.189E+02 0.216E+02 0.139E+01 ort(H,U,f) = 0.162E+02-0.179E+02-0.908E+00
CGA:  65    -0.787389188683E+03   -0.78135E+02   -0.78053E+02  5064   0.418E+02-0.259E+01
 gam= 0.640 trial= 1.366  step= 1.632 mean= 1.366
 gam= 0.657 g(H,U,f)=  0.108E+02 0.166E+02 0.221E-01 ort(H,U,f) = 0.836E+01-0.663E+01 0.140E-02
CGA:  66    -0.820547710040E+03   -0.33159E+02   -0.32788E+02  5064   0.275E+02 0.173E+01
 gam= 0.657 trial= 1.380  step= 1.730 mean= 1.380
 gam= 0.489 g(H,U,f)=  0.745E+01 0.592E+01 0.671E-01 ort(H,U,f) = 0.198E+01-0.886E+00-0.348E-01
CGA:  67    -0.845583701722E+03   -0.25036E+02   -0.24743E+02  5064   0.134E+02 0.106E+01
 gam= 0.489 trial= 1.397  step= 1.563 mean= 1.397
 gam= 0.545 g(H,U,f)=  0.413E+01 0.303E+01 0.159E+00 ort(H,U,f) = 0.253E+01-0.216E+01-0.183E+00
CGA:  68    -0.856512746782E+03   -0.10929E+02   -0.10903E+02  5064   0.732E+01 0.186E+00
 gam= 0.545 trial= 1.405  step= 1.684 mean= 1.405
 gam= 0.513 g(H,U,f)=  0.211E+01 0.160E+01 0.515E-01 ort(H,U,f) = 0.127E+01-0.136E+01-0.200E-01
CGA:  69    -0.862739294204E+03   -0.62265E+01   -0.62457E+01  5064   0.376E+01-0.103E+00
 gam= 0.513 trial= 1.419  step= 1.916 mean= 1.419
 gam= 0.580 g(H,U,f)=  0.120E+01 0.981E+00 0.343E-03 ort(H,U,f) = 0.371E+00-0.327E+00-0.264E-03
CGA:  70    -0.866302052521E+03   -0.35628E+01   -0.35474E+01  5064   0.218E+01 0.434E-01
 gam= 0.580 trial= 1.444  step= 1.534 mean= 1.444
 gam= 0.490 g(H,U,f)=  0.717E+00 0.349E+00 0.821E-03 ort(H,U,f) = 0.216E+00-0.245E+00-0.261E-02
CGA:  71    -0.867988821666E+03   -0.16868E+01   -0.16893E+01  5064   0.107E+01-0.310E-01
 gam= 0.490 trial= 1.449  step= 1.738 mean= 1.449
 gam= 0.639 g(H,U,f)=  0.391E+00 0.269E+00 0.215E-01 ort(H,U,f) = 0.144E+00-0.149E+00-0.507E-02
CGA:  72    -0.868900178228E+03   -0.91136E+00   -0.91352E+00  5064   0.681E+00-0.101E-01
 gam= 0.639 trial= 1.463  step= 1.289 mean= 1.463
 gam= 0.524 g(H,U,f)=  0.209E+00 0.148E+00 0.157E-03 ort(H,U,f) = 0.103E+00-0.902E-01-0.326E-03
CGA:  73    -0.869332293887E+03   -0.43212E+00   -0.43471E+00  5064   0.357E+00 0.121E-01
 gam= 0.524 trial= 1.454  step= 1.700 mean= 1.454
 gam= 0.508 g(H,U,f)=  0.117E+00 0.644E-01 0.228E-03 ort(H,U,f) = 0.105E-01-0.969E-02 0.493E-05
CGA:  74    -0.869641269579E+03   -0.30898E+00   -0.30882E+00  5064   0.181E+00 0.864E-03
 gam= 0.508 trial= 1.467  step= 1.447 mean= 1.467
 gam= 0.629 g(H,U,f)=  0.657E-01 0.468E-01 0.154E-02 ort(H,U,f) = 0.310E-01-0.313E-01-0.134E-02
CGA:  75    -0.869772793140E+03   -0.13152E+00   -0.13149E+00  5064   0.114E+00-0.164E-02
 gam= 0.629 trial= 1.466  step= 1.541 mean= 1.466
 gam= 0.529 g(H,U,f)=  0.374E-01 0.229E-01 0.200E-04 ort(H,U,f) = 0.145E-01-0.145E-01 0.370E-05
CGA:  76    -0.869859872607E+03   -0.87079E-01   -0.87070E-01  5064   0.604E-01 0.785E-04
 gam= 0.529 trial= 1.469  step= 1.796 mean= 1.469
 gam= 0.724 g(H,U,f)=  0.240E-01 0.196E-01 0.101E-03 ort(H,U,f) = 0.750E-02-0.778E-02-0.915E-05
CGA:  77    -0.869914041838E+03   -0.54169E-01   -0.54238E-01  5064   0.437E-01-0.283E-03
 gam= 0.724 trial= 1.486  step= 1.404 mean= 1.486
 gam= 0.555 g(H,U,f)=  0.145E-01 0.961E-02 0.119E-03 ort(H,U,f) = 0.534E-02-0.543E-02-0.156E-03
CGA:  78    -0.869944600064E+03   -0.30558E-01   -0.30533E-01  5064   0.242E-01-0.251E-03
 gam= 0.555 trial= 1.482  step= 1.560 mean= 1.482
 gam= 0.570 g(H,U,f)=  0.851E-02 0.530E-02 0.769E-05 ort(H,U,f) = 0.277E-02-0.280E-02 0.591E-05
CGA:  79    -0.869963404601E+03   -0.18805E-01   -0.18807E-01  5064   0.138E-01-0.207E-04
 gam= 0.570 trial= 1.486  step= 1.495 mean= 1.486
 gam= 0.650 g(H,U,f)=  0.534E-02 0.362E-02 0.323E-04 ort(H,U,f) = 0.220E-02-0.217E-02-0.206E-04
CGA:  80    -0.869973725728E+03   -0.10321E-01   -0.10321E-01  5064   0.899E-02 0.563E-05
 gam= 0.650 trial= 1.486  step= 1.490 mean= 1.486
 gam= 0.610 g(H,U,f)=  0.337E-02 0.211E-02 0.486E-05 ort(H,U,f) = 0.102E-02-0.103E-02-0.867E-05
CGA:  81    -0.869980427135E+03   -0.67014E-02   -0.67015E-02  5064   0.549E-02-0.163E-04
 gam= 0.610 trial= 1.486  step= 1.478 mean= 1.486
 gam= 0.638 g(H,U,f)=  0.219E-02 0.131E-02 0.418E-05 ort(H,U,f) = 0.605E-03-0.616E-03-0.794E-06
CGA:  82    -0.869984473686E+03   -0.40466E-02   -0.40465E-02  5064   0.350E-02-0.117E-04
 gam= 0.638 trial= 1.486  step= 1.358 mean= 1.486
 gam= 0.593 g(H,U,f)=  0.133E-02 0.739E-03 0.889E-05 ort(H,U,f) = 0.460E-03-0.462E-03-0.485E-05
CGA:  83    -0.869986847596E+03   -0.23739E-02   -0.23732E-02  5064   0.208E-02-0.623E-05
 gam= 0.593 trial= 1.479  step= 1.547 mean= 1.479
 gam= 0.604 g(H,U,f)=  0.782E-03 0.472E-03 0.717E-07 ort(H,U,f) = 0.216E-03-0.220E-03-0.259E-06
CGA:  84    -0.869988451491E+03   -0.16039E-02   -0.16042E-02  5064   0.125E-02-0.390E-05
 gam= 0.604 trial= 1.483  step= 1.438 mean= 1.483
 gam= 0.678 g(H,U,f)=  0.500E-03 0.348E-03 0.266E-05 ort(H,U,f) = 0.204E-03-0.203E-03-0.182E-05
CGA:  85    -0.869989351521E+03   -0.90003E-03   -0.89996E-03  5064   0.851E-03-0.110E-05
 gam= 0.678 trial= 1.481  step= 1.700 mean= 1.481
 gam= 0.662 g(H,U,f)=  0.367E-03 0.195E-03 0.102E-05 ort(H,U,f) = 0.971E-04-0.969E-04-0.849E-06
CGA:  86    -0.869990073962E+03   -0.72244E-03   -0.72262E-03  5064   0.563E-03-0.719E-06
 gam= 0.662 trial= 1.492  step= 1.656 mean= 1.492
 gam= 0.851 g(H,U,f)=  0.284E-03 0.195E-03 0.429E-07 ort(H,U,f) = 0.112E-03-0.112E-03-0.204E-07
CGA:  87    -0.869990539806E+03   -0.46584E-03   -0.46593E-03  5064   0.479E-03-0.403E-07
 gam= 0.851 trial= 1.500  step= 1.652 mean= 1.500
 gam= 0.769 g(H,U,f)=  0.242E-03 0.126E-03 0.753E-06 ort(H,U,f) = 0.650E-04-0.645E-04-0.341E-06
CGA:  88    -0.869990935491E+03   -0.39568E-03   -0.39574E-03  5064   0.369E-03 0.149E-06
 gam= 0.769 trial= 1.507  step= 1.628 mean= 1.507
 gam= 0.000 g(H,U,f)=  0.201E-03 0.125E-03 0.196E-06 ort(H,U,f) = 0.650E-04-0.642E-04-0.248E-06
SDA:  89    -0.869991235649E+03   -0.30016E-03   -0.30017E-03  5064   0.326E-03 0.555E-06
 gam= 0.000 trial= 1.513  step= 1.487 mean= 1.513
 gam= 0.630 g(H,U,f)=  0.987E-04 0.107E-03 0.277E-06 ort(H,U,f) = 0.796E-04-0.788E-04-0.234E-06
CGA:  90    -0.869991478308E+03   -0.24266E-03   -0.24267E-03  5064   0.206E-03 0.505E-06
 gam= 0.630 trial= 1.512  step= 1.879 mean= 1.512
 gam= 0.541 g(H,U,f)=  0.758E-04 0.350E-04 0.357E-06 ort(H,U,f) = 0.284E-04-0.284E-04-0.147E-06
CGA:  91    -0.869991671770E+03   -0.19346E-03   -0.19350E-03  5064   0.111E-03-0.138E-06
 gam= 0.541 trial= 1.530  step= 1.793 mean= 1.530
 gam= 0.961 g(H,U,f)=  0.743E-04 0.321E-04 0.490E-06 ort(H,U,f) = 0.180E-04-0.183E-04-0.330E-06
CGA:  92    -0.869991771321E+03   -0.99551E-04   -0.99642E-04  5064   0.107E-03-0.605E-06
 gam= 0.961 trial= 1.544  step= 2.148 mean= 1.544
 gam= 1.173 g(H,U,f)=  0.908E-04 0.345E-04 0.205E-07 ort(H,U,f) = 0.102E-04-0.114E-04-0.322E-07
CGA:  93    -0.869991885035E+03   -0.11371E-03   -0.11414E-03  5064   0.125E-03-0.129E-05
 gam= 1.173 trial= 1.574  step= 2.390 mean= 1.574
 gam= 1.099 g(H,U,f)=  0.929E-04 0.443E-04 0.698E-06 ort(H,U,f) = 0.217E-04-0.234E-04-0.131E-06
CGA:  94    -0.869992032145E+03   -0.14711E-03   -0.14802E-03  5064   0.138E-03-0.181E-05
 gam= 1.099 trial= 1.615  step= 2.323 mean= 1.615
 gam= 1.371 g(H,U,f)=  0.998E-04 0.865E-04 0.258E-05 ort(H,U,f) = 0.395E-04-0.390E-04-0.110E-05
CGA:  95    -0.869992189231E+03   -0.15709E-03   -0.15776E-03  5064   0.189E-03-0.543E-06
 gam= 1.371 trial= 1.650  step= 2.016 mean= 1.650
 gam= 0.950 g(H,U,f)=  0.112E-03 0.671E-04 0.497E-06 ort(H,U,f) = 0.426E-04-0.406E-04-0.456E-06
CGA:  96    -0.869992378155E+03   -0.18892E-03   -0.18964E-03  5064   0.180E-03 0.153E-05
 gam= 0.950 trial= 1.668  step= 1.736 mean= 1.668
 gam= 0.790 g(H,U,f)=  0.103E-03 0.382E-04 0.549E-06 ort(H,U,f) = 0.254E-04-0.176E-04 0.657E-07
CGA:  97    -0.869992535393E+03   -0.15724E-03   -0.15711E-03  5064   0.142E-03 0.780E-05
 gam= 0.790 trial= 1.672  step= 1.258 mean= 1.672
 gam= 0.589 g(H,U,f)=  0.528E-04 0.300E-04 0.632E-06 ort(H,U,f) = 0.217E-04-0.159E-04-0.652E-06
CGA:  98    -0.869992627306E+03   -0.91913E-04   -0.93093E-04  5064   0.835E-04 0.513E-05
 gam= 0.589 trial= 1.651  step= 1.603 mean= 1.651
 gam= 0.544 g(H,U,f)=  0.298E-04 0.156E-04 0.486E-08 ort(H,U,f) = 0.100E-04-0.788E-05 0.360E-08
CGA:  99    -0.869992696503E+03   -0.69197E-04   -0.69297E-04  5064   0.454E-04 0.212E-05
 gam= 0.544 trial= 1.649  step= 1.495 mean= 1.649
 gam= 0.714 g(H,U,f)=  0.248E-04 0.753E-05 0.941E-07 ort(H,U,f) = 0.398E-05-0.350E-05-0.564E-07
CGA: 100    -0.869992731201E+03   -0.34698E-04   -0.34790E-04  5064   0.324E-04 0.422E-06
 gam= 0.714 trial= 1.641  step= 1.227 mean= 1.641
 gam= 0.517 g(H,U,f)=  0.122E-04 0.453E-05 0.137E-07 ort(H,U,f) = 0.415E-05-0.410E-05-0.205E-07
CGA: 101    -0.869992751229E+03   -0.20029E-04   -0.20071E-04  5064   0.168E-04 0.352E-07
 gam= 0.517 trial= 1.620  step= 1.888 mean= 1.620
 gam= 0.972 g(H,U,f)=  0.108E-04 0.547E-05 0.650E-08 ort(H,U,f) = 0.215E-05-0.229E-05 0.104E-08
CGA: 102    -0.869992767048E+03   -0.15818E-04   -0.15848E-04  5064   0.163E-04-0.135E-06
 gam= 0.972 trial= 1.634  step= 1.219 mean= 1.634
 gam= 0.654 g(H,U,f)=  0.837E-05 0.228E-05 0.104E-07 ort(H,U,f) = 0.125E-05-0.141E-05-0.988E-08
CGA: 103    -0.869992776961E+03   -0.99129E-05   -0.98524E-05  5064   0.107E-04-0.165E-06
 gam= 0.654 trial= 1.613  step= 1.737 mean= 1.613
 final diagonalization
   1 F= -.86999278E+03 E0= -.86999059E+03  d E =-.437928E-02
 writing wavefunctions
Warning: ieee_invalid is signaling
Warning: ieee_divide_by_zero is signaling
Warning: ieee_underflow is signaling
Warning: ieee_inexact is signaling
FORTRAN STOP
Warning: ieee_invalid is signaling
Warning: ieee_divide_by_zero is signaling
Warning: ieee_underflow is signaling
Warning: ieee_inexact is signaling
FORTRAN STOP
Warning: ieee_invalid is signaling
Warning: ieee_divide_by_zero is signaling
Warning: ieee_underflow is signaling
Warning: ieee_inexact is signaling
FORTRAN STOP
Warning: ieee_invalid is signaling
Warning: ieee_divide_by_zero is signaling
Warning: ieee_underflow is signaling
Warning: ieee_inexact is signaling
FORTRAN STOP
