       N       E                     dE             d eps       ncg     rms          ort
DAV:   1    -0.209591490322E+05   -0.20959E+05   -0.54713E+05  5064   0.754E+03
DAV:   2    -0.675491653115E+05   -0.46590E+05   -0.44773E+05  5064   0.129E+03
DAV:   3    -0.740255933647E+05   -0.64764E+04   -0.59401E+04  5064   0.409E+02
DAV:   4    -0.750089503512E+05   -0.98336E+03   -0.91230E+03  5064   0.140E+02
DAV:   5    -0.425701993687E+05    0.32439E+05   -0.74133E+02  5064   0.633E+01
SDA:   6     0.527454899069E+05    0.95316E+05   -0.74133E+02  5064   0.113E+06 0.000E+00
CGA:   7     0.629502679613E+05    0.10205E+05    0.14089E+05  5064   0.540E+06-0.152E+05
CGA:   8     0.474409429743E+05   -0.15509E+05   -0.89940E+05  5064   0.178E+06-0.150E+05
CGA:   9     0.501662754004E+05    0.27253E+04   -0.31278E+05  5064   0.461E+06 0.256E+05
CGA:  10     0.529469342655E+05    0.27807E+04   -0.91802E+05  5064   0.312E+06-0.724E+04
CGA:  11     0.655697426902E+05    0.12623E+05   -0.51233E+05  5064   0.599E+06 0.139E+04
CGA:  12     0.634901115008E+05   -0.20796E+04   -0.98720E+05  5064   0.444E+06-0.111E+05
CGA:  13     0.788782439216E+05    0.15388E+05   -0.66896E+05  5064   0.976E+06-0.288E+05
CGA:  14     0.100071549654E+06    0.21193E+05   -0.13776E+06  5064   0.790E+06-0.306E+04
CGA:  15     0.109752679537E+06    0.96811E+04   -0.11827E+06  5064   0.120E+07 0.208E+03
CGA:  16     0.122063006522E+06    0.12310E+05   -0.17565E+06  5064   0.747E+06 0.822E+04
CGA:  17     0.127764756168E+06    0.57017E+04   -0.10885E+06  5064   0.122E+07 0.130E+05
CGA:  18     0.133804670957E+06    0.60399E+04   -0.17658E+06  5064   0.555E+06 0.329E+05
CGA:  19     0.139446612478E+06    0.56419E+04   -0.79023E+05  5064   0.104E+07 0.243E+05
CGA:  20     0.138303955880E+06   -0.11427E+04   -0.14772E+06  5064   0.421E+06 0.635E+05
CGA:  21     0.143427067241E+06    0.51231E+04   -0.57970E+05  5064   0.761E+06 0.164E+05
CGA:  22     0.160712162084E+06    0.17285E+05   -0.95273E+05  5064   0.428E+06-0.499E+05
CGA:  23     0.174608439992E+06    0.13896E+05   -0.46355E+05  5064   0.770E+06-0.102E+05
CGA:  24     0.190801632117E+06    0.16193E+05   -0.85390E+05  5064   0.375E+06-0.123E+05
CGA:  25     0.201368068026E+06    0.10566E+05   -0.40677E+05  5064   0.674E+06-0.820E+04
CGA:  26     0.219061581805E+06    0.17694E+05   -0.69638E+05  5064   0.308E+06-0.220E+05
CGA:  27     0.229847922657E+06    0.10786E+05   -0.30804E+05  5064   0.524E+06-0.995E+03
CGA:  28     0.244245924308E+06    0.14398E+05   -0.52535E+05  5064   0.264E+06 0.231E+03
CGA:  29     0.251646032089E+06    0.74001E+04   -0.26517E+05  5064   0.379E+06 0.297E+05
CGA:  30     0.261821749974E+06    0.10176E+05   -0.40359E+05  5064   0.256E+06 0.247E+05
CGA:  31     0.266943841352E+06    0.51221E+04   -0.25789E+05  5064   0.265E+06 0.493E+05
CGA:  32     0.273119759574E+06    0.61759E+04   -0.28171E+05  5064   0.232E+06 0.431E+05
CGA:  33     0.280065952338E+06    0.69462E+04   -0.22208E+05  5064   0.196E+06 0.551E+05
CGA:  34     0.277380080843E+06   -0.26859E+04   -0.20403E+05  5064   0.265E+06 0.182E+06
CGA:  35     0.175758885834E+06   -0.10162E+06    0.33636E+06  5064   0.255E+06 0.170E+06
CGA:  36     0.905254118794E+05   -0.85233E+05   -0.84179E+05  5064   0.854E+05 0.252E+05
CGA:  37     0.522254201377E+05   -0.38300E+05   -0.36277E+05  5064   0.199E+05 0.155E+05
CGA:  38     0.359884227861E+05   -0.16237E+05   -0.37724E+03  5064   0.263E+05-0.331E+04
CGA:  39     0.232085640225E+05   -0.12780E+05   -0.11920E+05  5064   0.296E+04 0.387E+04
CGA:  40     0.386478939775E+05    0.15439E+05    0.16163E+04  5064   0.212E+05 0.114E+04
CGA:  41     0.253700642587E+05   -0.13278E+05   -0.15552E+05  5064   0.556E+04 0.514E+04
CGA:  42     0.182456640999E+05   -0.71244E+04   -0.78560E+04  5064   0.379E+04-0.214E+04
CGA:  43     0.172257783762E+05   -0.10199E+04   -0.67447E+03  5064   0.530E+04 0.749E+03
CGA:  44     0.117661767110E+05   -0.54596E+04   -0.54746E+04  5064   0.141E+04 0.518E+03
CGA:  45     0.261116744201E+05    0.14345E+05   -0.37591E+04  5064   0.170E+05-0.229E+05
CGA:  46     0.123494413380E+05   -0.13762E+05   -0.12207E+05  5064   0.220E+05-0.143E+05
CGA:  47     0.597129390545E+04   -0.63781E+04   -0.61342E+04  5064   0.286E+04 0.549E+04
CGA:  48     0.532307475321E+04   -0.64822E+03   -0.35157E+03  5064   0.184E+04 0.295E+04
CGA:  49     0.424825352995E+04   -0.10748E+04   -0.72325E+03  5064   0.767E+03 0.649E+03
CGA:  50     0.410617934007E+04   -0.14207E+03   -0.72758E+02  5064   0.768E+03 0.986E+03
CGA:  51     0.738664521935E+04    0.32805E+04   -0.97451E+03  5064   0.961E+05-0.104E+05
CGA:  52     0.766405846827E+04    0.27741E+03   -0.30287E+05  5064   0.436E+05-0.113E+05
CGA:  53     0.313155118046E+04   -0.45325E+04   -0.13731E+05  5064   0.202E+04-0.153E+04
CGA:  54     0.253014496014E+04   -0.60141E+03   -0.37762E+03  5064   0.669E+03 0.110E+04
CGA:  55     0.215545749414E+04   -0.37469E+03   -0.31997E+03  5064   0.585E+03-0.185E+02
CGA:  56     0.213089230010E+04   -0.24565E+02   -0.12777E+02  5064   0.602E+03 0.553E+03
CGA:  57     0.185933414856E+04   -0.27156E+03   -0.27616E+03  5064   0.554E+03 0.184E+02
CGA:  58     0.159425530172E+04   -0.26508E+03   -0.13906E+03  5064   0.482E+03 0.515E+03
CGA:  59     0.136281381870E+04   -0.23144E+03   -0.22072E+03  5064   0.578E+03-0.667E+01
CGA:  60     0.292357290546E+02   -0.13336E+04   -0.13554E+04  5064   0.167E+04-0.430E+02
CGA:  61    -0.224896884359E+03   -0.25413E+03   -0.46095E+03  5064   0.272E+03-0.139E+03
CGA:  62    -0.455685295116E+03   -0.23079E+03   -0.22520E+03  5064   0.224E+03 0.118E+02
CGA:  63    -0.623649538780E+03   -0.16796E+03   -0.16792E+03  5064   0.108E+03-0.265E+01
CGA:  64    -0.709254448641E+03   -0.85605E+02   -0.83630E+02  5064   0.653E+02 0.964E+01
CGA:  65    -0.787389188683E+03   -0.78135E+02   -0.78053E+02  5064   0.418E+02-0.259E+01
CGA:  66    -0.820547710040E+03   -0.33159E+02   -0.32788E+02  5064   0.275E+02 0.173E+01
CGA:  67    -0.845583701722E+03   -0.25036E+02   -0.24743E+02  5064   0.134E+02 0.106E+01
CGA:  68    -0.856512746782E+03   -0.10929E+02   -0.10903E+02  5064   0.732E+01 0.186E+00
CGA:  69    -0.862739294204E+03   -0.62265E+01   -0.62457E+01  5064   0.376E+01-0.103E+00
CGA:  70    -0.866302052521E+03   -0.35628E+01   -0.35474E+01  5064   0.218E+01 0.434E-01
CGA:  71    -0.867988821666E+03   -0.16868E+01   -0.16893E+01  5064   0.107E+01-0.310E-01
CGA:  72    -0.868900178228E+03   -0.91136E+00   -0.91352E+00  5064   0.681E+00-0.101E-01
CGA:  73    -0.869332293887E+03   -0.43212E+00   -0.43471E+00  5064   0.357E+00 0.121E-01
CGA:  74    -0.869641269579E+03   -0.30898E+00   -0.30882E+00  5064   0.181E+00 0.864E-03
CGA:  75    -0.869772793140E+03   -0.13152E+00   -0.13149E+00  5064   0.114E+00-0.164E-02
CGA:  76    -0.869859872607E+03   -0.87079E-01   -0.87070E-01  5064   0.604E-01 0.785E-04
CGA:  77    -0.869914041838E+03   -0.54169E-01   -0.54238E-01  5064   0.437E-01-0.283E-03
CGA:  78    -0.869944600064E+03   -0.30558E-01   -0.30533E-01  5064   0.242E-01-0.251E-03
CGA:  79    -0.869963404601E+03   -0.18805E-01   -0.18807E-01  5064   0.138E-01-0.207E-04
CGA:  80    -0.869973725728E+03   -0.10321E-01   -0.10321E-01  5064   0.899E-02 0.563E-05
CGA:  81    -0.869980427135E+03   -0.67014E-02   -0.67015E-02  5064   0.549E-02-0.163E-04
CGA:  82    -0.869984473686E+03   -0.40466E-02   -0.40465E-02  5064   0.350E-02-0.117E-04
CGA:  83    -0.869986847596E+03   -0.23739E-02   -0.23732E-02  5064   0.208E-02-0.623E-05
CGA:  84    -0.869988451491E+03   -0.16039E-02   -0.16042E-02  5064   0.125E-02-0.390E-05
CGA:  85    -0.869989351521E+03   -0.90003E-03   -0.89996E-03  5064   0.851E-03-0.110E-05
CGA:  86    -0.869990073962E+03   -0.72244E-03   -0.72262E-03  5064   0.563E-03-0.719E-06
CGA:  87    -0.869990539806E+03   -0.46584E-03   -0.46593E-03  5064   0.479E-03-0.403E-07
CGA:  88    -0.869990935491E+03   -0.39568E-03   -0.39574E-03  5064   0.369E-03 0.149E-06
SDA:  89    -0.869991235649E+03   -0.30016E-03   -0.30017E-03  5064   0.326E-03 0.555E-06
CGA:  90    -0.869991478308E+03   -0.24266E-03   -0.24267E-03  5064   0.206E-03 0.505E-06
CGA:  91    -0.869991671770E+03   -0.19346E-03   -0.19350E-03  5064   0.111E-03-0.138E-06
CGA:  92    -0.869991771321E+03   -0.99551E-04   -0.99642E-04  5064   0.107E-03-0.605E-06
CGA:  93    -0.869991885035E+03   -0.11371E-03   -0.11414E-03  5064   0.125E-03-0.129E-05
CGA:  94    -0.869992032145E+03   -0.14711E-03   -0.14802E-03  5064   0.138E-03-0.181E-05
CGA:  95    -0.869992189231E+03   -0.15709E-03   -0.15776E-03  5064   0.189E-03-0.543E-06
CGA:  96    -0.869992378155E+03   -0.18892E-03   -0.18964E-03  5064   0.180E-03 0.153E-05
CGA:  97    -0.869992535393E+03   -0.15724E-03   -0.15711E-03  5064   0.142E-03 0.780E-05
CGA:  98    -0.869992627306E+03   -0.91913E-04   -0.93093E-04  5064   0.835E-04 0.513E-05
CGA:  99    -0.869992696503E+03   -0.69197E-04   -0.69297E-04  5064   0.454E-04 0.212E-05
CGA: 100    -0.869992731201E+03   -0.34698E-04   -0.34790E-04  5064   0.324E-04 0.422E-06
CGA: 101    -0.869992751229E+03   -0.20029E-04   -0.20071E-04  5064   0.168E-04 0.352E-07
CGA: 102    -0.869992767048E+03   -0.15818E-04   -0.15848E-04  5064   0.163E-04-0.135E-06
CGA: 103    -0.869992776961E+03   -0.99129E-05   -0.98524E-05  5064   0.107E-04-0.165E-06
   1 F= -.86999278E+03 E0= -.86999059E+03  d E =-.437928E-02
