<?xml version="1.0" encoding="ISO-8859-1"?>
<modeling>
 <generator>
  <i name="program" type="string">vasp </i>
  <i name="version" type="string">6.4.2  </i>
  <i name="subversion" type="string">20Jul23 (build Nov 12 2023 22:16:35) complex                          parallel </i>
  <i name="platform" type="string">LinuxNV </i>
  <i name="date" type="string">2025 03 13 </i>
  <i name="time" type="string">09:07:22 </i>
 </generator>
 <incar>
  <i type="int" name="ISTART">     0</i>
  <i type="string" name="PREC">Normal</i>
  <i type="string" name="ALGO">All</i>
  <i type="int" name="ISPIN">     1</i>
  <i type="int" name="ICHARG">     0</i>
  <i type="int" name="NELM">   500</i>
  <i type="int" name="IBRION">    -1</i>
  <i name="EDIFF">      0.00001000</i>
  <i name="EDIFFG">     -0.00500000</i>
  <i type="int" name="NSW">     0</i>
  <i type="int" name="ISIF">     2</i>
  <i name="ENCUT">    450.00000000</i>
  <i name="NELECT">   1056.00000000</i>
  <i type="string" name="LREAL">Auto</i>
  <i type="logical" name="LPLANE"> T  </i>
  <i name="TIME">      0.40000000</i>
  <i type="int" name="ISMEAR">     0</i>
  <i name="SIGMA">      0.05000000</i>
  <i type="logical" name="LWAVE"> T  </i>
  <i type="logical" name="LCHARG"> T  </i>
  <i name="HFSCREEN">      0.18000000</i>
  <i type="logical" name="LHFCALC"> T  </i>
  <i type="int" name="LMAXFOCK">     4</i>
  <i name="AEXX">      0.35000000</i>
  <i type="string" name="PRECFOCK">Fast</i>
 </incar>
 <primitive_cell>
  <structure name="primitive_cell" >
   <crystal>
    <varray name="basis" >
     <v>       0.00000000      12.28047342       0.00000000 </v>
     <v>       9.14270205       0.00000000       0.00000000 </v>
     <v>       0.00000000      -2.76826177     -11.30069772 </v>
    </varray>
    <i name="volume">   1268.80515525 </i>
    <varray name="rec_basis" >
     <v>       0.00000000       0.08143009      -0.01994742 </v>
     <v>       0.10937686      -0.00000000       0.00000000 </v>
     <v>       0.00000000       0.00000000      -0.08849011 </v>
    </varray>
   </crystal>
   <varray name="positions" >
    <v>       0.64677555       0.00477655       0.15485943 </v>
    <v>       0.66545090       0.00495812       0.66261345 </v>
    <v>       0.64648163       0.33376377       0.15608782 </v>
    <v>       0.66489513       0.32761834       0.65968366 </v>
    <v>       0.64439819       0.67184451       0.15795552 </v>
    <v>       0.66516753       0.66424191       0.66163160 </v>
    <v>       0.83079788       0.17102179       0.34129924 </v>
    <v>       0.85624051       0.16090346       0.85755479 </v>
    <v>       0.83093513       0.49904471       0.34062730 </v>
    <v>       0.84881178       0.49487377       0.84086777 </v>
    <v>       0.82877802       0.83460303       0.34475697 </v>
    <v>       0.84277342       0.82736099       0.84908006 </v>
    <v>       0.57396532       0.16710045       0.39351406 </v>
    <v>       0.58352607       0.17117553       0.89667172 </v>
    <v>       0.59481652       0.50689729       0.40569662 </v>
    <v>       0.60000655       0.50451709       0.89792064 </v>
    <v>       0.58731024       0.83370842       0.40310184 </v>
    <v>       0.59419012       0.83730011       0.89810953 </v>
    <v>       0.90533890       0.98983173       0.11014877 </v>
    <v>       0.90055669       0.96750471       0.60204000 </v>
    <v>       0.90951362       0.36052912       0.10222268 </v>
    <v>       0.91306450       0.33432676       0.60185255 </v>
    <v>       0.89254613       0.62239254       0.10522525 </v>
    <v>       0.89902315       0.70418609       0.59762153 </v>
    <v>       0.14923271       0.16236785       0.66782332 </v>
    <v>       0.17795445       0.47682773       0.15748502 </v>
    <v>       0.14781373       0.50260131       0.65578559 </v>
    <v>       0.13371538       0.82815920       0.12997736 </v>
    <v>       0.17628224       0.83279584       0.64710102 </v>
    <v>       0.33056134       0.00409554       0.33291065 </v>
    <v>       0.34016260       0.00706516       0.84877200 </v>
    <v>       0.34088992       0.33237825       0.35051497 </v>
    <v>       0.34048062       0.34102674       0.83394802 </v>
    <v>       0.33400512       0.67080125       0.34028403 </v>
    <v>       0.34704319       0.66689803       0.83307274 </v>
    <v>       0.08514041       0.00141223       0.39778468 </v>
    <v>       0.11798687       0.98145261       0.94526138 </v>
    <v>       0.08681001       0.33016262       0.39502985 </v>
    <v>       0.10485636       0.33019038       0.93229954 </v>
    <v>       0.08539113       0.66635219       0.38948246 </v>
    <v>       0.09100220       0.66443549       0.89217214 </v>
    <v>       0.36773585       0.18366288       0.09444891 </v>
    <v>       0.41000238       0.16598526       0.60563704 </v>
    <v>       0.40175768       0.50535797       0.09670550 </v>
    <v>       0.41328458       0.49888420       0.60093465 </v>
    <v>       0.38918330       0.86076884       0.09560038 </v>
    <v>       0.41639723       0.83382095       0.59482750 </v>
    <v>       0.95518635       0.17251049       0.13317615 </v>
    <v>       0.98683861       0.15382529       0.63141874 </v>
    <v>       0.04928629       0.40294476       0.06342997 </v>
    <v>       0.98515802       0.51673968       0.61168671 </v>
    <v>       0.97127872       0.80188068       0.12488809 </v>
    <v>       0.02986404       0.83371736       0.63840317 </v>
    <v>       0.49692304       0.99346586       0.39108991 </v>
    <v>       0.50312520       0.99821191       0.86167611 </v>
    <v>       0.50650487       0.34606919       0.39613719 </v>
    <v>       0.50794808       0.34587954       0.85983421 </v>
    <v>       0.50154789       0.66718258       0.38499384 </v>
    <v>       0.51030464       0.66850295       0.86325423 </v>
    <v>       0.65862312       0.16938720       0.27955922 </v>
    <v>       0.67140121       0.16779138       0.78276782 </v>
    <v>       0.65738127       0.50233063       0.27664055 </v>
    <v>       0.67442788       0.49561443       0.77748020 </v>
    <v>       0.65849570       0.83700614       0.28013474 </v>
    <v>       0.67539713       0.83271047       0.78071618 </v>
    <v>       0.81451868       0.99340182       0.22083579 </v>
    <v>       0.82934613       0.01029584       0.73302928 </v>
    <v>       0.81236726       0.33483090       0.22572525 </v>
    <v>       0.83223200       0.32736888       0.72035069 </v>
    <v>       0.81030037       0.67247502       0.22197384 </v>
    <v>       0.82699813       0.65554229       0.72460693 </v>
    <v>       0.81884024       0.00841596       0.43941862 </v>
    <v>       0.82899948       0.99070043       0.95114129 </v>
    <v>       0.82233188       0.33649685       0.44900043 </v>
    <v>       0.82767457       0.33342492       0.94045309 </v>
    <v>       0.81466825       0.65984939       0.43852784 </v>
    <v>       0.82202958       0.65823820       0.94252419 </v>
    <v>       0.66327472       0.17093778       0.05279984 </v>
    <v>       0.66468127       0.16470156       0.55112673 </v>
    <v>       0.66173656       0.50416919       0.05707398 </v>
    <v>       0.67445515       0.49904529       0.55980053 </v>
    <v>       0.66303101       0.83555866       0.05594234 </v>
    <v>       0.66276548       0.83390589       0.55966069 </v>
    <v>       0.49162728       0.01232263       0.12445041 </v>
    <v>       0.50106702       0.00156501       0.63020676 </v>
    <v>       0.48818734       0.33903365       0.12343222 </v>
    <v>       0.50057639       0.33194284       0.62829163 </v>
    <v>       0.48442095       0.67937402       0.12061635 </v>
    <v>       0.50224617       0.66499642       0.62806416 </v>
    <v>       0.99171214       0.17060246       0.38931830 </v>
    <v>       0.02191924       0.15563765       0.89800530 </v>
    <v>       0.99464588       0.49870466       0.35966776 </v>
    <v>       0.00877757       0.49288987       0.85256814 </v>
    <v>       0.99269554       0.83038486       0.38250555 </v>
    <v>       0.99552323       0.82099932       0.85902759 </v>
    <v>       0.18003083       0.00736565       0.79529303 </v>
    <v>       0.18004930       0.35312353       0.29388061 </v>
    <v>       0.17149300       0.33357399       0.78817374 </v>
    <v>       0.16447215       0.65858247       0.27050976 </v>
    <v>       0.18036712       0.66004170       0.78026572 </v>
    <v>       0.37757423       0.17947953       0.25592359 </v>
    <v>       0.32327978       0.17123831       0.71421710 </v>
    <v>       0.33855744       0.50712329       0.22952800 </v>
    <v>       0.32627695       0.49939479       0.71112428 </v>
    <v>       0.33803871       0.82323371       0.22910150 </v>
    <v>       0.33397895       0.83218196       0.71197555 </v>
    <v>       0.32871367       0.17111635       0.45486544 </v>
    <v>       0.37480600       0.18181462       0.93465168 </v>
    <v>       0.33247974       0.50536375       0.44853677 </v>
    <v>       0.34734022       0.50882074       0.93542582 </v>
    <v>       0.32410468       0.83283151       0.44654888 </v>
    <v>       0.34585177       0.82592786       0.93368594 </v>
    <v>       0.27310748       0.02063481       0.05284337 </v>
    <v>       0.17032714       0.00946407       0.55469342 </v>
    <v>       0.24529345       0.33688448       0.05431154 </v>
    <v>       0.15227318       0.33199583       0.55755943 </v>
    <v>       0.17566677       0.64896886       0.04952166 </v>
    <v>       0.17162596       0.65852467       0.54477634 </v>
    <v>       0.14905879       0.04008073       0.23878753 </v>
   </varray>
  </structure>
  <varray name="primitive_index" >
   <v type="int" >        1 </v>
   <v type="int" >        2 </v>
   <v type="int" >        3 </v>
   <v type="int" >        4 </v>
   <v type="int" >        5 </v>
   <v type="int" >        6 </v>
   <v type="int" >        7 </v>
   <v type="int" >        8 </v>
   <v type="int" >        9 </v>
   <v type="int" >       10 </v>
   <v type="int" >       11 </v>
   <v type="int" >       12 </v>
   <v type="int" >       13 </v>
   <v type="int" >       14 </v>
   <v type="int" >       15 </v>
   <v type="int" >       16 </v>
   <v type="int" >       17 </v>
   <v type="int" >       18 </v>
   <v type="int" >       19 </v>
   <v type="int" >       20 </v>
   <v type="int" >       21 </v>
   <v type="int" >       22 </v>
   <v type="int" >       23 </v>
   <v type="int" >       24 </v>
   <v type="int" >       25 </v>
   <v type="int" >       26 </v>
   <v type="int" >       27 </v>
   <v type="int" >       28 </v>
   <v type="int" >       29 </v>
   <v type="int" >       30 </v>
   <v type="int" >       31 </v>
   <v type="int" >       32 </v>
   <v type="int" >       33 </v>
   <v type="int" >       34 </v>
   <v type="int" >       35 </v>
   <v type="int" >       36 </v>
   <v type="int" >       37 </v>
   <v type="int" >       38 </v>
   <v type="int" >       39 </v>
   <v type="int" >       40 </v>
   <v type="int" >       41 </v>
   <v type="int" >       42 </v>
   <v type="int" >       43 </v>
   <v type="int" >       44 </v>
   <v type="int" >       45 </v>
   <v type="int" >       46 </v>
   <v type="int" >       47 </v>
   <v type="int" >       48 </v>
   <v type="int" >       49 </v>
   <v type="int" >       50 </v>
   <v type="int" >       51 </v>
   <v type="int" >       52 </v>
   <v type="int" >       53 </v>
   <v type="int" >       54 </v>
   <v type="int" >       55 </v>
   <v type="int" >       56 </v>
   <v type="int" >       57 </v>
   <v type="int" >       58 </v>
   <v type="int" >       59 </v>
   <v type="int" >       60 </v>
   <v type="int" >       61 </v>
   <v type="int" >       62 </v>
   <v type="int" >       63 </v>
   <v type="int" >       64 </v>
   <v type="int" >       65 </v>
   <v type="int" >       66 </v>
   <v type="int" >       67 </v>
   <v type="int" >       68 </v>
   <v type="int" >       69 </v>
   <v type="int" >       70 </v>
   <v type="int" >       71 </v>
   <v type="int" >       72 </v>
   <v type="int" >       73 </v>
   <v type="int" >       74 </v>
   <v type="int" >       75 </v>
   <v type="int" >       76 </v>
   <v type="int" >       77 </v>
   <v type="int" >       78 </v>
   <v type="int" >       79 </v>
   <v type="int" >       80 </v>
   <v type="int" >       81 </v>
   <v type="int" >       82 </v>
   <v type="int" >       83 </v>
   <v type="int" >       84 </v>
   <v type="int" >       85 </v>
   <v type="int" >       86 </v>
   <v type="int" >       87 </v>
   <v type="int" >       88 </v>
   <v type="int" >       89 </v>
   <v type="int" >       90 </v>
   <v type="int" >       91 </v>
   <v type="int" >       92 </v>
   <v type="int" >       93 </v>
   <v type="int" >       94 </v>
   <v type="int" >       95 </v>
   <v type="int" >       96 </v>
   <v type="int" >       97 </v>
   <v type="int" >       98 </v>
   <v type="int" >       99 </v>
   <v type="int" >      100 </v>
   <v type="int" >      101 </v>
   <v type="int" >      102 </v>
   <v type="int" >      103 </v>
   <v type="int" >      104 </v>
   <v type="int" >      105 </v>
   <v type="int" >      106 </v>
   <v type="int" >      107 </v>
   <v type="int" >      108 </v>
   <v type="int" >      109 </v>
   <v type="int" >      110 </v>
   <v type="int" >      111 </v>
   <v type="int" >      112 </v>
   <v type="int" >      113 </v>
   <v type="int" >      114 </v>
   <v type="int" >      115 </v>
   <v type="int" >      116 </v>
   <v type="int" >      117 </v>
   <v type="int" >      118 </v>
   <v type="int" >      119 </v>
  </varray>
 </primitive_cell>
 <kpoints>
  <generation param="Gamma">
   <v type="int" name="divisions">       2        2        2 </v>
   <v name="usershift">      0.00000000       0.00000000       0.00000000 </v>
   <v name="genvec1">      0.50000000       0.00000000       0.00000000 </v>
   <v name="genvec2">      0.00000000       0.50000000       0.00000000 </v>
   <v name="genvec3">      0.00000000       0.00000000       0.50000000 </v>
   <v name="shift">      0.00000000       0.00000000       0.00000000 </v>
  </generation>
  <varray name="kpointlist" >
   <v>       0.00000000       0.00000000       0.00000000 </v>
   <v>       0.50000000       0.00000000       0.00000000 </v>
   <v>       0.00000000       0.50000000       0.00000000 </v>
   <v>       0.50000000       0.50000000       0.00000000 </v>
   <v>       0.00000000       0.00000000       0.50000000 </v>
   <v>       0.50000000       0.00000000       0.50000000 </v>
   <v>       0.00000000       0.50000000       0.50000000 </v>
   <v>       0.50000000       0.50000000       0.50000000 </v>
  </varray>
  <varray name="weights" >
   <v>       0.12500000 </v>
   <v>       0.12500000 </v>
   <v>       0.12500000 </v>
   <v>       0.12500000 </v>
   <v>       0.12500000 </v>
   <v>       0.12500000 </v>
   <v>       0.12500000 </v>
   <v>       0.12500000 </v>
  </varray>
 </kpoints>
 <parameters>
  <separator name="general" >
   <i type="string" name="SYSTEM">unknown system</i>
   <i type="logical" name="LCOMPAT"> F  </i>
  </separator>
  <separator name="electronic" >
   <i type="string" name="PREC">normal</i>
   <i name="ENMAX">    450.00000000</i>
   <i name="ENAUG">    605.39200000</i>
   <i name="EDIFF">      0.00001000</i>
   <i type="int" name="IALGO">    58</i>
   <i type="int" name="IWAVPR">    10</i>
   <i type="int" name="NBANDS">   633</i>
   <i type="int" name="NBANDSLOW">    -1</i>
   <i type="int" name="NBANDSHIGH">    -1</i>
   <i name="NELECT">   1056.00000000</i>
   <i type="int" name="TURBO">     0</i>
   <i type="int" name="IRESTART">     0</i>
   <i type="int" name="NREBOOT">     0</i>
   <i type="int" name="NMIN">     0</i>
   <i name="EREF">      0.00000000</i>
   <separator name="electronic smearing" >
    <i type="int" name="ISMEAR">     0</i>
    <i name="SIGMA">      0.05000000</i>
    <i name="KSPACING">      0.50000000</i>
    <i type="logical" name="KGAMMA"> T  </i>
    <i type="logical" name="KBLOWUP"> T  </i>
   </separator>
   <separator name="electronic projectors" >
    <i type="logical" name="LREAL"> T  </i>
    <v name="ROPT">     -0.00050000     -0.00050000     -0.00050000</v>
    <i type="int" name="LMAXPAW">  -100</i>
    <i type="int" name="LMAXMIX">     2</i>
    <i type="logical" name="NLSPLINE"> F  </i>
   </separator>
   <separator name="electronic startup" >
    <i type="int" name="ISTART">     0</i>
    <i type="int" name="ICHARG">     0</i>
    <i type="int" name="INIWAV">     1</i>
   </separator>
   <separator name="electronic spin" >
    <i type="int" name="ISPIN">     1</i>
    <i type="logical" name="LNONCOLLINEAR"> F  </i>
    <v name="MAGMOM">      1.00000000      1.00000000      1.00000000      1.00000000      1.00000000      1.00000000      1.00000000      1.00000000      1.00000000      1.00000000      1.00000000      1.00000000      1.00000000      1.00000000      1.00000000      1.00000000      1.00000000      1.00000000      1.00000000      1.00000000
      1.00000000      1.00000000      1.00000000      1.00000000      1.00000000      1.00000000      1.00000000      1.00000000      1.00000000      1.00000000      1.00000000      1.00000000      1.00000000      1.00000000      1.00000000      1.00000000      1.00000000      1.00000000      1.00000000      1.00000000
      1.00000000      1.00000000      1.00000000      1.00000000      1.00000000      1.00000000      1.00000000      1.00000000      1.00000000      1.00000000      1.00000000      1.00000000      1.00000000      1.00000000      1.00000000      1.00000000      1.00000000      1.00000000      1.00000000      1.00000000
      1.00000000      1.00000000      1.00000000      1.00000000      1.00000000      1.00000000      1.00000000      1.00000000      1.00000000      1.00000000      1.00000000      1.00000000      1.00000000      1.00000000      1.00000000      1.00000000      1.00000000      1.00000000      1.00000000      1.00000000
      1.00000000      1.00000000      1.00000000      1.00000000      1.00000000      1.00000000      1.00000000      1.00000000      1.00000000      1.00000000      1.00000000      1.00000000      1.00000000      1.00000000      1.00000000      1.00000000      1.00000000      1.00000000      1.00000000      1.00000000
      1.00000000      1.00000000      1.00000000      1.00000000      1.00000000      1.00000000      1.00000000      1.00000000      1.00000000      1.00000000      1.00000000      1.00000000      1.00000000      1.00000000      1.00000000      1.00000000      1.00000000      1.00000000      1.00000000</v>
    <i name="NUPDOWN">     -1.00000000</i>
    <i type="logical" name="LSORBIT"> F  </i>
    <v name="SAXIS">      0.00000000      0.00000000      1.00000000</v>
    <i type="logical" name="LSPIRAL"> F  </i>
    <v name="QSPIRAL">      0.00000000      0.00000000      0.00000000</v>
    <i type="logical" name="LZEROZ"> F  </i>
   </separator>
   <separator name="electronic exchange-correlation" >
    <i type="logical" name="LASPH"> F  </i>
    <i type="logical" name="LMETAGGA"> F  </i>
   </separator>
   <separator name="electronic convergence" >
    <i type="int" name="NELM">   500</i>
    <i type="int" name="NELMDL">    -5</i>
    <i type="int" name="NELMIN">     2</i>
    <i name="ENINI">    450.00000000</i>
    <separator name="electronic convergence detail" >
     <i type="logical" name="LDIAG"> T  </i>
     <i type="logical" name="LSUBROT"> F  </i>
     <i name="WEIMIN">      0.00000000</i>
     <i name="EBREAK">      0.00000000</i>
     <i name="DEPER">      0.30000000</i>
     <i type="int" name="NRMM">     4</i>
     <i name="TIME">      0.40000000</i>
    </separator>
   </separator>
   <separator name="electronic mixer" >
    <i name="AMIX">      0.40000000</i>
    <i name="BMIX">      1.00000000</i>
    <i name="AMIN">      0.10000000</i>
    <i name="AMIX_MAG">      1.60000000</i>
    <i name="BMIX_MAG">      1.00000000</i>
    <separator name="electronic mixer details" >
     <i type="int" name="IMIX">     4</i>
     <i type="logical" name="MIXFIRST"> F  </i>
     <i type="int" name="MAXMIX">   -45</i>
     <i name="WC">    100.00000000</i>
     <i type="int" name="INIMIX">     1</i>
     <i type="int" name="MIXPRE">     1</i>
     <i type="int" name="MREMOVE">     5</i>
    </separator>
   </separator>
   <separator name="electronic dipolcorrection" >
    <i type="logical" name="LDIPOL"> F  </i>
    <i type="logical" name="LMONO"> F  </i>
    <i type="int" name="IDIPOL">     0</i>
    <i name="EPSILON">      1.00000000</i>
    <v name="DIPOL">   -100.00000000   -100.00000000   -100.00000000</v>
    <i name="EFIELD">      0.00000000</i>
   </separator>
  </separator>
  <separator name="grids" >
   <i type="int" name="NGX">    64</i>
   <i type="int" name="NGY">    48</i>
   <i type="int" name="NGZ">    60</i>
   <i type="int" name="NGXF">   128</i>
   <i type="int" name="NGYF">    96</i>
   <i type="int" name="NGZF">   120</i>
   <i type="logical" name="ADDGRID"> F  </i>
  </separator>
  <separator name="ionic" >
   <i type="int" name="NSW">     0</i>
   <i type="int" name="IBRION">    -1</i>
   <i type="int" name="MDALGO">     0</i>
   <i type="int" name="ISIF">     2</i>
   <i name="PSTRESS">      0.00000000</i>
   <i name="EDIFFG">     -0.00500000</i>
   <i type="int" name="NFREE">     0</i>
   <i name="POTIM">      0.50000000</i>
   <i name="SMASS">     -3.00000000</i>
   <i name="SCALEE">      1.00000000</i>
  </separator>
  <separator name="ionic md" >
   <i name="TEBEG">      0.00010000</i>
   <i name="TEEND">      0.00010000</i>
   <i type="int" name="NBLOCK">     1</i>
   <i type="int" name="KBLOCK">     1</i>
   <i type="int" name="NPACO">   256</i>
   <i name="APACO">     10.00000000</i>
  </separator>
  <separator name="symmetry" >
   <i type="int" name="ISYM">     3</i>
   <i name="SYMPREC">      0.00001000</i>
  </separator>
  <separator name="dos" >
   <i type="int" name="LORBIT">     0</i>
   <v name="RWIGS">     -1.00000000     -1.00000000     -1.00000000</v>
   <i type="int" name="NEDOS">   301</i>
   <i name="EMIN">     10.00000000</i>
   <i name="EMAX">    -10.00000000</i>
   <i name="EFERMI">      0.00000000</i>
  </separator>
  <separator name="writing" >
   <i type="int" name="NWRITE">     2</i>
   <i type="logical" name="LWAVE"> T  </i>
   <i type="logical" name="LDOWNSAMPLE"> F  </i>
   <i type="logical" name="LCHARG"> T  </i>
   <i type="logical" name="LPARD"> F  </i>
   <i type="logical" name="LVTOT"> F  </i>
   <i type="logical" name="LVHAR"> F  </i>
   <i type="logical" name="LELF"> F  </i>
   <i type="logical" name="LOPTICS"> F  </i>
   <v name="STM">      0.00000000      0.00000000      0.00000000      0.00000000      0.00000000      0.00000000      0.00000000</v>
  </separator>
  <separator name="performance" >
   <i type="int" name="NPAR">     1</i>
   <i type="int" name="NSIM">     4</i>
   <i type="int" name="NBLK">    -1</i>
   <i type="logical" name="LPLANE"> T  </i>
   <i type="logical" name="LSCALAPACK"> T  </i>
   <i type="logical" name="LSCAAWARE"> F  </i>
   <i type="logical" name="LSCALU"> F  </i>
   <i type="logical" name="LASYNC"> F  </i>
   <i type="logical" name="LORBITALREAL"> F  </i>
  </separator>
  <separator name="miscellaneous" >
   <i type="int" name="IDIOT">     3</i>
   <i type="int" name="PHON_NSTRUCT">    -1</i>
   <i type="logical" name="LMUSIC"> F  </i>
   <v name="POMASS">     69.72300000     16.00000000     30.97400000</v>
   <v name="DARWINR">      0.00000000      0.00000000      0.00000000</v>
   <v name="DARWINV">      1.00000000      1.00000000      1.00000000</v>
   <i type="logical" name="LCORR"> T  </i>
  </separator>
  <i type="logical" name="GGA_COMPAT"> T  </i>
  <i type="logical" name="LBERRY"> F  </i>
  <i type="int" name="ICORELEVEL">     0</i>
  <i type="logical" name="LDAU"> F  </i>
  <i type="int" name="I_CONSTRAINED_M">     0</i>
  <separator name="electronic exchange-correlation" >
   <i type="string" name="GGA">--</i>
   <i type="int" name="VOSKOWN">     0</i>
   <i type="logical" name="LHFCALC"> T  </i>
   <i type="string" name="PRECFOCK">fast</i>
   <i type="logical" name="LSYMGRAD"> F  </i>
   <i type="logical" name="LHFONE"> F  </i>
   <i type="logical" name="LRHFCALC"> F  </i>
   <i type="logical" name="LTHOMAS"> F  </i>
   <i type="logical" name="LMODELHF"> F  </i>
   <i type="logical" name="LFOCKACE"> T  </i>
   <i name="ENCUT4O">     -1.00000000</i>
   <i type="int" name="EXXOEP">     0</i>
   <i type="int" name="FOURORBIT">     0</i>
   <i name="AEXX">      0.35000000</i>
   <i name="HFALPHA">     -1.00000000</i>
   <i name="MCALPHA">      0.00000000</i>
   <i name="ALDAX">      0.65000000</i>
   <i name="AGGAX">      0.65000000</i>
   <i name="ALDAC">      1.00000000</i>
   <i name="AGGAC">      1.00000000</i>
   <i type="int" name="NKREDX">     1</i>
   <i type="int" name="NKREDY">     1</i>
   <i type="int" name="NKREDZ">     1</i>
   <i type="logical" name="SHIFTRED"> F  </i>
   <i type="logical" name="ODDONLY"> F  </i>
   <i type="logical" name="EVENONLY"> F  </i>
   <i type="int" name="LMAXFOCK">     4</i>
   <i type="int" name="NMAXFOCKAE">     1</i>
   <i type="logical" name="LFOCKAEDFT"> F  </i>
   <i name="HFSCREEN">      0.18000000</i>
   <i name="HFSCREENC">      0.18000000</i>
   <i type="int" name="NBANDSGWLOW">     1</i>
  </separator>
  <separator name="vdW DFT" >
   <i type="logical" name="LUSE_VDW"> F  </i>
   <i type="int" name="IVDW_NL">     1</i>
   <i type="logical" name="LSPIN_VDW"> F  </i>
   <i name="Zab_VDW">     -0.84910000</i>
   <i name="PARAM1">      0.12340000</i>
   <i name="PARAM2">      1.00000000</i>
   <i name="PARAM3">      0.00000000</i>
  </separator>
  <separator name="model GW" >
   <i type="int" name="MODEL_GW">     0</i>
   <i name="MODEL_EPS0">      6.39733692</i>
   <i name="MODEL_ALPHA">      1.00000000</i>
  </separator>
  <separator name="linear response parameters" >
   <i type="logical" name="LEPSILON"> F  </i>
   <i type="logical" name="LRPA"> F  </i>
   <i type="logical" name="LNABLA"> F  </i>
   <i type="logical" name="LVEL"> F  </i>
   <i name="CSHIFT">      0.10000000</i>
   <i name="OMEGAMAX">     -1.00000000</i>
   <i name="DEG_THRESHOLD">      0.00200000</i>
   <i name="RTIME">     -0.10000000</i>
   <i name="WPLASMAI">      0.00000000</i>
   <v name="DFIELD">      0.00000000      0.00000000      0.00000000</v>
   <v name="WPLASMA">      0.00000000      0.00000000      0.00000000      0.00000000      0.00000000      0.00000000      0.00000000      0.00000000      0.00000000</v>
  </separator>
  <separator name="orbital magnetization" >
   <i type="logical" name="NUCIND"> F  </i>
   <v name="MAGPOS">      0.00000000      0.00000000      0.00000000</v>
   <i type="logical" name="LNICSALL"> T  </i>
   <i type="logical" name="ORBITALMAG"> F  </i>
   <i type="logical" name="LMAGBLOCH"> F  </i>
   <i type="logical" name="LCHIMAG"> F  </i>
   <i type="logical" name="LGAUGE"> T  </i>
   <i type="int" name="MAGATOM">     0</i>
   <v name="MAGDIPOL">      0.00000000      0.00000000      0.00000000</v>
   <v name="AVECCONST">      0.00000000      0.00000000      0.00000000</v>
  </separator>
  <separator name="response functions" >
   <i type="logical" name="LALL_IN_ONE"> F  </i>
   <i type="int" name="IALL_IN_ONE">    -1</i>
   <i type="int" name="NBANDS_WAVE">    -1</i>
   <i type="logical" name="LFINITE_TEMPERATURE"> F  </i>
   <i type="logical" name="LADDER"> F  </i>
   <i type="logical" name="LRPAFORCE"> F  </i>
   <i type="logical" name="LFXC"> F  </i>
   <i type="logical" name="LHARTREE"> T  </i>
   <i type="int" name="IBSE">     0</i>
   <v type="int" name="KPOINT">    -1     0     0     0</v>
   <i type="logical" name="LTCTC"> F  </i>
   <i type="logical" name="LTCTE"> F  </i>
   <i type="logical" name="LTETE"> F  </i>
   <i type="logical" name="LTRIPLET"> F  </i>
   <i type="logical" name="LFXCEPS"> F  </i>
   <i type="logical" name="LFXHEG"> F  </i>
   <i type="int" name="NATURALO">     2</i>
   <i type="logical" name="LHOLEGF"> F  </i>
   <i type="logical" name="L2ORDER"> F  </i>
   <i type="logical" name="LDMP1"> F  </i>
   <i type="logical" name="LMP2LT"> F  </i>
   <i type="logical" name="LSMP2LT"> F  </i>
   <i type="logical" name="LGWLF"> F  </i>
   <i name="ENCUTGW">     -1.60000002</i>
   <i name="ENCUTGWSOFT">     -1.60000002</i>
   <i name="ENCUTLF">     -1.00000000</i>
   <i type="logical" name="LESF_SPLINES"> F  </i>
   <i type="int" name="LMAXMP2">    -1</i>
   <i name="SCISSOR">      0.00000000</i>
   <i type="int" name="NOMEGA">     0</i>
   <i type="int" name="NOMEGAR">     0</i>
   <i type="int" name="NBANDSGW">    -1</i>
   <i type="int" name="NBANDSO">    -1</i>
   <i type="int" name="NBANDSV">    -1</i>
   <i type="int" name="NELMGW">     1</i>
   <i type="int" name="NELMHF">     1</i>
   <i type="int" name="DIM">     3</i>
   <i type="int" name="IESPILON">     4</i>
   <i type="int" name="ANTIRES">     0</i>
   <i name="OMEGAMAX">    -30.00000000</i>
   <i name="OMEGAMIN">    -30.00000000</i>
   <i name="OMEGATL">   -200.00000000</i>
   <i type="int" name="OMEGAGRID">     0</i>
   <i name="CSHIFT">     -0.10000000</i>
   <i type="logical" name="LSELFENERGY"> F  </i>
   <i type="logical" name="LSPECTRAL"> F  </i>
   <i type="logical" name="LSPECTRALGW"> F  </i>
   <i type="logical" name="LSINGLES"> F  </i>
   <i type="logical" name="LFERMIGW"> F  </i>
   <i type="logical" name="ODDONLYGW"> F  </i>
   <i type="logical" name="EVENONLYGW"> F  </i>
   <i type="int" name="NKREDLFX">     1</i>
   <i type="int" name="NKREDLFY">     1</i>
   <i type="int" name="NKREDLFZ">     1</i>
   <i type="int" name="MAXMEM">  2800</i>
   <i type="int" name="TELESCOPE">     0</i>
   <i type="int" name="NTAUPAR">    -1</i>
   <i type="int" name="NOMEGAPAR">    -1</i>
   <i name="DAMP_NEWTON">      0.80000001</i>
   <i name="LAMBDA">      1.00000000</i>
  </separator>
  <separator name="External order field" >
   <i name="OFIELD_KAPPA">      0.00000000</i>
   <v name="OFIELD_K">      0.00000000      0.00000000      0.00000000</v>
   <i name="OFIELD_Q6_NEAR">      0.00000000</i>
   <i name="OFIELD_Q6_FAR">      0.00000000</i>
   <i name="OFIELD_A">      0.00000000</i>
  </separator>
  <separator name="optional k-points parameters" >
   <i type="int" name="KPOINTS_OPT_MODE">     1</i>
   <i type="logical" name="LKPOINTS_OPT"> F  </i>
  </separator>
 </parameters>
 <atominfo>
  <atoms>     119 </atoms>
  <types>       3 </types>
  <array name="atoms" >
   <dimension dim="1">ion</dimension>
   <field type="string">element</field>
   <field type="int">atomtype</field>
   <set>
    <rc><c>Ga</c><c>   1</c></rc>
    <rc><c>Ga</c><c>   1</c></rc>
    <rc><c>Ga</c><c>   1</c></rc>
    <rc><c>Ga</c><c>   1</c></rc>
    <rc><c>Ga</c><c>   1</c></rc>
    <rc><c>Ga</c><c>   1</c></rc>
    <rc><c>Ga</c><c>   1</c></rc>
    <rc><c>Ga</c><c>   1</c></rc>
    <rc><c>Ga</c><c>   1</c></rc>
    <rc><c>Ga</c><c>   1</c></rc>
    <rc><c>Ga</c><c>   1</c></rc>
    <rc><c>Ga</c><c>   1</c></rc>
    <rc><c>Ga</c><c>   1</c></rc>
    <rc><c>Ga</c><c>   1</c></rc>
    <rc><c>Ga</c><c>   1</c></rc>
    <rc><c>Ga</c><c>   1</c></rc>
    <rc><c>Ga</c><c>   1</c></rc>
    <rc><c>Ga</c><c>   1</c></rc>
    <rc><c>Ga</c><c>   1</c></rc>
    <rc><c>Ga</c><c>   1</c></rc>
    <rc><c>Ga</c><c>   1</c></rc>
    <rc><c>Ga</c><c>   1</c></rc>
    <rc><c>Ga</c><c>   1</c></rc>
    <rc><c>Ga</c><c>   1</c></rc>
    <rc><c>Ga</c><c>   1</c></rc>
    <rc><c>Ga</c><c>   1</c></rc>
    <rc><c>Ga</c><c>   1</c></rc>
    <rc><c>Ga</c><c>   1</c></rc>
    <rc><c>Ga</c><c>   1</c></rc>
    <rc><c>Ga</c><c>   1</c></rc>
    <rc><c>Ga</c><c>   1</c></rc>
    <rc><c>Ga</c><c>   1</c></rc>
    <rc><c>Ga</c><c>   1</c></rc>
    <rc><c>Ga</c><c>   1</c></rc>
    <rc><c>Ga</c><c>   1</c></rc>
    <rc><c>Ga</c><c>   1</c></rc>
    <rc><c>Ga</c><c>   1</c></rc>
    <rc><c>Ga</c><c>   1</c></rc>
    <rc><c>Ga</c><c>   1</c></rc>
    <rc><c>Ga</c><c>   1</c></rc>
    <rc><c>Ga</c><c>   1</c></rc>
    <rc><c>Ga</c><c>   1</c></rc>
    <rc><c>Ga</c><c>   1</c></rc>
    <rc><c>Ga</c><c>   1</c></rc>
    <rc><c>Ga</c><c>   1</c></rc>
    <rc><c>Ga</c><c>   1</c></rc>
    <rc><c>Ga</c><c>   1</c></rc>
    <rc><c>O </c><c>   2</c></rc>
    <rc><c>O </c><c>   2</c></rc>
    <rc><c>O </c><c>   2</c></rc>
    <rc><c>O </c><c>   2</c></rc>
    <rc><c>O </c><c>   2</c></rc>
    <rc><c>O </c><c>   2</c></rc>
    <rc><c>O </c><c>   2</c></rc>
    <rc><c>O </c><c>   2</c></rc>
    <rc><c>O </c><c>   2</c></rc>
    <rc><c>O </c><c>   2</c></rc>
    <rc><c>O </c><c>   2</c></rc>
    <rc><c>O </c><c>   2</c></rc>
    <rc><c>O </c><c>   2</c></rc>
    <rc><c>O </c><c>   2</c></rc>
    <rc><c>O </c><c>   2</c></rc>
    <rc><c>O </c><c>   2</c></rc>
    <rc><c>O </c><c>   2</c></rc>
    <rc><c>O </c><c>   2</c></rc>
    <rc><c>O </c><c>   2</c></rc>
    <rc><c>O </c><c>   2</c></rc>
    <rc><c>O </c><c>   2</c></rc>
    <rc><c>O </c><c>   2</c></rc>
    <rc><c>O </c><c>   2</c></rc>
    <rc><c>O </c><c>   2</c></rc>
    <rc><c>O </c><c>   2</c></rc>
    <rc><c>O </c><c>   2</c></rc>
    <rc><c>O </c><c>   2</c></rc>
    <rc><c>O </c><c>   2</c></rc>
    <rc><c>O </c><c>   2</c></rc>
    <rc><c>O </c><c>   2</c></rc>
    <rc><c>O </c><c>   2</c></rc>
    <rc><c>O </c><c>   2</c></rc>
    <rc><c>O </c><c>   2</c></rc>
    <rc><c>O </c><c>   2</c></rc>
    <rc><c>O </c><c>   2</c></rc>
    <rc><c>O </c><c>   2</c></rc>
    <rc><c>O </c><c>   2</c></rc>
    <rc><c>O </c><c>   2</c></rc>
    <rc><c>O </c><c>   2</c></rc>
    <rc><c>O </c><c>   2</c></rc>
    <rc><c>O </c><c>   2</c></rc>
    <rc><c>O </c><c>   2</c></rc>
    <rc><c>O </c><c>   2</c></rc>
    <rc><c>O </c><c>   2</c></rc>
    <rc><c>O </c><c>   2</c></rc>
    <rc><c>O </c><c>   2</c></rc>
    <rc><c>O </c><c>   2</c></rc>
    <rc><c>O </c><c>   2</c></rc>
    <rc><c>O </c><c>   2</c></rc>
    <rc><c>O </c><c>   2</c></rc>
    <rc><c>O </c><c>   2</c></rc>
    <rc><c>O </c><c>   2</c></rc>
    <rc><c>O </c><c>   2</c></rc>
    <rc><c>O </c><c>   2</c></rc>
    <rc><c>O </c><c>   2</c></rc>
    <rc><c>O </c><c>   2</c></rc>
    <rc><c>O </c><c>   2</c></rc>
    <rc><c>O </c><c>   2</c></rc>
    <rc><c>O </c><c>   2</c></rc>
    <rc><c>O </c><c>   2</c></rc>
    <rc><c>O </c><c>   2</c></rc>
    <rc><c>O </c><c>   2</c></rc>
    <rc><c>O </c><c>   2</c></rc>
    <rc><c>O </c><c>   2</c></rc>
    <rc><c>O </c><c>   2</c></rc>
    <rc><c>O </c><c>   2</c></rc>
    <rc><c>O </c><c>   2</c></rc>
    <rc><c>O </c><c>   2</c></rc>
    <rc><c>O </c><c>   2</c></rc>
    <rc><c>O </c><c>   2</c></rc>
    <rc><c>O </c><c>   2</c></rc>
    <rc><c>P </c><c>   3</c></rc>
   </set>
  </array>
  <array name="atomtypes" >
   <dimension dim="1">type</dimension>
   <field type="int">atomspertype</field>
   <field type="string">element</field>
   <field>mass</field>
   <field>valence</field>
   <field type="string">pseudopotential</field>
   <set>
    <rc><c>  47</c><c>Ga</c><c>     69.72300000</c><c>     13.00000000</c><c>  PAW_PBE Ga_d 06Jul2010                </c></rc>
    <rc><c>  71</c><c>O </c><c>     16.00000000</c><c>      6.00000000</c><c>   PAW_PBE O 08Apr2002                  </c></rc>
    <rc><c>   1</c><c>P </c><c>     30.97400000</c><c>      5.00000000</c><c>  PAW_PBE P 06Sep2000                   </c></rc>
   </set>
  </array>
 </atominfo>
 <structure name="initialpos" >
  <crystal>
   <varray name="basis" >
    <v>       0.00000000      12.28047342       0.00000000 </v>
    <v>       9.14270205       0.00000000       0.00000000 </v>
    <v>       0.00000000      -2.76826177     -11.30069772 </v>
   </varray>
   <i name="volume">   1268.80515525 </i>
   <varray name="rec_basis" >
    <v>       0.00000000       0.08143009      -0.01994742 </v>
    <v>       0.10937686      -0.00000000       0.00000000 </v>
    <v>       0.00000000       0.00000000      -0.08849011 </v>
   </varray>
  </crystal>
  <varray name="positions" >
   <v>       0.64677555       0.00477655       0.15485943 </v>
   <v>       0.66545090       0.00495812       0.66261345 </v>
   <v>       0.64648163       0.33376377       0.15608782 </v>
   <v>       0.66489513       0.32761834       0.65968366 </v>
   <v>       0.64439819       0.67184451       0.15795552 </v>
   <v>       0.66516753       0.66424191       0.66163160 </v>
   <v>       0.83079788       0.17102179       0.34129924 </v>
   <v>       0.85624051       0.16090346       0.85755479 </v>
   <v>       0.83093513       0.49904471       0.34062730 </v>
   <v>       0.84881178       0.49487377       0.84086777 </v>
   <v>       0.82877802       0.83460303       0.34475697 </v>
   <v>       0.84277342       0.82736099       0.84908006 </v>
   <v>       0.57396532       0.16710045       0.39351406 </v>
   <v>       0.58352607       0.17117553       0.89667172 </v>
   <v>       0.59481652       0.50689729       0.40569662 </v>
   <v>       0.60000655       0.50451709       0.89792064 </v>
   <v>       0.58731024       0.83370842       0.40310184 </v>
   <v>       0.59419012       0.83730011       0.89810953 </v>
   <v>       0.90533890       0.98983173       0.11014877 </v>
   <v>       0.90055669       0.96750471       0.60204000 </v>
   <v>       0.90951362       0.36052912       0.10222268 </v>
   <v>       0.91306450       0.33432676       0.60185255 </v>
   <v>       0.89254613       0.62239254       0.10522525 </v>
   <v>       0.89902315       0.70418609       0.59762153 </v>
   <v>       0.14923271       0.16236785       0.66782332 </v>
   <v>       0.17795445       0.47682773       0.15748502 </v>
   <v>       0.14781373       0.50260131       0.65578559 </v>
   <v>       0.13371538       0.82815920       0.12997736 </v>
   <v>       0.17628224       0.83279584       0.64710102 </v>
   <v>       0.33056134       0.00409554       0.33291065 </v>
   <v>       0.34016260       0.00706516       0.84877200 </v>
   <v>       0.34088992       0.33237825       0.35051497 </v>
   <v>       0.34048062       0.34102674       0.83394802 </v>
   <v>       0.33400512       0.67080125       0.34028403 </v>
   <v>       0.34704319       0.66689803       0.83307274 </v>
   <v>       0.08514041       0.00141223       0.39778468 </v>
   <v>       0.11798687       0.98145261       0.94526138 </v>
   <v>       0.08681001       0.33016262       0.39502985 </v>
   <v>       0.10485636       0.33019038       0.93229954 </v>
   <v>       0.08539113       0.66635219       0.38948246 </v>
   <v>       0.09100220       0.66443549       0.89217214 </v>
   <v>       0.36773585       0.18366288       0.09444891 </v>
   <v>       0.41000238       0.16598526       0.60563704 </v>
   <v>       0.40175768       0.50535797       0.09670550 </v>
   <v>       0.41328458       0.49888420       0.60093465 </v>
   <v>       0.38918330       0.86076884       0.09560038 </v>
   <v>       0.41639723       0.83382095       0.59482750 </v>
   <v>       0.95518635       0.17251049       0.13317615 </v>
   <v>       0.98683861       0.15382529       0.63141874 </v>
   <v>       0.04928629       0.40294476       0.06342997 </v>
   <v>       0.98515802       0.51673968       0.61168671 </v>
   <v>       0.97127872       0.80188068       0.12488809 </v>
   <v>       0.02986404       0.83371736       0.63840317 </v>
   <v>       0.49692304       0.99346586       0.39108991 </v>
   <v>       0.50312520       0.99821191       0.86167611 </v>
   <v>       0.50650487       0.34606919       0.39613719 </v>
   <v>       0.50794808       0.34587954       0.85983421 </v>
   <v>       0.50154789       0.66718258       0.38499384 </v>
   <v>       0.51030464       0.66850295       0.86325423 </v>
   <v>       0.65862312       0.16938720       0.27955922 </v>
   <v>       0.67140121       0.16779138       0.78276782 </v>
   <v>       0.65738127       0.50233063       0.27664055 </v>
   <v>       0.67442788       0.49561443       0.77748020 </v>
   <v>       0.65849570       0.83700614       0.28013474 </v>
   <v>       0.67539713       0.83271047       0.78071618 </v>
   <v>       0.81451868       0.99340182       0.22083579 </v>
   <v>       0.82934613       0.01029584       0.73302928 </v>
   <v>       0.81236726       0.33483090       0.22572525 </v>
   <v>       0.83223200       0.32736888       0.72035069 </v>
   <v>       0.81030037       0.67247502       0.22197384 </v>
   <v>       0.82699813       0.65554229       0.72460693 </v>
   <v>       0.81884024       0.00841596       0.43941862 </v>
   <v>       0.82899948       0.99070043       0.95114129 </v>
   <v>       0.82233188       0.33649685       0.44900043 </v>
   <v>       0.82767457       0.33342492       0.94045309 </v>
   <v>       0.81466825       0.65984939       0.43852784 </v>
   <v>       0.82202958       0.65823820       0.94252419 </v>
   <v>       0.66327472       0.17093778       0.05279984 </v>
   <v>       0.66468127       0.16470156       0.55112673 </v>
   <v>       0.66173656       0.50416919       0.05707398 </v>
   <v>       0.67445515       0.49904529       0.55980053 </v>
   <v>       0.66303101       0.83555866       0.05594234 </v>
   <v>       0.66276548       0.83390589       0.55966069 </v>
   <v>       0.49162728       0.01232263       0.12445041 </v>
   <v>       0.50106702       0.00156501       0.63020676 </v>
   <v>       0.48818734       0.33903365       0.12343222 </v>
   <v>       0.50057639       0.33194284       0.62829163 </v>
   <v>       0.48442095       0.67937402       0.12061635 </v>
   <v>       0.50224617       0.66499642       0.62806416 </v>
   <v>       0.99171214       0.17060246       0.38931830 </v>
   <v>       0.02191924       0.15563765       0.89800530 </v>
   <v>       0.99464588       0.49870466       0.35966776 </v>
   <v>       0.00877757       0.49288987       0.85256814 </v>
   <v>       0.99269554       0.83038486       0.38250555 </v>
   <v>       0.99552323       0.82099932       0.85902759 </v>
   <v>       0.18003083       0.00736565       0.79529303 </v>
   <v>       0.18004930       0.35312353       0.29388061 </v>
   <v>       0.17149300       0.33357399       0.78817374 </v>
   <v>       0.16447215       0.65858247       0.27050976 </v>
   <v>       0.18036712       0.66004170       0.78026572 </v>
   <v>       0.37757423       0.17947953       0.25592359 </v>
   <v>       0.32327978       0.17123831       0.71421710 </v>
   <v>       0.33855744       0.50712329       0.22952800 </v>
   <v>       0.32627695       0.49939479       0.71112428 </v>
   <v>       0.33803871       0.82323371       0.22910150 </v>
   <v>       0.33397895       0.83218196       0.71197555 </v>
   <v>       0.32871367       0.17111635       0.45486544 </v>
   <v>       0.37480600       0.18181462       0.93465168 </v>
   <v>       0.33247974       0.50536375       0.44853677 </v>
   <v>       0.34734022       0.50882074       0.93542582 </v>
   <v>       0.32410468       0.83283151       0.44654888 </v>
   <v>       0.34585177       0.82592786       0.93368594 </v>
   <v>       0.27310748       0.02063481       0.05284337 </v>
   <v>       0.17032714       0.00946407       0.55469342 </v>
   <v>       0.24529345       0.33688448       0.05431154 </v>
   <v>       0.15227318       0.33199583       0.55755943 </v>
   <v>       0.17566677       0.64896886       0.04952166 </v>
   <v>       0.17162596       0.65852467       0.54477634 </v>
   <v>       0.14905879       0.04008073       0.23878753 </v>
  </varray>
 </structure>
 <calculation>
  <scstep>
   <time name="total">    3.95    3.96</time>
   <energy>
    <i name="alphaZ">   5376.25786726 </i>
    <i name="ewald"> -86397.21290821 </i>
    <i name="hartreedc">  -2111.92512738 </i>
    <i name="XCdc">   2816.02854262 </i>
    <i name="pawpsdc"> 342103.77984986 </i>
    <i name="pawaedc">-373470.09381104 </i>
    <i name="eentropy">     -0.00861234 </i>
    <i name="bandstr"> -40735.32541648 </i>
    <i name="atom"> 131459.35058357 </i>
    <i name="e_fr_energy"> -20959.14903216 </i>
    <i name="e_wo_entrp"> -20959.14041982 </i>
    <i name="e_0_energy"> -20959.14472599 </i>
   </energy>
  </scstep>
  <scstep>
   <time name="total">    3.10    3.10</time>
   <energy>
    <i name="e_fr_energy"> -67549.16531149 </i>
    <i name="e_wo_entrp"> -67549.14525353 </i>
    <i name="e_0_energy"> -67549.15528251 </i>
   </energy>
  </scstep>
  <scstep>
   <time name="total">    3.56    3.56</time>
   <energy>
    <i name="e_fr_energy"> -74025.59336475 </i>
    <i name="e_wo_entrp"> -74025.57015474 </i>
    <i name="e_0_energy"> -74025.58175975 </i>
   </energy>
  </scstep>
  <scstep>
   <time name="total">    3.85    3.85</time>
   <energy>
    <i name="e_fr_energy"> -75008.95035124 </i>
    <i name="e_wo_entrp"> -75008.92577324 </i>
    <i name="e_0_energy"> -75008.93806224 </i>
   </energy>
  </scstep>
  <scstep>
   <time name="total">  234.97  234.94</time>
   <energy>
    <i name="e_fr_energy"> -42570.19936867 </i>
    <i name="e_wo_entrp"> -42570.19936867 </i>
    <i name="e_0_energy"> -42570.19936867 </i>
   </energy>
  </scstep>
  <scstep>
   <time name="total"> 1172.84 1172.67</time>
   <energy>
    <i name="e_fr_energy">  52745.48990691 </i>
    <i name="e_wo_entrp">  52745.50327239 </i>
    <i name="e_0_energy">  52745.49658965 </i>
   </energy>
  </scstep>
  <scstep>
   <time name="total">  468.74  468.68</time>
   <energy>
    <i name="e_fr_energy">  62950.26796133 </i>
    <i name="e_wo_entrp">  62950.27586953 </i>
    <i name="e_0_energy">  62950.27191543 </i>
   </energy>
  </scstep>
  <scstep>
   <time name="total">  468.52  468.46</time>
   <energy>
    <i name="e_fr_energy">  47440.94297425 </i>
    <i name="e_wo_entrp">  47440.95337264 </i>
    <i name="e_0_energy">  47440.94817344 </i>
   </energy>
  </scstep>
  <scstep>
   <time name="total">  468.60  468.54</time>
   <energy>
    <i name="e_fr_energy">  50166.27540041 </i>
    <i name="e_wo_entrp">  50166.27540041 </i>
    <i name="e_0_energy">  50166.27540041 </i>
   </energy>
  </scstep>
  <scstep>
   <time name="total">  468.63  468.57</time>
   <energy>
    <i name="e_fr_energy">  52946.93426548 </i>
    <i name="e_wo_entrp">  52946.93563349 </i>
    <i name="e_0_energy">  52946.93494948 </i>
   </energy>
  </scstep>
  <scstep>
   <time name="total">  468.57  468.50</time>
   <energy>
    <i name="e_fr_energy">  65569.74269020 </i>
    <i name="e_wo_entrp">  65569.74386475 </i>
    <i name="e_0_energy">  65569.74327747 </i>
   </energy>
  </scstep>
  <scstep>
   <time name="total">  468.28  468.21</time>
   <energy>
    <i name="e_fr_energy">  63490.11150083 </i>
    <i name="e_wo_entrp">  63490.12083605 </i>
    <i name="e_0_energy">  63490.11616844 </i>
   </energy>
  </scstep>
  <scstep>
   <time name="total">  468.64  468.58</time>
   <energy>
    <i name="e_fr_energy">  78878.24392157 </i>
    <i name="e_wo_entrp">  78878.24393567 </i>
    <i name="e_0_energy">  78878.24392862 </i>
   </energy>
  </scstep>
  <scstep>
   <time name="total">  468.50  468.45</time>
   <energy>
    <i name="e_fr_energy"> 100071.54965356 </i>
    <i name="e_wo_entrp"> 100071.54980913 </i>
    <i name="e_0_energy"> 100071.54973134 </i>
   </energy>
  </scstep>
  <scstep>
   <time name="total">  468.30  468.23</time>
   <energy>
    <i name="e_fr_energy"> 109752.67953669 </i>
    <i name="e_wo_entrp"> 109752.67953855 </i>
    <i name="e_0_energy"> 109752.67953762 </i>
   </energy>
  </scstep>
  <scstep>
   <time name="total">  468.52  468.44</time>
   <energy>
    <i name="e_fr_energy"> 122063.00652193 </i>
    <i name="e_wo_entrp"> 122063.00652193 </i>
    <i name="e_0_energy"> 122063.00652193 </i>
   </energy>
  </scstep>
  <scstep>
   <time name="total">  468.39  468.33</time>
   <energy>
    <i name="e_fr_energy"> 127764.75616833 </i>
    <i name="e_wo_entrp"> 127764.75618616 </i>
    <i name="e_0_energy"> 127764.75617724 </i>
   </energy>
  </scstep>
  <scstep>
   <time name="total">  468.23  468.17</time>
   <energy>
    <i name="e_fr_energy"> 133804.67095691 </i>
    <i name="e_wo_entrp"> 133804.67095692 </i>
    <i name="e_0_energy"> 133804.67095691 </i>
   </energy>
  </scstep>
  <scstep>
   <time name="total">  468.19  468.13</time>
   <energy>
    <i name="e_fr_energy"> 139446.61247830 </i>
    <i name="e_wo_entrp"> 139446.61370026 </i>
    <i name="e_0_energy"> 139446.61308928 </i>
   </energy>
  </scstep>
  <scstep>
   <time name="total">  468.34  468.26</time>
   <energy>
    <i name="e_fr_energy"> 138303.95588010 </i>
    <i name="e_wo_entrp"> 138303.95595532 </i>
    <i name="e_0_energy"> 138303.95591771 </i>
   </energy>
  </scstep>
  <scstep>
   <time name="total">  468.29  468.22</time>
   <energy>
    <i name="e_fr_energy"> 143427.06724072 </i>
    <i name="e_wo_entrp"> 143427.06898236 </i>
    <i name="e_0_energy"> 143427.06811154 </i>
   </energy>
  </scstep>
  <scstep>
   <time name="total">  468.36  468.29</time>
   <energy>
    <i name="e_fr_energy"> 160712.16208389 </i>
    <i name="e_wo_entrp"> 160712.16208878 </i>
    <i name="e_0_energy"> 160712.16208633 </i>
   </energy>
  </scstep>
  <scstep>
   <time name="total">  468.28  468.21</time>
   <energy>
    <i name="e_fr_energy"> 174608.43999178 </i>
    <i name="e_wo_entrp"> 174608.44242884 </i>
    <i name="e_0_energy"> 174608.44121031 </i>
   </energy>
  </scstep>
  <scstep>
   <time name="total">  468.37  468.30</time>
   <energy>
    <i name="e_fr_energy"> 190801.63211662 </i>
    <i name="e_wo_entrp"> 190801.63716964 </i>
    <i name="e_0_energy"> 190801.63464313 </i>
   </energy>
  </scstep>
  <scstep>
   <time name="total">  468.60  468.53</time>
   <energy>
    <i name="e_fr_energy"> 201368.06802648 </i>
    <i name="e_wo_entrp"> 201368.07544472 </i>
    <i name="e_0_energy"> 201368.07173560 </i>
   </energy>
  </scstep>
  <scstep>
   <time name="total">  468.19  468.12</time>
   <energy>
    <i name="e_fr_energy"> 219061.58180526 </i>
    <i name="e_wo_entrp"> 219061.58180568 </i>
    <i name="e_0_energy"> 219061.58180547 </i>
   </energy>
  </scstep>
  <scstep>
   <time name="total">  468.24  468.17</time>
   <energy>
    <i name="e_fr_energy"> 229847.92265746 </i>
    <i name="e_wo_entrp"> 229847.92268248 </i>
    <i name="e_0_energy"> 229847.92266997 </i>
   </energy>
  </scstep>
  <scstep>
   <time name="total">  468.13  468.07</time>
   <energy>
    <i name="e_fr_energy"> 244245.92430777 </i>
    <i name="e_wo_entrp"> 244245.92440437 </i>
    <i name="e_0_energy"> 244245.92435607 </i>
   </energy>
  </scstep>
  <scstep>
   <time name="total">  468.48  468.40</time>
   <energy>
    <i name="e_fr_energy"> 251646.03208939 </i>
    <i name="e_wo_entrp"> 251646.03329903 </i>
    <i name="e_0_energy"> 251646.03269421 </i>
   </energy>
  </scstep>
  <scstep>
   <time name="total">  468.39  468.30</time>
   <energy>
    <i name="e_fr_energy"> 261821.74997361 </i>
    <i name="e_wo_entrp"> 261821.75604464 </i>
    <i name="e_0_energy"> 261821.75300913 </i>
   </energy>
  </scstep>
  <scstep>
   <time name="total">  468.39  468.30</time>
   <energy>
    <i name="e_fr_energy"> 266943.84135179 </i>
    <i name="e_wo_entrp"> 266943.84408272 </i>
    <i name="e_0_energy"> 266943.84271725 </i>
   </energy>
  </scstep>
  <scstep>
   <time name="total">  468.43  468.36</time>
   <energy>
    <i name="e_fr_energy"> 273119.75957446 </i>
    <i name="e_wo_entrp"> 273119.76193826 </i>
    <i name="e_0_energy"> 273119.76075636 </i>
   </energy>
  </scstep>
  <scstep>
   <time name="total">  468.77  468.70</time>
   <energy>
    <i name="e_fr_energy"> 280065.95233794 </i>
    <i name="e_wo_entrp"> 280065.95776969 </i>
    <i name="e_0_energy"> 280065.95505382 </i>
   </energy>
  </scstep>
  <scstep>
   <time name="total">  468.63  468.54</time>
   <energy>
    <i name="e_fr_energy"> 277380.08084337 </i>
    <i name="e_wo_entrp"> 277380.08730431 </i>
    <i name="e_0_energy"> 277380.08407384 </i>
   </energy>
  </scstep>
  <scstep>
   <time name="total">  468.54  468.46</time>
   <energy>
    <i name="e_fr_energy"> 175758.88583397 </i>
    <i name="e_wo_entrp"> 175758.88583530 </i>
    <i name="e_0_energy"> 175758.88583463 </i>
   </energy>
  </scstep>
  <scstep>
   <time name="total">  468.98  468.90</time>
   <energy>
    <i name="e_fr_energy">  90525.41187936 </i>
    <i name="e_wo_entrp">  90525.41744003 </i>
    <i name="e_0_energy">  90525.41465969 </i>
   </energy>
  </scstep>
  <scstep>
   <time name="total"> 1171.06 1170.85</time>
   <energy>
    <i name="e_fr_energy">  52225.42013772 </i>
    <i name="e_wo_entrp">  52225.42868988 </i>
    <i name="e_0_energy">  52225.42441380 </i>
   </energy>
  </scstep>
  <scstep>
   <time name="total">  468.69  468.62</time>
   <energy>
    <i name="e_fr_energy">  35988.42278614 </i>
    <i name="e_wo_entrp">  35988.42985179 </i>
    <i name="e_0_energy">  35988.42631896 </i>
   </energy>
  </scstep>
  <scstep>
   <time name="total"> 1171.53 1171.35</time>
   <energy>
    <i name="e_fr_energy">  23208.56402248 </i>
    <i name="e_wo_entrp">  23208.57176937 </i>
    <i name="e_0_energy">  23208.56789593 </i>
   </energy>
  </scstep>
  <scstep>
   <time name="total">  468.61  468.53</time>
   <energy>
    <i name="e_fr_energy">  38647.89397746 </i>
    <i name="e_wo_entrp">  38647.89488936 </i>
    <i name="e_0_energy">  38647.89443341 </i>
   </energy>
  </scstep>
  <scstep>
   <time name="total">  468.48  468.41</time>
   <energy>
    <i name="e_fr_energy">  25370.06425875 </i>
    <i name="e_wo_entrp">  25370.07370495 </i>
    <i name="e_0_energy">  25370.06898185 </i>
   </energy>
  </scstep>
  <scstep>
   <time name="total">  468.70  468.64</time>
   <energy>
    <i name="e_fr_energy">  18245.66409990 </i>
    <i name="e_wo_entrp">  18245.67232551 </i>
    <i name="e_0_energy">  18245.66821270 </i>
   </energy>
  </scstep>
  <scstep>
   <time name="total">  468.45  468.37</time>
   <energy>
    <i name="e_fr_energy">  17225.77837619 </i>
    <i name="e_wo_entrp">  17225.77837623 </i>
    <i name="e_0_energy">  17225.77837621 </i>
   </energy>
  </scstep>
  <scstep>
   <time name="total">  468.42  468.34</time>
   <energy>
    <i name="e_fr_energy">  11766.17671098 </i>
    <i name="e_wo_entrp">  11766.17788893 </i>
    <i name="e_0_energy">  11766.17729995 </i>
   </energy>
  </scstep>
  <scstep>
   <time name="total">  468.85  468.76</time>
   <energy>
    <i name="e_fr_energy">  26111.67442011 </i>
    <i name="e_wo_entrp">  26111.69625973 </i>
    <i name="e_0_energy">  26111.68533992 </i>
   </energy>
  </scstep>
  <scstep>
   <time name="total">  469.03  468.96</time>
   <energy>
    <i name="e_fr_energy">  12349.44133801 </i>
    <i name="e_wo_entrp">  12349.45567515 </i>
    <i name="e_0_energy">  12349.44850658 </i>
   </energy>
  </scstep>
  <scstep>
   <time name="total">  469.38  469.31</time>
   <energy>
    <i name="e_fr_energy">   5971.29390545 </i>
    <i name="e_wo_entrp">   5971.30968149 </i>
    <i name="e_0_energy">   5971.30179347 </i>
   </energy>
  </scstep>
  <scstep>
   <time name="total">  469.46  469.39</time>
   <energy>
    <i name="e_fr_energy">   5323.07475321 </i>
    <i name="e_wo_entrp">   5323.09225742 </i>
    <i name="e_0_energy">   5323.08350532 </i>
   </energy>
  </scstep>
  <scstep>
   <time name="total">  469.49  469.43</time>
   <energy>
    <i name="e_fr_energy">   4248.25352995 </i>
    <i name="e_wo_entrp">   4248.26916038 </i>
    <i name="e_0_energy">   4248.26134516 </i>
   </energy>
  </scstep>
  <scstep>
   <time name="total">  469.53  469.45</time>
   <energy>
    <i name="e_fr_energy">   4106.17934007 </i>
    <i name="e_wo_entrp">   4106.20207982 </i>
    <i name="e_0_energy">   4106.19070994 </i>
   </energy>
  </scstep>
  <scstep>
   <time name="total">  470.48  470.40</time>
   <energy>
    <i name="e_fr_energy">   7386.64521935 </i>
    <i name="e_wo_entrp">   7386.66822387 </i>
    <i name="e_0_energy">   7386.65672161 </i>
   </energy>
  </scstep>
  <scstep>
   <time name="total">  469.34  469.26</time>
   <energy>
    <i name="e_fr_energy">   7664.05846827 </i>
    <i name="e_wo_entrp">   7664.06920503 </i>
    <i name="e_0_energy">   7664.06383665 </i>
   </energy>
  </scstep>
  <scstep>
   <time name="total">  469.50  469.42</time>
   <energy>
    <i name="e_fr_energy">   3131.55118046 </i>
    <i name="e_wo_entrp">   3131.56285240 </i>
    <i name="e_0_energy">   3131.55701643 </i>
   </energy>
  </scstep>
  <scstep>
   <time name="total">  469.51  469.45</time>
   <energy>
    <i name="e_fr_energy">   2530.14496014 </i>
    <i name="e_wo_entrp">   2530.16305611 </i>
    <i name="e_0_energy">   2530.15400813 </i>
   </energy>
  </scstep>
  <scstep>
   <time name="total">  469.82  469.76</time>
   <energy>
    <i name="e_fr_energy">   2155.45749414 </i>
    <i name="e_wo_entrp">   2155.47456133 </i>
    <i name="e_0_energy">   2155.46602773 </i>
   </energy>
  </scstep>
  <scstep>
   <time name="total">  469.61  469.52</time>
   <energy>
    <i name="e_fr_energy">   2130.89230010 </i>
    <i name="e_wo_entrp">   2130.89794904 </i>
    <i name="e_0_energy">   2130.89512457 </i>
   </energy>
  </scstep>
  <scstep>
   <time name="total">  469.79  469.71</time>
   <energy>
    <i name="e_fr_energy">   1859.33414856 </i>
    <i name="e_wo_entrp">   1859.33716466 </i>
    <i name="e_0_energy">   1859.33565661 </i>
   </energy>
  </scstep>
  <scstep>
   <time name="total">  469.36  469.29</time>
   <energy>
    <i name="e_fr_energy">   1594.25530172 </i>
    <i name="e_wo_entrp">   1594.27331693 </i>
    <i name="e_0_energy">   1594.26430933 </i>
   </energy>
  </scstep>
  <scstep>
   <time name="total">  469.58  469.48</time>
   <energy>
    <i name="e_fr_energy">   1362.81381870 </i>
    <i name="e_wo_entrp">   1362.82456835 </i>
    <i name="e_0_energy">   1362.81919352 </i>
   </energy>
  </scstep>
  <scstep>
   <time name="total">  469.09  469.00</time>
   <energy>
    <i name="e_fr_energy">     29.23572905 </i>
    <i name="e_wo_entrp">     29.23574125 </i>
    <i name="e_0_energy">     29.23573515 </i>
   </energy>
  </scstep>
  <scstep>
   <time name="total">  468.91  468.83</time>
   <energy>
    <i name="e_fr_energy">   -224.89688436 </i>
    <i name="e_wo_entrp">   -224.89437778 </i>
    <i name="e_0_energy">   -224.89563107 </i>
   </energy>
  </scstep>
  <scstep>
   <time name="total">  468.83  468.74</time>
   <energy>
    <i name="e_fr_energy">   -455.68529512 </i>
    <i name="e_wo_entrp">   -455.67625443 </i>
    <i name="e_0_energy">   -455.68077477 </i>
   </energy>
  </scstep>
  <scstep>
   <time name="total">  468.97  468.88</time>
   <energy>
    <i name="e_fr_energy">   -623.64953878 </i>
    <i name="e_wo_entrp">   -623.64319183 </i>
    <i name="e_0_energy">   -623.64636531 </i>
   </energy>
  </scstep>
  <scstep>
   <time name="total">  468.63  468.55</time>
   <energy>
    <i name="e_fr_energy">   -709.25444864 </i>
    <i name="e_wo_entrp">   -709.24931582 </i>
    <i name="e_0_energy">   -709.25188223 </i>
   </energy>
  </scstep>
  <scstep>
   <time name="total">  468.75  468.67</time>
   <energy>
    <i name="e_fr_energy">   -787.38918868 </i>
    <i name="e_wo_entrp">   -787.38401247 </i>
    <i name="e_0_energy">   -787.38660057 </i>
   </energy>
  </scstep>
  <scstep>
   <time name="total">  468.72  468.63</time>
   <energy>
    <i name="e_fr_energy">   -820.54771004 </i>
    <i name="e_wo_entrp">   -820.54483836 </i>
    <i name="e_0_energy">   -820.54627420 </i>
   </energy>
  </scstep>
  <scstep>
   <time name="total">  468.60  468.51</time>
   <energy>
    <i name="e_fr_energy">   -845.58370172 </i>
    <i name="e_wo_entrp">   -845.57687282 </i>
    <i name="e_0_energy">   -845.58028727 </i>
   </energy>
  </scstep>
  <scstep>
   <time name="total">  468.62  468.54</time>
   <energy>
    <i name="e_fr_energy">   -856.51274678 </i>
    <i name="e_wo_entrp">   -856.50339373 </i>
    <i name="e_0_energy">   -856.50807025 </i>
   </energy>
  </scstep>
  <scstep>
   <time name="total">  468.39  468.32</time>
   <energy>
    <i name="e_fr_energy">   -862.73929420 </i>
    <i name="e_wo_entrp">   -862.73632628 </i>
    <i name="e_0_energy">   -862.73781024 </i>
   </energy>
  </scstep>
  <scstep>
   <time name="total">  468.57  468.52</time>
   <energy>
    <i name="e_fr_energy">   -866.30205252 </i>
    <i name="e_wo_entrp">   -866.29653244 </i>
    <i name="e_0_energy">   -866.29929248 </i>
   </energy>
  </scstep>
  <scstep>
   <time name="total">  468.82  468.74</time>
   <energy>
    <i name="e_fr_energy">   -867.98882167 </i>
    <i name="e_wo_entrp">   -867.98099136 </i>
    <i name="e_0_energy">   -867.98490651 </i>
   </energy>
  </scstep>
  <scstep>
   <time name="total">  468.60  468.52</time>
   <energy>
    <i name="e_fr_energy">   -868.90017823 </i>
    <i name="e_wo_entrp">   -868.89720928 </i>
    <i name="e_0_energy">   -868.89869375 </i>
   </energy>
  </scstep>
  <scstep>
   <time name="total">  468.55  468.46</time>
   <energy>
    <i name="e_fr_energy">   -869.33229389 </i>
    <i name="e_wo_entrp">   -869.32929954 </i>
    <i name="e_0_energy">   -869.33079672 </i>
   </energy>
  </scstep>
  <scstep>
   <time name="total">  468.32  468.24</time>
   <energy>
    <i name="e_fr_energy">   -869.64126958 </i>
    <i name="e_wo_entrp">   -869.63652033 </i>
    <i name="e_0_energy">   -869.63889495 </i>
   </energy>
  </scstep>
  <scstep>
   <time name="total">  468.44  468.37</time>
   <energy>
    <i name="e_fr_energy">   -869.77279314 </i>
    <i name="e_wo_entrp">   -869.76897595 </i>
    <i name="e_0_energy">   -869.77088455 </i>
   </energy>
  </scstep>
  <scstep>
   <time name="total">  468.57  468.48</time>
   <energy>
    <i name="e_fr_energy">   -869.85987261 </i>
    <i name="e_wo_entrp">   -869.85618754 </i>
    <i name="e_0_energy">   -869.85803007 </i>
   </energy>
  </scstep>
  <scstep>
   <time name="total">  468.71  468.63</time>
   <energy>
    <i name="e_fr_energy">   -869.91404184 </i>
    <i name="e_wo_entrp">   -869.90959878 </i>
    <i name="e_0_energy">   -869.91182031 </i>
   </energy>
  </scstep>
  <scstep>
   <time name="total">  468.37  468.30</time>
   <energy>
    <i name="e_fr_energy">   -869.94460006 </i>
    <i name="e_wo_entrp">   -869.94033971 </i>
    <i name="e_0_energy">   -869.94246989 </i>
   </energy>
  </scstep>
  <scstep>
   <time name="total">  468.51  468.43</time>
   <energy>
    <i name="e_fr_energy">   -869.96340460 </i>
    <i name="e_wo_entrp">   -869.95940830 </i>
    <i name="e_0_energy">   -869.96140645 </i>
   </energy>
  </scstep>
  <scstep>
   <time name="total">  468.51  468.43</time>
   <energy>
    <i name="e_fr_energy">   -869.97372573 </i>
    <i name="e_wo_entrp">   -869.96947605 </i>
    <i name="e_0_energy">   -869.97160089 </i>
   </energy>
  </scstep>
  <scstep>
   <time name="total">  468.59  468.55</time>
   <energy>
    <i name="e_fr_energy">   -869.98042714 </i>
    <i name="e_wo_entrp">   -869.97615470 </i>
    <i name="e_0_energy">   -869.97829092 </i>
   </energy>
  </scstep>
  <scstep>
   <time name="total">  468.41  468.33</time>
   <energy>
    <i name="e_fr_energy">   -869.98447369 </i>
    <i name="e_wo_entrp">   -869.98031121 </i>
    <i name="e_0_energy">   -869.98239245 </i>
   </energy>
  </scstep>
  <scstep>
   <time name="total">  468.57  468.48</time>
   <energy>
    <i name="e_fr_energy">   -869.98684760 </i>
    <i name="e_wo_entrp">   -869.98253841 </i>
    <i name="e_0_energy">   -869.98469300 </i>
   </energy>
  </scstep>
  <scstep>
   <time name="total">  468.37  468.29</time>
   <energy>
    <i name="e_fr_energy">   -869.98845149 </i>
    <i name="e_wo_entrp">   -869.98406828 </i>
    <i name="e_0_energy">   -869.98625989 </i>
   </energy>
  </scstep>
  <scstep>
   <time name="total">  468.58  468.52</time>
   <energy>
    <i name="e_fr_energy">   -869.98935152 </i>
    <i name="e_wo_entrp">   -869.98503445 </i>
    <i name="e_0_energy">   -869.98719299 </i>
   </energy>
  </scstep>
  <scstep>
   <time name="total">  468.35  468.27</time>
   <energy>
    <i name="e_fr_energy">   -869.99007396 </i>
    <i name="e_wo_entrp">   -869.98572147 </i>
    <i name="e_0_energy">   -869.98789771 </i>
   </energy>
  </scstep>
  <scstep>
   <time name="total">  468.84  468.77</time>
   <energy>
    <i name="e_fr_energy">   -869.99053981 </i>
    <i name="e_wo_entrp">   -869.98615805 </i>
    <i name="e_0_energy">   -869.98834893 </i>
   </energy>
  </scstep>
  <scstep>
   <time name="total">  468.61  468.53</time>
   <energy>
    <i name="e_fr_energy">   -869.99093549 </i>
    <i name="e_wo_entrp">   -869.98659608 </i>
    <i name="e_0_energy">   -869.98876579 </i>
   </energy>
  </scstep>
  <scstep>
   <time name="total">  468.51  468.44</time>
   <energy>
    <i name="e_fr_energy">   -869.99123565 </i>
    <i name="e_wo_entrp">   -869.98686733 </i>
    <i name="e_0_energy">   -869.98905149 </i>
   </energy>
  </scstep>
  <scstep>
   <time name="total">  468.43  468.36</time>
   <energy>
    <i name="e_fr_energy">   -869.99147831 </i>
    <i name="e_wo_entrp">   -869.98713101 </i>
    <i name="e_0_energy">   -869.98930466 </i>
   </energy>
  </scstep>
  <scstep>
   <time name="total">  468.51  468.44</time>
   <energy>
    <i name="e_fr_energy">   -869.99167177 </i>
    <i name="e_wo_entrp">   -869.98728578 </i>
    <i name="e_0_energy">   -869.98947877 </i>
   </energy>
  </scstep>
  <scstep>
   <time name="total">  468.53  468.46</time>
   <energy>
    <i name="e_fr_energy">   -869.99177132 </i>
    <i name="e_wo_entrp">   -869.98740988 </i>
    <i name="e_0_energy">   -869.98959060 </i>
   </energy>
  </scstep>
  <scstep>
   <time name="total">  468.33  468.25</time>
   <energy>
    <i name="e_fr_energy">   -869.99188504 </i>
    <i name="e_wo_entrp">   -869.98754056 </i>
    <i name="e_0_energy">   -869.98971280 </i>
   </energy>
  </scstep>
  <scstep>
   <time name="total">  468.50  468.42</time>
   <energy>
    <i name="e_fr_energy">   -869.99203214 </i>
    <i name="e_wo_entrp">   -869.98761500 </i>
    <i name="e_0_energy">   -869.98982357 </i>
   </energy>
  </scstep>
  <scstep>
   <time name="total">  468.50  468.43</time>
   <energy>
    <i name="e_fr_energy">   -869.99218923 </i>
    <i name="e_wo_entrp">   -869.98783368 </i>
    <i name="e_0_energy">   -869.99001146 </i>
   </energy>
  </scstep>
  <scstep>
   <time name="total">  468.61  468.53</time>
   <energy>
    <i name="e_fr_energy">   -869.99237815 </i>
    <i name="e_wo_entrp">   -869.98801569 </i>
    <i name="e_0_energy">   -869.99019692 </i>
   </energy>
  </scstep>
  <scstep>
   <time name="total">  468.60  468.53</time>
   <energy>
    <i name="e_fr_energy">   -869.99253539 </i>
    <i name="e_wo_entrp">   -869.98812545 </i>
    <i name="e_0_energy">   -869.99033042 </i>
   </energy>
  </scstep>
  <scstep>
   <time name="total">  468.58  468.49</time>
   <energy>
    <i name="e_fr_energy">   -869.99262731 </i>
    <i name="e_wo_entrp">   -869.98824029 </i>
    <i name="e_0_energy">   -869.99043380 </i>
   </energy>
  </scstep>
  <scstep>
   <time name="total">  468.47  468.39</time>
   <energy>
    <i name="e_fr_energy">   -869.99269650 </i>
    <i name="e_wo_entrp">   -869.98832249 </i>
    <i name="e_0_energy">   -869.99050949 </i>
   </energy>
  </scstep>
  <scstep>
   <time name="total">  468.67  468.62</time>
   <energy>
    <i name="e_fr_energy">   -869.99273120 </i>
    <i name="e_wo_entrp">   -869.98834732 </i>
    <i name="e_0_energy">   -869.99053926 </i>
   </energy>
  </scstep>
  <scstep>
   <time name="total">  468.59  468.52</time>
   <energy>
    <i name="e_fr_energy">   -869.99275123 </i>
    <i name="e_wo_entrp">   -869.98836945 </i>
    <i name="e_0_energy">   -869.99056034 </i>
   </energy>
  </scstep>
  <scstep>
   <time name="total">  468.58  468.50</time>
   <energy>
    <i name="e_fr_energy">   -869.99276705 </i>
    <i name="e_wo_entrp">   -869.98839081 </i>
    <i name="e_0_energy">   -869.99057893 </i>
   </energy>
  </scstep>
  <scstep>
   <time name="total">  698.45  698.34</time>
   <energy>
    <i name="alphaZ">   5376.25786726 </i>
    <i name="ewald"> -86397.21290821 </i>
    <i name="hartreedc"> -34195.66335011 </i>
    <i name="XCdc">   2788.86482223 </i>
    <i name="pawpsdc"> 121963.95381004 </i>
    <i name="pawaedc">-137160.08856732 </i>
    <i name="eentropy">     -0.00437928 </i>
    <i name="bandstr">  -8997.93447290 </i>
    <i name="atom"> 131459.35058357 </i>
    <i name="e_fr_energy">   -869.99277696 </i>
    <i name="e_wo_entrp">   -869.98839768 </i>
    <i name="e_0_energy">   -869.99058732 </i>
   </energy>
  </scstep>
  <structure>
   <crystal>
    <varray name="basis" >
     <v>       0.00000000      12.28047342       0.00000000 </v>
     <v>       9.14270205       0.00000000       0.00000000 </v>
     <v>       0.00000000      -2.76826177     -11.30069772 </v>
    </varray>
    <i name="volume">   1268.80515525 </i>
    <varray name="rec_basis" >
     <v>       0.00000000       0.08143009      -0.01994742 </v>
     <v>       0.10937686      -0.00000000       0.00000000 </v>
     <v>       0.00000000       0.00000000      -0.08849011 </v>
    </varray>
   </crystal>
   <varray name="positions" >
    <v>       0.64677555       0.00477655       0.15485943 </v>
    <v>       0.66545090       0.00495812       0.66261345 </v>
    <v>       0.64648163       0.33376377       0.15608782 </v>
    <v>       0.66489513       0.32761834       0.65968366 </v>
    <v>       0.64439819       0.67184451       0.15795552 </v>
    <v>       0.66516753       0.66424191       0.66163160 </v>
    <v>       0.83079788       0.17102179       0.34129924 </v>
    <v>       0.85624051       0.16090346       0.85755479 </v>
    <v>       0.83093513       0.49904471       0.34062730 </v>
    <v>       0.84881178       0.49487377       0.84086777 </v>
    <v>       0.82877802       0.83460303       0.34475697 </v>
    <v>       0.84277342       0.82736099       0.84908006 </v>
    <v>       0.57396532       0.16710045       0.39351406 </v>
    <v>       0.58352607       0.17117553       0.89667172 </v>
    <v>       0.59481652       0.50689729       0.40569662 </v>
    <v>       0.60000655       0.50451709       0.89792064 </v>
    <v>       0.58731024       0.83370842       0.40310184 </v>
    <v>       0.59419012       0.83730011       0.89810953 </v>
    <v>       0.90533890       0.98983173       0.11014877 </v>
    <v>       0.90055669       0.96750471       0.60204000 </v>
    <v>       0.90951362       0.36052912       0.10222268 </v>
    <v>       0.91306450       0.33432676       0.60185255 </v>
    <v>       0.89254613       0.62239254       0.10522525 </v>
    <v>       0.89902315       0.70418609       0.59762153 </v>
    <v>       0.14923271       0.16236785       0.66782332 </v>
    <v>       0.17795445       0.47682773       0.15748502 </v>
    <v>       0.14781373       0.50260131       0.65578559 </v>
    <v>       0.13371538       0.82815920       0.12997736 </v>
    <v>       0.17628224       0.83279584       0.64710102 </v>
    <v>       0.33056134       0.00409554       0.33291065 </v>
    <v>       0.34016260       0.00706516       0.84877200 </v>
    <v>       0.34088992       0.33237825       0.35051497 </v>
    <v>       0.34048062       0.34102674       0.83394802 </v>
    <v>       0.33400512       0.67080125       0.34028403 </v>
    <v>       0.34704319       0.66689803       0.83307274 </v>
    <v>       0.08514041       0.00141223       0.39778468 </v>
    <v>       0.11798687       0.98145261       0.94526138 </v>
    <v>       0.08681001       0.33016262       0.39502985 </v>
    <v>       0.10485636       0.33019038       0.93229954 </v>
    <v>       0.08539113       0.66635219       0.38948246 </v>
    <v>       0.09100220       0.66443549       0.89217214 </v>
    <v>       0.36773585       0.18366288       0.09444891 </v>
    <v>       0.41000238       0.16598526       0.60563704 </v>
    <v>       0.40175768       0.50535797       0.09670550 </v>
    <v>       0.41328458       0.49888420       0.60093465 </v>
    <v>       0.38918330       0.86076884       0.09560038 </v>
    <v>       0.41639723       0.83382095       0.59482750 </v>
    <v>       0.95518635       0.17251049       0.13317615 </v>
    <v>       0.98683861       0.15382529       0.63141874 </v>
    <v>       0.04928629       0.40294476       0.06342997 </v>
    <v>       0.98515802       0.51673968       0.61168671 </v>
    <v>       0.97127872       0.80188068       0.12488809 </v>
    <v>       0.02986404       0.83371736       0.63840317 </v>
    <v>       0.49692304       0.99346586       0.39108991 </v>
    <v>       0.50312520       0.99821191       0.86167611 </v>
    <v>       0.50650487       0.34606919       0.39613719 </v>
    <v>       0.50794808       0.34587954       0.85983421 </v>
    <v>       0.50154789       0.66718258       0.38499384 </v>
    <v>       0.51030464       0.66850295       0.86325423 </v>
    <v>       0.65862312       0.16938720       0.27955922 </v>
    <v>       0.67140121       0.16779138       0.78276782 </v>
    <v>       0.65738127       0.50233063       0.27664055 </v>
    <v>       0.67442788       0.49561443       0.77748020 </v>
    <v>       0.65849570       0.83700614       0.28013474 </v>
    <v>       0.67539713       0.83271047       0.78071618 </v>
    <v>       0.81451868       0.99340182       0.22083579 </v>
    <v>       0.82934613       0.01029584       0.73302928 </v>
    <v>       0.81236726       0.33483090       0.22572525 </v>
    <v>       0.83223200       0.32736888       0.72035069 </v>
    <v>       0.81030037       0.67247502       0.22197384 </v>
    <v>       0.82699813       0.65554229       0.72460693 </v>
    <v>       0.81884024       0.00841596       0.43941862 </v>
    <v>       0.82899948       0.99070043       0.95114129 </v>
    <v>       0.82233188       0.33649685       0.44900043 </v>
    <v>       0.82767457       0.33342492       0.94045309 </v>
    <v>       0.81466825       0.65984939       0.43852784 </v>
    <v>       0.82202958       0.65823820       0.94252419 </v>
    <v>       0.66327472       0.17093778       0.05279984 </v>
    <v>       0.66468127       0.16470156       0.55112673 </v>
    <v>       0.66173656       0.50416919       0.05707398 </v>
    <v>       0.67445515       0.49904529       0.55980053 </v>
    <v>       0.66303101       0.83555866       0.05594234 </v>
    <v>       0.66276548       0.83390589       0.55966069 </v>
    <v>       0.49162728       0.01232263       0.12445041 </v>
    <v>       0.50106702       0.00156501       0.63020676 </v>
    <v>       0.48818734       0.33903365       0.12343222 </v>
    <v>       0.50057639       0.33194284       0.62829163 </v>
    <v>       0.48442095       0.67937402       0.12061635 </v>
    <v>       0.50224617       0.66499642       0.62806416 </v>
    <v>       0.99171214       0.17060246       0.38931830 </v>
    <v>       0.02191924       0.15563765       0.89800530 </v>
    <v>       0.99464588       0.49870466       0.35966776 </v>
    <v>       0.00877757       0.49288987       0.85256814 </v>
    <v>       0.99269554       0.83038486       0.38250555 </v>
    <v>       0.99552323       0.82099932       0.85902759 </v>
    <v>       0.18003083       0.00736565       0.79529303 </v>
    <v>       0.18004930       0.35312353       0.29388061 </v>
    <v>       0.17149300       0.33357399       0.78817374 </v>
    <v>       0.16447215       0.65858247       0.27050976 </v>
    <v>       0.18036712       0.66004170       0.78026572 </v>
    <v>       0.37757423       0.17947953       0.25592359 </v>
    <v>       0.32327978       0.17123831       0.71421710 </v>
    <v>       0.33855744       0.50712329       0.22952800 </v>
    <v>       0.32627695       0.49939479       0.71112428 </v>
    <v>       0.33803871       0.82323371       0.22910150 </v>
    <v>       0.33397895       0.83218196       0.71197555 </v>
    <v>       0.32871367       0.17111635       0.45486544 </v>
    <v>       0.37480600       0.18181462       0.93465168 </v>
    <v>       0.33247974       0.50536375       0.44853677 </v>
    <v>       0.34734022       0.50882074       0.93542582 </v>
    <v>       0.32410468       0.83283151       0.44654888 </v>
    <v>       0.34585177       0.82592786       0.93368594 </v>
    <v>       0.27310748       0.02063481       0.05284337 </v>
    <v>       0.17032714       0.00946407       0.55469342 </v>
    <v>       0.24529345       0.33688448       0.05431154 </v>
    <v>       0.15227318       0.33199583       0.55755943 </v>
    <v>       0.17566677       0.64896886       0.04952166 </v>
    <v>       0.17162596       0.65852467       0.54477634 </v>
    <v>       0.14905879       0.04008073       0.23878753 </v>
   </varray>
  </structure>
  <varray name="forces" >
   <v>       0.01336132      -0.03537896       0.05177695 </v>
   <v>      -0.00781551       0.10062465      -0.01806471 </v>
   <v>      -0.00347273       0.06366415      -0.00176601 </v>
   <v>       0.00001301       0.06988552      -0.03121662 </v>
   <v>       0.03708540       0.12478140       0.00886242 </v>
   <v>       0.00237978       0.17779107      -0.01722358 </v>
   <v>      -0.02164087      -0.03228532      -0.17149832 </v>
   <v>      -0.11251394      -0.06756864       0.06116381 </v>
   <v>       0.04008100      -0.08394282      -0.06088181 </v>
   <v>       0.03485816      -0.05550630       0.13861143 </v>
   <v>      -0.00228266      -0.07531789      -0.09525599 </v>
   <v>      -0.00868326       0.06162011       0.05579265 </v>
   <v>       0.03584688      -0.01682566      -0.05645328 </v>
   <v>      -0.01420506       0.02764073       0.07754283 </v>
   <v>      -0.09153809      -0.13077795      -0.02539330 </v>
   <v>      -0.04026816      -0.11794221       0.14534328 </v>
   <v>       0.02403460      -0.10675711      -0.06596452 </v>
   <v>       0.00463929      -0.05891349       0.10492569 </v>
   <v>       0.23126972      -0.16550785       0.07482255 </v>
   <v>      -0.24022934      -0.02479075      -0.05087266 </v>
   <v>      -0.45918978       0.27740467       0.26051081 </v>
   <v>      -0.00760926      -0.12628109      -0.02014903 </v>
   <v>       0.55719098      -0.32531751       0.08171322 </v>
   <v>       0.20552847      -0.06820345      -0.03299225 </v>
   <v>      -0.02316065       0.02922792       0.02075491 </v>
   <v>      -0.19491628       0.04631987       0.10336076 </v>
   <v>       0.03057828       0.00746306       0.09196071 </v>
   <v>      -0.09838760      -0.17632673       0.12516206 </v>
   <v>      -0.01468935      -0.31464137       0.10585137 </v>
   <v>       0.07545562       0.19322569      -0.00870471 </v>
   <v>       0.10197307      -0.04104907      -0.13224281 </v>
   <v>      -0.14806767      -0.06142932       0.04717742 </v>
   <v>      -0.06186795       0.00002231      -0.10844278 </v>
   <v>       0.05512174       0.02997528       0.09326770 </v>
   <v>       0.00198729      -0.09949543      -0.14478093 </v>
   <v>       0.07805759      -0.27421056      -0.28012029 </v>
   <v>       0.18733689       0.10886978       0.11788253 </v>
   <v>       0.03551670      -0.01681327      -0.08133636 </v>
   <v>       0.05852119      -0.18099717      -0.11894419 </v>
   <v>      -0.06536995      -0.01800555      -0.03627682 </v>
   <v>      -0.00665505      -0.04907104       0.16687720 </v>
   <v>      -0.18477264      -0.16485003       0.05676710 </v>
   <v>       0.01172386      -0.08027418       0.02967048 </v>
   <v>      -0.11718644       0.05215011       0.01270343 </v>
   <v>       0.03365815      -0.06510229      -0.00801705 </v>
   <v>       0.29511212      -0.08709047       0.01333776 </v>
   <v>       0.00918425      -0.06815823      -0.08063590 </v>
[...]
       <r>   -12.9390   262.0505   467.0045 </r>
       <r>   -12.8037   188.4258   492.5025 </r>
       <r>   -12.6684   204.5066   520.1766 </r>
       <r>   -12.5331   147.9890   540.2027 </r>
       <r>   -12.3977   131.1782   557.9539 </r>
       <r>   -12.2624   129.1466   575.4302 </r>
       <r>   -12.1271   133.8396   593.5416 </r>
       <r>   -11.9918    55.2159   601.0135 </r>
       <r>   -11.8564    35.9411   605.8771 </r>
       <r>   -11.7211    16.5101   608.1113 </r>
       <r>   -11.5858    20.7327   610.9168 </r>
       <r>   -11.4505     8.0027   611.9998 </r>
       <r>   -11.3152     0.0017   612.0000 </r>
       <r>   -11.1798     0.0000   612.0000 </r>
       <r>   -11.0445     0.0000   612.0000 </r>
       <r>   -10.9092     0.0000   612.0000 </r>
       <r>   -10.7739     0.0000   612.0000 </r>
       <r>   -10.6386     0.0000   612.0000 </r>
       <r>   -10.5032     0.0000   612.0000 </r>
       <r>   -10.3679     0.0000   612.0000 </r>
       <r>   -10.2326     0.0000   612.0000 </r>
       <r>   -10.0973     0.0000   612.0000 </r>
       <r>    -9.9619     0.0000   612.0000 </r>
       <r>    -9.8266     0.0000   612.0000 </r>
       <r>    -9.6913     0.0000   612.0000 </r>
       <r>    -9.5560     0.0000   612.0000 </r>
       <r>    -9.4207     0.0000   612.0000 </r>
       <r>    -9.2853     0.0000   612.0000 </r>
       <r>    -9.1500     0.0000   612.0000 </r>
       <r>    -9.0147     0.0000   612.0000 </r>
       <r>    -8.8794     0.0000   612.0000 </r>
       <r>    -8.7441     0.0000   612.0000 </r>
       <r>    -8.6087     0.0000   612.0000 </r>
       <r>    -8.4734     0.0000   612.0000 </r>
       <r>    -8.3381     0.0000   612.0000 </r>
       <r>    -8.2028     0.0000   612.0000 </r>
       <r>    -8.0674     0.0000   612.0000 </r>
       <r>    -7.9321     0.0000   612.0000 </r>
       <r>    -7.7968     0.0000   612.0000 </r>
       <r>    -7.6615     0.0000   612.0000 </r>
       <r>    -7.5262     0.0000   612.0000 </r>
       <r>    -7.3908     0.0000   612.0000 </r>
       <r>    -7.2555     0.0000   612.0000 </r>
       <r>    -7.1202     0.0000   612.0000 </r>
       <r>    -6.9849     0.0000   612.0000 </r>
       <r>    -6.8496     0.0295   612.0040 </r>
       <r>    -6.7142    12.1684   613.6506 </r>
       <r>    -6.5789     2.5818   614.0000 </r>
       <r>    -6.4436     0.0000   614.0000 </r>
       <r>    -6.3083     0.0000   614.0000 </r>
       <r>    -6.1729     0.0000   614.0000 </r>
       <r>    -6.0376     0.0000   614.0000 </r>
       <r>    -5.9023     0.0000   614.0000 </r>
       <r>    -5.7670     0.1517   614.0205 </r>
       <r>    -5.6317     5.2192   614.7268 </r>
       <r>    -5.4963     4.3662   615.3176 </r>
       <r>    -5.3610    17.6811   617.7103 </r>
       <r>    -5.2257    23.5660   620.8992 </r>
       <r>    -5.0904    23.7062   624.1072 </r>
       <r>    -4.9551    29.2322   628.0630 </r>
       <r>    -4.8197    34.0622   632.6723 </r>
       <r>    -4.6844    39.7796   638.0553 </r>
       <r>    -4.5491    43.6902   643.9675 </r>
       <r>    -4.4138    42.7075   649.7468 </r>
       <r>    -4.2784    41.9396   655.4221 </r>
       <r>    -4.1431    39.2999   660.7402 </r>
       <r>    -4.0078    39.2947   666.0576 </r>
       <r>    -3.8725    36.9161   671.0532 </r>
       <r>    -3.7372    30.0884   675.1248 </r>
       <r>    -3.6018    27.8085   678.8879 </r>
       <r>    -3.4665    29.2232   682.8424 </r>
       <r>    -3.3312    36.6498   687.8019 </r>
       <r>    -3.1959    39.0882   693.0914 </r>
       <r>    -3.0606    38.9469   698.3617 </r>
       <r>    -2.9252    36.8829   703.3528 </r>
       <r>    -2.7899    39.2178   708.6598 </r>
       <r>    -2.6546    38.4541   713.8634 </r>
       <r>    -2.5193    47.0968   720.2366 </r>
       <r>    -2.3839    39.1643   725.5364 </r>
       <r>    -2.2486    50.0899   732.3146 </r>
       <r>    -2.1133    44.6970   738.3631 </r>
       <r>    -1.9780    56.1601   745.9628 </r>
       <r>    -1.8427    48.6724   752.5492 </r>
       <r>    -1.7073    64.9034   761.3320 </r>
       <r>    -1.5720    54.8323   768.7520 </r>
       <r>    -1.4367    61.0907   777.0189 </r>
       <r>    -1.3014    56.5199   784.6672 </r>
       <r>    -1.1661    59.4875   792.7172 </r>
       <r>    -1.0307    64.7169   801.4747 </r>
       <r>    -0.8954    60.1483   809.6141 </r>
       <r>    -0.7601    57.6463   817.4149 </r>
       <r>    -0.6248    56.5177   825.0629 </r>
       <r>    -0.4894    64.9627   833.8538 </r>
       <r>    -0.3541    67.3112   842.9624 </r>
       <r>    -0.2188    62.9587   851.4821 </r>
       <r>    -0.0835    67.9469   860.6767 </r>
       <r>     0.0518    68.9184   870.0029 </r>
       <r>     0.1872    70.0186   879.4779 </r>
       <r>     0.3225    85.0519   890.9872 </r>
       <r>     0.4578    80.0213   901.8158 </r>
       <r>     0.5931    84.2613   913.2182 </r>
       <r>     0.7284    83.1423   924.4691 </r>
       <r>     0.8638    89.0807   936.5236 </r>
       <r>     0.9991   101.2626   950.2266 </r>
       <r>     1.1344   104.0450   964.3062 </r>
       <r>     1.2697   100.7509   977.9399 </r>
       <r>     1.4051    97.2996   991.1066 </r>
       <r>     1.5404    86.1258  1002.7613 </r>
       <r>     1.6757    75.8647  1013.0274 </r>
       <r>     1.8110    53.3083  1020.2412 </r>
       <r>     1.9463    33.4716  1024.7706 </r>
       <r>     2.0817    28.9879  1028.6933 </r>
       <r>     2.2170    11.2926  1030.2214 </r>
       <r>     2.3523    27.4319  1033.9335 </r>
       <r>     2.4876    27.7170  1037.6842 </r>
       <r>     2.6229     2.3709  1038.0051 </r>
       <r>     2.7583    11.3969  1039.5473 </r>
       <r>     2.8936     3.3452  1040.0000 </r>
       <r>     3.0289     0.0023  1040.0003 </r>
       <r>     3.1642     6.0371  1040.8173 </r>
       <r>     3.2995     8.7218  1041.9975 </r>
       <r>     3.4349     0.0185  1042.0000 </r>
       <r>     3.5702     0.0000  1042.0000 </r>
       <r>     3.7055     0.0070  1042.0010 </r>
       <r>     3.8408     8.5363  1043.1561 </r>
       <r>     3.9762     6.2356  1043.9999 </r>
       <r>     4.1115     0.0632  1044.0085 </r>
       <r>     4.2468     2.7059  1044.3746 </r>
       <r>     4.3821    10.9654  1045.8585 </r>
       <r>     4.5174     1.0458  1046.0000 </r>
       <r>     4.6528     0.8049  1046.1089 </r>
       <r>     4.7881     9.9961  1047.4616 </r>
       <r>     4.9234     3.9778  1047.9999 </r>
       <r>     5.0587     0.0008  1048.0000 </r>
       <r>     5.1940     0.0000  1048.0000 </r>
       <r>     5.3294     0.0094  1048.0013 </r>
       <r>     5.4647     1.7292  1048.2353 </r>
       <r>     5.6000     6.2947  1049.0871 </r>
       <r>     5.7353     6.6920  1049.9927 </r>
       <r>     5.8707     0.0543  1050.0000 </r>
       <r>     6.0060     0.0008  1050.0001 </r>
       <r>     6.1413     2.3601  1050.3195 </r>
       <r>     6.2766     6.9790  1051.2639 </r>
       <r>     6.4119     5.4308  1051.9988 </r>
       <r>     6.5473     0.0089  1052.0000 </r>
       <r>     6.6826     0.0000  1052.0000 </r>
       <r>     6.8179     0.0000  1052.0000 </r>
       <r>     6.9532     0.0000  1052.0000 </r>
       <r>     7.0885     0.0000  1052.0000 </r>
       <r>     7.2239     0.0021  1052.0003 </r>
       <r>     7.3592     1.5043  1052.2038 </r>
       <r>     7.4945     2.1495  1052.4947 </r>
       <r>     7.6298     0.8764  1052.6133 </r>
       <r>     7.7652     2.7540  1052.9860 </r>
       <r>     7.9005     0.6618  1053.0756 </r>
       <r>     8.0358     1.5164  1053.2808 </r>
       <r>     8.1711     2.3661  1053.6009 </r>
       <r>     8.3064     8.5820  1054.7623 </r>
       <r>     8.4418     3.1703  1055.1913 </r>
       <r>     8.5771     5.5976  1055.9488 </r>
       <r>     8.7124     2.8184  1056.3301 </r>
       <r>     8.8477     5.3830  1057.0586 </r>
       <r>     8.9830     4.0349  1057.6046 </r>
       <r>     9.1184     9.6681  1058.9129 </r>
       <r>     9.2537     5.1288  1059.6069 </r>
       <r>     9.3890    13.4634  1061.4288 </r>
       <r>     9.5243    12.4071  1063.1077 </r>
       <r>     9.6597    12.7072  1064.8273 </r>
       <r>     9.7950    13.6712  1066.6773 </r>
       <r>     9.9303    12.0823  1068.3123 </r>
       <r>    10.0656    15.7907  1070.4491 </r>
       <r>    10.2009    15.8314  1072.5914 </r>
       <r>    10.3363    18.1139  1075.0426 </r>
       <r>    10.4716    23.2381  1078.1873 </r>
       <r>    10.6069    27.8283  1081.9530 </r>
       <r>    10.7422    29.8662  1085.9945 </r>
       <r>    10.8775    25.2485  1089.4112 </r>
       <r>    11.0129    29.2760  1093.3729 </r>
       <r>    11.1482    26.9586  1097.0209 </r>
       <r>    11.2835    31.0775  1101.2264 </r>
       <r>    11.4188    24.9666  1104.6049 </r>
       <r>    11.5542    28.4026  1108.4484 </r>
       <r>    11.6895    33.3733  1112.9645 </r>
       <r>    11.8248    32.7662  1117.3985 </r>
       <r>    11.9601    40.5597  1122.8871 </r>
       <r>    12.0954    31.7836  1127.1881 </r>
       <r>    12.2308    31.6945  1131.4770 </r>
       <r>    12.3661    29.3846  1135.4534 </r>
       <r>    12.5014    29.5127  1139.4471 </r>
       <r>    12.6367    33.4781  1143.9774 </r>
       <r>    12.7720    32.6673  1148.3980 </r>
       <r>    12.9074    27.5887  1152.1313 </r>
       <r>    13.0427    33.0356  1156.6017 </r>
       <r>    13.1780    32.7552  1161.0342 </r>
       <r>    13.3133    34.0098  1165.6365 </r>
       <r>    13.4487    33.0215  1170.1050 </r>
       <r>    13.5840    32.4296  1174.4934 </r>
       <r>    13.7193    34.9374  1179.2212 </r>
       <r>    13.8546    28.0994  1183.0237 </r>
       <r>    13.9899    28.1979  1186.8394 </r>
       <r>    14.1253    30.4395  1190.9586 </r>
       <r>    14.2606    29.1919  1194.9089 </r>
       <r>    14.3959    30.1722  1198.9918 </r>
       <r>    14.5312    26.4036  1202.5648 </r>
       <r>    14.6665    28.0666  1206.3628 </r>
       <r>    14.8019    26.7601  1209.9840 </r>
       <r>    14.9372    31.6356  1214.2650 </r>
       <r>    15.0725    23.8194  1217.4883 </r>
       <r>    15.2078    22.3054  1220.5067 </r>
       <r>    15.3432    22.6150  1223.5670 </r>
       <r>    15.4785    23.5229  1226.7501 </r>
       <r>    15.6138    25.7305  1230.2320 </r>
       <r>    15.7491    20.6929  1233.0322 </r>
       <r>    15.8844    24.8209  1236.3910 </r>
       <r>    16.0198    21.3232  1239.2765 </r>
       <r>    16.1551    24.5573  1242.5996 </r>
       <r>    16.2904    24.5255  1245.9184 </r>
       <r>    16.4257    21.3888  1248.8128 </r>
       <r>    16.5610    17.5141  1251.1828 </r>
       <r>    16.6964    17.9768  1253.6155 </r>
       <r>    16.8317    21.9035  1256.5795 </r>
       <r>    16.9670    14.0657  1258.4829 </r>
       <r>    17.1023    16.3882  1260.7005 </r>
       <r>    17.2377    14.4063  1262.6500 </r>
       <r>    17.3730    15.6908  1264.7733 </r>
       <r>    17.5083     4.7084  1265.4105 </r>
       <r>    17.6436     4.3423  1265.9981 </r>
       <r>    17.7789     0.0142  1266.0000 </r>
       <r>    17.9143     0.0000  1266.0000 </r>
       <r>    18.0496     0.0000  1266.0000 </r>
       <r>    18.1849     0.0000  1266.0000 </r>
       <r>    18.3202     0.0000  1266.0000 </r>
       <r>    18.4555     0.0000  1266.0000 </r>
       <r>    18.5909     0.0000  1266.0000 </r>
       <r>    18.7262     0.0000  1266.0000 </r>
       <r>    18.8615     0.0000  1266.0000 </r>
       <r>    18.9968     0.0000  1266.0000 </r>
       <r>    19.1322     0.0000  1266.0000 </r>
       <r>    19.2675     0.0000  1266.0000 </r>
       <r>    19.4028     0.0000  1266.0000 </r>
      </set>
     </set>
    </array>
   </total>
  </dos>
 </calculation>
 <structure name="finalpos" >
  <crystal>
   <varray name="basis" >
    <v>       0.00000000      12.28047342       0.00000000 </v>
    <v>       9.14270205       0.00000000       0.00000000 </v>
    <v>       0.00000000      -2.76826177     -11.30069772 </v>
   </varray>
   <i name="volume">   1268.80515525 </i>
   <varray name="rec_basis" >
    <v>       0.00000000       0.08143009      -0.01994742 </v>
    <v>       0.10937686      -0.00000000       0.00000000 </v>
    <v>       0.00000000       0.00000000      -0.08849011 </v>
   </varray>
  </crystal>
  <varray name="positions" >
   <v>       0.64677555       0.00477655       0.15485943 </v>
   <v>       0.66545090       0.00495812       0.66261345 </v>
   <v>       0.64648163       0.33376377       0.15608782 </v>
   <v>       0.66489513       0.32761834       0.65968366 </v>
   <v>       0.64439819       0.67184451       0.15795552 </v>
   <v>       0.66516753       0.66424191       0.66163160 </v>
   <v>       0.83079788       0.17102179       0.34129924 </v>
   <v>       0.85624051       0.16090346       0.85755479 </v>
   <v>       0.83093513       0.49904471       0.34062730 </v>
   <v>       0.84881178       0.49487377       0.84086777 </v>
   <v>       0.82877802       0.83460303       0.34475697 </v>
   <v>       0.84277342       0.82736099       0.84908006 </v>
   <v>       0.57396532       0.16710045       0.39351406 </v>
   <v>       0.58352607       0.17117553       0.89667172 </v>
   <v>       0.59481652       0.50689729       0.40569662 </v>
   <v>       0.60000655       0.50451709       0.89792064 </v>
   <v>       0.58731024       0.83370842       0.40310184 </v>
   <v>       0.59419012       0.83730011       0.89810953 </v>
   <v>       0.90533890       0.98983173       0.11014877 </v>
   <v>       0.90055669       0.96750471       0.60204000 </v>
   <v>       0.90951362       0.36052912       0.10222268 </v>
   <v>       0.91306450       0.33432676       0.60185255 </v>
   <v>       0.89254613       0.62239254       0.10522525 </v>
   <v>       0.89902315       0.70418609       0.59762153 </v>
   <v>       0.14923271       0.16236785       0.66782332 </v>
   <v>       0.17795445       0.47682773       0.15748502 </v>
   <v>       0.14781373       0.50260131       0.65578559 </v>
   <v>       0.13371538       0.82815920       0.12997736 </v>
   <v>       0.17628224       0.83279584       0.64710102 </v>
   <v>       0.33056134       0.00409554       0.33291065 </v>
   <v>       0.34016260       0.00706516       0.84877200 </v>
   <v>       0.34088992       0.33237825       0.35051497 </v>
   <v>       0.34048062       0.34102674       0.83394802 </v>
   <v>       0.33400512       0.67080125       0.34028403 </v>
   <v>       0.34704319       0.66689803       0.83307274 </v>
   <v>       0.08514041       0.00141223       0.39778468 </v>
   <v>       0.11798687       0.98145261       0.94526138 </v>
   <v>       0.08681001       0.33016262       0.39502985 </v>
   <v>       0.10485636       0.33019038       0.93229954 </v>
   <v>       0.08539113       0.66635219       0.38948246 </v>
   <v>       0.09100220       0.66443549       0.89217214 </v>
   <v>       0.36773585       0.18366288       0.09444891 </v>
   <v>       0.41000238       0.16598526       0.60563704 </v>
   <v>       0.40175768       0.50535797       0.09670550 </v>
   <v>       0.41328458       0.49888420       0.60093465 </v>
   <v>       0.38918330       0.86076884       0.09560038 </v>
   <v>       0.41639723       0.83382095       0.59482750 </v>
   <v>       0.95518635       0.17251049       0.13317615 </v>
   <v>       0.98683861       0.15382529       0.63141874 </v>
   <v>       0.04928629       0.40294476       0.06342997 </v>
   <v>       0.98515802       0.51673968       0.61168671 </v>
   <v>       0.97127872       0.80188068       0.12488809 </v>
   <v>       0.02986404       0.83371736       0.63840317 </v>
   <v>       0.49692304       0.99346586       0.39108991 </v>
   <v>       0.50312520       0.99821191       0.86167611 </v>
   <v>       0.50650487       0.34606919       0.39613719 </v>
   <v>       0.50794808       0.34587954       0.85983421 </v>
   <v>       0.50154789       0.66718258       0.38499384 </v>
   <v>       0.51030464       0.66850295       0.86325423 </v>
   <v>       0.65862312       0.16938720       0.27955922 </v>
   <v>       0.67140121       0.16779138       0.78276782 </v>
   <v>       0.65738127       0.50233063       0.27664055 </v>
   <v>       0.67442788       0.49561443       0.77748020 </v>
   <v>       0.65849570       0.83700614       0.28013474 </v>
   <v>       0.67539713       0.83271047       0.78071618 </v>
   <v>       0.81451868       0.99340182       0.22083579 </v>
   <v>       0.82934613       0.01029584       0.73302928 </v>
   <v>       0.81236726       0.33483090       0.22572525 </v>
   <v>       0.83223200       0.32736888       0.72035069 </v>
   <v>       0.81030037       0.67247502       0.22197384 </v>
   <v>       0.82699813       0.65554229       0.72460693 </v>
   <v>       0.81884024       0.00841596       0.43941862 </v>
   <v>       0.82899948       0.99070043       0.95114129 </v>
   <v>       0.82233188       0.33649685       0.44900043 </v>
   <v>       0.82767457       0.33342492       0.94045309 </v>
   <v>       0.81466825       0.65984939       0.43852784 </v>
   <v>       0.82202958       0.65823820       0.94252419 </v>
   <v>       0.66327472       0.17093778       0.05279984 </v>
   <v>       0.66468127       0.16470156       0.55112673 </v>
   <v>       0.66173656       0.50416919       0.05707398 </v>
   <v>       0.67445515       0.49904529       0.55980053 </v>
   <v>       0.66303101       0.83555866       0.05594234 </v>
   <v>       0.66276548       0.83390589       0.55966069 </v>
   <v>       0.49162728       0.01232263       0.12445041 </v>
   <v>       0.50106702       0.00156501       0.63020676 </v>
   <v>       0.48818734       0.33903365       0.12343222 </v>
   <v>       0.50057639       0.33194284       0.62829163 </v>
   <v>       0.48442095       0.67937402       0.12061635 </v>
   <v>       0.50224617       0.66499642       0.62806416 </v>
   <v>       0.99171214       0.17060246       0.38931830 </v>
   <v>       0.02191924       0.15563765       0.89800530 </v>
   <v>       0.99464588       0.49870466       0.35966776 </v>
   <v>       0.00877757       0.49288987       0.85256814 </v>
   <v>       0.99269554       0.83038486       0.38250555 </v>
   <v>       0.99552323       0.82099932       0.85902759 </v>
   <v>       0.18003083       0.00736565       0.79529303 </v>
   <v>       0.18004930       0.35312353       0.29388061 </v>
   <v>       0.17149300       0.33357399       0.78817374 </v>
   <v>       0.16447215       0.65858247       0.27050976 </v>
   <v>       0.18036712       0.66004170       0.78026572 </v>
   <v>       0.37757423       0.17947953       0.25592359 </v>
   <v>       0.32327978       0.17123831       0.71421710 </v>
   <v>       0.33855744       0.50712329       0.22952800 </v>
   <v>       0.32627695       0.49939479       0.71112428 </v>
   <v>       0.33803871       0.82323371       0.22910150 </v>
   <v>       0.33397895       0.83218196       0.71197555 </v>
   <v>       0.32871367       0.17111635       0.45486544 </v>
   <v>       0.37480600       0.18181462       0.93465168 </v>
   <v>       0.33247974       0.50536375       0.44853677 </v>
   <v>       0.34734022       0.50882074       0.93542582 </v>
   <v>       0.32410468       0.83283151       0.44654888 </v>
   <v>       0.34585177       0.82592786       0.93368594 </v>
   <v>       0.27310748       0.02063481       0.05284337 </v>
   <v>       0.17032714       0.00946407       0.55469342 </v>
   <v>       0.24529345       0.33688448       0.05431154 </v>
   <v>       0.15227318       0.33199583       0.55755943 </v>
   <v>       0.17566677       0.64896886       0.04952166 </v>
   <v>       0.17162596       0.65852467       0.54477634 </v>
   <v>       0.14905879       0.04008073       0.23878753 </v>
  </varray>
 </structure>
</modeling>
