 running    4 mpi-ranks, on    1 nodes
 distrk:  each k-point on    1 cores,    4 groups
 distr:  one band on    1 cores,    1 groups
 OpenACC runtime initialized ...    4 GPUs detected
 vasp.6.4.2 20Jul23 (build Nov 12 2023 22:16:35) complex                         
 POSCAR found type information on POSCAR GaO P 
 POSCAR found :  3 types and     120 ions
 scaLAPACK will be used selectively (only on CPU)
 LDA part: xc-table for Pade appr. of Perdew
 POSCAR, INCAR and KPOINTS ok, starting setup
 FFT: planning ... GRIDC
 FFT: planning ... GRID_SOFT
 FFT: planning ... GRID
 WAVECAR not read
 entering main loop
       N       E                     dE             d eps       ncg     rms          rms(c)
DAV:   1     0.219965676569E+05    0.21997E+05   -0.32118E+05 10128   0.282E+03
DAV:   2     0.487627899236E+04   -0.17120E+05   -0.16146E+05 10128   0.816E+02
DAV:   3    -0.138644917118E+03   -0.50149E+04   -0.47164E+04 12920   0.320E+02
DAV:   4    -0.765143386514E+03   -0.62650E+03   -0.61376E+03 12480   0.121E+02
DAV:   5    -0.809449063555E+03   -0.44306E+02   -0.43971E+02 14592   0.347E+01BRMIX: very serious problems
 the old and the new charge density differ
 old charge density:  1055.00000 new 1055.99973
BRMIX: very serious problems
 the old and the new charge density differ
 old charge density:  1055.00000 new 1055.99973
BRMIX: very serious problems
 the old and the new charge density differ
 old charge density:  1055.00000 new 1055.99973
BRMIX: very serious problems
 the old and the new charge density differ
 old charge density:  1055.00000 new 1055.99973
    0.611E+01
RMM:   6    -0.695818193202E+03    0.11363E+03   -0.38365E+02 13180   0.236E+01    0.168E+01
RMM:   7    -0.699324224165E+03   -0.35060E+01   -0.65990E+01 14040   0.979E+00    0.135E+01
RMM:   8    -0.699061985600E+03    0.26224E+00   -0.95206E+00 12726   0.527E+00    0.408E+00
RMM:   9    -0.698731330314E+03    0.33066E+00   -0.28213E+00 15213   0.221E+00    0.124E+00
RMM:  10    -0.698786316332E+03   -0.54986E-01   -0.86026E-01 13417   0.109E+00    0.820E-01
RMM:  11    -0.698796984386E+03   -0.10668E-01   -0.20524E-01 13496   0.767E-01    0.591E-01
RMM:  12    -0.698790617508E+03    0.63669E-02   -0.50259E-02 14301   0.298E-01    0.220E-01
RMM:  13    -0.698791777793E+03   -0.11603E-02   -0.23721E-02 14597   0.167E-01    0.507E-02
RMM:  14    -0.698792134305E+03   -0.35651E-03   -0.39314E-03 15036   0.769E-02    0.204E-02
RMM:  15    -0.698792287824E+03   -0.15352E-03   -0.14053E-03 13092   0.351E-02    0.520E-03
RMM:  16    -0.698792326900E+03   -0.39076E-04   -0.43359E-04 10527   0.206E-02    0.907E-03
RMM:  17    -0.698792342634E+03   -0.15734E-04   -0.16782E-04  9904   0.131E-02    0.242E-03
RMM:  18    -0.698792349790E+03   -0.71567E-05   -0.65180E-05  8910   0.827E-03
   1 F= -.69879235E+03 E0= -.69878671E+03  d E =-.698792E+03
 curvature:   0.00 expect dE= 0.000E+00 dE for cont linesearch  0.000E+00
 trial: gam= 0.00000 g(F)=  0.117E+02 g(S)=  0.000E+00 ort = 0.000E+00 (trialstep = 0.100E+01)
 search vector abs. value=  0.117E+02
 bond charge predicted
       N       E                     dE             d eps       ncg     rms          rms(c)
DAV:   1    -0.645298761903E+03    0.53494E+02   -0.84479E+03 12672   0.153E+02    0.241E+01
RMM:   2    -0.689445787109E+03   -0.44147E+02   -0.48692E+02 13689   0.358E+01    0.519E+00
RMM:   3    -0.698363214053E+03   -0.89174E+01   -0.92118E+01 14611   0.139E+01    0.112E+01
RMM:   4    -0.699861594484E+03   -0.14984E+01   -0.18194E+01 15768   0.587E+00    0.112E+01
RMM:   5    -0.699968051513E+03   -0.10646E+00   -0.21259E+00 15762   0.189E+00    0.101E+01
RMM:   6    -0.699755503324E+03    0.21255E+00   -0.41394E-01 14127   0.941E-01    0.626E+00
RMM:   7    -0.699931037369E+03   -0.17553E+00   -0.15856E+00 13509   0.219E+00    0.582E+00
RMM:   8    -0.699967078422E+03   -0.36041E-01   -0.20152E-01 15328   0.542E-01    0.604E+00
RMM:   9    -0.700143477383E+03   -0.17640E+00   -0.11268E-01 13645   0.422E-01    0.762E+00
RMM:  10    -0.700022125642E+03    0.12135E+00   -0.19973E-02 13438   0.209E-01    0.704E+00
RMM:  11    -0.699664496753E+03    0.35763E+00   -0.41968E-01 15163   0.646E-01    0.492E+00
RMM:  12    -0.699657913577E+03    0.65832E-02   -0.10980E-01 14172   0.363E-01    0.384E+00
RMM:  13    -0.699762781433E+03   -0.10487E+00   -0.25285E-01 15229   0.653E-01    0.343E+00
RMM:  14    -0.699803569286E+03   -0.40788E-01   -0.76526E-02 14100   0.296E-01    0.391E+00
RMM:  15    -0.699653834544E+03    0.14973E+00   -0.15979E-01 14477   0.552E-01    0.288E+00
RMM:  16    -0.699629977660E+03    0.23857E-01   -0.17761E-01 14840   0.493E-01    0.103E+00
RMM:  17    -0.699623281693E+03    0.66960E-02   -0.18901E-02 13681   0.226E-01    0.667E-01
RMM:  18    -0.699631822764E+03   -0.85411E-02   -0.26280E-02 13548   0.263E-01    0.115E+00
RMM:  19    -0.699628468362E+03    0.33544E-02   -0.29839E-03 13665   0.806E-02    0.108E+00
RMM:  20    -0.699614373853E+03    0.14095E-01   -0.21084E-02 14190   0.173E-01    0.411E-01
RMM:  21    -0.699613597699E+03    0.77615E-03   -0.70462E-03 13875   0.904E-02    0.145E-01
RMM:  22    -0.699613629356E+03   -0.31657E-04   -0.68449E-04 14987   0.366E-02    0.101E-01
RMM:  23    -0.699613627270E+03    0.20853E-05   -0.25119E-04 10812   0.164E-02    0.787E-02
RMM:  24    -0.699613570586E+03    0.56684E-04   -0.25370E-04 11514   0.195E-02    0.185E-02
RMM:  25    -0.699613574965E+03   -0.43792E-05   -0.83439E-05  9826   0.101E-02
   2 F= -.69961357E+03 E0= -.69960446E+03  d E =-.821225E+00
 trial-energy change:   -0.821225  1 .order   -3.122917  -11.681615    5.435781
 step:   0.4810(harm=  0.6824)  dis= 0.17330  next Energy=  -701.345778 (dE=-0.255E+01)
 bond charge predicted
       N       E                     dE             d eps       ncg     rms          rms(c)
DAV:   1    -0.697732903550E+03    0.18807E+01   -0.83860E+02 14144   0.436E+01    0.640E+00
RMM:   2    -0.700334967899E+03   -0.26021E+01   -0.28189E+01 13260   0.106E+01    0.186E+00
RMM:   3    -0.701113660813E+03   -0.77869E+00   -0.77163E+00 15179   0.404E+00    0.124E+00
RMM:   4    -0.701216017523E+03   -0.10236E+00   -0.10730E+00 15750   0.140E+00    0.100E+00
RMM:   5    -0.701216498687E+03   -0.48116E-03   -0.12355E-01 15358   0.528E-01    0.221E-01
RMM:   6    -0.701217753439E+03   -0.12548E-02   -0.30094E-02 14267   0.276E-01    0.327E-01
RMM:   7    -0.701218155510E+03   -0.40207E-03   -0.89907E-03 15768   0.131E-01    0.102E-01
RMM:   8    -0.701218229586E+03   -0.74076E-04   -0.16948E-03 14488   0.525E-02    0.430E-02
RMM:   9    -0.701218255002E+03   -0.25416E-04   -0.42343E-04 12916   0.271E-02    0.109E-02
RMM:  10    -0.701218269069E+03   -0.14067E-04   -0.15352E-04 10458   0.150E-02    0.766E-03
RMM:  11    -0.701218271550E+03   -0.24817E-05   -0.44329E-05  8634   0.953E-03
   3 F= -.70121827E+03 E0= -.70121291E+03  d E =-.242592E+01
 curvature:  -0.20 expect dE=-0.521E+00 dE for cont linesearch -0.670E-05
 trial: gam= 0.21699 g(F)=  0.255E+01 g(S)=  0.000E+00 ort = 0.196E-01 (trialstep = 0.896E+00)
 search vector abs. value=  0.311E+01
 bond charge predicted
       N       E                     dE             d eps       ncg     rms          rms(c)
DAV:   1    -0.699130393962E+03    0.20879E+01   -0.55545E+02 12760   0.330E+01    0.424E+00
RMM:   2    -0.701084253759E+03   -0.19539E+01   -0.20768E+01 13037   0.810E+00    0.150E+00
RMM:   3    -0.701531921392E+03   -0.44767E+00   -0.47996E+00 15288   0.320E+00    0.150E+00
RMM:   4    -0.701551006883E+03   -0.19085E-01   -0.47449E-01 15098   0.103E+00    0.740E-01
RMM:   5    -0.701550197183E+03    0.80970E-03   -0.89837E-02 15143   0.440E-01    0.278E-01
RMM:   6    -0.701550666193E+03   -0.46901E-03   -0.16461E-02 15558   0.186E-01    0.116E-01
RMM:   7    -0.701550961429E+03   -0.29524E-03   -0.47944E-03 15010   0.880E-02    0.807E-02
RMM:   8    -0.701551009513E+03   -0.48083E-04   -0.12299E-03 13841   0.472E-02    0.270E-02
RMM:   9    -0.701551033232E+03   -0.23719E-04   -0.36442E-04 12205   0.225E-02    0.126E-02
RMM:  10    -0.701551041029E+03   -0.77976E-05   -0.12012E-04 10050   0.135E-02    0.714E-03
RMM:  11    -0.701551043254E+03   -0.22241E-05   -0.38496E-05  8677   0.835E-03
   4 F= -.70155104E+03 E0= -.70154557E+03  d E =-.332772E+00
 trial-energy change:   -0.332772  1 .order   -0.529821   -2.293042    1.233400
 step:   0.5090(harm=  0.5828)  dis= 0.08137  next Energy=  -701.833362 (dE=-0.615E+00)
 bond charge predicted
       N       E                     dE             d eps       ncg     rms          rms(c)
DAV:   1    -0.701442744772E+03    0.10830E+00   -0.90447E+01 11344   0.134E+01    0.210E+00
RMM:   2    -0.701751924834E+03   -0.30918E+00   -0.32814E+00 13096   0.353E+00    0.558E-01
RMM:   3    -0.701822363035E+03   -0.70438E-01   -0.75285E-01 15097   0.137E+00    0.532E-01
RMM:   4    -0.701825656773E+03   -0.32937E-02   -0.81978E-02 15076   0.442E-01    0.265E-01
RMM:   5    -0.701825488834E+03    0.16794E-03   -0.15200E-02 15194   0.181E-01    0.813E-02
RMM:   6    -0.701825723437E+03   -0.23460E-03   -0.30483E-03 15214   0.769E-02    0.440E-02
RMM:   7    -0.701825775320E+03   -0.51884E-04   -0.83420E-04 14111   0.370E-02    0.209E-02
RMM:   8    -0.701825791751E+03   -0.16431E-04   -0.22469E-04 11392   0.189E-02    0.766E-03
RMM:   9    -0.701825797483E+03   -0.57319E-05   -0.73282E-05  9410   0.108E-02
   5 F= -.70182580E+03 E0= -.70182036E+03  d E =-.607526E+00
 curvature:  -0.33 expect dE=-0.314E+00 dE for cont linesearch -0.303E-04
 trial: gam= 0.33290 g(F)=  0.937E+00 g(S)=  0.000E+00 ort = 0.168E-01 (trialstep = 0.819E+00)
 search vector abs. value=  0.129E+01
 bond charge predicted
       N       E                     dE             d eps       ncg     rms          rms(c)
DAV:   1    -0.701335390428E+03    0.49040E+00   -0.20905E+02 10464   0.200E+01    0.236E+00
RMM:   2    -0.702097053243E+03   -0.76166E+00   -0.81448E+00 13661   0.548E+00    0.765E-01
RMM:   3    -0.702232203691E+03   -0.13515E+00   -0.15789E+00 15308   0.205E+00    0.837E-01
RMM:   4    -0.702229724753E+03    0.24789E-02   -0.15150E-01 15159   0.658E-01    0.348E-01
RMM:   5    -0.702227888641E+03    0.18361E-02   -0.39021E-02 14981   0.306E-01    0.160E-01
RMM:   6    -0.702228103016E+03   -0.21438E-03   -0.69563E-03 15754   0.128E-01    0.746E-02
RMM:   7    -0.702228141213E+03   -0.38197E-04   -0.17635E-03 14134   0.598E-02    0.339E-02
RMM:   8    -0.702228163618E+03   -0.22405E-04   -0.51259E-04 13903   0.312E-02    0.103E-02
RMM:   9    -0.702228175373E+03   -0.11755E-04   -0.14431E-04 10334   0.145E-02    0.578E-03
RMM:  10    -0.702228178330E+03   -0.29574E-05   -0.41729E-05  9090   0.888E-03
   6 F= -.70222818E+03 E0= -.70222258E+03  d E =-.402381E+00
 trial-energy change:   -0.402381  1 .order   -0.414947   -0.771674   -0.058221
 step:   0.8943(harm=  0.8856)  dis= 0.04452  next Energy=  -702.230854 (dE=-0.405E+00)
 bond charge predicted
       N       E                     dE             d eps       ncg     rms          rms(c)
DAV:   1    -0.702224443330E+03    0.37320E-02   -0.17855E+00 11744   0.185E+00    0.210E-01
RMM:   2    -0.702229916757E+03   -0.54734E-02   -0.59021E-02 13119   0.477E-01    0.678E-02
RMM:   3    -0.702230976637E+03   -0.10599E-02   -0.12506E-02 15163   0.184E-01    0.728E-02
RMM:   4    -0.702230960975E+03    0.15662E-04   -0.12044E-03 14175   0.622E-02    0.265E-02
RMM:   5    -0.702230961879E+03   -0.90378E-06   -0.39343E-04 13571   0.303E-02    0.156E-02
RMM:   6    -0.702230963108E+03   -0.12292E-05   -0.58012E-05  9901   0.126E-02
   7 F= -.70223096E+03 E0= -.70222535E+03  d E =-.405166E+00
 curvature:  -0.60 expect dE=-0.226E+00 dE for cont linesearch -0.148E-06
 trial: gam= 0.38633 g(F)=  0.379E+00 g(S)=  0.000E+00 ort =-0.566E-03 (trialstep = 0.834E+00)
 search vector abs. value=  0.572E+00
 bond charge predicted
       N       E                     dE             d eps       ncg     rms          rms(c)
DAV:   1    -0.702021325962E+03    0.20964E+00   -0.90019E+01 10696   0.137E+01    0.157E+00
RMM:   2    -0.702348911651E+03   -0.32759E+00   -0.34637E+00 13588   0.383E+00    0.503E-01
RMM:   3    -0.702419278386E+03   -0.70367E-01   -0.75711E-01 15264   0.146E+00    0.505E-01
RMM:   4    -0.702421892027E+03   -0.26136E-02   -0.84034E-02 15473   0.488E-01    0.264E-01
RMM:   5    -0.702421236193E+03    0.65583E-03   -0.19401E-02 15091   0.218E-01    0.928E-02
RMM:   6    -0.702421539245E+03   -0.30305E-03   -0.41077E-03 15631   0.977E-02    0.671E-02
RMM:   7    -0.702421571906E+03   -0.32661E-04   -0.11307E-03 15167   0.462E-02    0.213E-02
RMM:   8    -0.702421595044E+03   -0.23138E-04   -0.30440E-04 12549   0.227E-02    0.115E-02
RMM:   9    -0.702421600684E+03   -0.56397E-05   -0.93431E-05  9718   0.136E-02
   8 F= -.70242160E+03 E0= -.70241600E+03  d E =-.190638E+00
 trial-energy change:   -0.190638  1 .order   -0.189644   -0.315857   -0.063430
 step:   1.0374(harm=  1.0434)  dis= 0.03893  next Energy=  -702.429357 (dE=-0.198E+00)
 bond charge predicted
       N       E                     dE             d eps       ncg     rms          rms(c)
DAV:   1    -0.702408200950E+03    0.13394E-01   -0.53779E+00 11488   0.334E+00    0.378E-01
RMM:   2    -0.702426239402E+03   -0.18038E-01   -0.19024E-01 13457   0.892E-01    0.122E-01
RMM:   3    -0.702430047601E+03   -0.38082E-02   -0.41271E-02 15240   0.338E-01    0.119E-01
RMM:   4    -0.702430187018E+03   -0.13942E-03   -0.44462E-03 15343   0.113E-01    0.624E-02
RMM:   5    -0.702430150691E+03    0.36328E-04   -0.11173E-03 14895   0.517E-02    0.252E-02
RMM:   6    -0.702430166176E+03   -0.15486E-04   -0.23217E-04 13180   0.229E-02    0.171E-02
RMM:   7    -0.702430166982E+03   -0.80594E-06   -0.66392E-05  9549   0.121E-02
   9 F= -.70243017E+03 E0= -.70242457E+03  d E =-.199204E+00
 curvature:  -0.79 expect dE=-0.160E+00 dE for cont linesearch -0.168E-04
 trial: gam= 0.51836 g(F)=  0.203E+00 g(S)=  0.000E+00 ort = 0.350E-02 (trialstep = 0.875E+00)
 search vector abs. value=  0.360E+00
 bond charge predicted
       N       E                     dE             d eps       ncg     rms          rms(c)
DAV:   1    -0.702268773043E+03    0.16139E+00   -0.62226E+01 10711   0.114E+01    0.132E+00
RMM:   2    -0.702486586314E+03   -0.21781E+00   -0.22986E+00 13564   0.309E+00    0.402E-01
RMM:   3    -0.702533089564E+03   -0.46503E-01   -0.49148E-01 15235   0.117E+00    0.403E-01
RMM:   4    -0.702535142681E+03   -0.20531E-02   -0.51690E-02 15526   0.380E-01    0.223E-01
RMM:   5    -0.702534636841E+03    0.50584E-03   -0.11731E-02 14718   0.167E-01    0.782E-02
RMM:   6    -0.702534798899E+03   -0.16206E-03   -0.25529E-03 15661   0.755E-02    0.461E-02
RMM:   7    -0.702534830815E+03   -0.31916E-04   -0.68638E-04 14604   0.336E-02    0.157E-02
RMM:   8    -0.702534843485E+03   -0.12670E-04   -0.17938E-04 10893   0.181E-02    0.749E-03
RMM:   9    -0.702534847725E+03   -0.42396E-05   -0.60330E-05  9390   0.108E-02
  10 F= -.70253485E+03 E0= -.70252919E+03  d E =-.104681E+00
 trial-energy change:   -0.104681  1 .order   -0.103455   -0.179162   -0.027748
 step:   1.0262(harm=  1.0349)  dis= 0.02971  next Energy=  -702.537259 (dE=-0.107E+00)
 bond charge predicted
       N       E                     dE             d eps       ncg     rms          rms(c)
DAV:   1    -0.702530091817E+03    0.47517E-02   -0.18714E+00 11656   0.198E+00    0.226E-01
RMM:   2    -0.702536179369E+03   -0.60876E-02   -0.64096E-02 13287   0.519E-01    0.700E-02
RMM:   3    -0.702537575428E+03   -0.13961E-02   -0.14810E-02 15172   0.202E-01    0.676E-02
RMM:   4    -0.702537645431E+03   -0.70003E-04   -0.15744E-03 15164   0.664E-02    0.374E-02
RMM:   5    -0.702537633659E+03    0.11772E-04   -0.36106E-04 13598   0.302E-02    0.132E-02
RMM:   6    -0.702537638745E+03   -0.50855E-05   -0.75859E-05 10302   0.138E-02
  11 F= -.70253764E+03 E0= -.70253194E+03  d E =-.107472E+00
 curvature:  -0.91 expect dE=-0.982E-01 dE for cont linesearch -0.756E-05
 trial: gam= 0.54413 g(F)=  0.108E+00 g(S)=  0.000E+00 ort = 0.173E-02 (trialstep = 0.905E+00)
 search vector abs. value=  0.217E+00
 bond charge predicted
       N       E                     dE             d eps       ncg     rms          rms(c)
DAV:   1    -0.702444567822E+03    0.93066E-01   -0.35795E+01 10720   0.868E+00    0.105E+00
RMM:   2    -0.702568851123E+03   -0.12428E+00   -0.13195E+00 13360   0.237E+00    0.331E-01
RMM:   3    -0.702596865601E+03   -0.28014E-01   -0.29908E-01 15318   0.916E-01    0.321E-01
RMM:   4    -0.702598268995E+03   -0.14034E-02   -0.33086E-02 15508   0.308E-01    0.191E-01
RMM:   5    -0.702597879593E+03    0.38940E-03   -0.71789E-03 15159   0.132E-01    0.705E-02
RMM:   6    -0.702597964718E+03   -0.85125E-04   -0.16685E-03 15354   0.571E-02    0.467E-02
RMM:   7    -0.702597968015E+03   -0.32963E-05   -0.36928E-04 13282   0.255E-02    0.244E-02
RMM:   8    -0.702597974351E+03   -0.63358E-05   -0.15699E-04 10497   0.156E-02    0.140E-02
RMM:   9    -0.702597973678E+03    0.67294E-06   -0.41636E-05  9203   0.962E-03
  12 F= -.70259797E+03 E0= -.70259191E+03  d E =-.603349E-01
 trial-energy change:   -0.060335  1 .order   -0.059979   -0.098785   -0.021172
 step:   1.1435(harm=  1.1518)  dis= 0.03416  next Energy=  -702.600771 (dE=-0.631E-01)
 bond charge predicted
       N       E                     dE             d eps       ncg     rms          rms(c)
DAV:   1    -0.702590986761E+03    0.69876E-02   -0.24907E+00 11464   0.229E+00    0.272E-01
RMM:   2    -0.702599340693E+03   -0.83539E-02   -0.88627E-02 13326   0.607E-01    0.902E-02
RMM:   3    -0.702601144038E+03   -0.18033E-02   -0.19228E-02 15310   0.233E-01    0.921E-02
RMM:   4    -0.702601267845E+03   -0.12381E-03   -0.22667E-03 15258   0.778E-02    0.729E-02
RMM:   5    -0.702601160038E+03    0.10781E-03   -0.52587E-04 13904   0.344E-02    0.198E-02
RMM:   6    -0.702601168186E+03   -0.81476E-05   -0.14942E-04 10820   0.172E-02    0.171E-02
RMM:   7    -0.702601164825E+03    0.33609E-05   -0.36769E-05  8965   0.107E-02
  13 F= -.70260116E+03 E0= -.70259518E+03  d E =-.635261E-01
 curvature:  -1.14 expect dE=-0.877E-01 dE for cont linesearch -0.760E-05
 trial: gam= 0.72327 g(F)=  0.768E-01 g(S)=  0.000E+00 ort = 0.120E-02 (trialstep = 0.953E+00)
 search vector abs. value=  0.192E+00
 bond charge predicted
       N       E                     dE             d eps       ncg     rms          rms(c)
DAV:   1    -0.702504151551E+03    0.97017E-01   -0.35944E+01 10854   0.866E+00    0.102E+00
RMM:   2    -0.702627275504E+03   -0.12312E+00   -0.12939E+00 13491   0.231E+00    0.366E-01
RMM:   3    -0.702653005099E+03   -0.25730E-01   -0.27317E-01 15276   0.877E-01    0.367E-01
RMM:   4    -0.702654314760E+03   -0.13097E-02   -0.31405E-02 15503   0.291E-01    0.289E-01
RMM:   5    -0.702652804137E+03    0.15106E-02   -0.70731E-03 14933   0.126E-01    0.797E-02
RMM:   6    -0.702652920360E+03   -0.11622E-03   -0.21704E-03 13298   0.669E-02    0.677E-02
RMM:   7    -0.702652880816E+03    0.39544E-04   -0.51907E-04 13861   0.331E-02    0.199E-02
RMM:   8    -0.702652893008E+03   -0.12192E-04   -0.16590E-04 10765   0.163E-02    0.128E-02
RMM:   9    -0.702652892683E+03    0.32446E-06   -0.37371E-05  8984   0.969E-03
  14 F= -.70265289E+03 E0= -.70264746E+03  d E =-.517279E-01
 trial-energy change:   -0.051728  1 .order   -0.050785   -0.074010   -0.027560
 step:   1.4304(harm=  1.5178)  dis= 0.04839  next Energy=  -702.659924 (dE=-0.588E-01)
 bond charge predicted
       N       E                     dE             d eps       ncg     rms          rms(c)
DAV:   1    -0.702624876704E+03    0.28016E-01   -0.90443E+00 11200   0.434E+00    0.506E-01
RMM:   2    -0.702654811009E+03   -0.29934E-01   -0.31480E-01 13359   0.114E+00    0.184E-01
RMM:   3    -0.702661191449E+03   -0.63804E-02   -0.67711E-02 15274   0.436E-01    0.182E-01
RMM:   4    -0.702661513414E+03   -0.32196E-03   -0.78352E-03 15422   0.145E-01    0.143E-01
RMM:   5    -0.702661135314E+03    0.37810E-03   -0.18403E-03 14884   0.639E-02    0.359E-02
RMM:   6    -0.702661173702E+03   -0.38388E-04   -0.51765E-04 13011   0.327E-02    0.344E-02
RMM:   7    -0.702661161751E+03    0.11950E-04   -0.12794E-04 11287   0.176E-02    0.101E-02
RMM:   8    -0.702661165344E+03   -0.35925E-05   -0.50218E-05  8644   0.104E-02
  15 F= -.70266117E+03 E0= -.70265619E+03  d E =-.600005E-01
 curvature:  -1.83 expect dE=-0.121E+00 dE for cont linesearch -0.162E-03
 trial: gam= 0.83759 g(F)=  0.661E-01 g(S)=  0.000E+00 ort = 0.413E-02 (trialstep = 0.969E+00)
 search vector abs. value=  0.208E+00
 bond charge predicted
       N       E                     dE             d eps       ncg     rms          rms(c)
DAV:   1    -0.702558540456E+03    0.10262E+00   -0.36499E+01 10871   0.865E+00    0.105E+00
RMM:   2    -0.702682567702E+03   -0.12403E+00   -0.13016E+00 13460   0.229E+00    0.343E-01
RMM:   3    -0.702710191205E+03   -0.27624E-01   -0.28715E-01 15266   0.876E-01    0.360E-01
RMM:   4    -0.702712299968E+03   -0.21088E-02   -0.32242E-02 15567   0.289E-01    0.311E-01
RMM:   5    -0.702710925718E+03    0.13742E-02   -0.63813E-03 14971   0.119E-01    0.984E-02
RMM:   6    -0.702711050846E+03   -0.12513E-03   -0.25118E-03 13220   0.684E-02    0.832E-02
RMM:   7    -0.702710968733E+03    0.82113E-04   -0.59574E-04 13727   0.336E-02    0.187E-02
RMM:   8    -0.702710987826E+03   -0.19093E-04   -0.19399E-04 10614   0.163E-02    0.192E-02
RMM:   9    -0.702710985083E+03    0.27430E-05   -0.47934E-05  9286   0.105E-02
  16 F= -.70271099E+03 E0= -.70270716E+03  d E =-.498197E-01
 trial-energy change:   -0.049820  1 .order   -0.048701   -0.067382   -0.030019
 step:   1.5716(harm=  1.7473)  dis= 0.07275  next Energy=  -702.720593 (dE=-0.594E-01)
 bond charge predicted
       N       E                     dE             d eps       ncg     rms          rms(c)
DAV:   1    -0.702664350021E+03    0.46638E-01   -0.14128E+01 11208   0.537E+00    0.642E-01
RMM:   2    -0.702711846759E+03   -0.47497E-01   -0.49862E-01 13390   0.141E+00    0.210E-01
RMM:   3    -0.702722361890E+03   -0.10515E-01   -0.10980E-01 15268   0.541E-01    0.210E-01
RMM:   4    -0.702723146265E+03   -0.78437E-03   -0.12017E-02 15482   0.177E-01    0.173E-01
RMM:   5    -0.702722710608E+03    0.43566E-03   -0.26892E-03 14838   0.764E-02    0.459E-02
RMM:   6    -0.702722778957E+03   -0.68349E-04   -0.72866E-04 13753   0.373E-02    0.462E-02
RMM:   7    -0.702722755859E+03    0.23097E-04   -0.23151E-04 11638   0.205E-02    0.120E-02
RMM:   8    -0.702722761201E+03   -0.53418E-05   -0.64064E-05  8821   0.111E-02
  17 F= -.70272276E+03 E0= -.70271988E+03  d E =-.615959E-01
 curvature:  -2.48 expect dE=-0.196E+00 dE for cont linesearch -0.505E-03
 trial: gam= 1.16818 g(F)=  0.791E-01 g(S)=  0.000E+00 ort = 0.651E-02 (trialstep = 0.599E+00)
 search vector abs. value=  0.378E+00
 bond charge predicted
       N       E                     dE             d eps       ncg     rms          rms(c)
DAV:   1    -0.702673172596E+03    0.49583E-01   -0.22389E+01 10767   0.665E+00    0.885E-01
RMM:   2    -0.702748644905E+03   -0.75472E-01   -0.78913E-01 13343   0.178E+00    0.287E-01
RMM:   3    -0.702765991803E+03   -0.17347E-01   -0.17938E-01 15265   0.690E-01    0.282E-01
RMM:   4    -0.702767197941E+03   -0.12061E-02   -0.19589E-02 15504   0.229E-01    0.207E-01
RMM:   5    -0.702766857226E+03    0.34072E-03   -0.45823E-03 14159   0.104E-01    0.772E-02
RMM:   6    -0.702766915922E+03   -0.58696E-04   -0.10394E-03 14958   0.491E-02    0.536E-02
RMM:   7    -0.702766907050E+03    0.88725E-05   -0.42871E-04 12715   0.250E-02    0.270E-02
RMM:   8    -0.702766905074E+03    0.19751E-05   -0.82873E-05  9672   0.137E-02
  18 F= -.70276691E+03 E0= -.70276590E+03  d E =-.441439E-01
 trial-energy change:   -0.044144  1 .order   -0.042720   -0.051932   -0.033508
 step:   1.1705(harm=  1.6884)  dis= 0.08637  next Energy=  -702.784127 (dE=-0.614E-01)
 bond charge predicted
       N       E                     dE             d eps       ncg     rms          rms(c)
DAV:   1    -0.702705455572E+03    0.61451E-01   -0.20385E+01 11040   0.634E+00    0.843E-01
RMM:   2    -0.702773949944E+03   -0.68494E-01   -0.71825E-01 13326   0.169E+00    0.271E-01
RMM:   3    -0.702789758479E+03   -0.15809E-01   -0.16458E-01 15275   0.662E-01    0.273E-01
RMM:   4    -0.702790843495E+03   -0.10850E-02   -0.17878E-02 15506   0.219E-01    0.199E-01
RMM:   5    -0.702790515553E+03    0.32794E-03   -0.43810E-03 14165   0.101E-01    0.807E-02
RMM:   6    -0.702790553238E+03   -0.37685E-04   -0.95967E-04 14882   0.473E-02    0.530E-02
RMM:   7    -0.702790543179E+03    0.10059E-04   -0.41143E-04 12663   0.245E-02    0.254E-02
RMM:   8    -0.702790541429E+03    0.17508E-05   -0.80065E-05  9618   0.134E-02
  19 F= -.70279054E+03 E0= -.70279047E+03  d E =-.677802E-01
 curvature:  -2.85 expect dE=-0.192E+00 dE for cont linesearch -0.372E-02
 ZBRENT: increasing intervall
 opt :   2.3135  next Energy=  -702.777362 (dE=-0.546E-01)
 bond charge predicted
       N       E                     dE             d eps       ncg     rms          rms(c)
DAV:   1    -0.702415709654E+03    0.37483E+00   -0.81360E+01 10733   0.127E+01    0.187E+00
RMM:   2    -0.702701630450E+03   -0.28592E+00   -0.30216E+00 13413   0.351E+00    0.554E-01
RMM:   3    -0.702769518256E+03   -0.67888E-01   -0.71185E-01 15309   0.137E+00    0.638E-01
RMM:   4    -0.702774677647E+03   -0.51594E-02   -0.78522E-02 15607   0.456E-01    0.502E-01
RMM:   5    -0.702772572874E+03    0.21048E-02   -0.19002E-02 13753   0.218E-01    0.174E-01
RMM:   6    -0.702772957528E+03   -0.38465E-03   -0.52772E-03 15065   0.110E-01    0.179E-01
RMM:   7    -0.702772687071E+03    0.27046E-03   -0.23190E-03 14214   0.588E-02    0.501E-02
RMM:   8    -0.702772692917E+03   -0.58459E-05   -0.37206E-04 13153   0.271E-02    0.129E-02
RMM:   9    -0.702772701656E+03   -0.87396E-05   -0.12703E-04 10308   0.142E-02    0.753E-03
RMM:  10    -0.702772704540E+03   -0.28838E-05   -0.35013E-05  8112   0.914E-03
  20 F= -.70277270E+03 E0= -.70277270E+03  d E =-.499433E-01
 curvature:  10.10 expect dE= 0.260E+01 dE for cont linesearch  0.101E+00
 ZBRENT: bracketing found
 ZBRENT: interpolating
 opt :   1.4741  next Energy=  -702.793912 (dE=-0.712E-01)
 bond charge predicted
       N       E                     dE             d eps       ncg     rms          rms(c)
DAV:   1    -0.702603372934E+03    0.16933E+00   -0.43874E+01 10669   0.936E+00    0.118E+00
RMM:   2    -0.702756580956E+03   -0.15321E+00   -0.16131E+00 13316   0.256E+00    0.382E-01
RMM:   3    -0.702793046149E+03   -0.36465E-01   -0.38033E-01 15282   0.101E+00    0.351E-01
RMM:   4    -0.702794502214E+03   -0.14561E-02   -0.40661E-02 15358   0.339E-01    0.175E-01
RMM:   5    -0.702794541635E+03   -0.39420E-04   -0.90094E-03 15283   0.144E-01    0.729E-02
RMM:   6    -0.702794659050E+03   -0.11742E-03   -0.18064E-03 15390   0.611E-02    0.438E-02
RMM:   7    -0.702794677513E+03   -0.18463E-04   -0.59101E-04 13354   0.331E-02    0.164E-02
RMM:   8    -0.702794688594E+03   -0.11081E-04   -0.16576E-04 11326   0.176E-02    0.915E-03
RMM:   9    -0.702794690915E+03   -0.23212E-05   -0.49253E-05  9088   0.106E-02
  21 F= -.70279469E+03 E0= -.70279469E+03  d E =-.719297E-01
 curvature:  -0.34 expect dE=-0.330E-01 dE for cont linesearch -0.308E-04
 trial: gam= 1.13144 g(F)=  0.977E-01 g(S)=  0.000E+00 ort = 0.587E-02 (trialstep = 0.492E+00)
 search vector abs. value=  0.595E+00
 bond charge predicted
       N       E                     dE             d eps       ncg     rms          rms(c)
DAV:   1    -0.702737696120E+03    0.56992E-01   -0.24165E+01 10661   0.682E+00    0.934E-01
RMM:   2    -0.702815669038E+03   -0.77973E-01   -0.82367E-01 13194   0.181E+00    0.304E-01
RMM:   3    -0.702834597666E+03   -0.18929E-01   -0.19855E-01 15228   0.721E-01    0.298E-01
RMM:   4    -0.702835998375E+03   -0.14007E-02   -0.21713E-02 15498   0.238E-01    0.228E-01
RMM:   5    -0.702835605628E+03    0.39275E-03   -0.47552E-03 14167   0.109E-01    0.761E-02
RMM:   6    -0.702835709318E+03   -0.10369E-03   -0.12314E-03 14556   0.533E-02    0.718E-02
RMM:   7    -0.702835679278E+03    0.30040E-04   -0.50881E-04 13052   0.281E-02    0.251E-02
RMM:   8    -0.702835680967E+03   -0.16898E-05   -0.91490E-05  9872   0.147E-02
  22 F= -.70283568E+03 E0= -.70283568E+03  d E =-.409901E-01
 trial-energy change:   -0.040990  1 .order   -0.040300   -0.051313   -0.029287
 step:   0.9688(harm=  1.1455)  dis= 0.08963  next Energy=  -702.850519 (dE=-0.558E-01)
 bond charge predicted
       N       E                     dE             d eps       ncg     rms          rms(c)
DAV:   1    -0.702761576109E+03    0.74103E-01   -0.22743E+01 11032   0.661E+00    0.906E-01
RMM:   2    -0.702835460895E+03   -0.73885E-01   -0.78120E-01 13224   0.175E+00    0.294E-01
RMM:   3    -0.702853094534E+03   -0.17634E-01   -0.18512E-01 15234   0.693E-01    0.289E-01
RMM:   4    -0.702854435083E+03   -0.13405E-02   -0.20501E-02 15504   0.229E-01    0.225E-01
RMM:   5    -0.702854042807E+03    0.39228E-03   -0.45340E-03 14114   0.105E-01    0.731E-02
RMM:   6    -0.702854144886E+03   -0.10208E-03   -0.11919E-03 14490   0.521E-02    0.712E-02
RMM:   7    -0.702854112236E+03    0.32650E-04   -0.48538E-04 13016   0.274E-02    0.220E-02
RMM:   8    -0.702854115520E+03   -0.32846E-05   -0.89392E-05  9794   0.145E-02
  23 F= -.70285412E+03 E0= -.70285412E+03  d E =-.594246E-01
 curvature:  -3.02 expect dE=-0.196E+00 dE for cont linesearch -0.841E-03
 trial: gam= 0.23889 g(F)=  0.648E-01 g(S)=  0.000E+00 ort = 0.129E-01 (trialstep = 0.587E+00)
 search vector abs. value=  0.105E+00
 bond charge predicted
       N       E                     dE             d eps       ncg     rms          rms(c)
DAV:   1    -0.702855360007E+03   -0.12478E-02   -0.78194E+00 11080   0.404E+00    0.475E-01
RMM:   2    -0.702881629493E+03   -0.26269E-01   -0.27539E-01 13459   0.107E+00    0.148E-01
RMM:   3    -0.702887031687E+03   -0.54022E-02   -0.57116E-02 15240   0.401E-01    0.138E-01
RMM:   4    -0.702887297108E+03   -0.26542E-03   -0.61991E-03 15434   0.132E-01    0.791E-02
RMM:   5    -0.702887251397E+03    0.45711E-04   -0.14030E-03 14889   0.580E-02    0.253E-02
RMM:   6    -0.702887275623E+03   -0.24225E-04   -0.31367E-04 13659   0.264E-02    0.171E-02
RMM:   7    -0.702887279970E+03   -0.43478E-05   -0.92678E-05 10194   0.138E-02
  24 F= -.70288728E+03 E0= -.70288728E+03  d E =-.331645E-01
 trial-energy change:   -0.033164  1 .order   -0.032597   -0.039876   -0.025318
 step:   1.2660(harm=  1.6083)  dis= 0.02635  next Energy=  -702.902793 (dE=-0.487E-01)
 bond charge predicted
       N       E                     dE             d eps       ncg     rms          rms(c)
DAV:   1    -0.702865097010E+03    0.22179E-01   -0.10453E+01 10848   0.467E+00    0.548E-01
RMM:   2    -0.702900263897E+03   -0.35167E-01   -0.36865E-01 13456   0.124E+00    0.171E-01
RMM:   3    -0.702907564595E+03   -0.73007E-02   -0.77285E-02 15252   0.466E-01    0.161E-01
RMM:   4    -0.702907928992E+03   -0.36440E-03   -0.83974E-03 15476   0.154E-01    0.928E-02
RMM:   5    -0.702907864058E+03    0.64934E-04   -0.18952E-03 14875   0.675E-02    0.292E-02
RMM:   6    -0.702907897856E+03   -0.33798E-04   -0.42905E-04 14461   0.309E-02    0.202E-02
RMM:   7    -0.702907903738E+03   -0.58817E-05   -0.12562E-04 10735   0.156E-02    0.906E-03
RMM:   8    -0.702907906236E+03   -0.24985E-05   -0.36539E-05  8661   0.951E-03
  25 F= -.70290791E+03 E0= -.70290791E+03  d E =-.537907E-01
 curvature:  -1.10 expect dE=-0.551E-01 dE for cont linesearch -0.241E-02
 ZBRENT: increasing intervall
 opt :   2.6237  next Energy=  -702.890509 (dE=-0.364E-01)
 bond charge predicted
       N       E                     dE             d eps       ncg     rms          rms(c)
DAV:   1    -0.702716249000E+03    0.19165E+00   -0.41744E+01 10781   0.934E+00    0.111E+00
RMM:   2    -0.702859508470E+03   -0.14326E+00   -0.15016E+00 13477   0.252E+00    0.344E-01
RMM:   3    -0.702890599310E+03   -0.31091E-01   -0.32820E-01 15241   0.960E-01    0.323E-01
RMM:   4    -0.702892279746E+03   -0.16804E-02   -0.35748E-02 15540   0.317E-01    0.192E-01
RMM:   5    -0.702891981271E+03    0.29847E-03   -0.76866E-03 14841   0.139E-01    0.558E-02
RMM:   6    -0.702892131995E+03   -0.15072E-03   -0.18201E-03 15420   0.643E-02    0.421E-02
RMM:   7    -0.702892155630E+03   -0.23635E-04   -0.51581E-04 14100   0.303E-02    0.181E-02
RMM:   8    -0.702892166393E+03   -0.10763E-04   -0.13493E-04 10169   0.149E-02    0.137E-02
RMM:   9    -0.702892166449E+03   -0.56141E-07   -0.45204E-05  8879   0.103E-02
  26 F= -.70289217E+03 E0= -.70289217E+03  d E =-.380509E-01
 curvature:   7.95 expect dE= 0.186E+01 dE for cont linesearch  0.119E+00
 ZBRENT: bracketing found
 ZBRENT: interpolating
 opt :   1.6421  next Energy=  -702.910756 (dE=-0.566E-01)
 bond charge predicted
       N       E                     dE             d eps       ncg     rms          rms(c)
DAV:   1    -0.702819680683E+03    0.72486E-01   -0.21814E+01 10645   0.675E+00    0.790E-01
RMM:   2    -0.702894746347E+03   -0.75066E-01   -0.78855E-01 13545   0.181E+00    0.246E-01
RMM:   3    -0.702910366038E+03   -0.15620E-01   -0.16505E-01 15246   0.680E-01    0.231E-01
RMM:   4    -0.702911137069E+03   -0.77103E-03   -0.17996E-02 15516   0.224E-01    0.128E-01
RMM:   5    -0.702911010348E+03    0.12672E-03   -0.39457E-03 14887   0.969E-02    0.435E-02
RMM:   6    -0.702911072062E+03   -0.61714E-04   -0.86214E-04 15304   0.439E-02    0.277E-02
RMM:   7    -0.702911084206E+03   -0.12144E-04   -0.25211E-04 12515   0.211E-02    0.110E-02
RMM:   8    -0.702911088682E+03   -0.44765E-05   -0.66810E-05  9421   0.119E-02
  27 F= -.70291109E+03 E0= -.70291109E+03  d E =-.569732E-01
 curvature:  -0.19 expect dE=-0.152E-01 dE for cont linesearch -0.533E-05
 trial: gam= 1.26314 g(F)=  0.795E-01 g(S)=  0.000E+00 ort = 0.171E-02 (trialstep = 0.333E+00)
 search vector abs. value=  0.251E+00
 bond charge predicted
       N       E                     dE             d eps       ncg     rms          rms(c)
DAV:   1    -0.702912265399E+03   -0.11812E-02   -0.62914E+00 10406   0.346E+00    0.445E-01
RMM:   2    -0.702930136365E+03   -0.17871E-01   -0.19032E-01 12552   0.861E-01    0.139E-01
RMM:   3    -0.702934733991E+03   -0.45976E-02   -0.48924E-02 15066   0.359E-01    0.128E-01
RMM:   4    -0.702934924747E+03   -0.19076E-03   -0.45687E-03 14992   0.113E-01    0.705E-02
RMM:   5    -0.702934903443E+03    0.21305E-04   -0.10856E-03 14838   0.501E-02    0.323E-02
RMM:   6    -0.702934913444E+03   -0.10001E-04   -0.21266E-04 12694   0.217E-02    0.166E-02
RMM:   7    -0.702934917447E+03   -0.40028E-05   -0.72996E-05  9647   0.118E-02
  28 F= -.70293492E+03 E0= -.70293492E+03  d E =-.238288E-01
 trial-energy change:   -0.023829  1 .order   -0.023680   -0.027223   -0.020138
 step:   1.0178(harm=  1.2806)  dis= 0.03463  next Energy=  -702.956882 (dE=-0.458E-01)
 bond charge predicted
       N       E                     dE             d eps       ncg     rms          rms(c)
DAV:   1    -0.702867724517E+03    0.67189E-01   -0.26539E+01 10498   0.711E+00    0.914E-01
RMM:   2    -0.702943645742E+03   -0.75921E-01   -0.80802E-01 12547   0.178E+00    0.286E-01
RMM:   3    -0.702963374105E+03   -0.19728E-01   -0.21025E-01 15034   0.746E-01    0.266E-01
RMM:   4    -0.702964255577E+03   -0.88147E-03   -0.20123E-02 15060   0.236E-01    0.149E-01
RMM:   5    -0.702964154357E+03    0.10122E-03   -0.47556E-03 14932   0.105E-01    0.662E-02
RMM:   6    -0.702964204771E+03   -0.50415E-04   -0.95175E-04 15059   0.455E-02    0.358E-02
RMM:   7    -0.702964221779E+03   -0.17008E-04   -0.32922E-04 12696   0.236E-02    0.221E-02
RMM:   8    -0.702964223375E+03   -0.15955E-05   -0.76628E-05  9438   0.130E-02
  29 F= -.70296422E+03 E0= -.70296422E+03  d E =-.531347E-01
 curvature:  -1.82 expect dE=-0.633E-01 dE for cont linesearch -0.351E-02
 ZBRENT: increasing intervall
 opt :   2.3868  next Energy=  -702.941830 (dE=-0.307E-01)
 bond charge predicted
       N       E                     dE             d eps       ncg     rms          rms(c)
DAV:   1    -0.702540492677E+03    0.42373E+00   -0.10604E+02 10432   0.142E+01    0.187E+00
RMM:   2    -0.702853942981E+03   -0.31345E+00   -0.33337E+00 12596   0.364E+00    0.571E-01
RMM:   3    -0.702936053781E+03   -0.82111E-01   -0.87106E-01 15078   0.153E+00    0.546E-01
RMM:   4    -0.702939563181E+03   -0.35094E-02   -0.82514E-02 15061   0.481E-01    0.308E-01
RMM:   5    -0.702939075453E+03    0.48773E-03   -0.19247E-02 14981   0.214E-01    0.125E-01
RMM:   6    -0.702939307871E+03   -0.23242E-03   -0.38848E-03 15148   0.935E-02    0.698E-02
RMM:   7    -0.702939378276E+03   -0.70404E-04   -0.13135E-03 14997   0.470E-02    0.411E-02
RMM:   8    -0.702939388497E+03   -0.10221E-04   -0.29252E-04 12012   0.221E-02    0.172E-02
RMM:   9    -0.702939394159E+03   -0.56623E-05   -0.10085E-04  9634   0.127E-02    0.328E-03
RMM:  10    -0.702939396893E+03   -0.27343E-05   -0.30113E-05  8509   0.750E-03
  30 F= -.70293940E+03 E0= -.70293940E+03  d E =-.283082E-01
 curvature:  11.59 expect dE= 0.209E+01 dE for cont linesearch  0.167E+00
 ZBRENT: bracketing found
 ZBRENT: interpolating
 opt :   1.3845  next Energy=  -702.968263 (dE=-0.572E-01)
 bond charge predicted
       N       E                     dE             d eps       ncg     rms          rms(c)
DAV:   1    -0.702756219062E+03    0.18318E+00   -0.56826E+01 10431   0.104E+01    0.133E+00
RMM:   2    -0.702926580919E+03   -0.17036E+00   -0.18178E+00 12720   0.265E+00    0.408E-01
RMM:   3    -0.702967409028E+03   -0.40828E-01   -0.43444E-01 15163   0.108E+00    0.387E-01
RMM:   4    -0.702968702972E+03   -0.12939E-02   -0.41307E-02 15070   0.340E-01    0.190E-01
RMM:   5    -0.702968603540E+03    0.99432E-04   -0.95681E-03 14977   0.149E-01    0.806E-02
RMM:   6    -0.702968717867E+03   -0.11433E-03   -0.19472E-03 15452   0.644E-02    0.427E-02
RMM:   7    -0.702968749554E+03   -0.31686E-04   -0.58583E-04 13824   0.312E-02    0.167E-02
RMM:   8    -0.702968760800E+03   -0.11247E-04   -0.14933E-04 10403   0.164E-02    0.662E-03
RMM:   9    -0.702968764981E+03   -0.41809E-05   -0.51086E-05  8931   0.978E-03
  31 F= -.70296876E+03 E0= -.70296876E+03  d E =-.576763E-01
 curvature:  -0.28 expect dE=-0.142E-01 dE for cont linesearch -0.970E-05
 trial: gam= 0.57230 g(F)=  0.506E-01 g(S)=  0.000E+00 ort = 0.295E-02 (trialstep = 0.544E+00)
 search vector abs. value=  0.136E+00
 bond charge predicted
       N       E                     dE             d eps       ncg     rms          rms(c)
DAV:   1    -0.702956837585E+03    0.11923E-01   -0.85197E+00 10439   0.412E+00    0.518E-01
RMM:   2    -0.702983047831E+03   -0.26210E-01   -0.27938E-01 12897   0.106E+00    0.160E-01
RMM:   3    -0.702989571033E+03   -0.65232E-02   -0.69710E-02 15234   0.427E-01    0.159E-01
RMM:   4    -0.702989921593E+03   -0.35056E-03   -0.71554E-03 15273   0.138E-01    0.101E-01
RMM:   5    -0.702989817883E+03    0.10371E-03   -0.18519E-03 14754   0.641E-02    0.422E-02
RMM:   6    -0.702989833650E+03   -0.15768E-04   -0.36956E-04 13675   0.284E-02    0.260E-02
RMM:   7    -0.702989837622E+03   -0.39718E-05   -0.14362E-04 11081   0.158E-02    0.146E-02
RMM:   8    -0.702989837499E+03    0.12349E-06   -0.35054E-05  8483   0.964E-03
  32 F= -.70298984E+03 E0= -.70298984E+03  d E =-.210725E-01
 trial-energy change:   -0.021073  1 .order   -0.021114   -0.028398   -0.013830
 step:   1.0596(harm=  1.0596)  dis= 0.03297  next Energy=  -702.996444 (dE=-0.277E-01)
 bond charge predicted
       N       E                     dE             d eps       ncg     rms          rms(c)
DAV:   1    -0.702967144300E+03    0.22693E-01   -0.76844E+00 10776   0.391E+00    0.490E-01
RMM:   2    -0.702990718123E+03   -0.23574E-01   -0.25124E-01 12893   0.101E+00    0.152E-01
RMM:   3    -0.702996650722E+03   -0.59326E-02   -0.63344E-02 15258   0.406E-01    0.152E-01
RMM:   4    -0.702996989101E+03   -0.33838E-03   -0.65483E-03 15284   0.131E-01    0.995E-02
RMM:   5    -0.702996882483E+03    0.10662E-03   -0.17237E-03 14815   0.608E-02    0.417E-02
RMM:   6    -0.702996897594E+03   -0.15111E-04   -0.34486E-04 13441   0.267E-02    0.259E-02
RMM:   7    -0.702996900203E+03   -0.26086E-05   -0.13013E-04 10814   0.150E-02    0.126E-02
RMM:   8    -0.702996900830E+03   -0.62684E-06   -0.32648E-05  8376   0.921E-03
  33 F= -.70299690E+03 E0= -.70299690E+03  d E =-.281358E-01
 curvature:  -1.38 expect dE=-0.309E-01 dE for cont linesearch -0.757E-05
 trial: gam= 0.39484 g(F)=  0.223E-01 g(S)=  0.000E+00 ort = 0.864E-03 (trialstep = 0.647E+00)
 search vector abs. value=  0.443E-01
 bond charge predicted
       N       E                     dE             d eps       ncg     rms          rms(c)
DAV:   1    -0.702990732553E+03    0.61677E-02   -0.40919E+00 10790   0.293E+00    0.339E-01
RMM:   2    -0.703004253869E+03   -0.13521E-01   -0.14331E-01 13159   0.773E-01    0.105E-01
RMM:   3    -0.703007259916E+03   -0.30060E-02   -0.32604E-02 15351   0.301E-01    0.111E-01
RMM:   4    -0.703007401600E+03   -0.14168E-03   -0.34541E-03 15344   0.985E-02    0.726E-02
RMM:   5    -0.703007326074E+03    0.75526E-04   -0.94931E-04 14652   0.468E-02    0.264E-02
RMM:   6    -0.703007336402E+03   -0.10328E-04   -0.18876E-04 12853   0.212E-02    0.189E-02
RMM:   7    -0.703007336142E+03    0.26015E-06   -0.69731E-05  9754   0.121E-02
  34 F= -.70300734E+03 E0= -.70300734E+03  d E =-.104353E-01
 trial-energy change:   -0.010435  1 .order   -0.010102   -0.014673   -0.005531
 step:   0.9434(harm=  1.0381)  dis= 0.01246  next Energy=  -703.008637 (dE=-0.117E-01)
 bond charge predicted
       N       E                     dE             d eps       ncg     rms          rms(c)
DAV:   1    -0.703005680739E+03    0.16557E-02   -0.86228E-01 11520   0.134E+00    0.153E-01
RMM:   2    -0.703008524345E+03   -0.28436E-02   -0.30124E-02 13178   0.350E-01    0.479E-02
RMM:   3    -0.703009136536E+03   -0.61219E-03   -0.66715E-03 15337   0.135E-01    0.513E-02
RMM:   4    -0.703009162519E+03   -0.25983E-04   -0.71595E-04 15027   0.443E-02    0.327E-02
RMM:   5    -0.703009147631E+03    0.14888E-04   -0.20903E-04 12138   0.217E-02    0.134E-02
RMM:   6    -0.703009148725E+03   -0.10939E-05   -0.38343E-05  8945   0.103E-02
  35 F= -.70300915E+03 E0= -.70300915E+03  d E =-.122479E-01
 curvature:  -0.95 expect dE=-0.808E-02 dE for cont linesearch -0.135E-03
 ZBRENT: extrapolating
 opt :   1.0663  next Energy=  -703.009303 (dE=-0.124E-01)
 bond charge predicted
       N       E                     dE             d eps       ncg     rms          rms(c)
DAV:   1    -0.703008748000E+03    0.39963E-03   -0.14892E-01 11128   0.560E-01    0.633E-02
RMM:   2    -0.703009256673E+03   -0.50867E-03   -0.53850E-03 13242   0.148E-01    0.201E-02
RMM:   3    -0.703009361684E+03   -0.10501E-03   -0.11583E-03 15258   0.566E-02    0.220E-02
RMM:   4    -0.703009365505E+03   -0.38211E-05   -0.13014E-04 12140   0.192E-02    0.137E-02
RMM:   5    -0.703009362688E+03    0.28169E-05   -0.42215E-05  9363   0.117E-02
  36 F= -.70300936E+03 E0= -.70300936E+03  d E =-.124619E-01
 curvature:  -1.09 expect dE=-0.116E-01 dE for cont linesearch -0.315E-05
 trial: gam= 0.50746 g(F)=  0.107E-01 g(S)=  0.000E+00 ort = 0.358E-03 (trialstep = 0.731E+00)
 search vector abs. value=  0.225E-01
 bond charge predicted
       N       E                     dE             d eps       ncg     rms          rms(c)
DAV:   1    -0.703003150927E+03    0.62146E-02   -0.27716E+00 10759   0.245E+00    0.269E-01
RMM:   2    -0.703012354086E+03   -0.92032E-02   -0.96825E-02 13267   0.651E-01    0.831E-02
RMM:   3    -0.703014446944E+03   -0.20929E-02   -0.22358E-02 15240   0.253E-01    0.849E-02
RMM:   4    -0.703014558354E+03   -0.11141E-03   -0.24827E-03 15347   0.835E-02    0.515E-02
RMM:   5    -0.703014523009E+03    0.35344E-04   -0.64503E-04 14472   0.388E-02    0.233E-02
RMM:   6    -0.703014527841E+03   -0.48311E-05   -0.12702E-04 11820   0.172E-02    0.144E-02
RMM:   7    -0.703014528453E+03   -0.61242E-06   -0.47033E-05  9202   0.103E-02
  37 F= -.70301453E+03 E0= -.70301453E+03  d E =-.516577E-02
 trial-energy change:   -0.005166  1 .order   -0.004979   -0.007956   -0.002001
 step:   0.9288(harm=  0.9762)  dis= 0.00399  next Energy=  -703.014804 (dE=-0.544E-02)
 bond charge predicted
       N       E                     dE             d eps       ncg     rms          rms(c)
DAV:   1    -0.703014131462E+03    0.39638E-03   -0.20436E-01 11496   0.666E-01    0.699E-02
RMM:   2    -0.703014812944E+03   -0.68148E-03   -0.71612E-03 13303   0.175E-01    0.223E-02
RMM:   3    -0.703014959159E+03   -0.14622E-03   -0.15865E-03 15180   0.670E-02    0.236E-02
RMM:   4    -0.703014966048E+03   -0.68891E-05   -0.18020E-04 12490   0.224E-02    0.141E-02
RMM:   5    -0.703014963743E+03    0.23056E-05   -0.59932E-05 10003   0.139E-02
  38 F= -.70301496E+03 E0= -.70301496E+03  d E =-.560105E-02
 curvature:  -0.97 expect dE=-0.529E-02 dE for cont linesearch -0.426E-04
 trial: gam= 0.43033 g(F)=  0.546E-02 g(S)=  0.000E+00 ort = 0.994E-03 (trialstep = 0.770E+00)
 search vector abs. value=  0.105E-01
 bond charge predicted
       N       E                     dE             d eps       ncg     rms          rms(c)
DAV:   1    -0.703012766467E+03    0.21996E-02   -0.14517E+00 11016   0.177E+00    0.192E-01
RMM:   2    -0.703017295437E+03   -0.45290E-02   -0.47574E-02 13086   0.459E-01    0.605E-02
RMM:   3    -0.703018410670E+03   -0.11152E-02   -0.11639E-02 15218   0.183E-01    0.590E-02
RMM:   4    -0.703018477512E+03   -0.66842E-04   -0.12919E-03 15316   0.601E-02    0.356E-02
RMM:   5    -0.703018465182E+03    0.12331E-04   -0.31040E-04 12919   0.271E-02    0.162E-02
RMM:   6    -0.703018467537E+03   -0.23549E-05   -0.59724E-05  9515   0.127E-02
  39 F= -.70301847E+03 E0= -.70301847E+03  d E =-.350379E-02
 trial-energy change:   -0.003504  1 .order   -0.003353   -0.004532   -0.002174
 step:   1.2133(harm=  1.4808)  dis= 0.00394  next Energy=  -703.019122 (dE=-0.416E-02)
 bond charge predicted
       N       E                     dE             d eps       ncg     rms          rms(c)
DAV:   1    -0.703017563125E+03    0.90206E-03   -0.48251E-01 11344   0.102E+00    0.107E-01
RMM:   2    -0.703019104031E+03   -0.15409E-02   -0.16171E-02 13143   0.268E-01    0.345E-02
RMM:   3    -0.703019470511E+03   -0.36648E-03   -0.38453E-03 15187   0.105E-01    0.353E-02
RMM:   4    -0.703019490236E+03   -0.19724E-04   -0.43710E-04 14750   0.352E-02    0.205E-02
RMM:   5    -0.703019486329E+03    0.39070E-05   -0.11360E-04 11222   0.172E-02    0.964E-03
RMM:   6    -0.703019487238E+03   -0.90937E-06   -0.24119E-05  7940   0.856E-03
  40 F= -.70301949E+03 E0= -.70301949E+03  d E =-.452350E-02
 curvature:  -1.13 expect dE=-0.330E-02 dE for cont linesearch -0.178E-03
 ZBRENT: increasing intervall
 opt :   2.0994  next Energy=  -703.019259 (dE=-0.429E-02)
 bond charge predicted
       N       E                     dE             d eps       ncg     rms          rms(c)
DAV:   1    -0.703011823997E+03    0.76623E-02   -0.19232E+00 10984   0.204E+00    0.217E-01
RMM:   2    -0.703017834497E+03   -0.60105E-02   -0.63121E-02 13110   0.527E-01    0.693E-02
RMM:   3    -0.703019292352E+03   -0.14579E-02   -0.15270E-02 15240   0.209E-01    0.692E-02
RMM:   4    -0.703019373352E+03   -0.80999E-04   -0.16749E-03 15332   0.683E-02    0.413E-02
RMM:   5    -0.703019356029E+03    0.17323E-04   -0.41497E-04 13381   0.310E-02    0.197E-02
RMM:   6    -0.703019358558E+03   -0.25284E-05   -0.79169E-05 10106   0.142E-02
  41 F= -.70301936E+03 E0= -.70301936E+03  d E =-.439481E-02
 curvature:   1.46 expect dE= 0.145E-01 dE for cont linesearch  0.631E-03
 ZBRENT: bracketing found
 ZBRENT: interpolating
 opt :   1.5464  next Energy=  -703.019701 (dE=-0.474E-02)
 bond charge predicted
       N       E                     dE             d eps       ncg     rms          rms(c)
DAV:   1    -0.703016946858E+03    0.24092E-02   -0.74409E-01 10888   0.127E+00    0.138E-01
RMM:   2    -0.703019216146E+03   -0.22693E-02   -0.23896E-02 13084   0.322E-01    0.436E-02
RMM:   3    -0.703019757685E+03   -0.54154E-03   -0.56782E-03 15190   0.128E-01    0.412E-02
RMM:   4    -0.703019787295E+03   -0.29610E-04   -0.61420E-04 14947   0.416E-02    0.242E-02
RMM:   5    -0.703019780809E+03    0.64861E-05   -0.14801E-04 11673   0.194E-02    0.115E-02
RMM:   6    -0.703019781439E+03   -0.63085E-06   -0.29287E-05  8430   0.941E-03
  42 F= -.70301978E+03 E0= -.70301978E+03  d E =-.481770E-02
 curvature:  -0.49 expect dE=-0.235E-02 dE for cont linesearch -0.122E-04
 trial: gam= 0.93475 g(F)=  0.476E-02 g(S)=  0.000E+00 ort = 0.509E-03 (trialstep = 0.652E+00)
 search vector abs. value=  0.149E-01
 bond charge predicted
       N       E                     dE             d eps       ncg     rms          rms(c)
DAV:   1    -0.703016419157E+03    0.33617E-02   -0.14637E+00 10816   0.179E+00    0.188E-01
RMM:   2    -0.703020859968E+03   -0.44408E-02   -0.46532E-02 13008   0.462E-01    0.602E-02
RMM:   3    -0.703022049808E+03   -0.11898E-02   -0.12231E-02 15201   0.188E-01    0.579E-02
RMM:   4    -0.703022131153E+03   -0.81345E-04   -0.13102E-03 15333   0.610E-02    0.381E-02
RMM:   5    -0.703022116464E+03    0.14689E-04   -0.30867E-04 12928   0.275E-02    0.176E-02
RMM:   6    -0.703022118511E+03   -0.20475E-05   -0.59210E-05  9676   0.129E-02
  43 F= -.70302212E+03 E0= -.70302212E+03  d E =-.233707E-02
 trial-energy change:   -0.002337  1 .order   -0.002306   -0.003415   -0.001197
 step:   1.0041(harm=  1.0041)  dis= 0.00361  next Energy=  -703.022411 (dE=-0.263E-02)
 bond charge predicted
       N       E                     dE             d eps       ncg     rms          rms(c)
DAV:   1    -0.703020914503E+03    0.12020E-02   -0.43015E-01 11256   0.969E-01    0.997E-02
RMM:   2    -0.703022265050E+03   -0.13505E-02   -0.14134E-02 13077   0.254E-01    0.320E-02
RMM:   3    -0.703022612212E+03   -0.34716E-03   -0.35800E-03 15173   0.102E-01    0.326E-02
RMM:   4    -0.703022633855E+03   -0.21643E-04   -0.39483E-04 14538   0.336E-02    0.204E-02
RMM:   5    -0.703022630315E+03    0.35400E-05   -0.10235E-04 11026   0.167E-02    0.946E-03
RMM:   6    -0.703022631156E+03   -0.84120E-06   -0.22268E-05  7539   0.836E-03
  44 F= -.70302263E+03 E0= -.70302263E+03  d E =-.284972E-02
 curvature:  -1.42 expect dE=-0.321E-02 dE for cont linesearch -0.199E-04
 ZBRENT: extrapolating
 opt :   1.1203  next Energy=  -703.022658 (dE=-0.288E-02)
 bond charge predicted
       N       E                     dE             d eps       ncg     rms          rms(c)
DAV:   1    -0.703022498569E+03    0.13175E-03   -0.47190E-02 11704   0.321E-01    0.324E-02
RMM:   2    -0.703022648047E+03   -0.14948E-03   -0.15607E-03 13087   0.821E-02    0.105E-02
RMM:   3    -0.703022682955E+03   -0.34908E-04   -0.36857E-04 14284   0.326E-02    0.109E-02
RMM:   4    -0.703022684809E+03   -0.18546E-05   -0.43660E-05  8738   0.125E-02
  45 F= -.70302268E+03 E0= -.70302268E+03  d E =-.290337E-02
 curvature:  -1.90 expect dE=-0.512E-02 dE for cont linesearch -0.245E-05
 trial: gam= 0.55466 g(F)=  0.270E-02 g(S)=  0.000E+00 ort =-0.139E-03 (trialstep = 0.746E+00)
 search vector abs. value=  0.712E-02
 bond charge predicted
       N       E                     dE             d eps       ncg     rms          rms(c)
DAV:   1    -0.703020616501E+03    0.20665E-02   -0.92010E-01 11096   0.141E+00    0.151E-01
RMM:   2    -0.703023396026E+03   -0.27795E-02   -0.29265E-02 12963   0.361E-01    0.485E-02
RMM:   3    -0.703024102934E+03   -0.70691E-03   -0.74427E-03 15137   0.146E-01    0.464E-02
RMM:   4    -0.703024147971E+03   -0.45038E-04   -0.84029E-04 15134   0.485E-02    0.271E-02
RMM:   5    -0.703024143381E+03    0.45902E-05   -0.20492E-04 12509   0.225E-02    0.131E-02
RMM:   6    -0.703024144674E+03   -0.12926E-05   -0.39380E-05  8928   0.104E-02
  46 F= -.70302414E+03 E0= -.70302414E+03  d E =-.145986E-02
 trial-energy change:   -0.001460  1 .order   -0.001305   -0.001957   -0.000653
 step:   0.9423(harm=  1.1193)  dis= 0.00324  next Energy=  -703.024234 (dE=-0.155E-02)
 bond charge predicted
       N       E                     dE             d eps       ncg     rms          rms(c)
DAV:   1    -0.703024057652E+03    0.85729E-04   -0.64826E-02 11728   0.375E-01    0.379E-02
RMM:   2    -0.703024266793E+03   -0.20914E-03   -0.21974E-03 13076   0.984E-02    0.127E-02
RMM:   3    -0.703024315550E+03   -0.48758E-04   -0.52744E-04 14375   0.389E-02    0.135E-02
RMM:   4    -0.703024318195E+03   -0.26445E-05   -0.66804E-05 10339   0.153E-02
  47 F= -.70302432E+03 E0= -.70302432E+03  d E =-.163339E-02
 curvature:  -1.18 expect dE=-0.136E-02 dE for cont linesearch -0.285E-04
 ZBRENT: increasing intervall
 opt :   1.3356  next Energy=  -703.024300 (dE=-0.162E-02)
 bond charge predicted
       N       E                     dE             d eps       ncg     rms          rms(c)
DAV:   1    -0.703023444934E+03    0.87062E-03   -0.25564E-01 11206   0.742E-01    0.808E-02
RMM:   2    -0.703024217392E+03   -0.77246E-03   -0.81321E-03 13001   0.187E-01    0.254E-02
RMM:   3    -0.703024401564E+03   -0.18417E-03   -0.19437E-03 15061   0.745E-02    0.236E-02
RMM:   4    -0.703024412753E+03   -0.11189E-04   -0.22576E-04 12847   0.250E-02    0.131E-02
RMM:   5    -0.703024412270E+03    0.48339E-06   -0.62114E-05 10014   0.142E-02
  48 F= -.70302441E+03 E0= -.70302441E+03  d E =-.172746E-02
 curvature:   0.74 expect dE= 0.160E-02 dE for cont linesearch  0.123E-04
 trial: gam= 0.91868 g(F)=  0.217E-02 g(S)=  0.000E+00 ort =-0.344E-03 (trialstep = 0.815E+00)
 search vector abs. value=  0.754E-02
 bond charge predicted
       N       E                     dE             d eps       ncg     rms          rms(c)
DAV:   1    -0.703021039760E+03    0.33730E-02   -0.11550E+00 10918   0.158E+00    0.171E-01
RMM:   2    -0.703024438447E+03   -0.33987E-02   -0.35691E-02 12767   0.405E-01    0.546E-02
RMM:   3    -0.703025430539E+03   -0.99209E-03   -0.10217E-02 15239   0.170E-01    0.522E-02
RMM:   4    -0.703025506057E+03   -0.75519E-04   -0.10795E-03 15328   0.547E-02    0.369E-02
RMM:   5    -0.703025495554E+03    0.10504E-04   -0.27377E-04 12722   0.255E-02    0.178E-02
RMM:   6    -0.703025497225E+03   -0.16709E-05   -0.54982E-05  9322   0.120E-02
  49 F= -.70302550E+03 E0= -.70302550E+03  d E =-.108495E-02
 trial-energy change:   -0.001085  1 .order   -0.000925   -0.001508   -0.000341
 step:   0.9378(harm=  1.0540)  dis= 0.00312  next Energy=  -703.025523 (dE=-0.111E-02)
 bond charge predicted
       N       E                     dE             d eps       ncg     rms          rms(c)
DAV:   1    -0.703025453417E+03    0.42137E-04   -0.26665E-02 11974   0.242E-01    0.247E-02
RMM:   2    -0.703025543346E+03   -0.89929E-04   -0.94523E-04 12923   0.657E-02    0.816E-03
RMM:   3    -0.703025563785E+03   -0.20439E-04   -0.22829E-04 12997   0.265E-02    0.878E-03
RMM:   4    -0.703025565354E+03   -0.15691E-05   -0.34570E-05  7650   0.129E-02
  50 F= -.70302557E+03 E0= -.70302557E+03  d E =-.115308E-02
 curvature:  -1.64 expect dE=-0.157E-02 dE for cont linesearch -0.860E-05
 ZBRENT: increasing intervall
 opt :   1.1827  next Energy=  -703.025560 (dE=-0.115E-02)
 bond charge predicted
       N       E                     dE             d eps       ncg     rms          rms(c)
DAV:   1    -0.703025218251E+03    0.34553E-03   -0.10406E-01 11022   0.476E-01    0.518E-02
RMM:   2    -0.703025522493E+03   -0.30424E-03   -0.31996E-03 12740   0.122E-01    0.165E-02
RMM:   3    -0.703025611600E+03   -0.89107E-04   -0.92129E-04 15038   0.511E-02    0.151E-02
RMM:   4    -0.703025618718E+03   -0.71175E-05   -0.10227E-04 11836   0.174E-02    0.106E-02
RMM:   5    -0.703025618233E+03    0.48472E-06   -0.31645E-05  8425   0.109E-02
  51 F= -.70302562E+03 E0= -.70302562E+03  d E =-.120596E-02
 curvature:   0.98 expect dE= 0.117E-02 dE for cont linesearch  0.652E-07
 trial: gam= 0.36460 g(F)=  0.119E-02 g(S)=  0.000E+00 ort =-0.223E-04 (trialstep = 0.889E+00)
 search vector abs. value=  0.218E-02
 bond charge predicted
       N       E                     dE             d eps       ncg     rms          rms(c)
DAV:   1    -0.703024777025E+03    0.84169E-03   -0.39376E-01 10927   0.933E-01    0.996E-02
RMM:   2    -0.703026049280E+03   -0.12723E-02   -0.13333E-02 13211   0.245E-01    0.308E-02
RMM:   3    -0.703026351759E+03   -0.30248E-03   -0.31732E-03 15230   0.962E-02    0.303E-02
RMM:   4    -0.703026371252E+03   -0.19493E-04   -0.35054E-04 14425   0.320E-02    0.191E-02
RMM:   5    -0.703026367703E+03    0.35491E-05   -0.91411E-05 10924   0.165E-02
  52 F= -.70302637E+03 E0= -.70302637E+03  d E =-.749470E-03
 trial-energy change:   -0.000749  1 .order   -0.000700   -0.001051   -0.000349
 step:   1.1727(harm=  1.3309)  dis= 0.00256  next Energy=  -703.026425 (dE=-0.807E-03)
 bond charge predicted
       N       E                     dE             d eps       ncg     rms          rms(c)
DAV:   1    -0.703026297987E+03    0.73265E-04   -0.40405E-02 11582   0.300E-01    0.352E-02
RMM:   2    -0.703026433979E+03   -0.13599E-03   -0.14350E-03 13121   0.822E-02    0.105E-02
RMM:   3    -0.703026468982E+03   -0.35003E-04   -0.37044E-04 14169   0.332E-02    0.920E-03
RMM:   4    -0.703026472009E+03   -0.30270E-05   -0.48172E-05  9072   0.139E-02
  53 F= -.70302647E+03 E0= -.70302647E+03  d E =-.853776E-03
 curvature:  -1.07 expect dE=-0.611E-03 dE for cont linesearch -0.514E-05
 trial: gam= 0.36830 g(F)=  0.572E-03 g(S)=  0.000E+00 ort = 0.102E-03 (trialstep = 0.946E+00)
 search vector abs. value=  0.943E-03
 bond charge predicted
       N       E                     dE             d eps       ncg     rms          rms(c)
DAV:   1    -0.703026155199E+03    0.31378E-03   -0.18213E-01 10960   0.641E-01    0.662E-02
RMM:   2    -0.703026750403E+03   -0.59520E-03   -0.62563E-03 13204   0.172E-01    0.217E-02
RMM:   3    -0.703026897446E+03   -0.14704E-03   -0.15698E-03 15081   0.684E-02    0.212E-02
RMM:   4    -0.703026908337E+03   -0.10891E-04   -0.18179E-04 12777   0.236E-02    0.137E-02
RMM:   5    -0.703026906701E+03    0.16355E-05   -0.52830E-05 10033   0.141E-02
  54 F= -.70302691E+03 E0= -.70302691E+03  d E =-.434692E-03
 trial-energy change:   -0.000435  1 .order   -0.000386   -0.000577   -0.000195
 step:   1.1903(harm=  1.4270)  dis= 0.00138  next Energy=  -703.026933 (dE=-0.461E-03)
 bond charge predicted
       N       E                     dE             d eps       ncg     rms          rms(c)
DAV:   1    -0.703026900748E+03    0.75893E-05   -0.12354E-02 11838   0.167E-01    0.196E-02
RMM:   2    -0.703026943980E+03   -0.43232E-04   -0.45635E-04 13143   0.466E-02    0.595E-03
RMM:   3    -0.703026954768E+03   -0.10789E-04   -0.12182E-04 12606   0.191E-02    0.514E-03
RMM:   4    -0.703026955875E+03   -0.11071E-05   -0.18617E-05  6270   0.974E-03
  55 F= -.70302696E+03 E0= -.70302696E+03  d E =-.483867E-03
 curvature:  -0.84 expect dE=-0.328E-03 dE for cont linesearch -0.554E-05
 ZBRENT: increasing intervall
 opt :   1.6797  next Energy=  -703.026933 (dE=-0.461E-03)
 bond charge predicted
       N       E                     dE             d eps       ncg     rms          rms(c)
DAV:   1    -0.703026773805E+03    0.18096E-03   -0.48836E-02 10982   0.332E-01    0.346E-02
RMM:   2    -0.703026934877E+03   -0.16107E-03   -0.16932E-03 13219   0.904E-02    0.112E-02
RMM:   3    -0.703026974894E+03   -0.40017E-04   -0.43060E-04 14716   0.359E-02    0.107E-02
RMM:   4    -0.703026977698E+03   -0.28037E-05   -0.48787E-05  9298   0.132E-02
  56 F= -.70302698E+03 E0= -.70302698E+03  d E =-.505689E-03
 curvature:   3.52 expect dE= 0.303E-02 dE for cont linesearch  0.831E-04
 ZBRENT: bracketing found
 ZBRENT: interpolating
 opt :   1.3598  next Energy=  -703.026963 (dE=-0.491E-03)
 bond charge predicted
       N       E                     dE             d eps       ncg     rms          rms(c)
DAV:   1    -0.703026885314E+03    0.89581E-04   -0.20866E-02 11120   0.219E-01    0.212E-02
RMM:   2    -0.703026960004E+03   -0.74690E-04   -0.78471E-04 13170   0.609E-02    0.723E-03
RMM:   3    -0.703026976290E+03   -0.16286E-04   -0.18338E-04 13323   0.242E-02    0.807E-03
RMM:   4    -0.703026977086E+03   -0.79606E-06   -0.24132E-05  6475   0.107E-02
  57 F= -.70302698E+03 E0= -.70302698E+03  d E =-.505077E-03
 curvature:  -0.28 expect dE=-0.162E-03 dE for cont linesearch -0.723E-05
 ZBRENT: interpolating
 opt :   1.5227  next Energy=  -703.026989 (dE=-0.517E-03)
 bond charge predicted
       N       E                     dE             d eps       ncg     rms          rms(c)
DAV:   1    -0.703026960574E+03    0.15715E-04   -0.53974E-03 10902   0.111E-01    0.109E-02
RMM:   2    -0.703026980822E+03   -0.20248E-04   -0.21297E-04 13079   0.317E-02    0.365E-03
RMM:   3    -0.703026984327E+03   -0.35044E-05   -0.46545E-05  7947   0.126E-02
  58 F= -.70302698E+03 E0= -.70302698E+03  d E =-.512318E-03
 curvature:  -0.46 expect dE=-0.315E-03 dE for cont linesearch -0.358E-05
 trial: gam= 1.50484 g(F)=  0.686E-03 g(S)=  0.000E+00 ort =-0.857E-04 (trialstep = 0.390E+00)
 search vector abs. value=  0.256E-02
 bond charge predicted
       N       E                     dE             d eps       ncg     rms          rms(c)
DAV:   1    -0.703026879467E+03    0.10136E-03   -0.87031E-02 11239   0.441E-01    0.433E-02
RMM:   2    -0.703027141531E+03   -0.26206E-03   -0.27504E-03 12902   0.115E-01    0.150E-02
RMM:   3    -0.703027210745E+03   -0.69215E-04   -0.73310E-04 14733   0.470E-02    0.141E-02
RMM:   4    -0.703027216386E+03   -0.56408E-05   -0.91922E-05 11630   0.174E-02
  59 F= -.70302722E+03 E0= -.70302722E+03  d E =-.232059E-03
 trial-energy change:   -0.000232  1 .order   -0.000174   -0.000217   -0.000131
 step:   0.9808(harm=  0.9808)  dis= 0.00177  next Energy=  -703.027257 (dE=-0.273E-03)
 bond charge predicted
       N       E                     dE             d eps       ncg     rms          rms(c)
DAV:   1    -0.703026685712E+03    0.52503E-03   -0.19822E-01 11328   0.664E-01    0.684E-02
RMM:   2    -0.703027262866E+03   -0.57715E-03   -0.60553E-03 12896   0.168E-01    0.221E-02
RMM:   3    -0.703027415059E+03   -0.15219E-03   -0.15757E-03 14930   0.687E-02    0.196E-02
RMM:   4    -0.703027428048E+03   -0.12989E-04   -0.19603E-04 12932   0.242E-02    0.125E-02
RMM:   5    -0.703027427766E+03    0.28165E-06   -0.50229E-05  9681   0.134E-02
  60 F= -.70302743E+03 E0= -.70302743E+03  d E =-.443440E-03
 curvature:  -2.26 expect dE=-0.105E-02 dE for cont linesearch -0.109E-04
 ZBRENT: extrapolating
 opt :   1.2747  next Energy=  -703.027444 (dE=-0.460E-03)
 bond charge predicted
       N       E                     dE             d eps       ncg     rms          rms(c)
DAV:   1    -0.703027273068E+03    0.15498E-03   -0.49545E-02 11680   0.332E-01    0.351E-02
RMM:   2    -0.703027421350E+03   -0.14828E-03   -0.15564E-03 12827   0.854E-02    0.111E-02
RMM:   3    -0.703027461693E+03   -0.40343E-04   -0.42585E-04 14151   0.355E-02    0.100E-02
RMM:   4    -0.703027465292E+03   -0.35991E-05   -0.53672E-05  9313   0.143E-02
  61 F= -.70302747E+03 E0= -.70302747E+03  d E =-.480965E-03
 curvature:  -3.38 expect dE=-0.194E-02 dE for cont linesearch -0.164E-04
 trial: gam= 0.47057 g(F)=  0.574E-03 g(S)=  0.000E+00 ort =-0.111E-03 (trialstep = 0.567E+00)
 search vector abs. value=  0.104E-02
 bond charge predicted
       N       E                     dE             d eps       ncg     rms          rms(c)
DAV:   1    -0.703027395426E+03    0.66266E-04   -0.73564E-02 11015   0.410E-01    0.421E-02
RMM:   2    -0.703027651955E+03   -0.25653E-03   -0.26891E-03 13454   0.114E-01    0.141E-02
RMM:   3    -0.703027710807E+03   -0.58853E-04   -0.64156E-04 14910   0.439E-02    0.136E-02
RMM:   4    -0.703027714616E+03   -0.38089E-05   -0.80755E-05 11484   0.164E-02
  62 F= -.70302771E+03 E0= -.70302771E+03  d E =-.249324E-03
 trial-energy change:   -0.000249  1 .order   -0.000195   -0.000296   -0.000094
 step:   0.6588(harm=  0.8312)  dis= 0.00077  next Energy=  -703.027722 (dE=-0.257E-03)
 bond charge predicted
       N       E                     dE             d eps       ncg     rms          rms(c)
DAV:   1    -0.703027725428E+03   -0.14621E-04   -0.18849E-03 12048   0.685E-02    0.867E-03
RMM:   2    -0.703027735668E+03   -0.10240E-04   -0.11198E-04 12300   0.254E-02    0.339E-03
RMM:   3    -0.703027736810E+03   -0.11420E-05   -0.24176E-05  6374   0.104E-02
  63 F= -.70302774E+03 E0= -.70302774E+03  d E =-.271518E-03
 curvature:  -0.47 expect dE=-0.647E-04 dE for cont linesearch -0.557E-05
 ZBRENT: increasing intervall
 opt :   0.8421  next Energy=  -703.027747 (dE=-0.282E-03)
 bond charge predicted
       N       E                     dE             d eps       ncg     rms          rms(c)
DAV:   1    -0.703027727323E+03    0.83449E-05   -0.78189E-03 11182   0.136E-01    0.133E-02
RMM:   2    -0.703027757017E+03   -0.29694E-04   -0.31507E-04 13171   0.412E-02    0.496E-03
RMM:   3    -0.703027764115E+03   -0.70974E-05   -0.85444E-05 11210   0.167E-02
  64 F= -.70302776E+03 E0= -.70302776E+03  d E =-.298822E-03
 curvature:  -0.86 expect dE=-0.146E-03 dE for cont linesearch -0.881E-07
 trial: gam= 0.26686 g(F)=  0.170E-03 g(S)=  0.000E+00 ort =-0.103E-04 (trialstep = 0.622E+00)
 search vector abs. value=  0.239E-03
 bond charge predicted
       N       E                     dE             d eps       ncg     rms          rms(c)
DAV:   1    -0.703027763053E+03   -0.60358E-05   -0.20203E-02 11184   0.217E-01    0.216E-02
RMM:   2    -0.703027840258E+03   -0.77205E-04   -0.82088E-04 13384   0.649E-02    0.759E-03
RMM:   3    -0.703027859686E+03   -0.19428E-04   -0.21765E-04 14081   0.261E-02    0.807E-03
RMM:   4    -0.703027860645E+03   -0.95839E-06   -0.28200E-05  6486   0.113E-02
  65 F= -.70302786E+03 E0= -.70302786E+03  d E =-.965304E-04
 trial-energy change:   -0.000097  1 .order   -0.000071   -0.000104   -0.000037
 step:   0.9625(harm=  0.9625)  dis= 0.00049  next Energy=  -703.027845 (dE=-0.806E-04)
 bond charge predicted
       N       E                     dE             d eps       ncg     rms          rms(c)
DAV:   1    -0.703027859271E+03    0.41543E-06   -0.60750E-03 11742   0.119E-01    0.120E-02
RMM:   2    -0.703027881919E+03   -0.22648E-04   -0.24011E-04 13263   0.352E-02    0.422E-03
RMM:   3    -0.703027886636E+03   -0.47172E-05   -0.59425E-05  9673   0.139E-02
  66 F= -.70302789E+03 E0= -.70302789E+03  d E =-.122522E-03
 curvature:  -0.69 expect dE=-0.564E-04 dE for cont linesearch -0.811E-07
 trial: gam= 0.57161 g(F)=  0.822E-04 g(S)=  0.000E+00 ort = 0.531E-05 (trialstep = 0.690E+00)
 search vector abs. value=  0.166E-03
 bond charge predicted
       N       E                     dE             d eps       ncg     rms          rms(c)
DAV:   1    -0.703027879144E+03    0.27749E-05   -0.18060E-02 11470   0.201E-01    0.205E-02
RMM:   2    -0.703027938833E+03   -0.59688E-04   -0.62826E-04 12953   0.550E-02    0.699E-03
RMM:   3    -0.703027952927E+03   -0.14095E-04   -0.16005E-04 12687   0.228E-02    0.671E-03
RMM:   4    -0.703027954297E+03   -0.13699E-05   -0.26674E-05  6475   0.121E-02
  67 F= -.70302795E+03 E0= -.70302795E+03  d E =-.676610E-04
 trial-energy change:   -0.000068  1 .order   -0.000044   -0.000059   -0.000030
 step:   1.3890(harm=  1.3890)  dis= 0.00061  next Energy=  -703.027946 (dE=-0.592E-04)
 bond charge predicted
       N       E                     dE             d eps       ncg     rms          rms(c)
DAV:   1    -0.703027926089E+03    0.26838E-04   -0.18499E-02 11752   0.203E-01    0.211E-02
RMM:   2    -0.703027982074E+03   -0.55985E-04   -0.58601E-04 12857   0.523E-02    0.662E-03
RMM:   3    -0.703027995143E+03   -0.13069E-04   -0.14374E-04 12528   0.214E-02    0.593E-03
RMM:   4    -0.703027996405E+03   -0.12614E-05   -0.23257E-05  6442   0.111E-02
  68 F= -.70302800E+03 E0= -.70302800E+03  d E =-.109768E-03
 curvature:  -1.35 expect dE=-0.788E-04 dE for cont linesearch -0.175E-05
 ZBRENT: increasing intervall
 opt :   2.7865  next Energy=  -703.027977 (dE=-0.908E-04)
 bond charge predicted
       N       E                     dE             d eps       ncg     rms          rms(c)
DAV:   1    -0.703027718972E+03    0.27617E-03   -0.73806E-02 11422   0.406E-01    0.418E-02
RMM:   2    -0.703027944344E+03   -0.22537E-03   -0.23571E-03 12976   0.105E-01    0.132E-02
RMM:   3    -0.703028000193E+03   -0.55848E-04   -0.58740E-04 14777   0.423E-02    0.124E-02
RMM:   4    -0.703028004754E+03   -0.45615E-05   -0.74140E-05 10921   0.156E-02
  69 F= -.70302800E+03 E0= -.70302800E+03  d E =-.118118E-03
 curvature:  14.66 expect dE= 0.438E-02 dE for cont linesearch  0.421E-03
 ZBRENT: bracketing found
 ZBRENT: interpolating
 opt :   1.6336  next Energy=  -703.027998 (dE=-0.112E-03)
 bond charge predicted
       N       E                     dE             d eps       ncg     rms          rms(c)
DAV:   1    -0.703027790025E+03    0.21017E-03   -0.50365E-02 11310   0.336E-01    0.333E-02
RMM:   2    -0.703027958246E+03   -0.16822E-03   -0.17613E-03 13057   0.913E-02    0.110E-02
RMM:   3    -0.703027998456E+03   -0.40209E-04   -0.43021E-04 14406   0.367E-02    0.117E-02
RMM:   4    -0.703028001272E+03   -0.28159E-05   -0.57683E-05  9501   0.147E-02
  70 F= -.70302800E+03 E0= -.70302800E+03  d E =-.114635E-03
 curvature:  -0.06 expect dE=-0.806E-05 dE for cont linesearch -0.196E-05
 ZBRENT: interpolating
 opt :   2.2227  next Energy=  -703.028024 (dE=-0.138E-03)
 bond charge predicted
       N       E                     dE             d eps       ncg     rms          rms(c)
DAV:   1    -0.703027956342E+03    0.42114E-04   -0.13145E-02 11304   0.172E-01    0.170E-02
RMM:   2    -0.703028002857E+03   -0.46515E-04   -0.48468E-04 13168   0.467E-02    0.550E-03
RMM:   3    -0.703028012073E+03   -0.92164E-05   -0.11045E-04 12135   0.188E-02    0.607E-03
RMM:   4    -0.703028012658E+03   -0.58515E-06   -0.15779E-05  6048   0.944E-03
  71 F= -.70302801E+03 E0= -.70302801E+03  d E =-.126022E-03
 curvature:  -0.62 expect dE=-0.109E-03 dE for cont linesearch -0.314E-05
 ZBRENT: bisectioning
 opt :   1.9282  next Energy=  -703.028018 (dE=-0.131E-03)
 bond charge predicted
       N       E                     dE             d eps       ncg     rms          rms(c)
DAV:   1    -0.703027996913E+03    0.15160E-04   -0.32843E-03 11046   0.856E-02    0.821E-03
RMM:   2    -0.703028008793E+03   -0.11880E-04   -0.12306E-04 10840   0.218E-02    0.297E-03
RMM:   3    -0.703028009611E+03   -0.81820E-06   -0.22202E-05  6386   0.953E-03
  72 F= -.70302801E+03 E0= -.70302801E+03  d E =-.122975E-03
 curvature:  -1.08 expect dE=-0.156E-03 dE for cont linesearch -0.156E-04
 ZBRENT: interpolating
 opt :   2.1132  next Energy=  -703.028014 (dE=-0.128E-03)
 bond charge predicted
       N       E                     dE             d eps       ncg     rms          rms(c)
DAV:   1    -0.703028005995E+03    0.27976E-05   -0.12617E-03 10808   0.533E-02    0.650E-03
RMM:   2    -0.703028011021E+03   -0.50254E-05   -0.52352E-05  9193   0.145E-02
  73 F= -.70302801E+03 E0= -.70302801E+03  d E =-.124385E-03
 curvature:  -0.11 expect dE=-0.185E-04 dE for cont linesearch -0.180E-05
 ZBRENT: interpolating
 opt :   2.0177  next Energy=  -703.028012 (dE=-0.125E-03)
 bond charge predicted
       N       E                     dE             d eps       ncg     rms          rms(c)
DAV:   1    -0.703028009665E+03   -0.36692E-05   -0.31115E-04 10190   0.260E-02    0.329E-03
RMM:   2    -0.703028010527E+03   -0.86248E-06   -0.93344E-06  5469   0.684E-03
  74 F= -.70302801E+03 E0= -.70302801E+03  d E =-.123891E-03
 curvature:  -0.13 expect dE=-0.201E-04 dE for cont linesearch -0.158E-05
 ZBRENT: bisectioning
 opt :   2.0655  next Energy=  -703.028013 (dE=-0.126E-03)
 bond charge predicted
       N       E                     dE             d eps       ncg     rms          rms(c)
DAV:   1    -0.703028010346E+03   -0.68174E-06   -0.68495E-05  9528   0.152E-02    0.185E-03
RMM:   2    -0.703028011219E+03   -0.87269E-06   -0.10369E-05  5199   0.716E-03
  75 F= -.70302801E+03 E0= -.70302801E+03  d E =-.124583E-03
 curvature:  -0.17 expect dE=-0.267E-04 dE for cont linesearch -0.645E-06
 ZBRENT: interpolating
 opt :   2.0483  next Energy=  -703.028011 (dE=-0.125E-03)
 bond charge predicted
       N       E                     dE             d eps       ncg     rms          rms(c)
DAV:   1    -0.703028010812E+03   -0.46608E-06   -0.60200E-06  5576   0.887E-03    0.107E-03
RMM:   2    -0.703028011029E+03   -0.21703E-06   -0.25010E-06  5010   0.347E-03
  76 F= -.70302801E+03 E0= -.70302801E+03  d E =-.124393E-03
 curvature:  -0.06 expect dE=-0.914E-05 dE for cont linesearch -0.884E-06
 ZBRENT: interpolating
 opt :   2.0598  next Energy=  -703.028011 (dE=-0.125E-03)
 bond charge predicted
       N       E                     dE             d eps       ncg     rms          rms(c)
DAV:   1    -0.703028011168E+03   -0.35573E-06   -0.10417E-06  5304   0.427E-03    0.949E-04
RMM:   2    -0.703028011243E+03   -0.75343E-07   -0.10266E-06  4925   0.211E-03
  77 F= -.70302801E+03 E0= -.70302801E+03  d E =-.124607E-03
 curvature:  -0.00 expect dE=-0.660E-06 dE for cont linesearch -0.287E-08
 trial: gam= 2.17110 g(F)=  0.145E-03 g(S)=  0.000E+00 ort =-0.102E-04 (trialstep = 0.181E+00)
 search vector abs. value=  0.884E-03
 bond charge predicted
       N       E                     dE             d eps       ncg     rms          rms(c)
DAV:   1    -0.703028017427E+03   -0.62591E-05   -0.65802E-03 11554   0.121E-01    0.120E-02
RMM:   2    -0.703028036806E+03   -0.19378E-04   -0.20212E-04 12135   0.301E-02    0.402E-03
RMM:   3    -0.703028040393E+03   -0.35872E-05   -0.49721E-05  8411   0.130E-02
  78 F= -.70302804E+03 E0= -.70302804E+03  d E =-.291493E-04
 trial-energy change:   -0.000029  1 .order   -0.000015   -0.000022   -0.000009
 step:   0.2938(harm=  0.2938)  dis= 0.00029  next Energy=  -703.028029 (dE=-0.180E-04)
 bond charge predicted
       N       E                     dE             d eps       ncg     rms          rms(c)
DAV:   1    -0.703028041808E+03   -0.50028E-05   -0.25645E-03 11824   0.765E-02    0.714E-03
RMM:   2    -0.703028051483E+03   -0.96742E-05   -0.10367E-04 11472   0.211E-02    0.334E-03
RMM:   3    -0.703028052336E+03   -0.85351E-06   -0.19744E-05  6557   0.910E-03
  79 F= -.70302805E+03 E0= -.70302805E+03  d E =-.410927E-04
 curvature:  -1.06 expect dE=-0.106E-03 dE for cont linesearch -0.275E-05
 ZBRENT: increasing intervall
 opt :   0.5189  next Energy=  -703.028063 (dE=-0.521E-04)
 bond charge predicted
       N       E                     dE             d eps       ncg     rms          rms(c)
DAV:   1    -0.703028038663E+03    0.12819E-04   -0.10106E-02 11582   0.151E-01    0.144E-02
RMM:   2    -0.703028068816E+03   -0.30153E-04   -0.31571E-04 12358   0.387E-02    0.521E-03
RMM:   3    -0.703028076308E+03   -0.74915E-05   -0.92159E-05 10985   0.171E-02
  80 F= -.70302808E+03 E0= -.70302808E+03  d E =-.650642E-04
 curvature:  -4.23 expect dE=-0.395E-03 dE for cont linesearch -0.277E-05
 ZBRENT: bracketing found
 ZBRENT: interpolating
 opt :   0.4437  next Energy=  -703.028077 (dE=-0.660E-04)
 bond charge predicted
       N       E                     dE             d eps       ncg     rms          rms(c)
DAV:   1    -0.703028065932E+03    0.28841E-05   -0.10875E-03 12144   0.503E-02    0.617E-03
RMM:   2    -0.703028069577E+03   -0.36445E-05   -0.38132E-05  7660   0.123E-02
  81 F= -.70302807E+03 E0= -.70302807E+03  d E =-.583332E-04
 curvature:  -1.38 expect dE=-0.199E-03 dE for cont linesearch -0.718E-04
 ZBRENT: interpolating
 opt :   0.5114  next Energy=  -703.028076 (dE=-0.652E-04)
 bond charge predicted
       N       E                     dE             d eps       ncg     rms          rms(c)
DAV:   1    -0.703028073047E+03   -0.71154E-05   -0.84311E-04 10412   0.440E-02    0.515E-03
RMM:   2    -0.703028076027E+03   -0.29793E-05   -0.32467E-05  7493   0.136E-02
  82 F= -.70302808E+03 E0= -.70302808E+03  d E =-.647833E-04
 curvature:  -0.00 expect dE=-0.165E-06 dE for cont linesearch -0.834E-09
 ZBRENT: bisectioning
 opt :   0.4775  next Energy=  -703.028076 (dE=-0.652E-04)
 bond charge predicted
       N       E                     dE             d eps       ncg     rms          rms(c)
DAV:   1    -0.703028072481E+03    0.56600E-06   -0.19945E-04 10960   0.221E-02    0.256E-03
RMM:   2    -0.703028073512E+03   -0.10301E-05   -0.11248E-05  5347   0.771E-03
  83 F= -.70302807E+03 E0= -.70302807E+03  d E =-.622681E-04
 curvature:  -0.89 expect dE=-0.111E-03 dE for cont linesearch -0.257E-04
 ZBRENT: interpolating
 opt :   0.5075  next Energy=  -703.028076 (dE=-0.648E-04)
 bond charge predicted
       N       E                     dE             d eps       ncg     rms          rms(c)
DAV:   1    -0.703028074955E+03   -0.24737E-05   -0.15560E-04 10648   0.216E-02    0.223E-03
RMM:   2    -0.703028076375E+03   -0.14202E-05   -0.15567E-05  5360   0.970E-03
  84 F= -.70302808E+03 E0= -.70302808E+03  d E =-.651320E-04
 curvature:  -0.00 expect dE=-0.126E-06 dE for cont linesearch -0.241E-09
 trial: gam=-0.05638 g(F)=  0.916E-04 g(S)=  0.000E+00 ort = 0.125E-04 (trialstep = 0.247E+00)
 search vector abs. value=  0.930E-04
 bond charge predicted
       N       E                     dE             d eps       ncg     rms          rms(c)
DAV:   1    -0.703028086032E+03   -0.11077E-04   -0.12303E-03 10840   0.541E-02    0.545E-03
RMM:   2    -0.703028092628E+03   -0.65963E-05   -0.68777E-05 10897   0.179E-02
  85 F= -.70302809E+03 E0= -.70302809E+03  d E =-.162526E-04
 trial-energy change:   -0.000016  1 .order   -0.000013   -0.000022   -0.000004
 step:   0.3061(harm=  0.3061)  dis= 0.00010  next Energy=  -703.028090 (dE=-0.139E-04)
 reached required accuracy - stopping structural energy minimisation
Warning: ieee_invalid is signaling
Warning: ieee_divide_by_zero is signaling
Warning: ieee_underflow is signaling
Warning: ieee_inexact is signaling
FORTRAN STOP
Warning: ieee_invalid is signaling
Warning: ieee_divide_by_zero is signaling
Warning: ieee_underflow is signaling
Warning: ieee_inexact is signaling
FORTRAN STOP
Warning: ieee_invalid is signaling
Warning: ieee_divide_by_zero is signaling
Warning: ieee_underflow is signaling
Warning: ieee_inexact is signaling
FORTRAN STOP
Warning: ieee_invalid is signaling
Warning: ieee_divide_by_zero is signaling
Warning: ieee_underflow is signaling
Warning: ieee_inexact is signaling
FORTRAN STOP
