<?xml version="1.0" encoding="ISO-8859-1"?>
<modeling>
 <generator>
  <i name="program" type="string">vasp </i>
  <i name="version" type="string">6.4.2  </i>
  <i name="subversion" type="string">20Jul23 (build Nov 12 2023 22:16:35) complex                          parallel </i>
  <i name="platform" type="string">LinuxNV </i>
  <i name="date" type="string">2025 03 11 </i>
  <i name="time" type="string">16:25:39 </i>
 </generator>
 <incar>
  <i type="int" name="ISTART">     0</i>
  <i type="string" name="PREC">Normal</i>
  <i type="string" name="ALGO">Fast</i>
  <i type="int" name="ISPIN">     1</i>
  <i type="int" name="ICHARG">     2</i>
  <i type="int" name="IBRION">     2</i>
  <i name="EDIFF">      0.00001000</i>
  <i name="EDIFFG">     -0.00500000</i>
  <i type="int" name="NSW">   300</i>
  <i type="int" name="ISIF">     2</i>
  <i name="ENCUT">    450.00000000</i>
  <i name="NELECT">   1056.00000000</i>
  <i type="string" name="LREAL">Auto</i>
  <i type="logical" name="LPLANE"> T  </i>
  <i type="int" name="ISMEAR">     0</i>
  <i name="SIGMA">      0.05000000</i>
  <i type="logical" name="LWAVE"> F  </i>
  <i type="logical" name="LCHARG"> F  </i>
 </incar>
 <primitive_cell>
  <structure name="primitive_cell" >
   <crystal>
    <varray name="basis" >
     <v>       0.00000000      12.28047342       0.00000000 </v>
     <v>       9.14270205       0.00000000       0.00000000 </v>
     <v>       0.00000000      -2.76826177     -11.30069772 </v>
    </varray>
    <i name="volume">   1268.80515525 </i>
    <varray name="rec_basis" >
     <v>       0.00000000       0.08143009      -0.01994742 </v>
     <v>       0.10937686      -0.00000000       0.00000000 </v>
     <v>       0.00000000       0.00000000      -0.08849011 </v>
    </varray>
   </crystal>
   <varray name="positions" >
    <v>       0.65883830       0.00000000       0.15736517 </v>
    <v>       0.65883830       0.00000000       0.65736517 </v>
    <v>       0.65883830       0.33333333       0.15736517 </v>
    <v>       0.65883830       0.33333333       0.65736517 </v>
    <v>       0.65883830       0.66666667       0.15736517 </v>
    <v>       0.65883830       0.66666667       0.65736517 </v>
    <v>       0.84116170       0.16666667       0.34263483 </v>
    <v>       0.84116170       0.16666667       0.84263483 </v>
    <v>       0.84116170       0.50000000       0.34263483 </v>
    <v>       0.84116170       0.50000000       0.84263483 </v>
    <v>       0.84116170       0.83333333       0.34263483 </v>
    <v>       0.84116170       0.83333333       0.84263483 </v>
    <v>       0.59047440       0.16666667       0.39739300 </v>
    <v>       0.59047440       0.16666667       0.89739300 </v>
    <v>       0.59047440       0.50000000       0.39739300 </v>
    <v>       0.59047440       0.50000000       0.89739300 </v>
    <v>       0.59047440       0.83333333       0.39739300 </v>
    <v>       0.59047440       0.83333333       0.89739300 </v>
    <v>       0.90952560       0.00000000       0.10260700 </v>
    <v>       0.90952560       0.00000000       0.60260700 </v>
    <v>       0.90952560       0.33333333       0.10260700 </v>
    <v>       0.90952560       0.33333333       0.60260700 </v>
    <v>       0.90952560       0.66666667       0.10260700 </v>
    <v>       0.90952560       0.66666667       0.60260700 </v>
    <v>       0.15883830       0.16666667       0.15736517 </v>
    <v>       0.15883830       0.16666667       0.65736517 </v>
    <v>       0.15883830       0.50000000       0.15736517 </v>
    <v>       0.15883830       0.50000000       0.65736517 </v>
    <v>       0.15883830       0.83333333       0.15736517 </v>
    <v>       0.15883830       0.83333333       0.65736517 </v>
    <v>       0.34116170       0.00000000       0.34263483 </v>
    <v>       0.34116170       0.00000000       0.84263483 </v>
    <v>       0.34116170       0.33333333       0.34263483 </v>
    <v>       0.34116170       0.33333333       0.84263483 </v>
    <v>       0.34116170       0.66666667       0.34263483 </v>
    <v>       0.34116170       0.66666667       0.84263483 </v>
    <v>       0.09047440       0.00000000       0.39739300 </v>
    <v>       0.09047440       0.00000000       0.89739300 </v>
    <v>       0.09047440       0.33333333       0.39739300 </v>
    <v>       0.09047440       0.33333333       0.89739300 </v>
    <v>       0.09047440       0.66666667       0.39739300 </v>
    <v>       0.09047440       0.66666667       0.89739300 </v>
    <v>       0.40952560       0.16666667       0.10260700 </v>
    <v>       0.40952560       0.16666667       0.60260700 </v>
    <v>       0.40952560       0.50000000       0.10260700 </v>
    <v>       0.40952560       0.50000000       0.60260700 </v>
    <v>       0.40952560       0.83333333       0.10260700 </v>
    <v>       0.40952560       0.83333333       0.60260700 </v>
    <v>       0.99646913       0.16666667       0.12833205 </v>
    <v>       0.99646913       0.16666667       0.62833205 </v>
    <v>       0.99646913       0.50000000       0.12833205 </v>
    <v>       0.99646913       0.50000000       0.62833205 </v>
    <v>       0.99646913       0.83333333       0.12833205 </v>
    <v>       0.99646913       0.83333333       0.62833205 </v>
    <v>       0.50353087       0.00000000       0.37166795 </v>
    <v>       0.50353087       0.00000000       0.87166795 </v>
    <v>       0.50353087       0.33333333       0.37166795 </v>
    <v>       0.50353087       0.33333333       0.87166795 </v>
    <v>       0.50353087       0.66666667       0.37166795 </v>
    <v>       0.50353087       0.66666667       0.87166795 </v>
    <v>       0.67337106       0.16666667       0.28161508 </v>
    <v>       0.67337106       0.16666667       0.78161508 </v>
    <v>       0.67337106       0.50000000       0.28161508 </v>
    <v>       0.67337106       0.50000000       0.78161508 </v>
    <v>       0.67337106       0.83333333       0.28161508 </v>
    <v>       0.67337106       0.83333333       0.78161508 </v>
    <v>       0.82662894       0.00000000       0.21838492 </v>
    <v>       0.82662894       0.00000000       0.71838492 </v>
    <v>       0.82662894       0.33333333       0.21838492 </v>
    <v>       0.82662894       0.33333333       0.71838492 </v>
    <v>       0.82662894       0.66666667       0.21838492 </v>
    <v>       0.82662894       0.66666667       0.71838492 </v>
    <v>       0.83549502       0.00000000       0.44542296 </v>
    <v>       0.83549502       0.00000000       0.94542296 </v>
    <v>       0.83549502       0.33333333       0.44542296 </v>
    <v>       0.83549502       0.33333333       0.94542296 </v>
    <v>       0.83549502       0.66666667       0.44542296 </v>
    <v>       0.83549502       0.66666667       0.94542296 </v>
    <v>       0.66450498       0.16666667       0.05457704 </v>
    <v>       0.66450498       0.16666667       0.55457704 </v>
    <v>       0.66450498       0.50000000       0.05457704 </v>
    <v>       0.66450498       0.50000000       0.55457704 </v>
    <v>       0.66450498       0.83333333       0.05457704 </v>
    <v>       0.66450498       0.83333333       0.55457704 </v>
    <v>       0.49646913       0.00000000       0.12833205 </v>
    <v>       0.49646913       0.00000000       0.62833205 </v>
    <v>       0.49646913       0.33333333       0.12833205 </v>
    <v>       0.49646913       0.33333333       0.62833205 </v>
    <v>       0.49646913       0.66666667       0.12833205 </v>
    <v>       0.49646913       0.66666667       0.62833205 </v>
    <v>       0.00353087       0.16666667       0.87166795 </v>
    <v>       0.00353087       0.50000000       0.37166795 </v>
    <v>       0.00353087       0.50000000       0.87166795 </v>
    <v>       0.00353087       0.83333333       0.37166795 </v>
    <v>       0.00353087       0.83333333       0.87166795 </v>
    <v>       0.17337106       0.00000000       0.28161508 </v>
    <v>       0.17337106       0.00000000       0.78161508 </v>
    <v>       0.17337106       0.33333333       0.28161508 </v>
    <v>       0.17337106       0.33333333       0.78161508 </v>
    <v>       0.17337106       0.66666667       0.28161508 </v>
    <v>       0.17337106       0.66666667       0.78161508 </v>
    <v>       0.32662894       0.16666667       0.21838492 </v>
    <v>       0.32662894       0.16666667       0.71838492 </v>
    <v>       0.32662894       0.50000000       0.21838492 </v>
    <v>       0.32662894       0.50000000       0.71838492 </v>
    <v>       0.32662894       0.83333333       0.21838492 </v>
    <v>       0.32662894       0.83333333       0.71838492 </v>
    <v>       0.33549502       0.16666667       0.44542296 </v>
    <v>       0.33549502       0.16666667       0.94542296 </v>
    <v>       0.33549502       0.50000000       0.44542296 </v>
    <v>       0.33549502       0.50000000       0.94542296 </v>
    <v>       0.33549502       0.83333333       0.44542296 </v>
    <v>       0.33549502       0.83333333       0.94542296 </v>
    <v>       0.16450498       0.00000000       0.05457704 </v>
    <v>       0.16450498       0.00000000       0.55457704 </v>
    <v>       0.16450498       0.33333333       0.05457704 </v>
    <v>       0.16450498       0.33333333       0.55457704 </v>
    <v>       0.16450498       0.66666667       0.05457704 </v>
    <v>       0.16450498       0.66666667       0.55457704 </v>
    <v>       0.00353087       0.16666667       0.37166795 </v>
   </varray>
  </structure>
  <varray name="primitive_index" >
   <v type="int" >        1 </v>
   <v type="int" >        2 </v>
   <v type="int" >        3 </v>
   <v type="int" >        4 </v>
   <v type="int" >        5 </v>
   <v type="int" >        6 </v>
   <v type="int" >        7 </v>
   <v type="int" >        8 </v>
   <v type="int" >        9 </v>
   <v type="int" >       10 </v>
   <v type="int" >       11 </v>
   <v type="int" >       12 </v>
   <v type="int" >       13 </v>
   <v type="int" >       14 </v>
   <v type="int" >       15 </v>
   <v type="int" >       16 </v>
   <v type="int" >       17 </v>
   <v type="int" >       18 </v>
   <v type="int" >       19 </v>
   <v type="int" >       20 </v>
   <v type="int" >       21 </v>
   <v type="int" >       22 </v>
   <v type="int" >       23 </v>
   <v type="int" >       24 </v>
   <v type="int" >       25 </v>
   <v type="int" >       26 </v>
   <v type="int" >       27 </v>
   <v type="int" >       28 </v>
   <v type="int" >       29 </v>
   <v type="int" >       30 </v>
   <v type="int" >       31 </v>
   <v type="int" >       32 </v>
   <v type="int" >       33 </v>
   <v type="int" >       34 </v>
   <v type="int" >       35 </v>
   <v type="int" >       36 </v>
   <v type="int" >       37 </v>
   <v type="int" >       38 </v>
   <v type="int" >       39 </v>
   <v type="int" >       40 </v>
   <v type="int" >       41 </v>
   <v type="int" >       42 </v>
   <v type="int" >       43 </v>
   <v type="int" >       44 </v>
   <v type="int" >       45 </v>
   <v type="int" >       46 </v>
   <v type="int" >       47 </v>
   <v type="int" >       48 </v>
   <v type="int" >       49 </v>
   <v type="int" >       50 </v>
   <v type="int" >       51 </v>
   <v type="int" >       52 </v>
   <v type="int" >       53 </v>
   <v type="int" >       54 </v>
   <v type="int" >       55 </v>
   <v type="int" >       56 </v>
   <v type="int" >       57 </v>
   <v type="int" >       58 </v>
   <v type="int" >       59 </v>
   <v type="int" >       60 </v>
   <v type="int" >       61 </v>
   <v type="int" >       62 </v>
   <v type="int" >       63 </v>
   <v type="int" >       64 </v>
   <v type="int" >       65 </v>
   <v type="int" >       66 </v>
   <v type="int" >       67 </v>
   <v type="int" >       68 </v>
   <v type="int" >       69 </v>
   <v type="int" >       70 </v>
   <v type="int" >       71 </v>
   <v type="int" >       72 </v>
   <v type="int" >       73 </v>
   <v type="int" >       74 </v>
   <v type="int" >       75 </v>
   <v type="int" >       76 </v>
   <v type="int" >       77 </v>
   <v type="int" >       78 </v>
   <v type="int" >       79 </v>
   <v type="int" >       80 </v>
   <v type="int" >       81 </v>
   <v type="int" >       82 </v>
   <v type="int" >       83 </v>
   <v type="int" >       84 </v>
   <v type="int" >       85 </v>
   <v type="int" >       86 </v>
   <v type="int" >       87 </v>
   <v type="int" >       88 </v>
   <v type="int" >       89 </v>
   <v type="int" >       90 </v>
   <v type="int" >       91 </v>
   <v type="int" >       92 </v>
   <v type="int" >       93 </v>
   <v type="int" >       94 </v>
   <v type="int" >       95 </v>
   <v type="int" >       96 </v>
   <v type="int" >       97 </v>
   <v type="int" >       98 </v>
   <v type="int" >       99 </v>
   <v type="int" >      100 </v>
   <v type="int" >      101 </v>
   <v type="int" >      102 </v>
   <v type="int" >      103 </v>
   <v type="int" >      104 </v>
   <v type="int" >      105 </v>
   <v type="int" >      106 </v>
   <v type="int" >      107 </v>
   <v type="int" >      108 </v>
   <v type="int" >      109 </v>
   <v type="int" >      110 </v>
   <v type="int" >      111 </v>
   <v type="int" >      112 </v>
   <v type="int" >      113 </v>
   <v type="int" >      114 </v>
   <v type="int" >      115 </v>
   <v type="int" >      116 </v>
   <v type="int" >      117 </v>
   <v type="int" >      118 </v>
   <v type="int" >      119 </v>
   <v type="int" >      120 </v>
  </varray>
 </primitive_cell>
 <kpoints>
  <generation param="Gamma">
   <v type="int" name="divisions">       2        2        2 </v>
   <v name="usershift">      0.00000000       0.00000000       0.00000000 </v>
   <v name="genvec1">      0.50000000       0.00000000       0.00000000 </v>
   <v name="genvec2">      0.00000000       0.50000000       0.00000000 </v>
   <v name="genvec3">      0.00000000       0.00000000       0.50000000 </v>
   <v name="shift">      0.00000000       0.00000000       0.00000000 </v>
  </generation>
  <varray name="kpointlist" >
   <v>       0.00000000       0.00000000       0.00000000 </v>
   <v>       0.50000000       0.00000000       0.00000000 </v>
   <v>       0.00000000       0.50000000       0.00000000 </v>
   <v>       0.50000000       0.50000000       0.00000000 </v>
   <v>       0.00000000       0.00000000       0.50000000 </v>
   <v>       0.50000000       0.00000000       0.50000000 </v>
   <v>       0.00000000       0.50000000       0.50000000 </v>
   <v>       0.50000000       0.50000000       0.50000000 </v>
  </varray>
  <varray name="weights" >
   <v>       0.12500000 </v>
   <v>       0.12500000 </v>
   <v>       0.12500000 </v>
   <v>       0.12500000 </v>
   <v>       0.12500000 </v>
   <v>       0.12500000 </v>
   <v>       0.12500000 </v>
   <v>       0.12500000 </v>
  </varray>
 </kpoints>
 <parameters>
  <separator name="general" >
   <i type="string" name="SYSTEM">unknown system</i>
   <i type="logical" name="LCOMPAT"> F  </i>
  </separator>
  <separator name="electronic" >
   <i type="string" name="PREC">normal</i>
   <i name="ENMAX">    450.00000000</i>
   <i name="ENAUG">    605.39200000</i>
   <i name="EDIFF">      0.00001000</i>
   <i type="int" name="IALGO">    68</i>
   <i type="int" name="IWAVPR">    11</i>
   <i type="int" name="NBANDS">   633</i>
   <i type="int" name="NBANDSLOW">    -1</i>
   <i type="int" name="NBANDSHIGH">    -1</i>
   <i name="NELECT">   1056.00000000</i>
   <i type="int" name="TURBO">     0</i>
   <i type="int" name="IRESTART">     0</i>
   <i type="int" name="NREBOOT">     0</i>
   <i type="int" name="NMIN">     0</i>
   <i name="EREF">      0.00000000</i>
   <separator name="electronic smearing" >
    <i type="int" name="ISMEAR">     0</i>
    <i name="SIGMA">      0.05000000</i>
    <i name="KSPACING">      0.50000000</i>
    <i type="logical" name="KGAMMA"> T  </i>
    <i type="logical" name="KBLOWUP"> T  </i>
   </separator>
   <separator name="electronic projectors" >
    <i type="logical" name="LREAL"> T  </i>
    <v name="ROPT">     -0.00050000     -0.00050000     -0.00050000</v>
    <i type="int" name="LMAXPAW">  -100</i>
    <i type="int" name="LMAXMIX">     2</i>
    <i type="logical" name="NLSPLINE"> F  </i>
   </separator>
   <separator name="electronic startup" >
    <i type="int" name="ISTART">     0</i>
    <i type="int" name="ICHARG">     2</i>
    <i type="int" name="INIWAV">     1</i>
   </separator>
   <separator name="electronic spin" >
    <i type="int" name="ISPIN">     1</i>
    <i type="logical" name="LNONCOLLINEAR"> F  </i>
    <v name="MAGMOM">      1.00000000      1.00000000      1.00000000      1.00000000      1.00000000      1.00000000      1.00000000      1.00000000      1.00000000      1.00000000      1.00000000      1.00000000      1.00000000      1.00000000      1.00000000      1.00000000      1.00000000      1.00000000      1.00000000      1.00000000
      1.00000000      1.00000000      1.00000000      1.00000000      1.00000000      1.00000000      1.00000000      1.00000000      1.00000000      1.00000000      1.00000000      1.00000000      1.00000000      1.00000000      1.00000000      1.00000000      1.00000000      1.00000000      1.00000000      1.00000000
      1.00000000      1.00000000      1.00000000      1.00000000      1.00000000      1.00000000      1.00000000      1.00000000      1.00000000      1.00000000      1.00000000      1.00000000      1.00000000      1.00000000      1.00000000      1.00000000      1.00000000      1.00000000      1.00000000      1.00000000
      1.00000000      1.00000000      1.00000000      1.00000000      1.00000000      1.00000000      1.00000000      1.00000000      1.00000000      1.00000000      1.00000000      1.00000000      1.00000000      1.00000000      1.00000000      1.00000000      1.00000000      1.00000000      1.00000000      1.00000000
      1.00000000      1.00000000      1.00000000      1.00000000      1.00000000      1.00000000      1.00000000      1.00000000      1.00000000      1.00000000      1.00000000      1.00000000      1.00000000      1.00000000      1.00000000      1.00000000      1.00000000      1.00000000      1.00000000      1.00000000
      1.00000000      1.00000000      1.00000000      1.00000000      1.00000000      1.00000000      1.00000000      1.00000000      1.00000000      1.00000000      1.00000000      1.00000000      1.00000000      1.00000000      1.00000000      1.00000000      1.00000000      1.00000000      1.00000000      1.00000000
</v>
    <i name="NUPDOWN">     -1.00000000</i>
    <i type="logical" name="LSORBIT"> F  </i>
    <v name="SAXIS">      0.00000000      0.00000000      1.00000000</v>
    <i type="logical" name="LSPIRAL"> F  </i>
    <v name="QSPIRAL">      0.00000000      0.00000000      0.00000000</v>
    <i type="logical" name="LZEROZ"> F  </i>
   </separator>
   <separator name="electronic exchange-correlation" >
    <i type="logical" name="LASPH"> F  </i>
    <i type="logical" name="LMETAGGA"> F  </i>
   </separator>
   <separator name="electronic convergence" >
    <i type="int" name="NELM">    60</i>
    <i type="int" name="NELMDL">    -5</i>
    <i type="int" name="NELMIN">     2</i>
    <i name="ENINI">    450.00000000</i>
    <separator name="electronic convergence detail" >
     <i type="logical" name="LDIAG"> T  </i>
     <i type="logical" name="LSUBROT"> F  </i>
     <i name="WEIMIN">      0.00100000</i>
     <i name="EBREAK">      0.00000000</i>
     <i name="DEPER">      0.30000000</i>
     <i type="int" name="NRMM">     4</i>
     <i name="TIME">      0.40000000</i>
    </separator>
   </separator>
   <separator name="electronic mixer" >
    <i name="AMIX">      0.40000000</i>
    <i name="BMIX">      1.00000000</i>
    <i name="AMIN">      0.10000000</i>
    <i name="AMIX_MAG">      1.60000000</i>
    <i name="BMIX_MAG">      1.00000000</i>
    <separator name="electronic mixer details" >
     <i type="int" name="IMIX">     4</i>
     <i type="logical" name="MIXFIRST"> F  </i>
     <i type="int" name="MAXMIX">   -45</i>
     <i name="WC">    100.00000000</i>
     <i type="int" name="INIMIX">     1</i>
     <i type="int" name="MIXPRE">     1</i>
     <i type="int" name="MREMOVE">     5</i>
    </separator>
   </separator>
   <separator name="electronic dipolcorrection" >
    <i type="logical" name="LDIPOL"> F  </i>
    <i type="logical" name="LMONO"> F  </i>
    <i type="int" name="IDIPOL">     0</i>
    <i name="EPSILON">      1.00000000</i>
    <v name="DIPOL">   -100.00000000   -100.00000000   -100.00000000</v>
    <i name="EFIELD">      0.00000000</i>
   </separator>
  </separator>
  <separator name="grids" >
   <i type="int" name="NGX">    64</i>
   <i type="int" name="NGY">    48</i>
   <i type="int" name="NGZ">    60</i>
   <i type="int" name="NGXF">   128</i>
   <i type="int" name="NGYF">    96</i>
   <i type="int" name="NGZF">   120</i>
   <i type="logical" name="ADDGRID"> F  </i>
  </separator>
  <separator name="ionic" >
   <i type="int" name="NSW">   300</i>
   <i type="int" name="IBRION">     2</i>
   <i type="int" name="MDALGO">     0</i>
   <i type="int" name="ISIF">     2</i>
   <i name="PSTRESS">      0.00000000</i>
   <i name="EDIFFG">     -0.00500000</i>
   <i type="int" name="NFREE">     1</i>
   <i name="POTIM">      0.50000000</i>
   <i name="SMASS">     -3.00000000</i>
   <i name="SCALEE">      1.00000000</i>
  </separator>
  <separator name="ionic md" >
   <i name="TEBEG">      0.00010000</i>
   <i name="TEEND">      0.00010000</i>
   <i type="int" name="NBLOCK">     1</i>
   <i type="int" name="KBLOCK">   300</i>
   <i type="int" name="NPACO">   256</i>
   <i name="APACO">     10.00000000</i>
  </separator>
  <separator name="symmetry" >
   <i type="int" name="ISYM">     2</i>
   <i name="SYMPREC">      0.00001000</i>
  </separator>
  <separator name="dos" >
   <i type="int" name="LORBIT">     0</i>
   <v name="RWIGS">     -1.00000000     -1.00000000     -1.00000000</v>
   <i type="int" name="NEDOS">   301</i>
   <i name="EMIN">     10.00000000</i>
   <i name="EMAX">    -10.00000000</i>
   <i name="EFERMI">      0.00000000</i>
  </separator>
  <separator name="writing" >
   <i type="int" name="NWRITE">     2</i>
   <i type="logical" name="LWAVE"> F  </i>
   <i type="logical" name="LDOWNSAMPLE"> F  </i>
   <i type="logical" name="LCHARG"> F  </i>
   <i type="logical" name="LPARD"> F  </i>
   <i type="logical" name="LVTOT"> F  </i>
   <i type="logical" name="LVHAR"> F  </i>
   <i type="logical" name="LELF"> F  </i>
   <i type="logical" name="LOPTICS"> F  </i>
   <v name="STM">      0.00000000      0.00000000      0.00000000      0.00000000      0.00000000      0.00000000      0.00000000</v>
  </separator>
  <separator name="performance" >
   <i type="int" name="NPAR">     1</i>
   <i type="int" name="NSIM">     4</i>
   <i type="int" name="NBLK">    -1</i>
   <i type="logical" name="LPLANE"> T  </i>
   <i type="logical" name="LSCALAPACK"> T  </i>
   <i type="logical" name="LSCAAWARE"> F  </i>
   <i type="logical" name="LSCALU"> F  </i>
   <i type="logical" name="LASYNC"> F  </i>
   <i type="logical" name="LORBITALREAL"> F  </i>
  </separator>
  <separator name="miscellaneous" >
   <i type="int" name="IDIOT">     3</i>
   <i type="int" name="PHON_NSTRUCT">    -1</i>
   <i type="logical" name="LMUSIC"> F  </i>
   <v name="POMASS">     69.72300000     16.00000000     30.97400000</v>
   <v name="DARWINR">      0.00000000      0.00000000      0.00000000</v>
   <v name="DARWINV">      1.00000000      1.00000000      1.00000000</v>
   <i type="logical" name="LCORR"> T  </i>
  </separator>
  <i type="logical" name="GGA_COMPAT"> T  </i>
  <i type="logical" name="LBERRY"> F  </i>
  <i type="int" name="ICORELEVEL">     0</i>
  <i type="logical" name="LDAU"> F  </i>
  <i type="int" name="I_CONSTRAINED_M">     0</i>
  <separator name="electronic exchange-correlation" >
   <i type="string" name="GGA">--</i>
   <i type="int" name="VOSKOWN">     0</i>
   <i type="logical" name="LHFCALC"> F  </i>
   <i type="string" name="PRECFOCK"></i>
   <i type="logical" name="LSYMGRAD"> F  </i>
   <i type="logical" name="LHFONE"> F  </i>
   <i type="logical" name="LRHFCALC"> F  </i>
   <i type="logical" name="LTHOMAS"> F  </i>
   <i type="logical" name="LMODELHF"> F  </i>
   <i type="logical" name="LFOCKACE"> F  </i>
   <i name="ENCUT4O">     -1.00000000</i>
   <i type="int" name="EXXOEP">     0</i>
   <i type="int" name="FOURORBIT">     0</i>
   <i name="AEXX">      0.00000000</i>
   <i name="HFALPHA">      0.00000000</i>
   <i name="MCALPHA">      0.00000000</i>
   <i name="ALDAX">      1.00000000</i>
   <i name="AGGAX">      1.00000000</i>
   <i name="ALDAC">      1.00000000</i>
   <i name="AGGAC">      1.00000000</i>
   <i type="int" name="NKREDX">     1</i>
   <i type="int" name="NKREDY">     1</i>
   <i type="int" name="NKREDZ">     1</i>
   <i type="logical" name="SHIFTRED"> F  </i>
   <i type="logical" name="ODDONLY"> F  </i>
   <i type="logical" name="EVENONLY"> F  </i>
   <i type="int" name="LMAXFOCK">     0</i>
   <i type="int" name="NMAXFOCKAE">     0</i>
   <i type="logical" name="LFOCKAEDFT"> F  </i>
   <i name="HFSCREEN">      0.00000000</i>
   <i name="HFSCREENC">      0.00000000</i>
   <i type="int" name="NBANDSGWLOW">     0</i>
  </separator>
  <separator name="vdW DFT" >
   <i type="logical" name="LUSE_VDW"> F  </i>
   <i type="int" name="IVDW_NL">     1</i>
   <i type="logical" name="LSPIN_VDW"> F  </i>
   <i name="Zab_VDW">     -0.84910000</i>
   <i name="PARAM1">      0.12340000</i>
   <i name="PARAM2">      1.00000000</i>
   <i name="PARAM3">      0.00000000</i>
  </separator>
  <separator name="model GW" >
   <i type="int" name="MODEL_GW">     0</i>
   <i name="MODEL_EPS0">      6.34402578</i>
   <i name="MODEL_ALPHA">      1.00000000</i>
  </separator>
  <separator name="linear response parameters" >
   <i type="logical" name="LEPSILON"> F  </i>
   <i type="logical" name="LRPA"> F  </i>
   <i type="logical" name="LNABLA"> F  </i>
   <i type="logical" name="LVEL"> F  </i>
   <i name="CSHIFT">      0.10000000</i>
   <i name="OMEGAMAX">     -1.00000000</i>
   <i name="DEG_THRESHOLD">      0.00200000</i>
   <i name="RTIME">     -0.10000000</i>
   <i name="WPLASMAI">      0.00000000</i>
   <v name="DFIELD">      0.00000000      0.00000000      0.00000000</v>
   <v name="WPLASMA">      0.00000000      0.00000000      0.00000000      0.00000000      0.00000000      0.00000000      0.00000000      0.00000000      0.00000000</v>
  </separator>
  <separator name="orbital magnetization" >
   <i type="logical" name="NUCIND"> F  </i>
   <v name="MAGPOS">      0.00000000      0.00000000      0.00000000</v>
   <i type="logical" name="LNICSALL"> T  </i>
   <i type="logical" name="ORBITALMAG"> F  </i>
   <i type="logical" name="LMAGBLOCH"> F  </i>
   <i type="logical" name="LCHIMAG"> F  </i>
   <i type="logical" name="LGAUGE"> T  </i>
   <i type="int" name="MAGATOM">     0</i>
   <v name="MAGDIPOL">      0.00000000      0.00000000      0.00000000</v>
   <v name="AVECCONST">      0.00000000      0.00000000      0.00000000</v>
  </separator>
  <separator name="response functions" >
   <i type="logical" name="LALL_IN_ONE"> F  </i>
   <i type="int" name="IALL_IN_ONE">    -1</i>
   <i type="int" name="NBANDS_WAVE">    -1</i>
   <i type="logical" name="LFINITE_TEMPERATURE"> F  </i>
   <i type="logical" name="LADDER"> F  </i>
   <i type="logical" name="LRPAFORCE"> F  </i>
   <i type="logical" name="LFXC"> F  </i>
   <i type="logical" name="LHARTREE"> T  </i>
   <i type="int" name="IBSE">     0</i>
   <v type="int" name="KPOINT">    -1     0     0     0</v>
   <i type="logical" name="LTCTC"> F  </i>
   <i type="logical" name="LTCTE"> F  </i>
   <i type="logical" name="LTETE"> F  </i>
   <i type="logical" name="LTRIPLET"> F  </i>
   <i type="logical" name="LFXCEPS"> F  </i>
   <i type="logical" name="LFXHEG"> F  </i>
   <i type="int" name="NATURALO">     2</i>
   <i type="logical" name="LHOLEGF"> F  </i>
   <i type="logical" name="L2ORDER"> F  </i>
   <i type="logical" name="LDMP1"> F  </i>
   <i type="logical" name="LMP2LT"> F  </i>
   <i type="logical" name="LSMP2LT"> F  </i>
   <i type="logical" name="LGWLF"> F  </i>
   <i name="ENCUTGW">     -1.60000002</i>
   <i name="ENCUTGWSOFT">     -1.60000002</i>
   <i name="ENCUTLF">     -1.00000000</i>
   <i type="logical" name="LESF_SPLINES"> F  </i>
   <i type="int" name="LMAXMP2">    -1</i>
   <i name="SCISSOR">      0.00000000</i>
   <i type="int" name="NOMEGA">     0</i>
   <i type="int" name="NOMEGAR">     0</i>
   <i type="int" name="NBANDSGW">    -1</i>
   <i type="int" name="NBANDSO">    -1</i>
   <i type="int" name="NBANDSV">    -1</i>
   <i type="int" name="NELMGW">     1</i>
   <i type="int" name="NELMHF">     1</i>
   <i type="int" name="DIM">     3</i>
   <i type="int" name="IESPILON">     4</i>
   <i type="int" name="ANTIRES">     0</i>
   <i name="OMEGAMAX">    -30.00000000</i>
   <i name="OMEGAMIN">    -30.00000000</i>
   <i name="OMEGATL">   -200.00000000</i>
   <i type="int" name="OMEGAGRID">     0</i>
   <i name="CSHIFT">     -0.10000000</i>
   <i type="logical" name="LSELFENERGY"> F  </i>
   <i type="logical" name="LSPECTRAL"> F  </i>
   <i type="logical" name="LSPECTRALGW"> F  </i>
   <i type="logical" name="LSINGLES"> F  </i>
   <i type="logical" name="LFERMIGW"> F  </i>
   <i type="logical" name="ODDONLYGW"> F  </i>
   <i type="logical" name="EVENONLYGW"> F  </i>
   <i type="int" name="NKREDLFX">     1</i>
   <i type="int" name="NKREDLFY">     1</i>
   <i type="int" name="NKREDLFZ">     1</i>
   <i type="int" name="MAXMEM">  2800</i>
   <i type="int" name="TELESCOPE">     0</i>
   <i type="int" name="NTAUPAR">    -1</i>
   <i type="int" name="NOMEGAPAR">    -1</i>
   <i name="DAMP_NEWTON">      0.80000001</i>
   <i name="LAMBDA">      1.00000000</i>
  </separator>
  <separator name="External order field" >
   <i name="OFIELD_KAPPA">      0.00000000</i>
   <v name="OFIELD_K">      0.00000000      0.00000000      0.00000000</v>
   <i name="OFIELD_Q6_NEAR">      0.00000000</i>
   <i name="OFIELD_Q6_FAR">      0.00000000</i>
   <i name="OFIELD_A">      0.00000000</i>
  </separator>
  <separator name="optional k-points parameters" >
   <i type="int" name="KPOINTS_OPT_MODE">     1</i>
   <i type="logical" name="LKPOINTS_OPT"> F  </i>
  </separator>
 </parameters>
 <atominfo>
  <atoms>     120 </atoms>
  <types>       3 </types>
  <array name="atoms" >
   <dimension dim="1">ion</dimension>
   <field type="string">element</field>
   <field type="int">atomtype</field>
   <set>
    <rc><c>Ga</c><c>   1</c></rc>
    <rc><c>Ga</c><c>   1</c></rc>
    <rc><c>Ga</c><c>   1</c></rc>
    <rc><c>Ga</c><c>   1</c></rc>
    <rc><c>Ga</c><c>   1</c></rc>
    <rc><c>Ga</c><c>   1</c></rc>
    <rc><c>Ga</c><c>   1</c></rc>
    <rc><c>Ga</c><c>   1</c></rc>
    <rc><c>Ga</c><c>   1</c></rc>
    <rc><c>Ga</c><c>   1</c></rc>
    <rc><c>Ga</c><c>   1</c></rc>
    <rc><c>Ga</c><c>   1</c></rc>
    <rc><c>Ga</c><c>   1</c></rc>
    <rc><c>Ga</c><c>   1</c></rc>
    <rc><c>Ga</c><c>   1</c></rc>
    <rc><c>Ga</c><c>   1</c></rc>
    <rc><c>Ga</c><c>   1</c></rc>
    <rc><c>Ga</c><c>   1</c></rc>
    <rc><c>Ga</c><c>   1</c></rc>
    <rc><c>Ga</c><c>   1</c></rc>
    <rc><c>Ga</c><c>   1</c></rc>
    <rc><c>Ga</c><c>   1</c></rc>
    <rc><c>Ga</c><c>   1</c></rc>
    <rc><c>Ga</c><c>   1</c></rc>
    <rc><c>Ga</c><c>   1</c></rc>
    <rc><c>Ga</c><c>   1</c></rc>
    <rc><c>Ga</c><c>   1</c></rc>
    <rc><c>Ga</c><c>   1</c></rc>
    <rc><c>Ga</c><c>   1</c></rc>
    <rc><c>Ga</c><c>   1</c></rc>
    <rc><c>Ga</c><c>   1</c></rc>
    <rc><c>Ga</c><c>   1</c></rc>
    <rc><c>Ga</c><c>   1</c></rc>
    <rc><c>Ga</c><c>   1</c></rc>
    <rc><c>Ga</c><c>   1</c></rc>
    <rc><c>Ga</c><c>   1</c></rc>
    <rc><c>Ga</c><c>   1</c></rc>
    <rc><c>Ga</c><c>   1</c></rc>
    <rc><c>Ga</c><c>   1</c></rc>
    <rc><c>Ga</c><c>   1</c></rc>
    <rc><c>Ga</c><c>   1</c></rc>
    <rc><c>Ga</c><c>   1</c></rc>
    <rc><c>Ga</c><c>   1</c></rc>
    <rc><c>Ga</c><c>   1</c></rc>
    <rc><c>Ga</c><c>   1</c></rc>
    <rc><c>Ga</c><c>   1</c></rc>
    <rc><c>Ga</c><c>   1</c></rc>
    <rc><c>Ga</c><c>   1</c></rc>
    <rc><c>O </c><c>   2</c></rc>
    <rc><c>O </c><c>   2</c></rc>
    <rc><c>O </c><c>   2</c></rc>
    <rc><c>O </c><c>   2</c></rc>
    <rc><c>O </c><c>   2</c></rc>
    <rc><c>O </c><c>   2</c></rc>
    <rc><c>O </c><c>   2</c></rc>
    <rc><c>O </c><c>   2</c></rc>
    <rc><c>O </c><c>   2</c></rc>
    <rc><c>O </c><c>   2</c></rc>
    <rc><c>O </c><c>   2</c></rc>
    <rc><c>O </c><c>   2</c></rc>
    <rc><c>O </c><c>   2</c></rc>
    <rc><c>O </c><c>   2</c></rc>
    <rc><c>O </c><c>   2</c></rc>
    <rc><c>O </c><c>   2</c></rc>
    <rc><c>O </c><c>   2</c></rc>
    <rc><c>O </c><c>   2</c></rc>
    <rc><c>O </c><c>   2</c></rc>
    <rc><c>O </c><c>   2</c></rc>
    <rc><c>O </c><c>   2</c></rc>
    <rc><c>O </c><c>   2</c></rc>
    <rc><c>O </c><c>   2</c></rc>
    <rc><c>O </c><c>   2</c></rc>
    <rc><c>O </c><c>   2</c></rc>
    <rc><c>O </c><c>   2</c></rc>
    <rc><c>O </c><c>   2</c></rc>
    <rc><c>O </c><c>   2</c></rc>
    <rc><c>O </c><c>   2</c></rc>
    <rc><c>O </c><c>   2</c></rc>
    <rc><c>O </c><c>   2</c></rc>
    <rc><c>O </c><c>   2</c></rc>
    <rc><c>O </c><c>   2</c></rc>
    <rc><c>O </c><c>   2</c></rc>
    <rc><c>O </c><c>   2</c></rc>
    <rc><c>O </c><c>   2</c></rc>
    <rc><c>O </c><c>   2</c></rc>
    <rc><c>O </c><c>   2</c></rc>
    <rc><c>O </c><c>   2</c></rc>
    <rc><c>O </c><c>   2</c></rc>
    <rc><c>O </c><c>   2</c></rc>
    <rc><c>O </c><c>   2</c></rc>
    <rc><c>O </c><c>   2</c></rc>
    <rc><c>O </c><c>   2</c></rc>
    <rc><c>O </c><c>   2</c></rc>
    <rc><c>O </c><c>   2</c></rc>
    <rc><c>O </c><c>   2</c></rc>
    <rc><c>O </c><c>   2</c></rc>
    <rc><c>O </c><c>   2</c></rc>
    <rc><c>O </c><c>   2</c></rc>
    <rc><c>O </c><c>   2</c></rc>
    <rc><c>O </c><c>   2</c></rc>
    <rc><c>O </c><c>   2</c></rc>
    <rc><c>O </c><c>   2</c></rc>
    <rc><c>O </c><c>   2</c></rc>
    <rc><c>O </c><c>   2</c></rc>
    <rc><c>O </c><c>   2</c></rc>
    <rc><c>O </c><c>   2</c></rc>
    <rc><c>O </c><c>   2</c></rc>
    <rc><c>O </c><c>   2</c></rc>
    <rc><c>O </c><c>   2</c></rc>
    <rc><c>O </c><c>   2</c></rc>
    <rc><c>O </c><c>   2</c></rc>
    <rc><c>O </c><c>   2</c></rc>
    <rc><c>O </c><c>   2</c></rc>
    <rc><c>O </c><c>   2</c></rc>
    <rc><c>O </c><c>   2</c></rc>
    <rc><c>O </c><c>   2</c></rc>
    <rc><c>O </c><c>   2</c></rc>
    <rc><c>O </c><c>   2</c></rc>
    <rc><c>O </c><c>   2</c></rc>
    <rc><c>P </c><c>   3</c></rc>
   </set>
  </array>
  <array name="atomtypes" >
   <dimension dim="1">type</dimension>
   <field type="int">atomspertype</field>
   <field type="string">element</field>
   <field>mass</field>
   <field>valence</field>
   <field type="string">pseudopotential</field>
   <set>
    <rc><c>  48</c><c>Ga</c><c>     69.72300000</c><c>     13.00000000</c><c>  PAW_PBE Ga_d 06Jul2010                </c></rc>
    <rc><c>  71</c><c>O </c><c>     16.00000000</c><c>      6.00000000</c><c>   PAW_PBE O 08Apr2002                  </c></rc>
    <rc><c>   1</c><c>P </c><c>     30.97400000</c><c>      5.00000000</c><c>  PAW_PBE P 06Sep2000                   </c></rc>
   </set>
  </array>
 </atominfo>
 <structure name="initialpos" >
  <crystal>
   <varray name="basis" >
    <v>       0.00000000      12.28047342       0.00000000 </v>
    <v>       9.14270205       0.00000000       0.00000000 </v>
    <v>       0.00000000      -2.76826177     -11.30069772 </v>
   </varray>
   <i name="volume">   1268.80515525 </i>
   <varray name="rec_basis" >
    <v>       0.00000000       0.08143009      -0.01994742 </v>
    <v>       0.10937686      -0.00000000       0.00000000 </v>
    <v>       0.00000000       0.00000000      -0.08849011 </v>
   </varray>
  </crystal>
  <varray name="positions" >
   <v>       0.65883830       0.00000000       0.15736517 </v>
   <v>       0.65883830       0.00000000       0.65736517 </v>
   <v>       0.65883830       0.33333333       0.15736517 </v>
   <v>       0.65883830       0.33333333       0.65736517 </v>
   <v>       0.65883830       0.66666667       0.15736517 </v>
   <v>       0.65883830       0.66666667       0.65736517 </v>
   <v>       0.84116170       0.16666667       0.34263483 </v>
   <v>       0.84116170       0.16666667       0.84263483 </v>
   <v>       0.84116170       0.50000000       0.34263483 </v>
   <v>       0.84116170       0.50000000       0.84263483 </v>
   <v>       0.84116170       0.83333333       0.34263483 </v>
   <v>       0.84116170       0.83333333       0.84263483 </v>
   <v>       0.59047440       0.16666667       0.39739300 </v>
   <v>       0.59047440       0.16666667       0.89739300 </v>
   <v>       0.59047440       0.50000000       0.39739300 </v>
   <v>       0.59047440       0.50000000       0.89739300 </v>
   <v>       0.59047440       0.83333333       0.39739300 </v>
   <v>       0.59047440       0.83333333       0.89739300 </v>
   <v>       0.90952560       0.00000000       0.10260700 </v>
   <v>       0.90952560       0.00000000       0.60260700 </v>
   <v>       0.90952560       0.33333333       0.10260700 </v>
   <v>       0.90952560       0.33333333       0.60260700 </v>
   <v>       0.90952560       0.66666667       0.10260700 </v>
   <v>       0.90952560       0.66666667       0.60260700 </v>
   <v>       0.15883830       0.16666667       0.15736517 </v>
   <v>       0.15883830       0.16666667       0.65736517 </v>
   <v>       0.15883830       0.50000000       0.15736517 </v>
   <v>       0.15883830       0.50000000       0.65736517 </v>
   <v>       0.15883830       0.83333333       0.15736517 </v>
   <v>       0.15883830       0.83333333       0.65736517 </v>
   <v>       0.34116170       0.00000000       0.34263483 </v>
   <v>       0.34116170       0.00000000       0.84263483 </v>
   <v>       0.34116170       0.33333333       0.34263483 </v>
   <v>       0.34116170       0.33333333       0.84263483 </v>
   <v>       0.34116170       0.66666667       0.34263483 </v>
   <v>       0.34116170       0.66666667       0.84263483 </v>
   <v>       0.09047440       0.00000000       0.39739300 </v>
   <v>       0.09047440       0.00000000       0.89739300 </v>
   <v>       0.09047440       0.33333333       0.39739300 </v>
   <v>       0.09047440       0.33333333       0.89739300 </v>
   <v>       0.09047440       0.66666667       0.39739300 </v>
   <v>       0.09047440       0.66666667       0.89739300 </v>
   <v>       0.40952560       0.16666667       0.10260700 </v>
   <v>       0.40952560       0.16666667       0.60260700 </v>
   <v>       0.40952560       0.50000000       0.10260700 </v>
   <v>       0.40952560       0.50000000       0.60260700 </v>
   <v>       0.40952560       0.83333333       0.10260700 </v>
   <v>       0.40952560       0.83333333       0.60260700 </v>
   <v>       0.99646913       0.16666667       0.12833205 </v>
   <v>       0.99646913       0.16666667       0.62833205 </v>
   <v>       0.99646913       0.50000000       0.12833205 </v>
   <v>       0.99646913       0.50000000       0.62833205 </v>
   <v>       0.99646913       0.83333333       0.12833205 </v>
   <v>       0.99646913       0.83333333       0.62833205 </v>
   <v>       0.50353087       0.00000000       0.37166795 </v>
   <v>       0.50353087       0.00000000       0.87166795 </v>
   <v>       0.50353087       0.33333333       0.37166795 </v>
   <v>       0.50353087       0.33333333       0.87166795 </v>
   <v>       0.50353087       0.66666667       0.37166795 </v>
   <v>       0.50353087       0.66666667       0.87166795 </v>
   <v>       0.67337106       0.16666667       0.28161508 </v>
   <v>       0.67337106       0.16666667       0.78161508 </v>
   <v>       0.67337106       0.50000000       0.28161508 </v>
   <v>       0.67337106       0.50000000       0.78161508 </v>
   <v>       0.67337106       0.83333333       0.28161508 </v>
   <v>       0.67337106       0.83333333       0.78161508 </v>
   <v>       0.82662894       0.00000000       0.21838492 </v>
   <v>       0.82662894       0.00000000       0.71838492 </v>
   <v>       0.82662894       0.33333333       0.21838492 </v>
   <v>       0.82662894       0.33333333       0.71838492 </v>
   <v>       0.82662894       0.66666667       0.21838492 </v>
   <v>       0.82662894       0.66666667       0.71838492 </v>
   <v>       0.83549502       0.00000000       0.44542296 </v>
   <v>       0.83549502       0.00000000       0.94542296 </v>
   <v>       0.83549502       0.33333333       0.44542296 </v>
   <v>       0.83549502       0.33333333       0.94542296 </v>
   <v>       0.83549502       0.66666667       0.44542296 </v>
   <v>       0.83549502       0.66666667       0.94542296 </v>
   <v>       0.66450498       0.16666667       0.05457704 </v>
   <v>       0.66450498       0.16666667       0.55457704 </v>
   <v>       0.66450498       0.50000000       0.05457704 </v>
   <v>       0.66450498       0.50000000       0.55457704 </v>
   <v>       0.66450498       0.83333333       0.05457704 </v>
   <v>       0.66450498       0.83333333       0.55457704 </v>
   <v>       0.49646913       0.00000000       0.12833205 </v>
   <v>       0.49646913       0.00000000       0.62833205 </v>
   <v>       0.49646913       0.33333333       0.12833205 </v>
   <v>       0.49646913       0.33333333       0.62833205 </v>
   <v>       0.49646913       0.66666667       0.12833205 </v>
   <v>       0.49646913       0.66666667       0.62833205 </v>
   <v>       0.00353087       0.16666667       0.87166795 </v>
   <v>       0.00353087       0.50000000       0.37166795 </v>
   <v>       0.00353087       0.50000000       0.87166795 </v>
   <v>       0.00353087       0.83333333       0.37166795 </v>
   <v>       0.00353087       0.83333333       0.87166795 </v>
   <v>       0.17337106       0.00000000       0.28161508 </v>
   <v>       0.17337106       0.00000000       0.78161508 </v>
   <v>       0.17337106       0.33333333       0.28161508 </v>
   <v>       0.17337106       0.33333333       0.78161508 </v>
   <v>       0.17337106       0.66666667       0.28161508 </v>
   <v>       0.17337106       0.66666667       0.78161508 </v>
   <v>       0.32662894       0.16666667       0.21838492 </v>
   <v>       0.32662894       0.16666667       0.71838492 </v>
   <v>       0.32662894       0.50000000       0.21838492 </v>
   <v>       0.32662894       0.50000000       0.71838492 </v>
   <v>       0.32662894       0.83333333       0.21838492 </v>
   <v>       0.32662894       0.83333333       0.71838492 </v>
   <v>       0.33549502       0.16666667       0.44542296 </v>
   <v>       0.33549502       0.16666667       0.94542296 </v>
   <v>       0.33549502       0.50000000       0.44542296 </v>
   <v>       0.33549502       0.50000000       0.94542296 </v>
   <v>       0.33549502       0.83333333       0.44542296 </v>
   <v>       0.33549502       0.83333333       0.94542296 </v>
   <v>       0.16450498       0.00000000       0.05457704 </v>
   <v>       0.16450498       0.00000000       0.55457704 </v>
   <v>       0.16450498       0.33333333       0.05457704 </v>
   <v>       0.16450498       0.33333333       0.55457704 </v>
   <v>       0.16450498       0.66666667       0.05457704 </v>
   <v>       0.16450498       0.66666667       0.55457704 </v>
   <v>       0.00353087       0.16666667       0.37166795 </v>
  </varray>
 </structure>
 <calculation>
  <scstep>
   <time name="dav">    1.75    1.75</time>
   <time name="total">    1.88    1.88</time>
   <energy>
    <i name="alphaZ">   5529.70323211 </i>
    <i name="ewald"> -88605.56783106 </i>
    <i name="hartreedc"> -33365.00139990 </i>
    <i name="XCdc">   4126.49585862 </i>
    <i name="pawpsdc"> 101696.24768859 </i>
    <i name="pawaedc">-117826.33756962 </i>
    <i name="eentropy">     -0.00589341 </i>
    <i name="bandstr">  16425.21479904 </i>
    <i name="atom"> 134015.81877255 </i>
    <i name="e_fr_energy">  21996.56765692 </i>
    <i name="e_wo_entrp">  21996.57355033 </i>
    <i name="e_0_energy">  21996.57060363 </i>
   </energy>
  </scstep>
  <scstep>
   <time name="dav">    1.92    1.92</time>
   <time name="total">    1.92    1.92</time>
   <energy>
    <i name="e_fr_energy">   4876.27899236 </i>
    <i name="e_wo_entrp">   4876.30482292 </i>
    <i name="e_0_energy">   4876.29190764 </i>
   </energy>
  </scstep>
  <scstep>
   <time name="dav">    2.09    2.09</time>
   <time name="total">    2.09    2.09</time>
   <energy>
    <i name="e_fr_energy">   -138.64491712 </i>
    <i name="e_wo_entrp">   -138.64491712 </i>
    <i name="e_0_energy">   -138.64491712 </i>
   </energy>
  </scstep>
  <scstep>
   <time name="dav">    2.04    2.04</time>
   <time name="total">    2.04    2.04</time>
   <energy>
    <i name="e_fr_energy">   -765.14338651 </i>
    <i name="e_wo_entrp">   -765.14338651 </i>
    <i name="e_0_energy">   -765.14338651 </i>
   </energy>
  </scstep>
  <scstep>
   <time name="dav">    2.32    2.32</time>
   <time name="total">    2.59    2.59</time>
   <energy>
    <i name="e_fr_energy">   -809.44906355 </i>
    <i name="e_wo_entrp">   -809.44906355 </i>
    <i name="e_0_energy">   -809.44906355 </i>
   </energy>
  </scstep>
  <scstep>
   <time name="diag">    0.24    0.24</time>
   <time name="diis">    2.89    2.89</time>
   <time name="orth">    0.03    0.03</time>
   <time name="total">    3.55    3.55</time>
   <energy>
    <i name="e_fr_energy">   -695.81819320 </i>
    <i name="e_wo_entrp">   -695.81819320 </i>
    <i name="e_0_energy">   -695.81819320 </i>
   </energy>
  </scstep>
  <scstep>
   <time name="diag">    0.24    0.24</time>
   <time name="diis">    2.66    2.66</time>
   <time name="orth">    0.03    0.03</time>
   <time name="total">    3.32    3.32</time>
   <energy>
    <i name="e_fr_energy">   -699.32422417 </i>
    <i name="e_wo_entrp">   -699.31286568 </i>
    <i name="e_0_energy">   -699.31854492 </i>
   </energy>
  </scstep>
  <scstep>
   <time name="diag">    0.24    0.24</time>
   <time name="diis">    2.36    2.36</time>
   <time name="orth">    0.03    0.03</time>
   <time name="total">    3.02    3.02</time>
   <energy>
    <i name="e_fr_energy">   -699.06198560 </i>
    <i name="e_wo_entrp">   -699.05065137 </i>
    <i name="e_0_energy">   -699.05631848 </i>
   </energy>
  </scstep>
  <scstep>
   <time name="diag">    0.24    0.24</time>
   <time name="diis">    2.88    2.88</time>
   <time name="orth">    0.03    0.03</time>
   <time name="total">    3.54    3.54</time>
   <energy>
    <i name="e_fr_energy">   -698.73133031 </i>
    <i name="e_wo_entrp">   -698.72015620 </i>
    <i name="e_0_energy">   -698.72574326 </i>
   </energy>
  </scstep>
  <scstep>
   <time name="diag">    0.24    0.24</time>
   <time name="diis">    2.52    2.52</time>
   <time name="orth">    0.03    0.03</time>
   <time name="total">    3.18    3.18</time>
   <energy>
    <i name="e_fr_energy">   -698.78631633 </i>
    <i name="e_wo_entrp">   -698.77513165 </i>
    <i name="e_0_energy">   -698.78072399 </i>
   </energy>
  </scstep>
  <scstep>
   <time name="diag">    0.24    0.24</time>
   <time name="diis">    2.54    2.54</time>
   <time name="orth">    0.03    0.03</time>
   <time name="total">    3.20    3.20</time>
   <energy>
    <i name="e_fr_energy">   -698.79698439 </i>
    <i name="e_wo_entrp">   -698.78554333 </i>
    <i name="e_0_energy">   -698.79126386 </i>
   </energy>
  </scstep>
  <scstep>
   <time name="diag">    0.24    0.24</time>
   <time name="diis">    2.71    2.71</time>
   <time name="orth">    0.03    0.03</time>
   <time name="total">    3.37    3.37</time>
   <energy>
    <i name="e_fr_energy">   -698.79061751 </i>
    <i name="e_wo_entrp">   -698.77930145 </i>
    <i name="e_0_energy">   -698.78495948 </i>
   </energy>
  </scstep>
  <scstep>
   <time name="diag">    0.24    0.24</time>
   <time name="diis">    2.74    2.74</time>
   <time name="orth">    0.03    0.03</time>
   <time name="total">    3.40    3.40</time>
   <energy>
    <i name="e_fr_energy">   -698.79177779 </i>
    <i name="e_wo_entrp">   -698.78050373 </i>
    <i name="e_0_energy">   -698.78614076 </i>
   </energy>
  </scstep>
  <scstep>
   <time name="diag">    0.24    0.24</time>
   <time name="diis">    2.84    2.84</time>
   <time name="orth">    0.03    0.03</time>
   <time name="total">    3.51    3.51</time>
   <energy>
    <i name="e_fr_energy">   -698.79213430 </i>
    <i name="e_wo_entrp">   -698.78085778 </i>
    <i name="e_0_energy">   -698.78649604 </i>
   </energy>
  </scstep>
  <scstep>
   <time name="diag">    0.24    0.24</time>
   <time name="diis">    2.48    2.48</time>
   <time name="orth">    0.03    0.03</time>
   <time name="total">    3.15    3.15</time>
   <energy>
    <i name="e_fr_energy">   -698.79228782 </i>
    <i name="e_wo_entrp">   -698.78100673 </i>
    <i name="e_0_energy">   -698.78664728 </i>
   </energy>
  </scstep>
  <scstep>
   <time name="diag">    0.24    0.24</time>
   <time name="diis">    2.01    2.01</time>
   <time name="orth">    0.03    0.03</time>
   <time name="total">    2.68    2.68</time>
   <energy>
    <i name="e_fr_energy">   -698.79232690 </i>
    <i name="e_wo_entrp">   -698.78104348 </i>
    <i name="e_0_energy">   -698.78668519 </i>
   </energy>
  </scstep>
  <scstep>
   <time name="diag">    0.24    0.24</time>
   <time name="diis">    1.88    1.88</time>
   <time name="orth">    0.03    0.03</time>
   <time name="total">    2.56    2.56</time>
   <energy>
    <i name="e_fr_energy">   -698.79234263 </i>
    <i name="e_wo_entrp">   -698.78105822 </i>
    <i name="e_0_energy">   -698.78670043 </i>
   </energy>
  </scstep>
  <scstep>
   <time name="diag">    0.24    0.24</time>
   <time name="diis">    1.69    1.69</time>
   <time name="orth">    0.03    0.03</time>
   <time name="total">    2.07    2.07</time>
   <energy>
    <i name="alphaZ">   5529.70323211 </i>
    <i name="ewald"> -88605.56783106 </i>
    <i name="hartreedc"> -33824.53751089 </i>
    <i name="XCdc">   4190.20896779 </i>
    <i name="pawpsdc"> 121313.46614602 </i>
    <i name="pawaedc">-137706.11349584 </i>
    <i name="eentropy">     -0.01128434 </i>
    <i name="bandstr">  -5611.75934614 </i>
    <i name="atom"> 134015.81877255 </i>
    <i name="e_fr_energy">   -698.79234979 </i>
    <i name="e_wo_entrp">   -698.78106545 </i>
    <i name="e_0_energy">   -698.78670762 </i>
   </energy>
  </scstep>
  <structure>
   <crystal>
    <varray name="basis" >
     <v>       0.00000000      12.28047342       0.00000000 </v>
     <v>       9.14270205       0.00000000       0.00000000 </v>
     <v>       0.00000000      -2.76826177     -11.30069772 </v>
    </varray>
    <i name="volume">   1268.80515525 </i>
    <varray name="rec_basis" >
     <v>       0.00000000       0.08143009      -0.01994742 </v>
     <v>       0.10937686      -0.00000000       0.00000000 </v>
     <v>       0.00000000       0.00000000      -0.08849011 </v>
    </varray>
   </crystal>
   <varray name="positions" >
    <v>       0.65883830       0.00000000       0.15736517 </v>
    <v>       0.65883830       0.00000000       0.65736517 </v>
    <v>       0.65883830       0.33333333       0.15736517 </v>
    <v>       0.65883830       0.33333333       0.65736517 </v>
    <v>       0.65883830       0.66666667       0.15736517 </v>
    <v>       0.65883830       0.66666667       0.65736517 </v>
    <v>       0.84116170       0.16666667       0.34263483 </v>
    <v>       0.84116170       0.16666667       0.84263483 </v>
    <v>       0.84116170       0.50000000       0.34263483 </v>
    <v>       0.84116170       0.50000000       0.84263483 </v>
    <v>       0.84116170       0.83333333       0.34263483 </v>
    <v>       0.84116170       0.83333333       0.84263483 </v>
    <v>       0.59047440       0.16666667       0.39739300 </v>
    <v>       0.59047440       0.16666667       0.89739300 </v>
    <v>       0.59047440       0.50000000       0.39739300 </v>
    <v>       0.59047440       0.50000000       0.89739300 </v>
    <v>       0.59047440       0.83333333       0.39739300 </v>
    <v>       0.59047440       0.83333333       0.89739300 </v>
    <v>       0.90952560       0.00000000       0.10260700 </v>
    <v>       0.90952560       0.00000000       0.60260700 </v>
    <v>       0.90952560       0.33333333       0.10260700 </v>
    <v>       0.90952560       0.33333333       0.60260700 </v>
    <v>       0.90952560       0.66666667       0.10260700 </v>
    <v>       0.90952560       0.66666667       0.60260700 </v>
    <v>       0.15883830       0.16666667       0.15736517 </v>
    <v>       0.15883830       0.16666667       0.65736517 </v>
    <v>       0.15883830       0.50000000       0.15736517 </v>
    <v>       0.15883830       0.50000000       0.65736517 </v>
    <v>       0.15883830       0.83333333       0.15736517 </v>
    <v>       0.15883830       0.83333333       0.65736517 </v>
    <v>       0.34116170       0.00000000       0.34263483 </v>
    <v>       0.34116170       0.00000000       0.84263483 </v>
    <v>       0.34116170       0.33333333       0.34263483 </v>
    <v>       0.34116170       0.33333333       0.84263483 </v>
    <v>       0.34116170       0.66666667       0.34263483 </v>
    <v>       0.34116170       0.66666667       0.84263483 </v>
    <v>       0.09047440       0.00000000       0.39739300 </v>
    <v>       0.09047440       0.00000000       0.89739300 </v>
    <v>       0.09047440       0.33333333       0.39739300 </v>
    <v>       0.09047440       0.33333333       0.89739300 </v>
    <v>       0.09047440       0.66666667       0.39739300 </v>
    <v>       0.09047440       0.66666667       0.89739300 </v>
    <v>       0.40952560       0.16666667       0.10260700 </v>
    <v>       0.40952560       0.16666667       0.60260700 </v>
    <v>       0.40952560       0.50000000       0.10260700 </v>
    <v>       0.40952560       0.50000000       0.60260700 </v>
    <v>       0.40952560       0.83333333       0.10260700 </v>
    <v>       0.40952560       0.83333333       0.60260700 </v>
    <v>       0.99646913       0.16666667       0.12833205 </v>
    <v>       0.99646913       0.16666667       0.62833205 </v>
    <v>       0.99646913       0.50000000       0.12833205 </v>
    <v>       0.99646913       0.50000000       0.62833205 </v>
    <v>       0.99646913       0.83333333       0.12833205 </v>
    <v>       0.99646913       0.83333333       0.62833205 </v>
    <v>       0.50353087       0.00000000       0.37166795 </v>
    <v>       0.50353087       0.00000000       0.87166795 </v>
    <v>       0.50353087       0.33333333       0.37166795 </v>
    <v>       0.50353087       0.33333333       0.87166795 </v>
    <v>       0.50353087       0.66666667       0.37166795 </v>
    <v>       0.50353087       0.66666667       0.87166795 </v>
    <v>       0.67337106       0.16666667       0.28161508 </v>
    <v>       0.67337106       0.16666667       0.78161508 </v>
    <v>       0.67337106       0.50000000       0.28161508 </v>
    <v>       0.67337106       0.50000000       0.78161508 </v>
    <v>       0.67337106       0.83333333       0.28161508 </v>
    <v>       0.67337106       0.83333333       0.78161508 </v>
    <v>       0.82662894       0.00000000       0.21838492 </v>
    <v>       0.82662894       0.00000000       0.71838492 </v>
    <v>       0.82662894       0.33333333       0.21838492 </v>
    <v>       0.82662894       0.33333333       0.71838492 </v>
    <v>       0.82662894       0.66666667       0.21838492 </v>
    <v>       0.82662894       0.66666667       0.71838492 </v>
    <v>       0.83549502       0.00000000       0.44542296 </v>
    <v>       0.83549502       0.00000000       0.94542296 </v>
    <v>       0.83549502       0.33333333       0.44542296 </v>
    <v>       0.83549502       0.33333333       0.94542296 </v>
    <v>       0.83549502       0.66666667       0.44542296 </v>
    <v>       0.83549502       0.66666667       0.94542296 </v>
    <v>       0.66450498       0.16666667       0.05457704 </v>
    <v>       0.66450498       0.16666667       0.55457704 </v>
    <v>       0.66450498       0.50000000       0.05457704 </v>
    <v>       0.66450498       0.50000000       0.55457704 </v>
    <v>       0.66450498       0.83333333       0.05457704 </v>
    <v>       0.66450498       0.83333333       0.55457704 </v>
    <v>       0.49646913       0.00000000       0.12833205 </v>
    <v>       0.49646913       0.00000000       0.62833205 </v>
    <v>       0.49646913       0.33333333       0.12833205 </v>
    <v>       0.49646913       0.33333333       0.62833205 </v>
    <v>       0.49646913       0.66666667       0.12833205 </v>
    <v>       0.49646913       0.66666667       0.62833205 </v>
    <v>       0.00353087       0.16666667       0.87166795 </v>
    <v>       0.00353087       0.50000000       0.37166795 </v>
    <v>       0.00353087       0.50000000       0.87166795 </v>
    <v>       0.00353087       0.83333333       0.37166795 </v>
    <v>       0.00353087       0.83333333       0.87166795 </v>
    <v>       0.17337106       0.00000000       0.28161508 </v>
    <v>       0.17337106       0.00000000       0.78161508 </v>
    <v>       0.17337106       0.33333333       0.28161508 </v>
    <v>       0.17337106       0.33333333       0.78161508 </v>
    <v>       0.17337106       0.66666667       0.28161508 </v>
    <v>       0.17337106       0.66666667       0.78161508 </v>
    <v>       0.32662894       0.16666667       0.21838492 </v>
    <v>       0.32662894       0.16666667       0.71838492 </v>
    <v>       0.32662894       0.50000000       0.21838492 </v>
    <v>       0.32662894       0.50000000       0.71838492 </v>
    <v>       0.32662894       0.83333333       0.21838492 </v>
    <v>       0.32662894       0.83333333       0.71838492 </v>
    <v>       0.33549502       0.16666667       0.44542296 </v>
    <v>       0.33549502       0.16666667       0.94542296 </v>
    <v>       0.33549502       0.50000000       0.44542296 </v>
    <v>       0.33549502       0.50000000       0.94542296 </v>
    <v>       0.33549502       0.83333333       0.44542296 </v>
    <v>       0.33549502       0.83333333       0.94542296 </v>
    <v>       0.16450498       0.00000000       0.05457704 </v>
    <v>       0.16450498       0.00000000       0.55457704 </v>
    <v>       0.16450498       0.33333333       0.05457704 </v>
    <v>       0.16450498       0.33333333       0.55457704 </v>
    <v>       0.16450498       0.66666667       0.05457704 </v>
    <v>       0.16450498       0.66666667       0.55457704 </v>
    <v>       0.00353087       0.16666667       0.37166795 </v>
   </varray>
  </structure>
  <varray name="forces" >
   <v>      -0.01362713       0.21277199      -0.07927035 </v>
   <v>       0.00521927       0.00783393       0.09129129 </v>
   <v>       0.01362713       0.21277199      -0.07927035 </v>
   <v>      -0.00521927       0.00783393       0.09129129 </v>
   <v>       0.00000000       0.05401090      -0.04069098 </v>
   <v>       0.00000000      -0.01625366       0.08713311 </v>
   <v>       0.00000000      -5.99877899       0.94098186 </v>
   <v>       0.00000000       0.09445633      -0.05779335 </v>
   <v>      -0.22115353       0.32607245      -0.15903015 </v>
   <v>      -0.02926299       0.07451675      -0.05470312 </v>
   <v>       0.22115353       0.32607245      -0.15903015 </v>
   <v>       0.02926299       0.07451675      -0.05470312 </v>
   <v>       0.00000000       0.08151768      -0.00244245 </v>
   <v>       0.00000000       0.01390312      -0.07825438 </v>
   <v>      -0.02114682       0.08224882       0.00416822 </v>
   <v>       0.00428331       0.00793009      -0.07736597 </v>
   <v>       0.02114682       0.08224882       0.00416822 </v>
   <v>      -0.00428331       0.00793009      -0.07736597 </v>
   <v>       0.01384273      -0.06319444      -0.31999392 </v>
   <v>       0.04927254       0.12112291       0.39762161 </v>
   <v>      -0.01384273      -0.06319444      -0.31999392 </v>
   <v>      -0.04927254       0.12112291       0.39762161 </v>
   <v>       0.00000000       0.04893581      -0.14312647 </v>
   <v>       0.00000000       0.12221020       0.17824290 </v>
   <v>       0.00000000      -0.16820472      -0.33265901 </v>
   <v>       0.00000000      -0.05899840       0.55356057 </v>
   <v>      -0.17378435      -0.12192052      -0.21789787 </v>
   <v>      -0.20886027      -0.00681642       0.36164239 </v>
   <v>       0.17378435      -0.12192052      -0.21789787 </v>
   <v>       0.20886027      -0.00681642       0.36164239 </v>
   <v>       0.03995138      -0.27876314       0.04195425 </v>
   <v>       0.01147923      -0.02789795       0.05545163 </v>
   <v>      -0.03995138      -0.27876314       0.04195425 </v>
   <v>      -0.01147923      -0.02789795       0.05545163 </v>
   <v>       0.00000000      -0.07753369      -0.00876803 </v>
   <v>       0.00000000       0.01558317       0.03920805 </v>
   <v>      -7.46778038       4.71626992      -1.42529453 </v>
   <v>       0.02942637       0.03022007      -0.03692787 </v>
   <v>       7.46778038       4.71626992      -1.42529453 </v>
   <v>      -0.02942637       0.03022007      -0.03692787 </v>
   <v>       0.00000000      -0.39389989       0.05760607 </v>
   <v>       0.00000000      -0.00144681      -0.02997360 </v>
   <v>       0.00000000      -0.06809714      -0.04216190 </v>
   <v>       0.00000000      -0.14410496       0.13569256 </v>
   <v>       0.00385844      -0.04833133      -0.04133702 </v>
   <v>      -0.02415237      -0.10987029       0.08096896 </v>
   <v>      -0.00385844      -0.04833133      -0.04133702 </v>
   <v>       0.02415237      -0.10987029       0.08096896 </v>
   <v>       0.00000000       0.10892668       0.55125484 </v>
   <v>       0.00000000      -0.15616948      -0.46941284 </v>
   <v>       0.07124113       0.00129408       0.07750769 </v>
   <v>       0.07206157      -0.05306675      -0.13070274 </v>
   <v>      -0.07124113       0.00129408       0.07750769 </v>
   <v>      -0.07206157      -0.05306675      -0.13070274 </v>
   <v>      -0.01040578       0.01820659       0.02284331 </v>
   <v>      -0.00375711       0.00840110       0.03385666 </v>
   <v>       0.01040578       0.01820659       0.02284331 </v>
   <v>       0.00375711       0.00840110       0.03385666 </v>
   <v>       0.00000000       0.01083174       0.01726313 </v>
   <v>       0.00000000       0.00842595       0.03603697 </v>
   <v>       0.00000000      -0.05377669       0.00113449 </v>
   <v>       0.00000000      -0.05473870       0.01696774 </v>
   <v>       0.05515538      -0.15555915       0.04474120 </v>
   <v>       0.00750611      -0.04842310       0.01821374 </v>
   <v>      -0.05515538      -0.15555915       0.04474120 </v>
   <v>      -0.00750611      -0.04842310       0.01821374 </v>
   <v>      -0.69053959      -0.59073490       0.75066214 </v>
   <v>      -0.01113723      -0.07127896      -0.10294018 </v>
   <v>       0.69053959      -0.59073490       0.75066214 </v>
   <v>       0.01113723      -0.07127896      -0.10294018 </v>
   <v>       0.00000000      -0.07347321       0.07602283 </v>
   <v>       0.00000000      -0.04520593      -0.06756347 </v>
   <v>      -0.82754648      -1.03151112      -0.51547442 </v>
   <v>      -0.01542051      -0.19804180       0.07341034 </v>
   <v>       0.82754648      -1.03151112      -0.51547442 </v>
   <v>       0.01542051      -0.19804180       0.07341034 </v>
   <v>       0.00000000      -0.27866530      -0.06953832 </v>
   <v>       0.00000000      -0.19720548       0.04290447 </v>
   <v>       0.00000000       0.11882068       0.12741924 </v>
   <v>       0.00000000       0.11934179      -0.02312586 </v>
   <v>       0.04846720       0.11573594       0.13942720 </v>
   <v>       0.02664529       0.11470101      -0.02794431 </v>
   <v>      -0.04846720       0.11573594       0.13942720 </v>
   <v>      -0.02664529       0.11470101      -0.02794431 </v>
   <v>      -0.00367785       0.01020231      -0.01056432 </v>
   <v>      -0.01323815       0.04627889      -0.06489633 </v>
   <v>       0.00367785       0.01020231      -0.01056432 </v>
   <v>       0.01323815       0.04627889      -0.06489633 </v>
   <v>       0.00000000       0.01123588      -0.00731462 </v>
   <v>       0.00000000       0.03374598      -0.05740949 </v>
   <v>       0.00000000      -0.03896020       0.03595439 </v>
   <v>       0.95366288       0.06946875      -0.01336102 </v>
   <v>       0.02084258      -0.02338881       0.03560174 </v>
   <v>      -0.95366288       0.06946875      -0.01336102 </v>
   <v>      -0.02084258      -0.02338881       0.03560174 </v>
   <v>      -0.60936525       1.13070053       0.56297261 </v>
   <v>      -0.00344305      -0.02095157      -0.13481041 </v>
   <v>       0.60936525       1.13070053       0.56297261 </v>
   <v>       0.00344305      -0.02095157      -0.13481041 </v>
   <v>       0.00000000       0.13065829       0.08414597 </v>
   <v>       0.00000000      -0.01235546      -0.05386024 </v>
   <v>       0.00000000       0.18836611       0.07081781 </v>
   <v>       0.00000000       0.12432743      -0.14470440 </v>
   <v>       0.08919366       0.19756784       0.05525497 </v>
   <v>       0.05803679       0.14045769      -0.14815300 </v>
   <v>      -0.08919366       0.19756784       0.05525497 </v>
   <v>      -0.05803679       0.14045769      -0.14815300 </v>
   <v>       0.00000000      -0.00053497      -0.10414230 </v>
   <v>       0.00000000      -0.14277745      -0.03753425 </v>
   <v>       0.05355038      -0.08744783      -0.08357856 </v>
   <v>       0.00625914      -0.15316712      -0.03389554 </v>
   <v>      -0.05355038      -0.08744783      -0.08357856 </v>
   <v>      -0.00625914      -0.15316712      -0.03389554 </v>
   <v>      -0.01153319       0.20949235       0.15136858 </v>
   <v>      -0.72797819       0.74352452      -1.05868138 </v>
   <v>       0.01153319       0.20949235       0.15136858 </v>
   <v>       0.72797819       0.74352452      -1.05868138 </v>
   <v>       0.00000000       0.19983882       0.08702812 </v>
   <v>       0.00000000       0.24074356      -0.12158400 </v>
   <v>       0.00000000      -4.33400564       2.22841380 </v>
  </varray>
  <varray name="stress" >
   <v>     127.14120737       0.00000000       0.00000000 </v>
   <v>       0.00000000     116.94156435      -7.83503955 </v>
   <v>       0.00000000      -7.83504041      86.68766104 </v>
  </varray>
  <energy>
   <i name="e_fr_energy">   -698.79234979 </i>
   <i name="e_wo_entrp">   -698.78106545 </i>
   <i name="e_0_energy">   -698.78670762 </i>
  </energy>
  <time name="totalsc">   60.74   60.74</time>
 </calculation>
 <calculation>
  <scstep>
   <time name="dav">    2.07    2.07</time>
   <time name="total">    2.45    2.45</time>
   <energy>
    <i name="alphaZ">   5529.70323211 </i>
    <i name="ewald"> -88398.90612454 </i>
    <i name="hartreedc"> -34020.53154664 </i>
    <i name="XCdc">   4189.54077107 </i>
    <i name="pawpsdc"> 121313.61447586 </i>
    <i name="pawaedc">-137706.27191390 </i>
    <i name="eentropy">     -0.00721439 </i>
    <i name="bandstr">  -5568.25921403 </i>
    <i name="atom"> 134015.81877255 </i>
    <i name="e_fr_energy">   -645.29876190 </i>
    <i name="e_wo_entrp">   -645.29154751 </i>
    <i name="e_0_energy">   -645.29515471 </i>
   </energy>
  </scstep>
  <scstep>
   <time name="diag">    0.24    0.24</time>
   <time name="diis">    2.58    2.57</time>
   <time name="orth">    0.03    0.03</time>
   <time name="total">    3.24    3.24</time>
   <energy>
    <i name="e_fr_energy">   -689.44578711 </i>
    <i name="e_wo_entrp">   -689.43938325 </i>
    <i name="e_0_energy">   -689.44258518 </i>
   </energy>
  </scstep>
  <scstep>
   <time name="diag">    0.24    0.24</time>
   <time name="diis">    2.77    2.77</time>
   <time name="orth">    0.03    0.03</time>
   <time name="total">    3.43    3.43</time>
   <energy>
    <i name="e_fr_energy">   -698.36321405 </i>
    <i name="e_wo_entrp">   -698.35240332 </i>
    <i name="e_0_energy">   -698.35780869 </i>
   </energy>
  </scstep>
  <scstep>
   <time name="diag">    0.24    0.24</time>
   <time name="diis">    3.00    3.00</time>
   <time name="orth">    0.03    0.03</time>
   <time name="total">    3.66    3.66</time>
   <energy>
    <i name="e_fr_energy">   -699.86159448 </i>
    <i name="e_wo_entrp">   -699.85032971 </i>
    <i name="e_0_energy">   -699.85596210 </i>
   </energy>
  </scstep>
  <scstep>
   <time name="diag">    0.24    0.24</time>
   <time name="diis">    3.01    3.01</time>
   <time name="orth">    0.03    0.03</time>
   <time name="total">    3.67    3.67</time>
   <energy>
    <i name="e_fr_energy">   -699.96805151 </i>
    <i name="e_wo_entrp">   -699.95694018 </i>
    <i name="e_0_energy">   -699.96249584 </i>
   </energy>
  </scstep>
  <scstep>
   <time name="diag">    0.24    0.24</time>
   <time name="diis">    2.67    2.67</time>
   <time name="orth">    0.03    0.03</time>
   <time name="total">    3.33    3.33</time>
   <energy>
    <i name="e_fr_energy">   -699.75550332 </i>
    <i name="e_wo_entrp">   -699.74133265 </i>
    <i name="e_0_energy">   -699.74841799 </i>
   </energy>
  </scstep>
  <scstep>
   <time name="diag">    0.24    0.24</time>
   <time name="diis">    2.56    2.56</time>
   <time name="orth">    0.03    0.03</time>
   <time name="total">    3.23    3.23</time>
   <energy>
    <i name="e_fr_energy">   -699.93103737 </i>
    <i name="e_wo_entrp">   -699.91523725 </i>
    <i name="e_0_energy">   -699.92313731 </i>
   </energy>
  </scstep>
  <scstep>
   <time name="diag">    0.24    0.24</time>
   <time name="diis">    2.91    2.91</time>
   <time name="orth">    0.03    0.03</time>
   <time name="total">    3.58    3.58</time>
   <energy>
    <i name="e_fr_energy">   -699.96707842 </i>
    <i name="e_wo_entrp">   -699.95198566 </i>
    <i name="e_0_energy">   -699.95953204 </i>
   </energy>
  </scstep>
  <scstep>
   <time name="diag">    0.24    0.24</time>
   <time name="diis">    2.57    2.57</time>
   <time name="orth">    0.03    0.03</time>
   <time name="total">    3.24    3.24</time>
   <energy>
    <i name="e_fr_energy">   -700.14347738 </i>
    <i name="e_wo_entrp">   -700.13140241 </i>
    <i name="e_0_energy">   -700.13743990 </i>
   </energy>
  </scstep>
  <scstep>
   <time name="diag">    0.24    0.24</time>
   <time name="diis">    2.49    2.49</time>
   <time name="orth">    0.03    0.03</time>
   <time name="total">    3.16    3.16</time>
   <energy>
    <i name="e_fr_energy">   -700.02212564 </i>
    <i name="e_wo_entrp">   -700.00866175 </i>
    <i name="e_0_energy">   -700.01539369 </i>
   </energy>
  </scstep>
  <scstep>
   <time name="diag">    0.24    0.24</time>
   <time name="diis">    2.89    2.89</time>
   <time name="orth">    0.03    0.03</time>
   <time name="total">    3.56    3.56</time>
   <energy>
    <i name="e_fr_energy">   -699.66449675 </i>
    <i name="e_wo_entrp">   -699.64464539 </i>
    <i name="e_0_energy">   -699.65457107 </i>
   </energy>
  </scstep>
  <scstep>
   <time name="diag">    0.24    0.24</time>
   <time name="diis">    2.68    2.68</time>
   <time name="orth">    0.03    0.03</time>
   <time name="total">    3.35    3.35</time>
   <energy>
    <i name="e_fr_energy">   -699.65791358 </i>
    <i name="e_wo_entrp">   -699.63958589 </i>
    <i name="e_0_energy">   -699.64874974 </i>
   </energy>
  </scstep>
  <scstep>
   <time name="diag">    0.24    0.24</time>
   <time name="diis">    2.91    2.91</time>
   <time name="orth">    0.03    0.03</time>
   <time name="total">    3.59    3.59</time>
   <energy>
    <i name="e_fr_energy">   -699.76278143 </i>
    <i name="e_wo_entrp">   -699.75156346 </i>
    <i name="e_0_energy">   -699.75717245 </i>
   </energy>
  </scstep>
  <scstep>
   <time name="diag">    0.24    0.24</time>
   <time name="diis">    2.67    2.67</time>
   <time name="orth">    0.03    0.03</time>
   <time name="total">    3.35    3.35</time>
   <energy>
    <i name="e_fr_energy">   -699.80356929 </i>
    <i name="e_wo_entrp">   -699.79163874 </i>
    <i name="e_0_energy">   -699.79760401 </i>
   </energy>
  </scstep>
  <scstep>
   <time name="diag">    0.24    0.24</time>
   <time name="diis">    2.74    2.74</time>
   <time name="orth">    0.03    0.03</time>
   <time name="total">    3.43    3.43</time>
   <energy>
    <i name="e_fr_energy">   -699.65383454 </i>
    <i name="e_wo_entrp">   -699.63595674 </i>
    <i name="e_0_energy">   -699.64489564 </i>
   </energy>
  </scstep>
  <scstep>
   <time name="diag">    0.24    0.24</time>
   <time name="diis">    2.83    2.83</time>
   <time name="orth">    0.03    0.03</time>
   <time name="total">    3.51    3.51</time>
   <energy>
    <i name="e_fr_energy">   -699.62997766 </i>
    <i name="e_wo_entrp">   -699.61744621 </i>
    <i name="e_0_energy">   -699.62371194 </i>
   </energy>
  </scstep>
  <scstep>
   <time name="diag">    0.24    0.25</time>
   <time name="diis">    2.58    2.58</time>
   <time name="orth">    0.03    0.03</time>
   <time name="total">    3.26    3.27</time>
   <energy>
    <i name="e_fr_energy">   -699.62328169 </i>
    <i name="e_wo_entrp">   -699.60891742 </i>
    <i name="e_0_energy">   -699.61609956 </i>
   </energy>
  </scstep>
  <scstep>
   <time name="diag">    0.24    0.24</time>
   <time name="diis">    2.55    2.55</time>
   <time name="orth">    0.03    0.03</time>
   <time name="total">    3.24    3.24</time>
   <energy>
    <i name="e_fr_energy">   -699.63182276 </i>
    <i name="e_wo_entrp">   -699.61631690 </i>
    <i name="e_0_energy">   -699.62406983 </i>
   </energy>
  </scstep>
  <scstep>
   <time name="diag">    0.24    0.24</time>
   <time name="diis">    2.58    2.57</time>
   <time name="orth">    0.03    0.03</time>
   <time name="total">    3.27    3.27</time>
   <energy>
    <i name="e_fr_energy">   -699.62846836 </i>
    <i name="e_wo_entrp">   -699.61159300 </i>
    <i name="e_0_energy">   -699.62003068 </i>
   </energy>
  </scstep>
  <scstep>
   <time name="diag">    0.24    0.24</time>
   <time name="diis">    2.69    2.69</time>
   <time name="orth">    0.03    0.03</time>
   <time name="total">    3.38    3.38</time>
   <energy>
    <i name="e_fr_energy">   -699.61437385 </i>
    <i name="e_wo_entrp">   -699.59652165 </i>
    <i name="e_0_energy">   -699.60544775 </i>
   </energy>
  </scstep>
  <scstep>
   <time name="diag">    0.24    0.24</time>
   <time name="diis">    2.63    2.63</time>
   <time name="orth">    0.03    0.03</time>
   <time name="total">    3.33    3.33</time>
   <energy>
    <i name="e_fr_energy">   -699.61359770 </i>
    <i name="e_wo_entrp">   -699.59552077 </i>
    <i name="e_0_energy">   -699.60455923 </i>
   </energy>
  </scstep>
  <scstep>
   <time name="diag">    0.24    0.24</time>
   <time name="diis">    2.86    2.86</time>
   <time name="orth">    0.03    0.03</time>
   <time name="total">    3.57    3.57</time>
   <energy>
    <i name="e_fr_energy">   -699.61362936 </i>
    <i name="e_wo_entrp">   -699.59545708 </i>
    <i name="e_0_energy">   -699.60454322 </i>
   </energy>
  </scstep>
  <scstep>
   <time name="diag">    0.24    0.24</time>
   <time name="diis">    2.06    2.06</time>
   <time name="orth">    0.03    0.03</time>
   <time name="total">    2.77    2.77</time>
   <energy>
    <i name="e_fr_energy">   -699.61362727 </i>
    <i name="e_wo_entrp">   -699.59539174 </i>
    <i name="e_0_energy">   -699.60450951 </i>
   </energy>
  </scstep>
  <scstep>
   <time name="diag">    0.24    0.24</time>
   <time name="diis">    2.19    2.19</time>
   <time name="orth">    0.03    0.03</time>
   <time name="total">    2.90    2.90</time>
   <energy>
    <i name="e_fr_energy">   -699.61357059 </i>
    <i name="e_wo_entrp">   -699.59534026 </i>
    <i name="e_0_energy">   -699.60445542 </i>
   </energy>
  </scstep>
  <scstep>
   <time name="diag">    0.24    0.24</time>
   <time name="diis">    1.85    1.85</time>
   <time name="orth">    0.03    0.03</time>
   <time name="total">    2.24    2.24</time>
   <energy>
    <i name="alphaZ">   5529.70323211 </i>
    <i name="ewald"> -88398.90612454 </i>
    <i name="hartreedc"> -34033.39968694 </i>
    <i name="XCdc">   4189.93860716 </i>
    <i name="pawpsdc"> 120445.61752507 </i>
    <i name="pawaedc">-136838.13033181 </i>
    <i name="eentropy">     -0.01823438 </i>
    <i name="bandstr">  -5610.23733419 </i>
    <i name="atom"> 134015.81877255 </i>
    <i name="e_fr_energy">   -699.61357497 </i>
    <i name="e_wo_entrp">   -699.59534059 </i>
    <i name="e_0_energy">   -699.60445778 </i>
   </energy>
  </scstep>
  <structure>
   <crystal>
    <varray name="basis" >
     <v>       0.00000000      12.28047342       0.00000000 </v>
     <v>       9.14270205       0.00000000       0.00000000 </v>
     <v>       0.00000000      -2.76826177     -11.30069772 </v>
    </varray>
    <i name="volume">   1268.80515525 </i>
    <varray name="rec_basis" >
     <v>       0.00000000       0.08143009      -0.01994742 </v>
     <v>       0.10937686      -0.00000000       0.00000000 </v>
     <v>       0.00000000       0.00000000      -0.08849011 </v>
    </varray>
   </crystal>
   <varray name="positions" >
    <v>       0.65975044      -0.00007191       0.15770357 </v>
    <v>       0.65878122       0.00002754       0.65697545 </v>
    <v>       0.65975044       0.33340524       0.15770357 </v>
    <v>       0.65878122       0.33330579       0.65697545 </v>
    <v>       0.65908963       0.66666667       0.15753888 </v>
    <v>       0.65869060       0.66666667       0.65699320 </v>
    <v>       0.81669055       0.16666667       0.33861778 </v>
    <v>       0.84158838       0.16666667       0.84288155 </v>
    <v>       0.84259568       0.49883305       0.34331373 </v>
    <v>       0.84150707       0.49984559       0.84286836 </v>
    <v>       0.84259568       0.83450028       0.34331373 </v>
    <v>       0.84150707       0.83348774       0.84286836 </v>
    <v>       0.59079698       0.16666667       0.39740343 </v>
    <v>       0.59060432       0.16666667       0.89772707 </v>
    <v>       0.59079350       0.49988842       0.39737521 </v>
    <v>       0.59058000       0.50002260       0.89772328 </v>
    <v>       0.59079350       0.83344492       0.39737521 </v>
    <v>       0.59058000       0.83331073       0.89772328 </v>
    <v>       0.90958528       0.00007304       0.10397305 </v>
    <v>       0.90961878       0.00025999       0.60090955 </v>
    <v>       0.90958528       0.33326029       0.10397305 </v>
    <v>       0.90961878       0.33307334       0.60090955 </v>
    <v>       0.90985557       0.66666667       0.10321801 </v>
    <v>       0.90983416       0.66666667       0.60184608 </v>
    <v>       0.15849765       0.16666667       0.15878529 </v>
    <v>       0.15807383       0.16666667       0.65500202 </v>
    <v>       0.15856903       0.49908300       0.15829538 </v>
    <v>       0.15846351       0.49889792       0.65582132 </v>
    <v>       0.15856903       0.83425033       0.15829538 </v>
    <v>       0.15846351       0.83443541       0.65582132 </v>
    <v>       0.34002623       0.00021081       0.34245573 </v>
    <v>       0.34099874       0.00006057       0.84239811 </v>
    <v>       0.34002623       0.33312252       0.34245573 </v>
    <v>       0.34099874       0.33327276       0.84239811 </v>
    <v>       0.34086555       0.66666667       0.34267226 </v>
    <v>       0.34118519       0.66666667       0.84246745 </v>
    <v>       0.11037340      -0.03940471       0.40347758 </v>
    <v>       0.09062865       0.00015527       0.89755065 </v>
    <v>       0.11037340       0.37273805       0.40347758 </v>
[...]
       <r>    -9.7114     0.0000   142.0000 </r>
       <r>    -9.6019     0.0000   142.0000 </r>
       <r>    -9.4925     0.0000   142.0000 </r>
       <r>    -9.3830     0.0000   142.0000 </r>
       <r>    -9.2735     0.0000   142.0000 </r>
       <r>    -9.1641     0.1417   142.0155 </r>
       <r>    -9.0546    47.3726   147.2008 </r>
       <r>    -8.9452   278.6795   177.7042 </r>
       <r>    -8.8357   587.8961   242.0535 </r>
       <r>    -8.7263   742.1163   323.2833 </r>
       <r>    -8.6168   661.4942   395.6884 </r>
       <r>    -8.5073   670.2073   469.0472 </r>
       <r>    -8.3979   501.5473   523.9451 </r>
       <r>    -8.2884   249.8921   551.2975 </r>
       <r>    -8.1790   139.4518   566.5615 </r>
       <r>    -8.0695   110.1491   578.6181 </r>
       <r>    -7.9601    98.1346   589.3596 </r>
       <r>    -7.8506   119.7602   602.4682 </r>
       <r>    -7.7412   113.0261   614.8397 </r>
       <r>    -7.6317    56.5456   621.0290 </r>
       <r>    -7.5222     8.7906   621.9911 </r>
       <r>    -7.4128     0.0809   622.0000 </r>
       <r>    -7.3033     0.0000   622.0000 </r>
       <r>    -7.1939     0.0000   622.0000 </r>
       <r>    -7.0844     0.0000   622.0000 </r>
       <r>    -6.9750     0.0000   622.0000 </r>
       <r>    -6.8655     0.0000   622.0000 </r>
       <r>    -6.7560     0.0000   622.0000 </r>
       <r>    -6.6466     0.0000   622.0000 </r>
       <r>    -6.5371     0.0000   622.0000 </r>
       <r>    -6.4277     0.0000   622.0000 </r>
       <r>    -6.3182     0.0000   622.0000 </r>
       <r>    -6.2088     0.0000   622.0000 </r>
       <r>    -6.0993     0.0000   622.0000 </r>
       <r>    -5.9898     0.0000   622.0000 </r>
       <r>    -5.8804     0.0000   622.0000 </r>
       <r>    -5.7709     0.0000   622.0000 </r>
       <r>    -5.6615     0.0000   622.0000 </r>
       <r>    -5.5520     0.0000   622.0000 </r>
       <r>    -5.4426     0.0000   622.0000 </r>
       <r>    -5.3331     0.0000   622.0000 </r>
       <r>    -5.2236     0.0000   622.0000 </r>
       <r>    -5.1142     0.0000   622.0000 </r>
       <r>    -5.0047     0.0000   622.0000 </r>
       <r>    -4.8953     0.0000   622.0000 </r>
       <r>    -4.7858     0.2552   622.0279 </r>
       <r>    -4.6764    13.3631   623.4906 </r>
       <r>    -4.5669     4.6505   623.9996 </r>
       <r>    -4.4574     0.0032   624.0000 </r>
       <r>    -4.3480     0.0000   624.0000 </r>
       <r>    -4.2385     0.0000   624.0000 </r>
       <r>    -4.1291     0.0000   624.0000 </r>
       <r>    -4.0196     0.0000   624.0000 </r>
       <r>    -3.9102     0.0000   624.0000 </r>
       <r>    -3.8007     0.0000   624.0000 </r>
       <r>    -3.6912     0.0000   624.0000 </r>
       <r>    -3.5818     0.0000   624.0000 </r>
       <r>    -3.4723     0.0000   624.0000 </r>
       <r>    -3.3629     0.0000   624.0000 </r>
       <r>    -3.2534     0.0050   624.0006 </r>
       <r>    -3.1440     2.3366   624.2563 </r>
       <r>    -3.0345     6.1021   624.9242 </r>
       <r>    -2.9250    17.7701   626.8693 </r>
       <r>    -2.8156    18.6307   628.9085 </r>
       <r>    -2.7061    36.6908   632.9246 </r>
       <r>    -2.5967    29.9077   636.1982 </r>
       <r>    -2.4872    37.1774   640.2675 </r>
       <r>    -2.3778    46.2278   645.3275 </r>
       <r>    -2.2683    42.5715   649.9872 </r>
       <r>    -2.1588    66.5342   657.2699 </r>
       <r>    -2.0494    53.0474   663.0763 </r>
       <r>    -1.9399    48.6244   668.3985 </r>
       <r>    -1.8305    43.0396   673.1095 </r>
       <r>    -1.7210    59.1705   679.5861 </r>
       <r>    -1.6116    40.5182   684.0212 </r>
       <r>    -1.5021    33.0059   687.6339 </r>
       <r>    -1.3926    32.8096   691.2251 </r>
       <r>    -1.2832    27.5825   694.2442 </r>
       <r>    -1.1737    35.6342   698.1446 </r>
       <r>    -1.0643    28.4811   701.2621 </r>
       <r>    -0.9548    39.6138   705.5981 </r>
       <r>    -0.8454    40.4877   710.0297 </r>
       <r>    -0.7359    38.0398   714.1934 </r>
       <r>    -0.6264    38.9634   718.4583 </r>
       <r>    -0.5170    30.5014   721.7969 </r>
       <r>    -0.4075    39.9696   726.1718 </r>
       <r>    -0.2981    43.6217   730.9465 </r>
       <r>    -0.1886    49.2372   736.3358 </r>
       <r>    -0.0792    37.5382   740.4447 </r>
       <r>     0.0303    43.4649   745.2022 </r>
       <r>     0.1397    63.5608   752.1594 </r>
       <r>     0.2492    74.8550   760.3528 </r>
       <r>     0.3587    63.4726   767.3003 </r>
       <r>     0.4681    69.1951   774.8742 </r>
       <r>     0.5776    71.1850   782.6659 </r>
       <r>     0.6870    59.5032   789.1789 </r>
       <r>     0.7965    62.3735   796.0061 </r>
       <r>     0.9059    57.5229   802.3024 </r>
       <r>     1.0154    82.2301   811.3030 </r>
       <r>     1.1249    72.1488   819.2002 </r>
       <r>     1.2343    79.3306   827.8835 </r>
       <r>     1.3438    79.0398   836.5350 </r>
       <r>     1.4532    66.7166   843.8376 </r>
       <r>     1.5627    68.3790   851.3221 </r>
       <r>     1.6721    73.4884   859.3659 </r>
       <r>     1.7816    71.3754   867.1785 </r>
       <r>     1.8911    90.6949   877.1056 </r>
       <r>     2.0005    80.9379   885.9649 </r>
       <r>     2.1100    65.2237   893.1040 </r>
       <r>     2.2194    50.9415   898.6800 </r>
       <r>     2.3289    71.8603   906.5456 </r>
       <r>     2.4383    98.2548   917.3002 </r>
       <r>     2.5478    95.5872   927.7629 </r>
       <r>     2.6573    93.4088   937.9872 </r>
       <r>     2.7667    91.6205   948.0157 </r>
       <r>     2.8762    97.9831   958.7406 </r>
       <r>     2.9856   110.7147   970.8591 </r>
       <r>     3.0951   109.3723   982.8306 </r>
       <r>     3.2045   128.7756   996.9260 </r>
       <r>     3.3140   114.8129  1009.4931 </r>
       <r>     3.4235   105.6651  1021.0589 </r>
       <r>     3.5329    83.9856  1030.2517 </r>
       <r>     3.6424    57.2198  1036.5148 </r>
       <r>     3.7518    50.5063  1042.0431 </r>
       <r>     3.8613    57.9059  1048.3813 </r>
       <r>     3.9707    14.5257  1049.9712 </r>
       <r>     4.0802     0.2630  1050.0000 </r>
       <r>     4.1897     0.0000  1050.0000 </r>
       <r>     4.2991     0.0000  1050.0000 </r>
       <r>     4.4086     0.0641  1050.0070 </r>
       <r>     4.5180     7.6822  1050.8479 </r>
       <r>     4.6275    15.1027  1052.5010 </r>
       <r>     4.7369     6.7752  1053.2426 </r>
       <r>     4.8464     6.8389  1053.9911 </r>
       <r>     4.9559     0.0809  1054.0000 </r>
       <r>     5.0653     0.0000  1054.0000 </r>
       <r>     5.1748     0.0000  1054.0000 </r>
       <r>     5.2842     0.0052  1054.0006 </r>
       <r>     5.3937     2.6089  1054.2861 </r>
       <r>     5.5031    12.4453  1055.6484 </r>
       <r>     5.6126     3.2086  1055.9996 </r>
       <r>     5.7221     0.0040  1056.0000 </r>
       <r>     5.8315     0.0000  1056.0000 </r>
       <r>     5.9410     0.0000  1056.0000 </r>
       <r>     6.0504     0.0000  1056.0000 </r>
       <r>     6.1599     0.0869  1056.0095 </r>
       <r>     6.2693     1.9845  1056.2267 </r>
       <r>     6.3788     0.2125  1056.2500 </r>
       <r>     6.4883     0.0000  1056.2500 </r>
       <r>     6.5977     0.0000  1056.2500 </r>
       <r>     6.7072     0.0000  1056.2500 </r>
       <r>     6.8166     0.0000  1056.2500 </r>
       <r>     6.9261     0.0000  1056.2500 </r>
       <r>     7.0355     0.2526  1056.2776 </r>
       <r>     7.1450     5.4143  1056.8703 </r>
       <r>     7.2545     2.7289  1057.1690 </r>
       <r>     7.3639     0.9170  1057.2693 </r>
       <r>     7.4734     4.4105  1057.7521 </r>
       <r>     7.5828     4.1952  1058.2113 </r>
       <r>     7.6923     0.3536  1058.2500 </r>
       <r>     7.8017     0.0349  1058.2538 </r>
       <r>     7.9112     4.1826  1058.7116 </r>
       <r>     8.0206     9.2170  1059.7205 </r>
       <r>     8.1301     5.3437  1060.3054 </r>
       <r>     8.2396     5.0666  1060.8600 </r>
       <r>     8.3490     6.7118  1061.5946 </r>
       <r>     8.4585     4.2805  1062.0631 </r>
       <r>     8.5679     4.1888  1062.5216 </r>
       <r>     8.6774    13.6169  1064.0121 </r>
       <r>     8.7868     7.8669  1064.8732 </r>
       <r>     8.8963     3.6767  1065.2756 </r>
       <r>     9.0058     8.3660  1066.1914 </r>
       <r>     9.1152    14.6186  1067.7915 </r>
       <r>     9.2247    14.3603  1069.3633 </r>
       <r>     9.3341    14.4515  1070.9451 </r>
       <r>     9.4436    19.6988  1073.1013 </r>
       <r>     9.5530    26.4594  1075.9975 </r>
       <r>     9.6625    35.4081  1079.8731 </r>
       <r>     9.7720    29.4748  1083.0993 </r>
       <r>     9.8814    43.9683  1087.9120 </r>
       <r>     9.9909    46.7562  1093.0298 </r>
       <r>    10.1003    44.7676  1097.9299 </r>
       <r>    10.2098    24.8892  1100.6542 </r>
       <r>    10.3192    35.7383  1104.5660 </r>
       <r>    10.4287    40.2450  1108.9711 </r>
       <r>    10.5382    35.1706  1112.8207 </r>
       <r>    10.6476    27.7788  1115.8613 </r>
       <r>    10.7571    43.2975  1120.6005 </r>
       <r>    10.8665    38.7457  1124.8415 </r>
       <r>    10.9760    37.1920  1128.9124 </r>
       <r>    11.0854    33.8917  1132.6221 </r>
       <r>    11.1949    27.9692  1135.6835 </r>
       <r>    11.3044    34.6672  1139.4781 </r>
       <r>    11.4138    40.9789  1143.9635 </r>
       <r>    11.5233    38.2166  1148.1466 </r>
       <r>    11.6327    35.8026  1152.0655 </r>
       <r>    11.7422    30.5214  1155.4062 </r>
       <r>    11.8516    35.5641  1159.2990 </r>
       <r>    11.9611    30.7967  1162.6699 </r>
       <r>    12.0706    20.9984  1164.9683 </r>
       <r>    12.1800    19.4007  1167.0918 </r>
       <r>    12.2895    32.4311  1170.6416 </r>
       <r>    12.3989    38.0720  1174.8089 </r>
       <r>    12.5084    32.8503  1178.4046 </r>
       <r>    12.6178    38.6742  1182.6378 </r>
       <r>    12.7273    44.1349  1187.4686 </r>
       <r>    12.8368    41.0583  1191.9627 </r>
       <r>    12.9462    35.0649  1195.8008 </r>
       <r>    13.0557    34.0058  1199.5230 </r>
       <r>    13.1651    35.9291  1203.4557 </r>
       <r>    13.2746    47.6625  1208.6727 </r>
       <r>    13.3840    39.1918  1212.9625 </r>
       <r>    13.4935    37.5371  1217.0712 </r>
       <r>    13.6030    46.2178  1222.1301 </r>
       <r>    13.7124    41.8259  1226.7082 </r>
       <r>    13.8219    38.8469  1230.9603 </r>
       <r>    13.9313    34.8363  1234.7733 </r>
       <r>    14.0408    31.7826  1238.2522 </r>
       <r>    14.1502    32.1589  1241.7722 </r>
       <r>    14.2597    32.3871  1245.3172 </r>
       <r>    14.3692    31.8562  1248.8040 </r>
       <r>    14.4786    31.0275  1252.2002 </r>
       <r>    14.5881    42.1373  1256.8124 </r>
       <r>    14.6975    38.5814  1261.0354 </r>
       <r>    14.8070    35.9104  1264.9661 </r>
       <r>    14.9164     9.3507  1265.9896 </r>
       <r>    15.0259     0.0951  1266.0000 </r>
       <r>    15.1354     0.0000  1266.0000 </r>
       <r>    15.2448     0.0000  1266.0000 </r>
       <r>    15.3543     0.0000  1266.0000 </r>
       <r>    15.4637     0.0000  1266.0000 </r>
       <r>    15.5732     0.0000  1266.0000 </r>
       <r>    15.6826     0.0000  1266.0000 </r>
       <r>    15.7921     0.0000  1266.0000 </r>
       <r>    15.9015     0.0000  1266.0000 </r>
       <r>    16.0110     0.0000  1266.0000 </r>
       <r>    16.1205     0.0000  1266.0000 </r>
       <r>    16.2299     0.0000  1266.0000 </r>
       <r>    16.3394     0.0000  1266.0000 </r>
      </set>
     </set>
    </array>
   </total>
  </dos>
 </calculation>
 <structure name="finalpos" >
  <crystal>
   <varray name="basis" >
    <v>       0.00000000      12.28047342       0.00000000 </v>
    <v>       9.14270205       0.00000000       0.00000000 </v>
    <v>       0.00000000      -2.76826177     -11.30069772 </v>
   </varray>
   <i name="volume">   1268.80515525 </i>
   <varray name="rec_basis" >
    <v>       0.00000000       0.08143009      -0.01994742 </v>
    <v>       0.10937686      -0.00000000       0.00000000 </v>
    <v>       0.00000000       0.00000000      -0.08849011 </v>
   </varray>
  </crystal>
  <varray name="positions" >
   <v>       0.65917164      -0.00362518       0.15416426 </v>
   <v>       0.65972067      -0.00009457       0.65846473 </v>
   <v>       0.65917164       0.33695852       0.15416426 </v>
   <v>       0.65972067       0.33342790       0.65846473 </v>
   <v>       0.65796709       0.66666667       0.15639475 </v>
   <v>       0.65909380       0.66666667       0.65909411 </v>
   <v>       0.82198609       0.16666667       0.37211775 </v>
   <v>       0.84304034       0.16666667       0.84913818 </v>
   <v>       0.84094921       0.50115186       0.34073401 </v>
   <v>       0.84144428       0.49947845       0.84685008 </v>
   <v>       0.84094921       0.83218148       0.34073401 </v>
   <v>       0.84144428       0.83385489       0.84685008 </v>
   <v>       0.58495363       0.16666667       0.39918721 </v>
   <v>       0.59155833       0.16666667       0.89854422 </v>
   <v>       0.59325927       0.50119846       0.39946789 </v>
   <v>       0.58789285       0.50058174       0.89544903 </v>
   <v>       0.59325927       0.83213487       0.39946789 </v>
   <v>       0.58789285       0.83275160       0.89544903 </v>
   <v>       0.91387483       0.00358287       0.10828368 </v>
   <v>       0.90935030      -0.00297454       0.60626287 </v>
   <v>       0.91387483       0.32975046       0.10828368 </v>
   <v>       0.90935030       0.33630787       0.60626287 </v>
   <v>       0.91225247       0.66666667       0.10554886 </v>
   <v>       0.90736866       0.66666667       0.60106800 </v>
   <v>       0.16313046       0.16666667       0.15499846 </v>
   <v>       0.15897564       0.16666667       0.65516926 </v>
   <v>       0.16225771       0.50001092       0.15689959 </v>
   <v>       0.16003960       0.50046252       0.65813360 </v>
   <v>       0.16225771       0.83332242       0.15689959 </v>
   <v>       0.16003960       0.83287082       0.65813360 </v>
   <v>       0.34208422      -0.00131127       0.34344733 </v>
   <v>       0.34043092       0.00020369       0.84298292 </v>
   <v>       0.34208422       0.33464460       0.34344733 </v>
   <v>       0.34043092       0.33312964       0.84298292 </v>
   <v>       0.34282950       0.66666667       0.34389360 </v>
   <v>       0.34034445       0.66666667       0.84420213 </v>
   <v>       0.09474555      -0.00540145       0.39924819 </v>
   <v>       0.09146559       0.00136122       0.89885256 </v>
   <v>       0.09474555       0.33873478       0.39924819 </v>
   <v>       0.09146559       0.33197212       0.89885256 </v>
   <v>       0.09467888       0.66666667       0.39997504 </v>
   <v>       0.09070231       0.66666667       0.89880286 </v>
   <v>       0.40972426       0.16666667       0.10140893 </v>
   <v>       0.40903643       0.16666667       0.60310410 </v>
   <v>       0.41003309       0.49969626       0.10234006 </v>
   <v>       0.40893898       0.50004501       0.60310052 </v>
   <v>       0.41003309       0.83363708       0.10234006 </v>
   <v>       0.40893898       0.83328833       0.60310052 </v>
   <v>       0.00186202       0.16666667       0.08725118 </v>
   <v>       0.99396150       0.16666667       0.61390670 </v>
   <v>       0.00029059       0.49952551       0.12840054 </v>
   <v>       0.99737943       0.50145598       0.62903347 </v>
   <v>       0.00029059       0.83380782       0.12840054 </v>
   <v>       0.99737943       0.83187735       0.62903347 </v>
   <v>       0.50344497      -0.00262522       0.37409586 </v>
   <v>       0.50291012       0.00128076       0.87188916 </v>
   <v>       0.50344497       0.33595855       0.37409586 </v>
   <v>       0.50291012       0.33205258       0.87188916 </v>
   <v>       0.50446692       0.66666667       0.37589088 </v>
   <v>       0.50082601       0.66666667       0.86831317 </v>
   <v>       0.67010072       0.16666667       0.28363515 </v>
   <v>       0.67351669       0.16666667       0.78207207 </v>
   <v>       0.66953946       0.50301652       0.27988743 </v>
   <v>       0.67301270       0.50038925       0.78218309 </v>
   <v>       0.66953946       0.83031682       0.27988743 </v>
   <v>       0.67301270       0.83294409       0.78218309 </v>
   <v>       0.81896310      -0.02356307       0.20988858 </v>
   <v>       0.82747834      -0.00008593       0.72204003 </v>
   <v>       0.81896310       0.35689640       0.20988858 </v>
   <v>       0.82747834       0.33341927       0.72204003 </v>
   <v>       0.82706221       0.66666667       0.21874989 </v>
   <v>       0.82807755       0.66666667       0.72083624 </v>
   <v>       0.81885735      -0.01355859       0.45430551 </v>
   <v>       0.83327123      -0.00073163       0.94891998 </v>
   <v>       0.81885735       0.34689193       0.45430551 </v>
   <v>       0.83327123       0.33406496       0.94891998 </v>
   <v>       0.82935730       0.66666667       0.44522368 </v>
   <v>       0.83501509       0.66666667       0.94840137 </v>
   <v>       0.66676886       0.16666667       0.05543438 </v>
   <v>       0.66644800       0.16666667       0.55473185 </v>
   <v>       0.66094183       0.50359732       0.05087734 </v>
   <v>       0.66557572       0.50085454       0.55711042 </v>
   <v>       0.66094183       0.82973601       0.05087734 </v>
   <v>       0.66557572       0.83247879       0.55711042 </v>
   <v>       0.49704461       0.00057857       0.12773134 </v>
   <v>       0.49663269       0.00007000       0.62866472 </v>
   <v>       0.49704461       0.33275476       0.12773134 </v>
   <v>       0.49663269       0.33326334       0.62866472 </v>
   <v>       0.49538778       0.66666667       0.12667861 </v>
   <v>       0.49605195       0.66666667       0.62880528 </v>
   <v>       0.00393463       0.16666667       0.85685013 </v>
   <v>       0.00452001       0.50551120       0.37870024 </v>
   <v>       0.00434597       0.49921296       0.87386543 </v>
   <v>       0.00452001       0.82782213       0.37870024 </v>
   <v>       0.00434597       0.83412037       0.87386543 </v>
   <v>       0.17860213      -0.00414988       0.27917288 </v>
   <v>       0.17203981       0.00044560       0.77995038 </v>
   <v>       0.17860213       0.33748321       0.27917288 </v>
   <v>       0.17203981       0.33288774       0.77995038 </v>
   <v>       0.17499874       0.66666667       0.28171842 </v>
   <v>       0.17295148       0.66666667       0.78213410 </v>
   <v>       0.33058848       0.16666667       0.21986720 </v>
   <v>       0.32721475       0.16666667       0.71956943 </v>
   <v>       0.33060477       0.50219169       0.22024800 </v>
   <v>       0.32812900       0.49972763       0.72082782 </v>
   <v>       0.33060477       0.83114164       0.22024800 </v>
   <v>       0.32812900       0.83360570       0.72082782 </v>
   <v>       0.33500250       0.16666667       0.44589365 </v>
   <v>       0.33248916       0.16666667       0.94524214 </v>
   <v>       0.33248018       0.50043968       0.44680600 </v>
   <v>       0.33315108       0.49941589       0.94586198 </v>
   <v>       0.33248018       0.83289366       0.44680600 </v>
   <v>       0.33315108       0.83391745       0.94586198 </v>
   <v>       0.17511738      -0.00156867       0.05267644 </v>
   <v>       0.17223928      -0.00240472       0.55625647 </v>
   <v>       0.17511738       0.33490200       0.05267644 </v>
   <v>       0.17223928       0.33573805       0.55625647 </v>
   <v>       0.17025292       0.66666667       0.05432661 </v>
   <v>       0.17184894       0.66666667       0.55696354 </v>
   <v>      -0.02028742       0.16666667       0.31670799 </v>
  </varray>
 </structure>
</modeling>
