       N       E                     dE             d eps       ncg     rms          ort
DAV:   1    -0.211094911993E+05   -0.21109E+05   -0.54680E+05  5000   0.754E+03
DAV:   2    -0.655331029663E+05   -0.44424E+05   -0.42891E+05  5000   0.124E+03
DAV:   3    -0.706268965184E+05   -0.50938E+04   -0.46158E+04  5000   0.379E+02
DAV:   4    -0.714273230871E+05   -0.80043E+03   -0.69790E+03  5000   0.122E+02
DAV:   5    -0.391295466487E+05    0.32298E+05   -0.77244E+02  5000   0.596E+01
SDA:   6     0.307320778354E+05    0.69862E+05   -0.77244E+02  5000   0.101E+06 0.000E+00
CGA:   7     0.895668099066E+04   -0.21775E+05   -0.24786E+05  5000   0.401E+05-0.176E+05
CGA:   8     0.412924557454E+04   -0.48274E+04   -0.47432E+04  5000   0.169E+05 0.323E+04
CGA:   9     0.277891065801E+04   -0.13503E+04   -0.20354E+04  5000   0.166E+05 0.120E+04
CGA:  10     0.135239755472E+04   -0.14265E+04   -0.20718E+04  5000   0.515E+04 0.125E+04
CGA:  11     0.272822257421E+03   -0.10796E+04   -0.10757E+04  5000   0.228E+04 0.631E+03
CGA:  12    -0.344083425740E+03   -0.61691E+03   -0.60598E+03  5000   0.104E+04 0.140E+03
CGA:  13    -0.656307609839E+03   -0.31222E+03   -0.30840E+03  5000   0.514E+03 0.169E+02
CGA:  14    -0.818812282486E+03   -0.16250E+03   -0.16767E+03  5000   0.308E+03-0.386E+02
CGA:  15    -0.888954566208E+03   -0.70142E+02   -0.70877E+02  5000   0.147E+03-0.129E+02
CGA:  16    -0.923708255746E+03   -0.34754E+02   -0.34949E+02  5000   0.796E+02-0.324E+01
CGA:  17    -0.943127328100E+03   -0.19419E+02   -0.19435E+02  5000   0.433E+02-0.465E+00
CGA:  18    -0.954143744086E+03   -0.11016E+02   -0.11010E+02  5000   0.290E+02 0.173E+00
CGA:  19    -0.959929085838E+03   -0.57853E+01   -0.54684E+01  5000   0.224E+02-0.299E+01
CGA:  20    -0.962045183844E+03   -0.21161E+01   -0.17220E+01  5000   0.276E+02 0.263E+01
CGA:  21    -0.964326373211E+03   -0.22812E+01   -0.26949E+01  5000   0.213E+02-0.379E+01
CGA:  22    -0.965200807894E+03   -0.87443E+00   -0.91264E+00  5000   0.149E+02-0.195E+01
CGA:  23    -0.965906694033E+03   -0.70589E+00   -0.65078E+00  5000   0.156E+02-0.485E+00
CGA:  24    -0.966457410498E+03   -0.55072E+00   -0.63976E+00  5000   0.200E+02-0.255E+01
CGA:  25    -0.966801687532E+03   -0.34428E+00   -0.47571E+00  5000   0.164E+02-0.516E+01
CGA:  26    -0.966947541722E+03   -0.14585E+00   -0.37868E+00  5000   0.160E+02-0.590E+01
CGA:  27    -0.967202019503E+03   -0.25448E+00   -0.35059E+00  5000   0.143E+02-0.186E+01
CGA:  28    -0.967632039756E+03   -0.43002E+00   -0.48654E+00  5000   0.825E+01-0.115E+01
CGA:  29    -0.967898659937E+03   -0.26662E+00   -0.33652E+00  5000   0.697E+01-0.128E+01
CGA:  30    -0.968205906624E+03   -0.30725E+00   -0.30943E+00  5000   0.688E+01 0.253E-02
CGA:  31    -0.968522369312E+03   -0.31646E+00   -0.33363E+00  5000   0.633E+01-0.252E+00
CGA:  32    -0.968843483454E+03   -0.32111E+00   -0.33708E+00  5000   0.501E+01-0.108E+00
CGA:  33    -0.969080843402E+03   -0.23736E+00   -0.24026E+00  5000   0.358E+01-0.108E-01
CGA:  34    -0.969303059460E+03   -0.22222E+00   -0.22390E+00  5000   0.348E+01-0.107E-01
CGA:  35    -0.969518935295E+03   -0.21588E+00   -0.23892E+00  5000   0.320E+01-0.968E-01
CGA:  36    -0.969780387294E+03   -0.26145E+00   -0.27052E+00  5000   0.183E+01 0.649E-01
SDA:  37    -0.969934619485E+03   -0.15423E+00   -0.15297E+00  5000   0.118E+01-0.204E-01
CGA:  38    -0.970190821515E+03   -0.25620E+00   -0.26582E+00  5000   0.185E+01-0.858E-01
CGA:  39    -0.970448485212E+03   -0.25766E+00   -0.25502E+00  5000   0.619E+00 0.678E-01
CGA:  40    -0.970543854124E+03   -0.95369E-01   -0.94708E-01  5000   0.464E+00 0.190E-01
CGA:  41    -0.970617773450E+03   -0.73919E-01   -0.76138E-01  5000   0.198E+00-0.488E-01
CGA:  42    -0.970659279081E+03   -0.41506E-01   -0.40775E-01  5000   0.104E+00 0.671E-02
CGA:  43    -0.970676792308E+03   -0.17513E-01   -0.17019E-01  5000   0.500E-01 0.127E-01
CGA:  44    -0.970690695158E+03   -0.13903E-01   -0.14043E-01  5000   0.275E-01-0.108E-02
CGA:  45    -0.970697287717E+03   -0.65926E-02   -0.64438E-02  5000   0.214E-01 0.133E-02
CGA:  46    -0.970703248892E+03   -0.59612E-02   -0.57966E-02  5000   0.129E-01 0.134E-02
CGA:  47    -0.970707507467E+03   -0.42586E-02   -0.41550E-02  5000   0.171E-01 0.646E-03
CGA:  48    -0.970713197827E+03   -0.56904E-02   -0.56880E-02  5000   0.171E-01 0.438E-05
CGA:  49    -0.970719954212E+03   -0.67564E-02   -0.66687E-02  5000   0.153E-01 0.369E-03
CGA:  50    -0.970726575929E+03   -0.66217E-02   -0.63343E-02  5000   0.156E-01 0.125E-02
CGA:  51    -0.970731632980E+03   -0.50571E-02   -0.52080E-02  5000   0.179E-01-0.113E-02
CGA:  52    -0.970736665481E+03   -0.50325E-02   -0.50392E-02  5000   0.156E-01-0.934E-04
CGA:  53    -0.970741038421E+03   -0.43729E-02   -0.42764E-02  5000   0.786E-02 0.979E-03
CGA:  54    -0.970743659857E+03   -0.26214E-02   -0.26708E-02  5000   0.899E-02-0.379E-03
CGA:  55    -0.970745726857E+03   -0.20670E-02   -0.20697E-02  5000   0.587E-02-0.624E-04
CGA:  56    -0.970746946679E+03   -0.12198E-02   -0.12198E-02  5000   0.326E-02-0.129E-05
CGA:  57    -0.970747824034E+03   -0.87736E-03   -0.87836E-03  5000   0.326E-02-0.912E-05
CGA:  58    -0.970748509206E+03   -0.68517E-03   -0.68517E-03  5000   0.205E-02 0.594E-05
CGA:  59    -0.970749018608E+03   -0.50940E-03   -0.50896E-03  5000   0.151E-02 0.941E-05
CGA:  60    -0.970749411425E+03   -0.39282E-03   -0.39289E-03  5000   0.157E-02-0.247E-05
CGA:  61    -0.970749775726E+03   -0.36430E-03   -0.36426E-03  5000   0.818E-03 0.717E-06
CGA:  62    -0.970750024878E+03   -0.24915E-03   -0.24795E-03  5000   0.984E-03 0.125E-04
CGA:  63    -0.970750246229E+03   -0.22135E-03   -0.22136E-03  5000   0.631E-03 0.622E-05
CGA:  64    -0.970750436026E+03   -0.18980E-03   -0.18941E-03  5000   0.573E-03 0.509E-05
CGA:  65    -0.970750571534E+03   -0.13551E-03   -0.13547E-03  5000   0.529E-03 0.312E-05
CGA:  66    -0.970750715743E+03   -0.14421E-03   -0.14422E-03  5000   0.372E-03-0.332E-06
CGA:  67    -0.970750816065E+03   -0.10032E-03   -0.10042E-03  5000   0.347E-03-0.166E-05
SDA:  68    -0.970750898280E+03   -0.82214E-04   -0.82221E-04  5000   0.236E-03-0.549E-06
CGA:  69    -0.970750955460E+03   -0.57181E-04   -0.57189E-04  5000   0.209E-03-0.640E-06
CGA:  70    -0.970751023375E+03   -0.67914E-04   -0.68009E-04  5000   0.148E-03-0.996E-06
CGA:  71    -0.970751085759E+03   -0.62384E-04   -0.62720E-04  5000   0.158E-03-0.175E-05
CGA:  72    -0.970751122569E+03   -0.36810E-04   -0.36795E-04  5000   0.686E-04-0.116E-05
CGA:  73    -0.970751151289E+03   -0.28720E-04   -0.28793E-04  5000   0.341E-04-0.410E-06
CGA:  74    -0.970751164929E+03   -0.13640E-04   -0.13654E-04  5000   0.271E-04-0.888E-07
CGA:  75    -0.970751170125E+03   -0.51963E-05   -0.52042E-05  5000   0.138E-04 0.973E-07
   1 F= -.97075117E+03 E0= -.97075086E+03  d E =-.623944E-03
