 running    4 mpi-ranks, on    1 nodes
 distrk:  each k-point on    1 cores,    4 groups
 distr:  one band on    1 cores,    1 groups
 OpenACC runtime initialized ...    4 GPUs detected
 vasp.6.4.2 20Jul23 (build Nov 12 2023 22:16:35) complex                         
 POSCAR found type information on POSCAR GaO P 
 POSCAR found :  3 types and     119 ions
 scaLAPACK will be used selectively (only on CPU)
 LDA part: xc-table for Pade appr. of Perdew
 POSCAR, INCAR and KPOINTS ok, starting setup
 FFT: planning ... GRIDC
 FFT: planning ... GRID_SOFT
 FFT: planning ... GRID
 WAVECAR not read
 initial charge from wavefunction
 entering main loop
       N       E                     dE             d eps       ncg     rms          ort
DAV:   1    -0.213817856436E+05   -0.21382E+05   -0.54450E+05  5000   0.752E+03
DAV:   2    -0.660598927139E+05   -0.44678E+05   -0.43154E+05  5000   0.124E+03
DAV:   3    -0.712650020910E+05   -0.52051E+04   -0.47189E+04  5000   0.379E+02
DAV:   4    -0.719906285588E+05   -0.72563E+03   -0.66271E+03  5000   0.120E+02
DAV:   5    -0.396091922532E+05    0.32381E+05   -0.65202E+02  5000   0.597E+01
 gam= 0.000 g(H,U,f)=  0.809E+05 0.102E+05 0.226E-15 ort(H,U,f) = 0.000E+00 0.000E+00 0.000E+00
SDA:   6     0.345481504519E+05    0.74157E+05   -0.65202E+02  5000   0.911E+05 0.000E+00
 gam= 0.000 trial= 0.400  step= 0.601 mean= 0.400
 gam= 0.809 g(H,U,f)=  0.585E+05 0.151E+05 0.364E+02 ort(H,U,f) =-0.146E+05-0.801E+04-0.473E+02
CGA:   7     0.157165575339E+05   -0.18832E+05   -0.27369E+05  5000   0.736E+05-0.226E+05
 gam= 0.809 trial= 0.410  step= 0.284 mean= 0.410
 gam= 0.404 g(H,U,f)=  0.238E+05 0.586E+04 0.632E+02 ort(H,U,f) =-0.291E+03 0.636E+04 0.139E+03
CGA:   8     0.850358616899E+04   -0.72130E+04   -0.78443E+04  5000   0.297E+05 0.621E+04
 gam= 0.404 trial= 0.404  step= 0.225 mean= 0.404
 gam= 0.762 g(H,U,f)=  0.174E+05 0.516E+04 0.121E+03 ort(H,U,f) = 0.578E+04-0.490E+04-0.101E+03
CGA:   9     0.581210470957E+04   -0.26915E+04   -0.36299E+04  5000   0.226E+05 0.781E+03
 gam= 0.762 trial= 0.395  step= 0.260 mean= 0.395
 gam= 0.610 g(H,U,f)=  0.968E+04 0.410E+04 0.232E+02 ort(H,U,f) = 0.349E+04 0.664E+03 0.811E+01
CGA:  10     0.351501988439E+04   -0.22971E+04   -0.30243E+04  5000   0.138E+05 0.416E+04
 gam= 0.610 trial= 0.388  step= 0.256 mean= 0.388
 gam= 0.402 g(H,U,f)=  0.501E+04 0.532E+03 0.531E+01 ort(H,U,f) = 0.849E+03 0.639E+03-0.393E+01
CGA:  11     0.185477522678E+04   -0.16602E+04   -0.20942E+04  5000   0.554E+04 0.148E+04
 gam= 0.402 trial= 0.382  step= 0.410 mean= 0.382
 gam= 0.475 g(H,U,f)=  0.224E+04 0.386E+03 0.808E+01 ort(H,U,f) = 0.583E+03 0.155E+03 0.141E+01
CGA:  12     0.578194428271E+03   -0.12766E+04   -0.12574E+04  5000   0.263E+04 0.739E+03
 gam= 0.475 trial= 0.383  step= 0.466 mean= 0.383
 gam= 0.490 g(H,U,f)=  0.113E+04 0.158E+03 0.316E+00 ort(H,U,f) = 0.710E+02 0.274E+03 0.147E+01
CGA:  13    -0.141510297902E+03   -0.71970E+03   -0.69492E+03  5000   0.129E+04 0.347E+03
 gam= 0.490 trial= 0.387  step= 0.564 mean= 0.387
 gam= 0.565 g(H,U,f)=  0.625E+03 0.104E+03 0.874E+00 ort(H,U,f) =-0.241E+03 0.253E+03 0.451E+01
CGA:  14    -0.557553534586E+03   -0.41604E+03   -0.41208E+03  5000   0.729E+03 0.166E+02
 gam= 0.565 trial= 0.396  step= 0.552 mean= 0.396
 gam= 0.589 g(H,U,f)=  0.364E+03 0.641E+02 0.137E+01 ort(H,U,f) =-0.913E+02-0.168E+02 0.238E+01
CGA:  15    -0.752692102205E+03   -0.19514E+03   -0.20396E+03  5000   0.429E+03-0.106E+03
 gam= 0.589 trial= 0.404  step= 0.381 mean= 0.404
 gam= 0.652 g(H,U,f)=  0.202E+03 0.781E+02 0.682E-01 ort(H,U,f) = 0.600E+02-0.651E+02 0.154E+00
CGA:  16    -0.822709079366E+03   -0.70017E+02   -0.69947E+02  5000   0.280E+03-0.490E+01
 gam= 0.652 trial= 0.403  step= 0.370 mean= 0.403
 gam= 0.565 g(H,U,f)=  0.106E+03 0.522E+02 0.969E-01 ort(H,U,f) = 0.156E+02-0.124E+02 0.202E+00
CGA:  17    -0.873826505662E+03   -0.51117E+02   -0.51233E+02  5000   0.158E+03 0.348E+01
 gam= 0.565 trial= 0.401  step= 0.422 mean= 0.401
 gam= 0.650 g(H,U,f)=  0.742E+02 0.285E+02 0.232E-01 ort(H,U,f) =-0.155E+02 0.155E+02 0.205E+00
CGA:  18    -0.907577217525E+03   -0.33751E+02   -0.33779E+02  5000   0.103E+03 0.139E+00
 gam= 0.650 trial= 0.402  step= 0.457 mean= 0.402
 gam= 0.707 g(H,U,f)=  0.548E+02 0.178E+02 0.188E-10 ort(H,U,f) =-0.162E+02 0.198E+02-0.111E-08
CGA:  19    -0.931211466947E+03   -0.23634E+02   -0.23515E+02  5000   0.726E+02 0.360E+01
 gam= 0.707 trial= 0.405  step= 0.454 mean= 0.405
 gam= 0.637 g(H,U,f)=  0.362E+02 0.101E+02 0.170E-26 ort(H,U,f) =-0.138E+02 0.152E+02-0.126E-25
CGA:  20    -0.948301657064E+03   -0.17090E+02   -0.17062E+02  5000   0.463E+02 0.141E+01
 gam= 0.637 trial= 0.407  step= 0.442 mean= 0.407
 gam= 0.664 g(H,U,f)=  0.247E+02 0.609E+01 0.736E-18 ort(H,U,f) =-0.675E+01 0.773E+01 0.534E-17
CGA:  21    -0.958741788151E+03   -0.10440E+02   -0.10427E+02  5000   0.308E+02 0.976E+00
 gam= 0.664 trial= 0.409  step= 0.444 mean= 0.409
 gam= 0.617 g(H,U,f)=  0.155E+02 0.344E+01 0.137E-12 ort(H,U,f) =-0.195E+01 0.288E+01-0.116E-11
CGA:  22    -0.965732245968E+03   -0.69905E+01   -0.69719E+01  5000   0.190E+02 0.932E+00
 gam= 0.617 trial= 0.411  step= 0.426 mean= 0.411
 gam= 0.546 g(H,U,f)=  0.836E+01 0.201E+01 0.711E-15 ort(H,U,f) =-0.215E+00 0.725E+00-0.141E-15
CGA:  23    -0.969909870928E+03   -0.41776E+01   -0.41725E+01  5000   0.104E+02 0.510E+00
 gam= 0.546 trial= 0.412  step= 0.445 mean= 0.412
 gam= 0.672 g(H,U,f)=  0.548E+01 0.148E+01 0.128E-15 ort(H,U,f) =-0.281E+00 0.481E+00 0.280E-15
CGA:  24    -0.972285745475E+03   -0.23759E+01   -0.23717E+01  5000   0.696E+01 0.200E+00
 gam= 0.672 trial= 0.413  step= 0.456 mean= 0.413
 gam= 0.657 g(H,U,f)=  0.351E+01 0.107E+01 0.459E-17 ort(H,U,f) =-0.573E+00 0.647E+00 0.108E-16
CGA:  25    -0.973906334785E+03   -0.16206E+01   -0.16188E+01  5000   0.458E+01 0.743E-01
 gam= 0.657 trial= 0.415  step= 0.412 mean= 0.415
 gam= 0.568 g(H,U,f)=  0.192E+01 0.677E+00 0.444E-13 ort(H,U,f) =-0.707E+00 0.725E+00-0.262E-13
CGA:  26    -0.974858033561E+03   -0.95170E+00   -0.95172E+00  5000   0.260E+01 0.174E-01
 gam= 0.568 trial= 0.415  step= 0.467 mean= 0.415
 gam= 0.689 g(H,U,f)=  0.140E+01 0.390E+00 0.162E-11 ort(H,U,f) =-0.500E+00 0.503E+00-0.126E-10
CGA:  27    -0.975466700179E+03   -0.60867E+00   -0.60873E+00  5000   0.179E+01 0.271E-02
 gam= 0.689 trial= 0.418  step= 0.491 mean= 0.418
 gam= 0.617 g(H,U,f)=  0.899E+00 0.206E+00 0.123E-12 ort(H,U,f) =-0.225E+00 0.227E+00 0.480E-12
CGA:  28    -0.975907004700E+03   -0.44030E+00   -0.44028E+00  5000   0.110E+01 0.221E-02
 gam= 0.617 trial= 0.421  step= 0.471 mean= 0.421
 gam= 0.551 g(H,U,f)=  0.487E+00 0.122E+00 0.407E-14 ort(H,U,f) =-0.576E-01 0.603E-01-0.845E-14
CGA:  29    -0.976167828308E+03   -0.26082E+00   -0.26075E+00  5000   0.609E+00 0.270E-02
 gam= 0.551 trial= 0.424  step= 0.498 mean= 0.424
 gam= 0.688 g(H,U,f)=  0.329E+00 0.899E-01 0.618E-12 ort(H,U,f) =-0.228E-01 0.240E-01-0.202E-12
CGA:  30    -0.976320032536E+03   -0.15220E+00   -0.15216E+00  5000   0.419E+00 0.122E-02
 gam= 0.688 trial= 0.428  step= 0.502 mean= 0.428
 gam= 0.698 g(H,U,f)=  0.227E+00 0.652E-01 0.313E-14 ort(H,U,f) =-0.193E-01 0.197E-01 0.131E-13
CGA:  31    -0.976425435288E+03   -0.10540E+00   -0.10539E+00  5000   0.292E+00 0.450E-03
 gam= 0.698 trial= 0.431  step= 0.429 mean= 0.431
 gam= 0.596 g(H,U,f)=  0.129E+00 0.453E-01 0.119E-15 ort(H,U,f) =-0.231E-01 0.233E-01 0.156E-14
CGA:  32    -0.976488211450E+03   -0.62776E-01   -0.62776E-01  5000   0.174E+00 0.188E-03
 gam= 0.596 trial= 0.431  step= 0.445 mean= 0.431
 gam= 0.689 g(H,U,f)=  0.887E-01 0.313E-01 0.548E-13 ort(H,U,f) =-0.247E-01 0.249E-01 0.102E-12
CGA:  33    -0.976527052108E+03   -0.38841E-01   -0.38839E-01  5000   0.120E+00 0.181E-03
 gam= 0.689 trial= 0.432  step= 0.487 mean= 0.432
 gam= 0.661 g(H,U,f)=  0.611E-01 0.182E-01 0.543E-17 ort(H,U,f) =-0.184E-01 0.187E-01 0.243E-16
CGA:  34    -0.976556328812E+03   -0.29277E-01   -0.29267E-01  5000   0.793E-01 0.309E-03
 gam= 0.661 trial= 0.435  step= 0.471 mean= 0.435
 gam= 0.558 g(H,U,f)=  0.347E-01 0.962E-02 0.268E-22 ort(H,U,f) =-0.898E-02 0.926E-02-0.118E-20
CGA:  35    -0.976575063395E+03   -0.18735E-01   -0.18729E-01  5000   0.443E-01 0.288E-03
 gam= 0.558 trial= 0.437  step= 0.511 mean= 0.437
 gam= 0.673 g(H,U,f)=  0.240E-01 0.587E-02 0.122E-21 ort(H,U,f) =-0.318E-02 0.333E-02-0.359E-21
CGA:  36    -0.976586428903E+03   -0.11366E-01   -0.11359E-01  5000   0.298E-01 0.154E-03
 gam= 0.673 trial= 0.440  step= 0.515 mean= 0.440
 gam= 0.000 g(H,U,f)=  0.165E-01 0.396E-02 0.206E-20 ort(H,U,f) =-0.954E-03 0.982E-03-0.177E-20
SDA:  37    -0.976594134280E+03   -0.77054E-02   -0.77043E-02  5000   0.205E-01 0.281E-04
 gam= 0.000 trial= 0.444  step= 0.833 mean= 0.444
 gam= 0.380 g(H,U,f)=  0.599E-02 0.179E-02 0.248E-18 ort(H,U,f) =-0.231E-02 0.223E-02 0.616E-18
CGA:  38    -0.976602656381E+03   -0.85221E-02   -0.85389E-02  5000   0.779E-02-0.862E-04
 gam= 0.380 trial= 0.463  step= 0.810 mean= 0.463
 gam= 0.397 g(H,U,f)=  0.262E-02 0.472E-03 0.118E-16 ort(H,U,f) =-0.134E-02 0.134E-02 0.539E-16
CGA:  39    -0.976605798910E+03   -0.31425E-02   -0.31427E-02  5000   0.309E-02-0.927E-06
 gam= 0.397 trial= 0.481  step= 0.674 mean= 0.481
 gam= 0.290 g(H,U,f)=  0.812E-03 0.868E-04 0.259E-15 ort(H,U,f) =-0.373E-03 0.377E-03 0.962E-15
CGA:  40    -0.976606841934E+03   -0.10430E-02   -0.10427E-02  5000   0.898E-03 0.395E-05
 gam= 0.290 trial= 0.490  step= 0.643 mean= 0.490
 gam= 0.436 g(H,U,f)=  0.375E-03 0.174E-04 0.123E-14 ort(H,U,f) =-0.764E-04 0.709E-04 0.439E-14
CGA:  41    -0.976607130803E+03   -0.28887E-03   -0.28929E-03  5000   0.392E-03-0.548E-05
 gam= 0.436 trial= 0.498  step= 0.568 mean= 0.498
 gam= 0.211 g(H,U,f)=  0.806E-04 0.218E-05 0.566E-20 ort(H,U,f) =-0.984E-05 0.601E-05-0.302E-18
CGA:  42    -0.976607241432E+03   -0.11063E-03   -0.11077E-03  5000   0.828E-04-0.383E-05
 gam= 0.211 trial= 0.502  step= 0.595 mean= 0.502
 gam= 0.391 g(H,U,f)=  0.313E-04 0.102E-05 0.443E-18 ort(H,U,f) =-0.169E-05 0.431E-06-0.138E-17
CGA:  43    -0.976607265773E+03   -0.24341E-04   -0.24400E-04  5000   0.323E-04-0.126E-05
 gam= 0.391 trial= 0.506  step= 0.621 mean= 0.506
 gam= 0.316 g(H,U,f)=  0.966E-05 0.570E-06 0.124E-18 ort(H,U,f) =-0.302E-06 0.313E-06-0.246E-19
CGA:  44    -0.976607275656E+03   -0.98823E-05   -0.98816E-05  5000   0.102E-04 0.109E-07
 gam= 0.316 trial= 0.512  step= 0.667 mean= 0.512
 final diagonalization
   1 F= -.97660728E+03 E0= -.97660728E+03  d E =-.711522E-11
 writing wavefunctions
Warning: ieee_invalid is signaling
Warning: ieee_divide_by_zero is signaling
Warning: ieee_underflow is signaling
Warning: ieee_inexact is signaling
FORTRAN STOP
Warning: ieee_invalid is signaling
Warning: ieee_divide_by_zero is signaling
Warning: ieee_underflow is signaling
Warning: ieee_inexact is signaling
FORTRAN STOP
Warning: ieee_invalid is signaling
Warning: ieee_divide_by_zero is signaling
Warning: ieee_underflow is signaling
Warning: ieee_inexact is signaling
FORTRAN STOP
Warning: ieee_invalid is signaling
Warning: ieee_divide_by_zero is signaling
Warning: ieee_underflow is signaling
Warning: ieee_inexact is signaling
FORTRAN STOP
