       N       E                     dE             d eps       ncg     rms          ort
DAV:   1    -0.213817856436E+05   -0.21382E+05   -0.54450E+05  5000   0.752E+03
DAV:   2    -0.660598927139E+05   -0.44678E+05   -0.43154E+05  5000   0.124E+03
DAV:   3    -0.712650020910E+05   -0.52051E+04   -0.47189E+04  5000   0.379E+02
DAV:   4    -0.719906285588E+05   -0.72563E+03   -0.66271E+03  5000   0.120E+02
DAV:   5    -0.396091922532E+05    0.32381E+05   -0.65202E+02  5000   0.597E+01
SDA:   6     0.345481504519E+05    0.74157E+05   -0.65202E+02  5000   0.911E+05 0.000E+00
CGA:   7     0.157165575339E+05   -0.18832E+05   -0.27369E+05  5000   0.736E+05-0.226E+05
CGA:   8     0.850358616899E+04   -0.72130E+04   -0.78443E+04  5000   0.297E+05 0.621E+04
CGA:   9     0.581210470957E+04   -0.26915E+04   -0.36299E+04  5000   0.226E+05 0.781E+03
CGA:  10     0.351501988439E+04   -0.22971E+04   -0.30243E+04  5000   0.138E+05 0.416E+04
CGA:  11     0.185477522678E+04   -0.16602E+04   -0.20942E+04  5000   0.554E+04 0.148E+04
CGA:  12     0.578194428271E+03   -0.12766E+04   -0.12574E+04  5000   0.263E+04 0.739E+03
CGA:  13    -0.141510297902E+03   -0.71970E+03   -0.69492E+03  5000   0.129E+04 0.347E+03
CGA:  14    -0.557553534586E+03   -0.41604E+03   -0.41208E+03  5000   0.729E+03 0.166E+02
CGA:  15    -0.752692102205E+03   -0.19514E+03   -0.20396E+03  5000   0.429E+03-0.106E+03
CGA:  16    -0.822709079366E+03   -0.70017E+02   -0.69947E+02  5000   0.280E+03-0.490E+01
CGA:  17    -0.873826505662E+03   -0.51117E+02   -0.51233E+02  5000   0.158E+03 0.348E+01
CGA:  18    -0.907577217525E+03   -0.33751E+02   -0.33779E+02  5000   0.103E+03 0.139E+00
CGA:  19    -0.931211466947E+03   -0.23634E+02   -0.23515E+02  5000   0.726E+02 0.360E+01
CGA:  20    -0.948301657064E+03   -0.17090E+02   -0.17062E+02  5000   0.463E+02 0.141E+01
CGA:  21    -0.958741788151E+03   -0.10440E+02   -0.10427E+02  5000   0.308E+02 0.976E+00
CGA:  22    -0.965732245968E+03   -0.69905E+01   -0.69719E+01  5000   0.190E+02 0.932E+00
CGA:  23    -0.969909870928E+03   -0.41776E+01   -0.41725E+01  5000   0.104E+02 0.510E+00
CGA:  24    -0.972285745475E+03   -0.23759E+01   -0.23717E+01  5000   0.696E+01 0.200E+00
CGA:  25    -0.973906334785E+03   -0.16206E+01   -0.16188E+01  5000   0.458E+01 0.743E-01
CGA:  26    -0.974858033561E+03   -0.95170E+00   -0.95172E+00  5000   0.260E+01 0.174E-01
CGA:  27    -0.975466700179E+03   -0.60867E+00   -0.60873E+00  5000   0.179E+01 0.271E-02
CGA:  28    -0.975907004700E+03   -0.44030E+00   -0.44028E+00  5000   0.110E+01 0.221E-02
CGA:  29    -0.976167828308E+03   -0.26082E+00   -0.26075E+00  5000   0.609E+00 0.270E-02
CGA:  30    -0.976320032536E+03   -0.15220E+00   -0.15216E+00  5000   0.419E+00 0.122E-02
CGA:  31    -0.976425435288E+03   -0.10540E+00   -0.10539E+00  5000   0.292E+00 0.450E-03
CGA:  32    -0.976488211450E+03   -0.62776E-01   -0.62776E-01  5000   0.174E+00 0.188E-03
CGA:  33    -0.976527052108E+03   -0.38841E-01   -0.38839E-01  5000   0.120E+00 0.181E-03
CGA:  34    -0.976556328812E+03   -0.29277E-01   -0.29267E-01  5000   0.793E-01 0.309E-03
CGA:  35    -0.976575063395E+03   -0.18735E-01   -0.18729E-01  5000   0.443E-01 0.288E-03
CGA:  36    -0.976586428903E+03   -0.11366E-01   -0.11359E-01  5000   0.298E-01 0.154E-03
SDA:  37    -0.976594134280E+03   -0.77054E-02   -0.77043E-02  5000   0.205E-01 0.281E-04
CGA:  38    -0.976602656381E+03   -0.85221E-02   -0.85389E-02  5000   0.779E-02-0.862E-04
CGA:  39    -0.976605798910E+03   -0.31425E-02   -0.31427E-02  5000   0.309E-02-0.927E-06
CGA:  40    -0.976606841934E+03   -0.10430E-02   -0.10427E-02  5000   0.898E-03 0.395E-05
CGA:  41    -0.976607130803E+03   -0.28887E-03   -0.28929E-03  5000   0.392E-03-0.548E-05
CGA:  42    -0.976607241432E+03   -0.11063E-03   -0.11077E-03  5000   0.828E-04-0.383E-05
CGA:  43    -0.976607265773E+03   -0.24341E-04   -0.24400E-04  5000   0.323E-04-0.126E-05
CGA:  44    -0.976607275656E+03   -0.98823E-05   -0.98816E-05  5000   0.102E-04 0.109E-07
   1 F= -.97660728E+03 E0= -.97660728E+03  d E =-.711522E-11
