 vasp.6.4.2 20Jul23 (build Nov 12 2023 22:16:35) complex                         
 executed on              LinuxNV date 2025.03.13  02:05:14
 running    4 mpi-ranks, on    1 nodes
 distrk:  each k-point on    1 cores,    4 groups
 distr:  one band on NCORE=   1 cores,    1 groups
 OpenACC runtime initialized ...    4 GPUs detected


--------------------------------------------------------------------------------------------------------


 INCAR:
   PREC = Normal
   ENCUT = 450
   NELM = 500
   IBRION = -1
   ISPIN = 1
   NSW = 0
   ISIF = 2
   EDIFF = 1E-5
   EDIFFG = -5E-3
   ISTART = 0
   ICHARG = 0
   ISMEAR = 0
   SIGMA = 0.05
   LWAVE = .T.
   LCHARG = .T.
   LREAL = Auto
   LPLANE = .TRUE.
   NPAR = 1
   KPAR = 4
   NCORE = 1
   ALGO = All
   LHFCALC = .TRUE.
   HSE06 = .TRUE.
   HFSCREEN = 0.18
   TIME = 0.4
   AEXX = 0.35
   LMAXFOCK = 4
   PRECFOCK = Fast

 POTCAR:    PAW_PBE Ga_d 06Jul2010                
 POTCAR:     PAW_PBE O 08Apr2002                  
 POTCAR:    PAW_PBE P 06Sep2000                   
 POTCAR:    PAW_PBE Ga_d 06Jul2010                
   SHA256 =  a60ddf36e14f00ea098d9e3914b3745f1b7105e68786148f49ae384e44b4226c Ga_d/POTCAR           
   COPYR  = (c) Copyright 06Jul2010 Georg Kresse                                                    
   COPYR  = This file is part of the software VASP. Any use, copying, and all other rights are regul
   COPYR  = If you do not have a valid VASP license, you may not use, copy or distribute this file. 
   VRHFIN =Ga: s2p1                                                                                 
   LEXCH  = PE                                                                                      
   EATOM  =  2148.8298 eV,  157.9345 Ry                                                             
                                                                                                    
   TITEL  = PAW_PBE Ga_d 06Jul2010                                                                  
   LULTRA =        F    use ultrasoft PP ?                                                          
   IUNSCR =        1    unscreen: 0-lin 1-nonlin 2-no                                               
   RPACOR =    1.700    partial core radius                                                         
   POMASS =   69.723; ZVAL   =   13.000    mass and valenz                                          
   RCORE  =    2.300    outmost cutoff radius                                                       
   RWIGS  =    2.300; RWIGS  =    1.217    wigner-seitz radius (au A)                               
   ENMAX  =  282.691; ENMIN  =  212.018 eV                                                          
   ICORE  =        3    local potential                                                             
   LCOR   =        T    correct aug charges                                                         
   LPAW   =        T    paw PP                                                                      
   EAUG   =  490.690                                                                                
   DEXC   =    0.000                                                                                
   RMAX   =    2.341    core radius for proj-oper                                                   
   RAUG   =    1.300    factor for augmentation sphere                                              
   RDEP   =    2.413    radius for radial grids                                                     
   RDEPT  =    1.856    core radius for aug-charge                                                  
                                                                                                    
   Atomic configuration                                                                             
    9 entries                                                                                       
     n  l   j            E        occ.                                                              
     1  0  0.50    -10228.7831   2.0000                                                             
     2  0  0.50     -1262.1604   2.0000                                                             
     2  1  1.50     -1098.6333   6.0000                                                             
     3  0  0.50      -148.1110   2.0000                                                             
     3  1  1.50       -98.8436   6.0000                                                             
     3  2  2.50       -19.1549  10.0000                                                             
     4  0  0.50        -8.9483   2.0000                                                             
     4  1  0.50        -2.5791   1.0000                                                             
     4  3  2.50        -2.7416   0.0000                                                             
   Description                                                                                      
     l       E           TYP  RCUT    TYP  RCUT                                                     
     2    -19.1549037     23  2.300                                                                 
     2     -5.4423304     23  2.300                                                                 
     0     -8.9483111     23  2.300                                                                 
     0     68.0291300     23  2.300                                                                 
     1     -2.5790802     23  2.100                                                                 
     1     81.6349560     23  2.300                                                                 
     3      6.8029130     23  2.300                                                                 
  local pseudopotential read in
  partial core-charges read in
  partial kinetic energy density read in
  atomic valenz-charges read in
  non local Contribution for L=            2  read in
    real space projection operators read in
  non local Contribution for L=            2  read in
    real space projection operators read in
  non local Contribution for L=            0  read in
    real space projection operators read in
  non local Contribution for L=            0  read in
    real space projection operators read in
  non local Contribution for L=            1  read in
    real space projection operators read in
  non local Contribution for L=            1  read in
    real space projection operators read in
    PAW grid and wavefunctions read in
 
   number of l-projection  operators is LMAX  =            6
   number of lm-projection operators is LMMAX =           18
 
 POTCAR:     PAW_PBE O 08Apr2002                  
   SHA256 =  818f92134a0a090dccd8ba1447fa70422a3b330e708bb4f08108d8ae51209ddf O/POTCAR              
   COPYR  = (c) Copyright 08Apr2002 Georg Kresse                                                    
   COPYR  = This file is part of the software VASP. Any use, copying, and all other rights are regul
   COPYR  = If you do not have a valid VASP license, you may not use, copy or distribute this file. 
   VRHFIN =O: s2p4                                                                                  
   LEXCH  = PE                                                                                      
   EATOM  =   432.3788 eV,   31.7789 Ry                                                             
                                                                                                    
   TITEL  = PAW_PBE O 08Apr2002                                                                     
   LULTRA =        F    use ultrasoft PP ?                                                          
   IUNSCR =        1    unscreen: 0-lin 1-nonlin 2-no                                               
   RPACOR =    1.200    partial core radius                                                         
   POMASS =   16.000; ZVAL   =    6.000    mass and valenz                                          
   RCORE  =    1.520    outmost cutoff radius                                                       
   RWIGS  =    1.550; RWIGS  =    0.820    wigner-seitz radius (au A)                               
   ENMAX  =  400.000; ENMIN  =  300.000 eV                                                          
   ICORE  =        2    local potential                                                             
   LCOR   =        T    correct aug charges                                                         
   LPAW   =        T    paw PP                                                                      
   EAUG   =  605.392                                                                                
   DEXC   =    0.000                                                                                
   RMAX   =    1.553    core radius for proj-oper                                                   
   RAUG   =    1.300    factor for augmentation sphere                                              
   RDEP   =    1.550    radius for radial grids                                                     
   RDEPT  =    1.329    core radius for aug-charge                                                  
                                                                                                    
   Atomic configuration                                                                             
    4 entries                                                                                       
     n  l   j            E        occ.                                                              
     1  0  0.50      -514.6923   2.0000                                                             
     2  0  0.50       -23.9615   2.0000                                                             
     2  1  0.50        -9.0305   4.0000                                                             
     3  2  1.50        -9.5241   0.0000                                                             
   Description                                                                                      
     l       E           TYP  RCUT    TYP  RCUT                                                     
     0    -23.9615318     23  1.200                                                                 
     0     -9.5240782     23  1.200                                                                 
     1     -9.0304911     23  1.520                                                                 
     1      8.1634956     23  1.520                                                                 
     2     -9.5240782      7  1.500                                                                 
  local pseudopotential read in
  partial core-charges read in
  partial kinetic energy density read in
  kinetic energy density of atom read in
  atomic valenz-charges read in
  non local Contribution for L=            0  read in
    real space projection operators read in
  non local Contribution for L=            0  read in
    real space projection operators read in
  non local Contribution for L=            1  read in
    real space projection operators read in
  non local Contribution for L=            1  read in
    real space projection operators read in
    PAW grid and wavefunctions read in
 
   number of l-projection  operators is LMAX  =            4
   number of lm-projection operators is LMMAX =            8
 
 POTCAR:    PAW_PBE P 06Sep2000                   
   SHA256 =  df60c54a93efe35c9e85ae94c010c75e9f6960a95d5595d7cdba4096d109af88 P/POTCAR              
   COPYR  = (c) Copyright 06Sep2000 Georg Kresse                                                    
   COPYR  = This file is part of the software VASP. Any use, copying, and all other rights are regul
   COPYR  = If you do not have a valid VASP license, you may not use, copy or distribute this file. 
   VRHFIN =P : s2p3                                                                                 
   LEXCH  = PE                                                                                      
   EATOM  =   176.0430 eV,   12.9388 Ry                                                             
                                                                                                    
   TITEL  = PAW_PBE P 06Sep2000                                                                     
   LULTRA =        F    use ultrasoft PP ?                                                          
   IUNSCR =        1    unscreen: 0-lin 1-nonlin 2-no                                               
   RPACOR =    1.500    partial core radius                                                         
   POMASS =   30.974; ZVAL   =    5.000    mass and valenz                                          
   RCORE  =    1.900    outmost cutoff radius                                                       
   RWIGS  =    2.330; RWIGS  =    1.233    wigner-seitz radius (au A)                               
   ENMAX  =  255.040; ENMIN  =  191.280 eV                                                          
   ICORE  =        2    local potential                                                             
   LCOR   =        T    correct aug charges                                                         
   LPAW   =        T    paw PP                                                                      
   EAUG   =  342.924                                                                                
   DEXC   =    0.000                                                                                
   RMAX   =    1.935    core radius for proj-oper                                                   
   RAUG   =    1.300    factor for augmentation sphere                                              
   RDEP   =    1.931    radius for radial grids                                                     
   RDEPT  =    1.794    core radius for aug-charge                                                  
                                                                                                    
   Atomic configuration                                                                             
    6 entries                                                                                       
     n  l   j            E        occ.                                                              
     1  0  0.50     -2084.0982   2.0000                                                             
     2  0  0.50      -173.9859   2.0000                                                             
     2  1  1.50      -124.4865   6.0000                                                             
     3  0  0.50       -13.9692   2.0000                                                             
     3  1  0.50        -5.5067   3.0000                                                             
     3  2  1.50        -5.4423   0.0000                                                             
   Description                                                                                      
     l       E           TYP  RCUT    TYP  RCUT                                                     
     0    -13.9691527     23  1.900                                                                 
     0    -11.7794650     23  1.900                                                                 
     1     -5.5066937     23  1.900                                                                 
     1     -0.2556953     23  1.900                                                                 
     2     -5.4423304     23  1.900                                                                 
  local pseudopotential read in
  partial core-charges read in
  partial kinetic energy density read in
  atomic valenz-charges read in
  non local Contribution for L=            0  read in
    real space projection operators read in
  non local Contribution for L=            0  read in
    real space projection operators read in
  non local Contribution for L=            1  read in
    real space projection operators read in
  non local Contribution for L=            1  read in
    real space projection operators read in
    PAW grid and wavefunctions read in
 
   number of l-projection  operators is LMAX  =            4
   number of lm-projection operators is LMMAX =            8
 
 Optimization of the real space projectors (new method)

 maximal supplied QI-value         = 16.25
 optimisation between [QCUT,QGAM] = [ 10.73, 21.61] = [ 32.22,130.83] Ry 
 Optimized for a Real-space Cutoff    1.42 Angstroem

   l    n(q)    QCUT    max X(q) W(low)/X(q) W(high)/X(q)  e(spline) 
   2      8    10.726     7.143    0.22E-03    0.16E-03    0.73E-07
   2      8    10.726     5.586    0.40E-03    0.26E-03    0.10E-06
   0      9    10.726    12.382    0.25E-04    0.21E-05    0.37E-07
   0      9    10.726     6.622    0.42E-04    0.48E-05    0.77E-07
   1      9    10.726     7.935    0.27E-03    0.13E-04    0.16E-06
   1      9    10.726     2.425    0.23E-03    0.15E-04    0.14E-06
 Optimization of the real space projectors (new method)

 maximal supplied QI-value         = 24.76
 optimisation between [QCUT,QGAM] = [ 10.64, 21.54] = [ 31.73,129.89] Ry 
 Optimized for a Real-space Cutoff    1.23 Angstroem

   l    n(q)    QCUT    max X(q) W(low)/X(q) W(high)/X(q)  e(spline) 
   0      8    10.645    20.381    0.38E-03    0.60E-03    0.15E-06
   0      8    10.645    15.268    0.40E-03    0.65E-03    0.17E-06
   1      7    10.645     5.964    0.30E-03    0.63E-03    0.18E-06
   1      7    10.645     5.382    0.24E-03    0.53E-03    0.16E-06
 Optimization of the real space projectors (new method)

 maximal supplied QI-value         = 19.84
 optimisation between [QCUT,QGAM] = [ 10.71, 21.63] = [ 32.15,130.99] Ry 
 Optimized for a Real-space Cutoff    1.19 Angstroem

   l    n(q)    QCUT    max X(q) W(low)/X(q) W(high)/X(q)  e(spline) 
   0      8    10.715   160.924    0.37E-03    0.37E-04    0.63E-07
   0      8    10.715   130.086    0.37E-03    0.36E-04    0.63E-07
   1      7    10.715    74.434    0.19E-03    0.56E-03    0.65E-07
   1      7    10.715    49.120    0.19E-03    0.55E-03    0.63E-07
  PAW_PBE Ga_d 06Jul2010                :
 energy of atom  1       EATOM=-2148.8298
 kinetic energy error for atom=    0.0038 (will be added to EATOM!!)
   PAW_PBE O 08Apr2002                  :
 energy of atom  2       EATOM= -432.3788
 kinetic energy error for atom=    0.0389 (will be added to EATOM!!)
  PAW_PBE P 06Sep2000                   :
 energy of atom  3       EATOM= -176.0430
 kinetic energy error for atom=    0.0019 (will be added to EATOM!!)
 
 
 POSCAR: Ga48 O72
  positions in direct lattice
  velocities in cartesian coordinates
 exchange correlation table for  LEXCH =        8
   RHO(1)=    0.500       N(1)  =     2000
   RHO(2)=  100.500       N(2)  =     4000
 


--------------------------------------------------------------------------------------------------------


 ion  position               nearest neighbor table
   1  0.660  0.999  0.159-  84 1.93  78 1.96  82 1.96  66 2.02  60 2.06  64 2.07
   2  0.659  0.998  0.656-  85 1.94  83 1.95  79 1.95  67 2.02  61 2.08  65 2.09
   3  0.661  0.331  0.159-  86 1.94  78 1.96  80 1.96  68 2.03  60 2.05  62 2.08
   4  0.658  0.332  0.656-  87 1.94  79 1.95  81 1.95  69 2.03  61 2.08  63 2.08
   5  0.661  0.666  0.158-  88 1.95  82 1.96  80 1.96  70 2.02  64 2.07  62 2.08
   6  0.658  0.665  0.658-  89 1.93  83 1.95  81 1.95  71 2.04  65 2.07  63 2.07
   7  0.849  0.163  0.345-  72 1.95  74 1.95  90 1.95  66 2.05  60 2.08  68 2.08
   8  0.837  0.165  0.841-  91 1.93  73 1.95  75 1.96  61 1.99  69 2.07  67 2.08
   9  0.841  0.498  0.346-  92 1.92  74 1.95  76 1.95  62 2.01  70 2.08  68 2.10
  10  0.841  0.499  0.843-  75 1.95  77 1.96  93 1.97  63 2.03  71 2.05  69 2.07
  11  0.845  0.832  0.346-  94 1.91  72 1.95  76 1.96  64 2.04  70 2.08  66 2.10
  12  0.840  0.831  0.842-  73 1.95  95 1.96  77 1.96  65 2.01  71 2.05  67 2.08
  13  0.593  0.167  0.397-  79 1.85  56 1.85  54 1.85  60 1.87
  14  0.591  0.165  0.899-  78 1.84  57 1.85  55 1.85  61 1.88
  15  0.590  0.499  0.398-  56 1.84  81 1.84  58 1.85  62 1.88
  16  0.591  0.498  0.899-  80 1.85  57 1.85  59 1.85  63 1.87
  17  0.594  0.832  0.399-  83 1.84  54 1.84  58 1.85  64 1.87
  18  0.591  0.831  0.899-  82 1.84  55 1.85  59 1.85  65 1.87
  19  0.902  0.996  0.099-  73 1.82  52 1.84  66 1.84  48 1.89
  20  0.910  0.998  0.601-  72 1.84  49 1.84  53 1.85  67 1.89
  21  0.904  0.338  0.099-  75 1.83  50 1.84  68 1.85  48 1.89
  22  0.909  0.331  0.603-  74 1.84  49 1.84  51 1.85  69 1.87
  23  0.909  0.666  0.103-  77 1.84  50 1.85  52 1.85  70 1.87
  24  0.910  0.665  0.604-  76 1.84  53 1.84  51 1.85  71 1.87
  25  0.160  0.161  0.651- 114 1.93 116 1.93  49 1.95 102 2.03  96 2.09  98 2.15
  26  0.159  0.503  0.169-  97 1.93  50 1.94 117 1.97 103 2.01  99 2.03 115 2.20
  27  0.159  0.497  0.660-  51 1.95 116 1.95 118 1.95 104 2.03  98 2.07 100 2.08
  28  0.157  0.835  0.173-  52 1.93 105 1.99 117 2.01  99 2.01 113 2.16
  29  0.159  0.833  0.654- 114 1.93 118 1.94  53 1.95 106 2.03  96 2.09 100 2.14
  30  0.345  0.003  0.344-  54 1.94 107 1.95 111 1.97 101 1.99 105 2.05
  31  0.341  0.999  0.845-  55 1.94 108 1.96 112 1.96  96 2.02 102 2.07 106 2.08
  32  0.339  0.331  0.343-  97 1.96 107 1.97  56 1.97 109 1.98 101 2.02 103 2.11
  33  0.341  0.330  0.846-  57 1.95 108 1.96 110 1.97  98 2.01 104 2.07 102 2.08
  34  0.343  0.665  0.348- 109 1.92 111 1.94  58 1.94  99 2.03 103 2.11 105 2.17
  35  0.340  0.665  0.846-  59 1.95 112 1.97 110 1.97 100 2.01 104 2.07 106 2.07
  36  0.114  0.990  0.378-  94 1.96 114 1.96  90 1.97
  37  0.086  0.998  0.890-  95 1.83  91 1.84  96 1.85 113 1.91
  38  0.091  0.329  0.400-  97 1.84  90 1.84 116 1.85  92 1.86
  39  0.088  0.328  0.894-  93 1.83  91 1.84  98 1.85 115 1.91
  40  0.088  0.665  0.403-  94 1.83 118 1.84  92 1.84  99 1.88
  41  0.094  0.665  0.904- 117 1.85  95 1.86  93 1.86 100 1.87
  42  0.412  0.166  0.107- 101 1.84  86 1.85  84 1.85 108 1.85
  43  0.408  0.165  0.604-  87 1.85  85 1.85 107 1.85 102 1.88
  44  0.411  0.500  0.104-  86 1.84 110 1.84  88 1.84 103 1.86
  45  0.410  0.499  0.606- 109 1.83  87 1.85  89 1.85 104 1.87
  46  0.409  0.833  0.104- 112 1.84  84 1.84  88 1.85 105 1.89
  47  0.410  0.833  0.605- 111 1.84  85 1.85  89 1.85 106 1.87
  48  0.991  0.166  0.108- 119 1.74  21 1.89  19 1.89
  49  0.997  0.165  0.626-  22 1.84  20 1.84  25 1.95
  50  0.996  0.499  0.128-  21 1.84  23 1.85  26 1.94
  51  0.997  0.498  0.632-  24 1.85  22 1.85  27 1.95
  52  0.995  0.835  0.127-  19 1.84  23 1.85  28 1.93
  53  0.997  0.831  0.631-  24 1.84  20 1.85  29 1.95
  54  0.507  0.999  0.376-  17 1.84  13 1.85  30 1.94
  55  0.503  0.998  0.875-  18 1.85  14 1.85  31 1.94
  56  0.504  0.332  0.375-  15 1.84  13 1.85  32 1.97
  57  0.504  0.332  0.875-  14 1.85  16 1.85  33 1.95
  58  0.505  0.667  0.371-  15 1.85  17 1.85  34 1.94
  59  0.503  0.665  0.877-  18 1.85  16 1.85  35 1.95
  60  0.675  0.166  0.281-  13 1.87   3 2.05   1 2.06   7 2.08
  61  0.671  0.165  0.780-  14 1.88   8 1.99   2 2.08   4 2.08
  62  0.674  0.498  0.282-  15 1.88   9 2.01   3 2.08   5 2.08
  63  0.672  0.499  0.781-  16 1.87  10 2.03   6 2.07   4 2.08
  64  0.676  0.832  0.282-  17 1.87  11 2.04   5 2.07   1 2.07
  65  0.672  0.831  0.781-  18 1.87  12 2.01   6 2.07   2 2.09
  66  0.829  1.000  0.220-  19 1.84   1 2.02   7 2.05  11 2.10
  67  0.827  0.997  0.718-  20 1.89   2 2.02  12 2.08   8 2.08
  68  0.830  0.331  0.220-  21 1.85   3 2.03   7 2.08   9 2.10
  69  0.827  0.333  0.719-  22 1.87   4 2.03   8 2.07  10 2.07
  70  0.829  0.665  0.221-  23 1.87   5 2.02   9 2.08  11 2.08
  71  0.828  0.664  0.721-  24 1.87   6 2.04  10 2.05  12 2.05
  72  0.831  0.999  0.446-  20 1.84   7 1.95  11 1.95
  73  0.829  0.998  0.943-  19 1.82  12 1.95   8 1.95
  74  0.835  0.329  0.446-  22 1.84   9 1.95   7 1.95
  75  0.829  0.333  0.944-  21 1.83  10 1.95   8 1.96
  76  0.832  0.665  0.448-  24 1.84   9 1.95  11 1.96
  77  0.832  0.665  0.946-  23 1.84  10 1.96  12 1.96
  78  0.670  0.165  0.055-  14 1.84   3 1.96   1 1.96
  79  0.668  0.166  0.555-  13 1.85   4 1.95   2 1.95
  80  0.670  0.499  0.056-  16 1.85   5 1.96   3 1.96
  81  0.668  0.499  0.555-  15 1.84   6 1.95   4 1.95
  82  0.671  0.832  0.055-  18 1.84   5 1.96   1 1.96
  83  0.669  0.831  0.556-  17 1.84   2 1.95   6 1.95
  84  0.498  0.997  0.128-  46 1.84  42 1.85   1 1.93
  85  0.497  0.999  0.629-  47 1.85  43 1.85   2 1.94
  86  0.499  0.334  0.127-  44 1.84  42 1.85   3 1.94
  87  0.496  0.331  0.630-  43 1.85  45 1.85   4 1.94
  88  0.497  0.667  0.128-  44 1.84  46 1.85   5 1.95
  89  0.497  0.666  0.631-  47 1.85  45 1.85   6 1.93
  90  0.011  0.157  0.365-  38 1.84   7 1.95  36 1.97
  91  0.999  0.164  0.866-  37 1.84  39 1.84   8 1.93
  92  0.002  0.497  0.376-  40 1.84  38 1.86   9 1.92
  93  0.005  0.498  0.880-  39 1.83  41 1.86  10 1.97
  94  0.005  0.834  0.376-  40 1.83  11 1.91  36 1.96
  95  0.003  0.830  0.877-  37 1.83  41 1.86  12 1.96
  96  0.173  0.998  0.780-  37 1.85  31 2.02  29 2.09  25 2.09
  97  0.176  0.358  0.292-  38 1.84  26 1.93  32 1.96
  98  0.173  0.330  0.783-  39 1.85  33 2.01  27 2.07  25 2.15
  99  0.174  0.667  0.288-  40 1.88  28 2.01  34 2.03  26 2.03
 100  0.172  0.665  0.784-  41 1.87  35 2.01  27 2.08  29 2.14
 101  0.338  0.165  0.228-  42 1.84  30 1.99  32 2.02 119 2.43
 102  0.328  0.165  0.722-  43 1.88  25 2.03  31 2.07  33 2.08
 103  0.327  0.501  0.218-  44 1.86  26 2.01  32 2.11  34 2.11
 104  0.328  0.498  0.723-  45 1.87  27 2.03  35 2.07  33 2.07
 105  0.324  0.841  0.219-  46 1.89  28 1.99  30 2.05  34 2.17
 106  0.328  0.831  0.722-  47 1.87  29 2.03  35 2.07  31 2.08
 107  0.329  0.165  0.447-  43 1.85  30 1.95  32 1.97
 108  0.333  0.164  0.950-  42 1.85  33 1.96  31 1.96
 109  0.340  0.500  0.449-  45 1.83  34 1.92  32 1.98
 110  0.329  0.497  0.949-  44 1.84  33 1.97  35 1.97
 111  0.337  0.834  0.447-  47 1.84  34 1.94  30 1.97
 112  0.328  0.833  0.949-  46 1.84  31 1.96  35 1.97
 113  0.152  0.018  0.055- 119 1.68  37 1.91  28 2.16
 114  0.167  0.996  0.551-  25 1.93  29 1.93  36 1.96
 115  0.155  0.306  0.060- 119 1.68  39 1.91  26 2.20
 116  0.168  0.333  0.557-  38 1.85  25 1.93  27 1.95
 117  0.165  0.669  0.063-  41 1.85  26 1.97  28 2.01
 118  0.169  0.663  0.558-  40 1.84  29 1.94  27 1.95
 119  0.137  0.160  0.142- 115 1.68 113 1.68  48 1.74 101 2.43
 
  LATTYP: Found a simple monoclinic cell.
 ALAT       =    11.6348202465
 B/A-ratio  =     0.7858051831
 C/A-ratio  =     1.0554931797
 COS(beta)  =    -0.2379290539
  
  Lattice vectors:
  
 A1 = (   0.0000000000,  -2.7682617730, -11.3006977184)
 A2 = (  -9.1427020537,   0.0000000000,   0.0000000000)
 A3 = (   0.0000000000,  12.2804734172,   0.0000000000)


Analysis of symmetry for initial positions (statically):
=====================================================================
 Subroutine PRICEL returns:
 Original cell was already a primitive cell.
 

 Routine SETGRP: Setting up the symmetry group for a 
 simple monoclinic supercell.


 Subroutine GETGRP returns: Found  1 space group operations
 (whereof  1 operations were pure point group operations)
 out of a pool of  4 trial point group operations.


The static configuration has the point symmetry C_1 .


Analysis of symmetry for dynamics (positions and initial velocities):
=====================================================================
 Subroutine PRICEL returns:
 Original cell was already a primitive cell.
 

 Routine SETGRP: Setting up the symmetry group for a 
 simple monoclinic supercell.


 Subroutine GETGRP returns: Found  1 space group operations
 (whereof  1 operations were pure point group operations)
 out of a pool of  4 trial point group operations.


The dynamic configuration has the point symmetry C_1 .


 Subroutine INISYM returns: Found  1 space group operations
 (whereof  1 operations are pure point group operations),
 and found     1 'primitive' translations


----------------------------------------------------------------------------------------

                                     Primitive cell                                     

  volume of cell :    1268.8052

  direct lattice vectors                    reciprocal lattice vectors
     0.000000000 12.280473417  0.000000000     0.000000000  0.081430085 -0.019947423
     9.142702054  0.000000000  0.000000000     0.109376855 -0.000000000  0.000000000
     0.000000000 -2.768261773-11.300697718     0.000000000  0.000000000 -0.088490111

  length of vectors
    12.280473417  9.142702054 11.634820246     0.083837691  0.109376855  0.088490111

  position of ions in fractional coordinates (direct lattice)
     0.660344003  0.998942972  0.158795009
     0.658684503  0.998483184  0.655854327
     0.660786676  0.331141618  0.158839783
     0.657897883  0.332180001  0.656279468
     0.660916959  0.665973120  0.158377485
     0.658263660  0.664866024  0.657710602
     0.848961018  0.162681907  0.344621402
     0.837457884  0.164992961  0.840681895
     0.841427353  0.498370456  0.345642706
     0.840542642  0.499161010  0.842649261
     0.845179516  0.831748913  0.345766196
     0.839633699  0.830545475  0.841915231
     0.593271025  0.166927708  0.397317348
     0.590667910  0.164806611  0.898708033
     0.590471111  0.499165090  0.398215520
     0.591385189  0.498463941  0.899497519
     0.594262687  0.832334641  0.398702710
     0.591365449  0.831287097  0.899316856
     0.902198825  0.996067194  0.098830724
     0.910012106  0.997789446  0.600840494
     0.903937983  0.337584547  0.099465372
     0.909395372  0.330794149  0.602977254
     0.908667058  0.665735535  0.102795655
     0.909820485  0.664669455  0.604183505
     0.159563284  0.161277590  0.651345043
     0.159055822  0.502954470  0.168629259
     0.159266448  0.497406181  0.660468994
     0.156675630  0.834715113  0.173263060
     0.159296510  0.833206192  0.653629676
     0.345157719  0.003200355  0.344147441
     0.340781162  0.998662507  0.845392816
     0.339453692  0.330935749  0.342533559
     0.340811284  0.330494896  0.846034965
     0.343291467  0.665383832  0.348371173
     0.339542371  0.664915899  0.845623343
     0.114445618  0.990035847  0.377833483
     0.085535397  0.997997699  0.889924317
     0.090745414  0.329234111  0.399717394
     0.087765044  0.328310311  0.894418036
     0.088049601  0.664903975  0.402623004
     0.093939976  0.664618842  0.903802428
     0.412111135  0.165716320  0.106975012
     0.408269349  0.165113955  0.603604223
     0.411185886  0.500058892  0.103973940
     0.409742291  0.498552595  0.606026115
     0.408852850  0.832999168  0.104148749
     0.409531113  0.832584937  0.605088797
     0.991339648  0.166249860  0.107990377
     0.996998789  0.164583797  0.626197112
     0.996395229  0.498773552  0.127586120
     0.996559511  0.497566498  0.632013618
     0.994587419  0.834652454  0.126988150
     0.996985139  0.831116739  0.631318576
     0.507433758  0.998741702  0.375732528
     0.503419224  0.997713778  0.874739559
     0.504457995  0.332422229  0.374567697
     0.503502047  0.331921868  0.875206825
     0.504801988  0.667409151  0.370538969
     0.502779798  0.664887769  0.876822821
     0.675295829  0.165788515  0.280947429
     0.671235094  0.164808646  0.780338115
     0.674099981  0.498269206  0.282181870
     0.671625009  0.498767193  0.781169956
     0.675604174  0.831889469  0.281608101
     0.671720182  0.830958623  0.781063065
     0.828623702  0.999883844  0.219634534
     0.827236482  0.997131672  0.718303106
     0.829715086  0.330531789  0.220114581
     0.826705665  0.332856159  0.719178810
     0.828945761  0.664658066  0.220872674
     0.827694505  0.664112699  0.720956154
     0.831307102  0.998823140  0.445553123
     0.829101372  0.997682410  0.942840219
     0.835369335  0.328870839  0.445776475
     0.829476274  0.332730300  0.943548075
     0.832432243  0.665030731  0.447994507
     0.832167643  0.664965299  0.946369152
     0.669613104  0.165068766  0.054710017
     0.668456530  0.165995626  0.554846109
     0.669918586  0.498672133  0.055936829
     0.667505116  0.499250639  0.554864046
     0.670698248  0.832292614  0.055331298
     0.668598964  0.830756941  0.555754219
     0.498415826  0.997331270  0.127783589
     0.496609803  0.999394040  0.628981980
     0.498590119  0.333680791  0.127429786
     0.496223226  0.331046273  0.630080342
     0.497480487  0.667495173  0.128246671
     0.496625250  0.665767386  0.630684370
     0.011436387  0.157074982  0.364667157
     0.998827749  0.164199028  0.866030681
     0.002270293  0.497104109  0.376429689
     0.005459351  0.497531427  0.879630262
     0.005142431  0.833557881  0.375724434
     0.003423439  0.829600754  0.876579293
     0.172796646  0.998473003  0.780458082
     0.176376672  0.357903237  0.291720521
     0.173180471  0.329703874  0.783256917
     0.174201810  0.667227853  0.288470665
     0.172338159  0.664520035  0.784054616
     0.338326567  0.164809528  0.227749452
     0.327596686  0.164519053  0.721699518
     0.327280314  0.501159822  0.218117950
     0.327955062  0.497649359  0.723105760
     0.323503851  0.840626689  0.219491513
     0.327691013  0.831294322  0.722096405
     0.328931426  0.165422804  0.447380249
     0.332752209  0.164371754  0.950066653
     0.339776548  0.499605486  0.448709825
     0.328713168  0.497150339  0.949205933
     0.336685942  0.833985016  0.447070525
     0.328419119  0.832885662  0.948668151
     0.152181561  0.018414038  0.054915849
     0.167053242  0.996264119  0.550610358
     0.154669893  0.305595095  0.059534099
     0.167656195  0.332549918  0.556909768
     0.164861106  0.668734229  0.062641317
     0.169270067  0.662543649  0.557650260
     0.137413016  0.160314130  0.141628191

  ion indices of the primitive-cell ions
   primitive index   ion index
                 1           1
                 2           2
                 3           3
                 4           4
                 5           5
                 6           6
                 7           7
                 8           8
                 9           9
                10          10
                11          11
                12          12
                13          13
                14          14
                15          15
                16          16
                17          17
                18          18
                19          19
                20          20
                21          21
                22          22
                23          23
                24          24
                25          25
                26          26
                27          27
                28          28
                29          29
                30          30
                31          31
                32          32
                33          33
                34          34
                35          35
                36          36
                37          37
                38          38
                39          39
                40          40
                41          41
                42          42
                43          43
                44          44
                45          45
                46          46
                47          47
                48          48
                49          49
                50          50
                51          51
                52          52
                53          53
                54          54
                55          55
                56          56
                57          57
                58          58
                59          59
                60          60
                61          61
                62          62
                63          63
                64          64
                65          65
                66          66
                67          67
                68          68
                69          69
                70          70
                71          71
                72          72
                73          73
                74          74
                75          75
                76          76
                77          77
                78          78
                79          79
                80          80
                81          81
                82          82
                83          83
                84          84
                85          85
                86          86
                87          87
                88          88
                89          89
                90          90
                91          91
                92          92
                93          93
                94          94
                95          95
                96          96
                97          97
                98          98
                99          99
               100         100
               101         101
               102         102
               103         103
               104         104
               105         105
               106         106
               107         107
               108         108
               109         109
               110         110
               111         111
               112         112
               113         113
               114         114
               115         115
               116         116
               117         117
               118         118
               119         119

----------------------------------------------------------------------------------------

 
 
 KPOINTS: Automatic mesh                          

Automatic generation of k-mesh.
 Grid dimensions read from file:
 generate k-points for:    2    2    2

 Generating k-lattice:

  Cartesian coordinates                     Fractional coordinates (reciprocal lattice)
     0.000000000  0.040715043 -0.009973711     0.500000000  0.000000000  0.000000000
     0.054688428 -0.000000000  0.000000000     0.000000000  0.500000000  0.000000000
     0.000000000  0.000000000 -0.044245056     0.000000000  0.000000000  0.500000000

  Length of vectors
     0.041918846  0.054688428  0.044245056

  Shift w.r.t. Gamma in fractional coordinates (k-lattice)
     0.000000000  0.000000000  0.000000000

 
 Subroutine IBZKPT returns following result:
 ===========================================
 
 Found      8 irreducible k-points:
 
 Following reciprocal coordinates:
            Coordinates               Weight
  0.000000  0.000000  0.000000      1.000000
  0.500000  0.000000  0.000000      1.000000
  0.000000  0.500000  0.000000      1.000000
  0.500000  0.500000  0.000000      1.000000
  0.000000  0.000000  0.500000      1.000000
  0.500000  0.000000  0.500000      1.000000
  0.000000  0.500000  0.500000      1.000000
  0.500000  0.500000  0.500000      1.000000
 
 Following cartesian coordinates:
            Coordinates               Weight
  0.000000  0.000000 -0.000000      1.000000
  0.000000  0.040715 -0.009974      1.000000
  0.054688  0.000000 -0.000000      1.000000
  0.054688  0.040715 -0.009974      1.000000
  0.000000  0.000000 -0.044245      1.000000
  0.000000  0.040715 -0.054219      1.000000
  0.054688  0.000000 -0.044245      1.000000
  0.054688  0.040715 -0.054219      1.000000
 
 
 Subroutine IBZKPT_HF returns following result:
 ==============================================
 
 Found      8 k-points in 1st BZ
 the following      8 k-points will be used (e.g. in the exchange kernel)
 Following reciprocal coordinates:   # in IRBZ
  0.000000  0.000000  0.000000    0.12500000   1 t-inv F
  0.500000  0.000000  0.000000    0.12500000   2 t-inv F
  0.000000  0.500000  0.000000    0.12500000   3 t-inv F
  0.500000  0.500000  0.000000    0.12500000   4 t-inv F
  0.000000  0.000000  0.500000    0.12500000   5 t-inv F
  0.500000  0.000000  0.500000    0.12500000   6 t-inv F
  0.000000  0.500000  0.500000    0.12500000   7 t-inv F
  0.500000  0.500000  0.500000    0.12500000   8 t-inv F


--------------------------------------------------------------------------------------------------------




 Dimension of arrays:
   k-points           NKPTS =      8   k-points in BZ     NKDIM =      8   number of bands    NBANDS=    625
   number of dos      NEDOS =    301   number of ions     NIONS =    119
   non local maximal  LDIM  =      6   non local SUM 2l+1 LMDIM =     18
   total plane-waves  NPLWV = 184320
   max r-space proj   IRMAX =   1800   max aug-charges    IRDMAX=   5704
   dimension x,y,z NGX =    64 NGY =   48 NGZ =   60
   dimension x,y,z NGXF=   128 NGYF=   96 NGZF=  120
   support grid    NGXF=   128 NGYF=   96 NGZF=  120
   ions per type =              47  71   1
   NGX,Y,Z   is equivalent  to a cutoff of   8.66,  8.73,  8.57 a.u.
   NGXF,Y,Z  is equivalent  to a cutoff of  17.33, 17.46, 17.15 a.u.

 SYSTEM =  unknown system                          
 POSCAR =  Ga48 O72                                

 Startparameter for this run:
   NWRITE =      2    write-flag & timer
   PREC   = normal    normal or accurate (medium, high low for compatibility)
   ISTART =      0    job   : 0-new  1-cont  2-samecut
   ICHARG =      0    charge: 1-file 2-atom 10-const
   ISPIN  =      1    spin polarized calculation?
   LNONCOLLINEAR =      F non collinear calculations
   LSORBIT =      F    spin-orbit coupling
   INIWAV =      1    electr: 0-lowe 1-rand  2-diag
   LASPH  =      F    aspherical Exc in radial PAW
 Electronic Relaxation 1
   ENCUT  =  450.0 eV  33.07 Ry    5.75 a.u.  21.24 15.81 20.12*2*pi/ulx,y,z
   ENINI  =  450.0     initial cutoff
   ENAUG  =  605.4 eV  augmentation charge cutoff
   NELM   =    500;   NELMIN=  2; NELMDL= -5     # of ELM steps 
   EDIFF  = 0.1E-04   stopping-criterion for ELM
   LREAL  =      T    real-space projection
   NLSPLINE    = F    spline interpolate recip. space projectors
   LCOMPAT=      F    compatible to vasp.4.4
   GGA_COMPAT  = T    GGA compatible to vasp.4.4-vasp.4.6
   LMAXPAW     = -100 max onsite density
   LMAXMIX     =    2 max onsite mixed and CHGCAR
   VOSKOWN=      0    Vosko Wilk Nusair interpolation
   ROPT   =   -0.00050  -0.00050  -0.00050
 Ionic relaxation
   EDIFFG = -.5E-02   stopping-criterion for IOM
   NSW    =      0    number of steps for IOM
   NBLOCK =      1;   KBLOCK =      1    inner block; outer block 
   IBRION =     -1    ionic relax: 0-MD 1-quasi-New 2-CG
   NFREE  =      0    steps in history (QN), initial steepest desc. (CG)
   ISIF   =      2    stress and relaxation
   IWAVPR =     10    prediction:  0-non 1-charg 2-wave 3-comb
   ISYM   =      3    0-nonsym 1-usesym 2-fastsym
   LCORR  =      T    Harris-Foulkes like correction to forces

   POTIM  = 0.5000    time-step for ionic-motion
   TEIN   =    0.0    initial temperature
   TEBEG  =    0.0;   TEEND  =   0.0 temperature during run
   SMASS  =  -3.00    Nose mass-parameter (am)
   estimated Nose-frequenzy (Omega)   =  0.10E-29 period in steps = 0.13E+47 mass=  -0.345E-26a.u.
   SCALEE = 1.0000    scale energy and forces
   NPACO  =    256;   APACO  = 10.0  distance and # of slots for P.C.
   PSTRESS=    0.0 pullay stress

  Mass of Ions in am
   POMASS =  69.72 16.00 30.97
  Ionic Valenz
   ZVAL   =  13.00  6.00  5.00
  Atomic Wigner-Seitz radii
   RWIGS  =  -1.00 -1.00 -1.00
  virtual crystal weights 
   VCA    =   1.00  1.00  1.00
   NELECT =    1042.0000    total number of electrons
   NUPDOWN=      -1.0000    fix difference up-down

 DOS related values:
   EMIN   =  10.00;   EMAX   =-10.00  energy-range for DOS
   EFERMI =   0.00;   METHOD = LEGACY      
   ISMEAR =     0;   SIGMA  =   0.05  broadening in eV -4-tet -1-fermi 0-gaus

 Electronic relaxation 2 (details)
   IALGO  =     58    algorithm
   LDIAG  =      T    sub-space diagonalisation (order eigenvalues)
   LSUBROT=      F    optimize rotation matrix (better conditioning)
   TURBO    =      0    0=normal 1=particle mesh
   IRESTART =      0    0=no restart 2=restart with 2 vectors
   NREBOOT  =      0    no. of reboots
   NMIN     =      0    reboot dimension
   EREF     =   0.00    reference energy to select bands
   IMIX   =      4    mixing-type and parameters
     AMIX     =   0.40;   BMIX     =  1.00
     AMIX_MAG =   1.60;   BMIX_MAG =  1.00
     AMIN     =   0.10
     WC   =   100.;   INIMIX=   1;  MIXPRE=   1;  MAXMIX= -45

 Intra band minimization:
   WEIMIN = 0.0000     energy-eigenvalue tresh-hold
   EBREAK =  0.40E-08  absolut break condition
   DEPER  =   0.30     relativ break condition  

   TIME   =   0.40     timestep for ELM

  volume/ion in A,a.u.               =      10.66        71.95
  Fermi-wavevector in a.u.,A,eV,Ry     =   1.533083  2.897107 31.978378  2.350344
  Thomas-Fermi vector in A             =   2.640200
 
 Write flags
   LWAVE        =      T    write WAVECAR
   LDOWNSAMPLE  =      F    k-point downsampling of WAVECAR
   LCHARG       =      T    write CHGCAR
   LVTOT        =      F    write LOCPOT, total local potential
   LVHAR        =      F    write LOCPOT, Hartree potential only
   LELF         =      F    write electronic localiz. function (ELF)
   LORBIT       =      0    0 simple, 1 ext, 2 COOP (PROOUT), +10 PAW based schemes


 Dipole corrections
   LMONO  =      F    monopole corrections only (constant potential shift)
   LDIPOL =      F    correct potential (dipole corrections)
   IDIPOL =      0    1-x, 2-y, 3-z, 4-all directions 
   EPSILON=  1.0000000 bulk dielectric constant

 Exchange correlation treatment:
   GGA     =    --    GGA type
   LEXCH   =     8    internal setting for exchange type
   LIBXC   =     F    Libxc                    
   VOSKOWN =     0    Vosko Wilk Nusair interpolation
   EXXOEP  =     0    0=HF, 1=EXX-LHF (local Hartree Fock) 2=EXX OEP
   LHFCALC =     T    Hartree Fock is set to
   LSYMGRAD=     F    symmetrize gradient (conserves proper symmetry)
   PRECFOCK=fast      Normal, Fast or Accurate (Low or Medium for compatibility)
   LRHFCALC=     F    long range Hartree Fock
   LRSCOR  =     F    long range correlation only (use DFT for short range part)
   LTHOMAS =     F    Thomas Fermi screening in HF
   LMODELHF=     F    short range full HF, long range fraction AEXX
   FOCKCORR=     1    mode to apply convergence corrections
   LFOCKACE=     T    use Adeptively-Compressed-Exchange operator
   ENCUT4O =  -1.0   cutoff for four orbital integrals eV
   LMAXFOCK=     4    L truncation for augmentation on plane wave grid
   LMAXFOCKAE=  -1    L truncation for all-electron charge restoration on plane wave grid
   NMAXFOCKAE=   1    number of basis functions for all-electron charge restoration
   LFOCKAEDFT=     F  apply the AE augmentation even for DFT
   NKREDX  =     1    reduce k-point grid by
   NKREDY  =     1    reduce k-point grid by
   NKREDZ  =     1    reduce k-point grid by
   SHIFTRED=     F    shift reduced grid of Gamma
   HFKIDENT=     F    idential grid for each k-point
   ODDONLY =     F    use only odd q-grid points
   EVENONLY=     F    use only even q-grid points
   HFALPHA =   -1.0000 decay constant for conv. correction
   MCALPHA =    0.0000 extent of test-charge in conv. correction in multipole expansion
   AEXX    =    0.3500 exact exchange contribution
   HFSCREEN=    0.1800 screening length (either q_TF or 0.3 A-1)
   HFSCREENC=   0.1800 screening length for correlation (either q_TF or 0.3 A-1)
   HFRCUT  =    0.0000 spherical cutoff for potential kernel
   ALDAX   =    0.6500 LDA exchange part
   AGGAX   =    0.6500 GGA exchange part
   ALDAC   =    1.0000 LDA correlation
   AGGAC   =    1.0000 GGA correlation
   ENCUTFOCK=  -1.0 apply spherical cutoff to Coloumb kernel
   NBANDSGWLOW=     1    first orbital included in HF term
   NBLOCK_FOCK=    64    blocking factor in FOCK_ACC

 Linear response parameters
   LEPSILON=     F    determine dielectric tensor
   LRPA    =     F    only Hartree local field effects (RPA)
   LNABLA  =     F    use nabla operator in PAW spheres
   LVEL    =     F    velocity operator in full k-point grid
   CSHIFT  =0.1000    complex shift for real part using Kramers Kronig
   OMEGAMAX=  -1.0    maximum frequency
   DEG_THRESHOLD= 0.2000000E-02 threshold for treating states as degnerate
   RTIME   =   -0.100 relaxation time in fs
  (WPLASMAI=    0.000 imaginary part of plasma frequency in eV, 0.658/RTIME)
   DFIELD  = 0.0000000 0.0000000 0.0000000 field for delta impulse in time
 
  Optional k-point grid parameters
   LKPOINTS_OPT  =     F    use optional k-point grid
   KPOINTS_OPT_MODE=     1    mode for optional k-point grid
 
 Orbital magnetization related:
   ORBITALMAG=     F  switch on orbital magnetization
   LCHIMAG   =     F  perturbation theory with respect to B field
   DQ        =  0.001000  dq finite difference perturbation B field
   LLRAUG    =     F  two centre corrections for induced B field
   LBONE     =     F  B-component reconstruction in AE one-centre
   LVGVCALC  =     T  calculate vGv susceptibility
   LVGVAPPL  =     F  apply vGv susceptibility instead of pGv for G=0

 Random number generation:
   RANDOM_GENERATOR = DEFAULT
   PCG_SEED         = not used


--------------------------------------------------------------------------------------------------------


 Static calculation
 charge density and potential will be updated during run
 non-spin polarized calculation
 Conjugate gradient for all bands (Freysoldt, et al. PRB 79, 241103 (2009))
 preconditioned conjugated gradient                                        
 perform sub-space diagonalisation
    before iterative eigenvector-optimisation
 modified Broyden-mixing scheme, WC =      100.0
 initial mixing is a Kerker type mixing with AMIX =  0.4000 and BMIX =      1.0000
 Hartree-type preconditioning will be used
 using additional bands           104
 real space projection scheme for non local part
 use partial core corrections
 no Harris-corrections to forces 
 use gradient corrections 
 use of overlap-Matrix (Vanderbilt PP)
 Gauss-broadening in eV      SIGMA  =   0.05


--------------------------------------------------------------------------------------------------------


  energy-cutoff  :      450.00
  volume of cell :     1268.81
      direct lattice vectors                 reciprocal lattice vectors
     0.000000000 12.280473417  0.000000000     0.000000000  0.081430085 -0.019947423
     9.142702054  0.000000000  0.000000000     0.109376855 -0.000000000  0.000000000
     0.000000000 -2.768261773-11.300697718     0.000000000  0.000000000 -0.088490111

  length of vectors
    12.280473417  9.142702054 11.634820246     0.083837691  0.109376855  0.088490111


 
 k-points in units of 2pi/SCALE and weight: Automatic mesh                          
   0.00000000  0.00000000 -0.00000000       0.125
   0.00000000  0.04071504 -0.00997371       0.125
   0.05468843  0.00000000 -0.00000000       0.125
   0.05468843  0.04071504 -0.00997371       0.125
   0.00000000  0.00000000 -0.04424506       0.125
   0.00000000  0.04071504 -0.05421877       0.125
   0.05468843  0.00000000 -0.04424506       0.125
   0.05468843  0.04071504 -0.05421877       0.125
 
 k-points in reciprocal lattice and weights: Automatic mesh                          
   0.00000000  0.00000000  0.00000000       0.125
   0.50000000  0.00000000  0.00000000       0.125
   0.00000000  0.50000000  0.00000000       0.125
   0.50000000  0.50000000  0.00000000       0.125
   0.00000000  0.00000000  0.50000000       0.125
   0.50000000  0.00000000  0.50000000       0.125
   0.00000000  0.50000000  0.50000000       0.125
   0.50000000  0.50000000  0.50000000       0.125
 
 position of ions in fractional coordinates (direct lattice) 
   0.66034400  0.99894297  0.15879501
   0.65868450  0.99848318  0.65585433
   0.66078668  0.33114162  0.15883978
   0.65789788  0.33218000  0.65627947
   0.66091696  0.66597312  0.15837748
   0.65826366  0.66486602  0.65771060
   0.84896102  0.16268191  0.34462140
   0.83745788  0.16499296  0.84068190
   0.84142735  0.49837046  0.34564271
   0.84054264  0.49916101  0.84264926
   0.84517952  0.83174891  0.34576620
   0.83963370  0.83054547  0.84191523
   0.59327103  0.16692771  0.39731735
   0.59066791  0.16480661  0.89870803
   0.59047111  0.49916509  0.39821552
   0.59138519  0.49846394  0.89949752
   0.59426269  0.83233464  0.39870271
   0.59136545  0.83128710  0.89931686
   0.90219882  0.99606719  0.09883072
   0.91001211  0.99778945  0.60084049
   0.90393798  0.33758455  0.09946537
   0.90939537  0.33079415  0.60297725
   0.90866706  0.66573554  0.10279565
   0.90982048  0.66466945  0.60418350
   0.15956328  0.16127759  0.65134504
   0.15905582  0.50295447  0.16862926
   0.15926645  0.49740618  0.66046899
   0.15667563  0.83471511  0.17326306
   0.15929651  0.83320619  0.65362968
   0.34515772  0.00320035  0.34414744
   0.34078116  0.99866251  0.84539282
   0.33945369  0.33093575  0.34253356
   0.34081128  0.33049490  0.84603497
   0.34329147  0.66538383  0.34837117
   0.33954237  0.66491590  0.84562334
   0.11444562  0.99003585  0.37783348
   0.08553540  0.99799770  0.88992432
   0.09074541  0.32923411  0.39971739
   0.08776504  0.32831031  0.89441804
   0.08804960  0.66490397  0.40262300
   0.09393998  0.66461884  0.90380243
   0.41211114  0.16571632  0.10697501
   0.40826935  0.16511396  0.60360422
   0.41118589  0.50005889  0.10397394
   0.40974229  0.49855259  0.60602611
   0.40885285  0.83299917  0.10414875
   0.40953111  0.83258494  0.60508880
   0.99133965  0.16624986  0.10799038
   0.99699879  0.16458380  0.62619711
   0.99639523  0.49877355  0.12758612
   0.99655951  0.49756650  0.63201362
   0.99458742  0.83465245  0.12698815
   0.99698514  0.83111674  0.63131858
   0.50743376  0.99874170  0.37573253
   0.50341922  0.99771378  0.87473956
   0.50445799  0.33242223  0.37456770
   0.50350205  0.33192187  0.87520682
   0.50480199  0.66740915  0.37053897
   0.50277980  0.66488777  0.87682282
   0.67529583  0.16578852  0.28094743
   0.67123509  0.16480865  0.78033812
   0.67409998  0.49826921  0.28218187
   0.67162501  0.49876719  0.78116996
   0.67560417  0.83188947  0.28160810
   0.67172018  0.83095862  0.78106306
   0.82862370  0.99988384  0.21963453
   0.82723648  0.99713167  0.71830311
   0.82971509  0.33053179  0.22011458
   0.82670567  0.33285616  0.71917881
   0.82894576  0.66465807  0.22087267
   0.82769450  0.66411270  0.72095615
   0.83130710  0.99882314  0.44555312
   0.82910137  0.99768241  0.94284022
   0.83536934  0.32887084  0.44577647
   0.82947627  0.33273030  0.94354808
   0.83243224  0.66503073  0.44799451
   0.83216764  0.66496530  0.94636915
   0.66961310  0.16506877  0.05471002
   0.66845653  0.16599563  0.55484611
   0.66991859  0.49867213  0.05593683
   0.66750512  0.49925064  0.55486405
   0.67069825  0.83229261  0.05533130
   0.66859896  0.83075694  0.55575422
   0.49841583  0.99733127  0.12778359
   0.49660980  0.99939404  0.62898198
   0.49859012  0.33368079  0.12742979
   0.49622323  0.33104627  0.63008034
   0.49748049  0.66749517  0.12824667
   0.49662525  0.66576739  0.63068437
   0.01143639  0.15707498  0.36466716
   0.99882775  0.16419903  0.86603068
   0.00227029  0.49710411  0.37642969
   0.00545935  0.49753143  0.87963026
   0.00514243  0.83355788  0.37572443
   0.00342344  0.82960075  0.87657929
   0.17279665  0.99847300  0.78045808
   0.17637667  0.35790324  0.29172052
   0.17318047  0.32970387  0.78325692
   0.17420181  0.66722785  0.28847066
   0.17233816  0.66452003  0.78405462
   0.33832657  0.16480953  0.22774945
   0.32759669  0.16451905  0.72169952
   0.32728031  0.50115982  0.21811795
   0.32795506  0.49764936  0.72310576
   0.32350385  0.84062669  0.21949151
   0.32769101  0.83129432  0.72209640
   0.32893143  0.16542280  0.44738025
   0.33275221  0.16437175  0.95006665
   0.33977655  0.49960549  0.44870982
   0.32871317  0.49715034  0.94920593
   0.33668594  0.83398502  0.44707053
   0.32841912  0.83288566  0.94866815
   0.15218156  0.01841404  0.05491585
   0.16705324  0.99626412  0.55061036
   0.15466989  0.30559509  0.05953410
   0.16765620  0.33254992  0.55690977
   0.16486111  0.66873423  0.06264132
   0.16927007  0.66254365  0.55765026
   0.13741302  0.16031413  0.14162819
 
 position of ions in cartesian coordinates  (Angst):
   9.13303796  7.66975083 -1.79449439
   9.12883426  6.27338107 -7.41161149
   3.02752915  7.67506311 -1.79500038
   3.03702278  6.26254410 -7.41641589
   6.08879381  7.67794281 -1.78977608
   6.07867196  6.26307427 -7.43258870
   1.48735221  9.47164096 -3.89446230
   1.50848148  7.95715172 -9.50029197
   4.55645259  9.37629675 -3.90600374
   4.56368039  7.98958784 -9.52252458
   7.60443249  9.42203324 -3.90739926
   7.59342982  7.98045757 -9.51422953
   1.52617030  6.18577063 -4.48996325
   1.50677774  4.76582247-10.15602782
   4.56371770  6.14889997 -4.50011322
   4.55730730  4.77244550-10.16494956
   7.60978763  6.19411366 -4.50561880
   7.60021025  4.77270321-10.16290794
   9.10674558 10.80583937 -1.11685614
   9.12249161  9.51209570 -6.78991680
   3.08643493 10.82544018 -1.12402810
   3.02435235  9.49860682 -6.81406368
   6.08662164 10.87429637 -1.16166262
   6.07687479  9.50048818 -6.82769516
   1.47451296  0.15641909 -7.36065344
   4.59836287  1.48647086 -1.90562828
   4.54763652  0.12751631 -7.46376045
   7.63155157  1.44441340 -1.95799347
   7.61775596  0.14681851 -7.38647139
   0.02925989  3.28600999 -3.88910620
   9.13047376  1.84468538 -9.55352867
   3.02564696  3.22042949 -3.87086821
   3.02161637  1.84327766 -9.56078540
   6.08340613  3.25139914 -3.93683732
   6.07912795  1.82883429 -9.55613378
   9.05160278  0.35950438 -4.26978198
   9.12439561 -1.41312830-10.05676570
   3.01008939  0.00787426 -4.51708544
   3.00164335 -1.39818696-10.10754786
   6.07901894 -0.03327509 -4.54992086
   6.07641205 -1.34833433-10.21359804
   1.51509493  4.76478500 -1.20889228
   1.50958770  3.34280639 -6.82114887
   4.57188946  4.76173026 -1.17497806
   4.55811783  3.35419038 -6.84851793
   7.61586320  4.73259556 -1.17695353
   7.61207601  3.35419176 -6.83792559
   1.51997294 11.87517456 -1.22036660
   1.50474062 10.51013959 -7.07646428
   4.56013797 11.88301335 -1.44181217
   4.54910225 10.48864345 -7.14219485
   7.63097871 11.86246791 -1.43505470
   7.59865272 10.49579441 -7.13434040
   9.13119781  5.19140079 -4.24603972
   9.12179981  3.76071831 -9.88516734
   3.03923740  5.15808156 -4.23287632
   3.03466275  3.76044191 -9.89044777
   6.10192301  5.17345853 -4.18734888
   6.07887077  3.74709885 -9.90870966
   1.51575500  7.51521644 -3.17490197
   1.50679634  6.08290456 -8.81836516
   4.55552689  7.49711361 -3.18885201
   4.56007984  6.08539014 -8.82776554
   7.60571756  7.51717416 -3.18236802
   7.59720711  6.08685481 -8.82655760
   9.14164007  9.56788546 -2.48202348
   9.11647779  8.17040460 -8.11732627
   3.02195366  9.57995927 -2.48744835
   3.04320469  8.16146174 -8.12722234
   6.07677067  9.56841300 -2.49601532
   6.07178453  8.16868500 -8.14730756
   9.13194237  8.97543709 -5.03506116
   9.12151302  7.57172882-10.65475232
   3.00676810  9.02470494 -5.03758519
   3.04205399  7.57437327-10.66275158
   6.08017783  8.98249597 -5.06265050
   6.07957961  7.59961507-10.69463172
   1.50917455  8.07171427 -0.61826136
   1.51764855  6.67300338 -6.27014815
   4.55921073  8.07206960 -0.63212520
   4.56449984  6.66126991 -6.27035085
   7.60940339  8.08332049 -0.62528228
   7.59536319  6.67223865 -6.28041043
   9.11830265  5.76704387 -1.44404371
   9.13716194  4.35741671 -7.10793523
   3.05074405  5.77016369 -1.44004550
   3.02665744  4.34962882 -7.12034749
   6.10270949  5.75427554 -1.44927686
   6.08691285  4.35289374 -7.12717342
   1.43608976 -0.86904991 -4.12099331
   1.50122279  9.86867799 -9.78675094
   4.54487476 -1.01417564 -4.25391813
   4.54878160 -2.36800341 -9.94043570
   7.62097135 -0.97695210 -4.24594825
   7.58479252 -2.38455949 -9.90595762
   9.12874117 -0.03848765 -8.81972087
   3.27220266  1.35843027 -3.29664543
   3.01438429 -0.04152201 -8.85134965
   6.10026546  1.34071839 -3.25991978
   6.07550868 -0.05407423 -8.86036421
   1.50680441  3.52434031 -2.57372771
   1.50414869  2.02518921 -8.15570810
   4.58195493  3.41534962 -2.46488502
   4.54985982  2.02569739 -8.17159961
   7.68559935  3.36517048 -2.48040724
   7.60027630  2.02524890 -8.16019319
   1.51241141  2.80096800 -5.05570896
   1.50280197  1.45632146-10.73641605
   4.56774411  2.93047061 -5.07073410
   4.54529743  1.40910283-10.72668932
   7.62487652  2.89705451 -5.05220887
   7.61482545  1.40698048-10.72061201
   0.16835406  1.71684017 -0.62058740
   9.10854601  0.52725929 -6.22228122
   2.79396490  1.73461354 -0.67277686
   3.04040482  0.51722543 -6.29346895
   6.11403781  1.85116487 -0.70789059
   6.05743918  0.53499466 -6.30183702
   1.46570433  1.29543299 -1.60049737
 


--------------------------------------------------------------------------------------------------------


 k-point   1 :   0.0000 0.0000 0.0000  plane waves:   27533
 k-point   2 :   0.5000 0.0000 0.0000  plane waves:   27522
 k-point   3 :   0.0000 0.5000 0.0000  plane waves:   27488
 k-point   4 :   0.5000 0.5000 0.0000  plane waves:   27488
 k-point   5 :   0.0000 0.0000 0.5000  plane waves:   27482
 k-point   6 :   0.5000 0.0000 0.5000  plane waves:   27476
 k-point   7 :   0.0000 0.5000 0.5000  plane waves:   27468
 k-point   8 :   0.5000 0.5000 0.5000  plane waves:   27564

 maximum and minimum number of plane-waves per node :     27564    27468

 maximum number of plane-waves:     27564
 maximum index in each direction: 
   IXMAX=   21   IYMAX=   15   IZMAX=   20
   IXMIN=  -21   IYMIN=  -16   IZMIN=  -20


 serial   3D FFT for wavefunctions
 parallel 3D FFT for charge:
    minimum data exchange during FFTs selected (reduces bandwidth)


 FFT grid for exact exchange (Hartree Fock) 
  NGX = 48; NGY = 36; NGZ = 48

 
 Radii for the augmentation spheres in the non-local exchange
 for species   1 augmentation radius   1.392 (default was   1.031)
       energy cutoff for augmentation   1800.0
 for species   2 augmentation radius   0.974 (default was   0.722)
       energy cutoff for augmentation   1800.0
 for species   3 augmentation radius   1.294 (default was   0.959)
       energy cutoff for augmentation   1800.0
 Maximum index for augmentation-charges in exchange           749
  SETUP_FOCK is finished

 total amount of memory used by VASP MPI-rank0  7175161. kBytes
=======================================================================

   base      :      30000. kBytes
   nonlr-proj:      32492. kBytes
   fftplans  :      51012. kBytes
   grid      :     102973. kBytes
   one-center:       1850. kBytes
   HF        :        194. kBytes
   wavefun   :    6956640. kBytes
 
     INWAV:  cpu time      0.0001: real time      0.0001
 Broyden mixing: mesh for mixing (old mesh)
   NGX = 43   NGY = 31   NGZ = 41
  (NGX  =128   NGY  = 96   NGZ  =120)
  gives a total of  54653 points

 charge density for first step will be calculated from the start-wavefunctions


--------------------------------------------------------------------------------------------------------


 Maximum index for non-local projection operator          1715
 Maximum index for augmentation-charges          5363 (set IRDMAX)


--------------------------------------------------------------------------------------------------------


 initial charge from wavefunction
 First call to EWALD:  gamma=   0.164
 Maximum number of real-space cells 3x 3x 3
 Maximum number of reciprocal cells 3x 2x 3

    FEWALD:  cpu time      0.0734: real time      0.0734


--------------------------------------- Ionic step        1  -------------------------------------------




--------------------------------------- Iteration      1(   1)  ---------------------------------------


    POTLOK:  cpu time      0.0505: real time      0.0505
    SETDIJ:  cpu time      0.1166: real time      0.1166
    TRIAL :  cpu time      2.8560: real time      2.8637
    CORREC:  cpu time      0.0014: real time      0.0014
    --------------------------------------------
      LOOP:  cpu time      3.9172: real time      3.9247

 eigenvalue-minimisations  : 10448
 total energy-change (2. order) :-0.2138179E+05  (-0.5445035E+05)
 number of electron    1041.9999714 magnetization 
 augmentation part      118.4549476 magnetization 

 Free energy of the ion-electron system (eV)
  ---------------------------------------------------
  alpha Z        PSCENC =      5376.25786726
  Ewald energy   TEWEN  =    -86697.10272022
  -Hartree energ DENC   =     -2071.99327065
  -exchange      EXHF   =         0.00000000
  -V(xc)+E(xc)   XCENC  =      2751.57392285
  PAW double counting   =    329105.94833461  -360418.44441715
  entropy T*S    EENTRO =        -0.00930148
  eigenvalues    EBANDS =    -40887.36664243
  atomic energy  EATOM  =    131459.35058357
  ---------------------------------------------------
  free energy    TOTEN  =    -21381.78564365 eV

  energy without entropy =   -21381.77634217  energy(sigma->0) =   -21381.78099291
  exchange ACFDT corr.  =         0.00000000  see jH, gK, PRB 81, 115126


--------------------------------------------------------------------------------------------------------




--------------------------------------- Iteration      1(   2)  ---------------------------------------


    TRIAL :  cpu time      3.1031: real time      3.1026
    CORREC:  cpu time      0.0016: real time      0.0016
    --------------------------------------------
      LOOP:  cpu time      3.1049: real time      3.1055

 eigenvalue-minimisations  : 13216
 total energy-change (2. order) :-0.4467811E+05  (-0.4315420E+05)
 number of electron    1041.9999714 magnetization 
 augmentation part      118.4549476 magnetization 

 Free energy of the ion-electron system (eV)
  ---------------------------------------------------
  alpha Z        PSCENC =      5376.25786726
  Ewald energy   TEWEN  =    -86697.10272022
  -Hartree energ DENC   =     -2071.99327065
  -exchange      EXHF   =         0.00000000
  -V(xc)+E(xc)   XCENC  =      2751.57392285
  PAW double counting   =    329105.94833461  -360418.44441715
  entropy T*S    EENTRO =        -0.01539454
  eigenvalues    EBANDS =    -85565.46761959
  atomic energy  EATOM  =    131459.35058357
  ---------------------------------------------------
  free energy    TOTEN  =    -66059.89271386 eV

  energy without entropy =   -66059.87731932  energy(sigma->0) =   -66059.88501659
  exchange ACFDT corr.  =         0.00000000  see jH, gK, PRB 81, 115126


--------------------------------------------------------------------------------------------------------




--------------------------------------- Iteration      1(   3)  ---------------------------------------


    TRIAL :  cpu time      3.3156: real time      3.3151
    CORREC:  cpu time      0.0016: real time      0.0016
    --------------------------------------------
      LOOP:  cpu time      3.3173: real time      3.3173

 eigenvalue-minimisations  : 14551
 total energy-change (2. order) :-0.5205109E+04  (-0.4718905E+04)
 number of electron    1041.9999714 magnetization 
 augmentation part      118.4549476 magnetization 

 Free energy of the ion-electron system (eV)
  ---------------------------------------------------
  alpha Z        PSCENC =      5376.25786726
  Ewald energy   TEWEN  =    -86697.10272022
  -Hartree energ DENC   =     -2071.99327065
  -exchange      EXHF   =         0.00000000
  -V(xc)+E(xc)   XCENC  =      2751.57392285
  PAW double counting   =    329105.94833461  -360418.44441715
  entropy T*S    EENTRO =        -0.02784882
  eigenvalues    EBANDS =    -90770.56454246
  atomic energy  EATOM  =    131459.35058357
  ---------------------------------------------------
  free energy    TOTEN  =    -71265.00209101 eV

  energy without entropy =   -71264.97424220  energy(sigma->0) =   -71264.98816661
  exchange ACFDT corr.  =         0.00000000  see jH, gK, PRB 81, 115126


--------------------------------------------------------------------------------------------------------




--------------------------------------- Iteration      1(   4)  ---------------------------------------


    TRIAL :  cpu time      3.7705: real time      3.7700
    CORREC:  cpu time      0.0016: real time      0.0016
    --------------------------------------------
      LOOP:  cpu time      3.7723: real time      3.7724

 eigenvalue-minimisations  : 17728
 total energy-change (2. order) :-0.7256265E+03  (-0.6627126E+03)
 number of electron    1041.9999714 magnetization 
 augmentation part      118.4549476 magnetization 

 Free energy of the ion-electron system (eV)
  ---------------------------------------------------
  alpha Z        PSCENC =      5376.25786726
  Ewald energy   TEWEN  =    -86697.10272022
  -Hartree energ DENC   =     -2071.99327065
  -exchange      EXHF   =         0.00000000
  -V(xc)+E(xc)   XCENC  =      2751.57392285
  PAW double counting   =    329105.94833461  -360418.44441715
  entropy T*S    EENTRO =        -0.05264254
  eigenvalues    EBANDS =    -91496.16621654
  atomic energy  EATOM  =    131459.35058357
  ---------------------------------------------------
  free energy    TOTEN  =    -71990.62855882 eV

  energy without entropy =   -71990.57591628  energy(sigma->0) =   -71990.60223755
  exchange ACFDT corr.  =         0.00000000  see jH, gK, PRB 81, 115126


--------------------------------------------------------------------------------------------------------




--------------------------------------- Iteration      1(   5)  ---------------------------------------


    POTLOK:  cpu time      1.3628: real time      1.3626
    SETDIJ:  cpu time      0.4730: real time      0.4729
    TRIAL :  cpu time    228.5505: real time    228.5217
    CORREC:  cpu time      0.0006: real time      0.0006
    CHARGE:  cpu time      0.2059: real time      0.2059
    --------------------------------------------
      LOOP:  cpu time    230.5930: real time    230.5644

 eigenvalue-minimisations  : 17560
 total energy-change (2. order) : 0.3238144E+05  (-0.6520230E+02)
 number of electron    1041.9999162 magnetization 
 augmentation part      476.8507811 magnetization 

 Free energy of the ion-electron system (eV)
  ---------------------------------------------------
  alpha Z        PSCENC =      5376.25786726
  Ewald energy   TEWEN  =    -86697.10272022
  -Hartree energ DENC   =     -2071.99327065
  -exchange      EXHF   =      5252.59196723
  -V(xc)+E(xc)   XCENC  =      1824.10794632
  PAW double counting   =    330421.72663099  -332415.17524098
  entropy T*S    EENTRO =        -0.00000000
  eigenvalues    EBANDS =    -92758.95601676
  atomic energy  EATOM  =    131459.35058357
  ---------------------------------------------------
  free energy    TOTEN  =    -39609.19225324 eV

  energy without entropy =   -39609.19225324  energy(sigma->0) =   -39609.19225324
  exchange ACFDT corr.  =        -1.77087321  see jH, gK, PRB 81, 115126


--------------------------------------------------------------------------------------------------------




--------------------------------------- Iteration      1(   6)  ---------------------------------------


    POTLOK:  cpu time      1.3623: real time      1.3622
    SETDIJ:  cpu time      0.4645: real time      0.4644
    TRIAL :  cpu time    226.9370: real time    226.9112
    CORREC:  cpu time    229.8736: real time    229.8478
    CHARGE:  cpu time      0.2090: real time      0.2090
    --------------------------------------------
      LOOP:  cpu time    458.8466: real time    458.7952

 eigenvalue-minimisations  :     0
 total energy-change (2. order) : 0.7415734E+05  (-0.2736917E+05)
 number of electron    1041.9998948 magnetization 
 augmentation part      432.3329999 magnetization 

 Free energy of the ion-electron system (eV)
  ---------------------------------------------------
  alpha Z        PSCENC =      5376.25786726
  Ewald energy   TEWEN  =    -86697.10272022
  -Hartree energ DENC   =    -83622.51753170
  -exchange      EXHF   =      5361.11139644
  -V(xc)+E(xc)   XCENC  =      3587.80371080
  PAW double counting   =    150650.36790276  -175339.08097379
  entropy T*S    EENTRO =        -0.02425518
  eigenvalues    EBANDS =     83771.96021683
  atomic energy  EATOM  =    131459.35058357
  ---------------------------------------------------
  free energy    TOTEN  =     34548.15045195 eV

  energy without entropy =    34548.17470713  energy(sigma->0) =    34548.16257954
  exchange ACFDT corr.  =         0.00000000  see jH, gK, PRB 81, 115126


--------------------------------------------------------------------------------------------------------




--------------------------------------- Iteration      1(   7)  ---------------------------------------


    POTLOK:  cpu time      1.5173: real time      1.5172
    SETDIJ:  cpu time      0.4268: real time      0.4268
    TRIAL :  cpu time    227.4820: real time    227.4571
    CORREC:  cpu time    230.1156: real time    230.0862
    CHARGE:  cpu time      0.2036: real time      0.2035
    --------------------------------------------
      LOOP:  cpu time    459.7455: real time    459.6913

 eigenvalue-minimisations  :     0
 total energy-change (2. order) :-0.1883159E+05  (-0.7844282E+04)
 number of electron    1041.9999121 magnetization 
 augmentation part      396.9035437 magnetization 

 Free energy of the ion-electron system (eV)
  ---------------------------------------------------
  alpha Z        PSCENC =      5376.25786726
  Ewald energy   TEWEN  =    -86697.10272022
  -Hartree energ DENC   =    -39665.84012403
  -exchange      EXHF   =      3829.36796493
  -V(xc)+E(xc)   XCENC  =      2606.71445599
  PAW double counting   =    167806.74034905  -183308.64606631
  entropy T*S    EENTRO =        -0.01648160
  eigenvalues    EBANDS =     14309.73947883
  atomic energy  EATOM  =    131459.35058357
  ---------------------------------------------------
  free energy    TOTEN  =     15716.55753388 eV

  energy without entropy =    15716.57401548  energy(sigma->0) =    15716.56577468
  exchange ACFDT corr.  =      -153.20875124  see jH, gK, PRB 81, 115126


--------------------------------------------------------------------------------------------------------




--------------------------------------- Iteration      1(   8)  ---------------------------------------


    POTLOK:  cpu time      1.4822: real time      1.4821
    SETDIJ:  cpu time      0.4248: real time      0.4248
    TRIAL :  cpu time    227.6915: real time    227.6651
    CORREC:  cpu time    229.5659: real time    229.5400
    CHARGE:  cpu time      0.2118: real time      0.2118
    --------------------------------------------
      LOOP:  cpu time    459.3765: real time    459.3301

 eigenvalue-minimisations  :     0
 total energy-change (2. order) :-0.7212971E+04  (-0.3629910E+04)
 number of electron    1041.9999011 magnetization 
 augmentation part      420.5287535 magnetization 

 Free energy of the ion-electron system (eV)
  ---------------------------------------------------
  alpha Z        PSCENC =      5376.25786726
  Ewald energy   TEWEN  =    -86697.10272022
  -Hartree energ DENC   =    -27074.39230687
  -exchange      EXHF   =      3529.65479443
  -V(xc)+E(xc)   XCENC  =      2419.70838493
  PAW double counting   =    157347.83245895  -170107.89700757
  entropy T*S    EENTRO =        -0.03107612
  eigenvalues    EBANDS =     -7749.80940388
  atomic energy  EATOM  =    131459.35058357
  ---------------------------------------------------
  free energy    TOTEN  =      8503.58616899 eV

  energy without entropy =     8503.61724511  energy(sigma->0) =     8503.60170705
  exchange ACFDT corr.  =       -94.72578865  see jH, gK, PRB 81, 115126


--------------------------------------------------------------------------------------------------------




--------------------------------------- Iteration      1(   9)  ---------------------------------------


    POTLOK:  cpu time      1.5296: real time      1.5294
    SETDIJ:  cpu time      0.4144: real time      0.4143
    TRIAL :  cpu time    228.1777: real time    228.1490
    CORREC:  cpu time    229.5152: real time    229.4841
    CHARGE:  cpu time      0.2036: real time      0.2037
    --------------------------------------------
      LOOP:  cpu time    459.8407: real time    459.7810

 eigenvalue-minimisations  :     0
 total energy-change (2. order) :-0.2691481E+04  (-0.3024310E+04)
 number of electron    1041.9999070 magnetization 
 augmentation part      446.3377155 magnetization 

 Free energy of the ion-electron system (eV)
  ---------------------------------------------------
  alpha Z        PSCENC =      5376.25786726
  Ewald energy   TEWEN  =    -86697.10272022
  -Hartree energ DENC   =    -29169.69842177
  -exchange      EXHF   =      3620.82237673
  -V(xc)+E(xc)   XCENC  =      2480.34024135
  PAW double counting   =    149051.17343891  -163626.50870794
  entropy T*S    EENTRO =        -0.01619586
  eigenvalues    EBANDS =     -6682.49887220
  atomic energy  EATOM  =    131459.35058357
  ---------------------------------------------------
  free energy    TOTEN  =      5812.10470957 eV

  energy without entropy =     5812.12090543  energy(sigma->0) =     5812.11280750
  exchange ACFDT corr.  =      -116.48177866  see jH, gK, PRB 81, 115126


--------------------------------------------------------------------------------------------------------




--------------------------------------- Iteration      1(  10)  ---------------------------------------


    POTLOK:  cpu time      1.4626: real time      1.4624
    SETDIJ:  cpu time      0.4966: real time      0.4966
    TRIAL :  cpu time    227.8065: real time    227.7740
    CORREC:  cpu time    229.4433: real time    229.4087
    CHARGE:  cpu time      0.2037: real time      0.2037
    --------------------------------------------
      LOOP:  cpu time    459.4129: real time    459.3457

 eigenvalue-minimisations  :     0
 total energy-change (2. order) :-0.2297085E+04  (-0.2094246E+04)
 number of electron    1041.9999067 magnetization 
 augmentation part      454.4712787 magnetization 

 Free energy of the ion-electron system (eV)
  ---------------------------------------------------
  alpha Z        PSCENC =      5376.25786726
  Ewald energy   TEWEN  =    -86697.10272022
  -Hartree energ DENC   =    -32275.15670630
  -exchange      EXHF   =      3818.66299739
  -V(xc)+E(xc)   XCENC  =      2608.42907961
  PAW double counting   =    148339.75582532  -164784.56266739
  entropy T*S    EENTRO =        -0.01002601
  eigenvalues    EBANDS =     -4330.59817899
  atomic energy  EATOM  =    131459.35058357
  ---------------------------------------------------
  free energy    TOTEN  =      3515.01988439 eV

  energy without entropy =     3515.02991040  energy(sigma->0) =     3515.02489740
  exchange ACFDT corr.  =       -55.73337109  see jH, gK, PRB 81, 115126


--------------------------------------------------------------------------------------------------------




--------------------------------------- Iteration      1(  11)  ---------------------------------------


    POTLOK:  cpu time      1.4446: real time      1.4443
    SETDIJ:  cpu time      0.5033: real time      0.5032
    TRIAL :  cpu time    227.7892: real time    227.7534
    CORREC:  cpu time    229.5846: real time    229.5518
    CHARGE:  cpu time      0.2044: real time      0.2043
    --------------------------------------------
      LOOP:  cpu time    459.5262: real time    459.4576

 eigenvalue-minimisations  :     0
 total energy-change (2. order) :-0.1660245E+04  (-0.1257384E+04)
 number of electron    1041.9999094 magnetization 
[...]
   0.366E+01 0.882E+02 -.897E+02   -.360E+01 -.859E+02 0.911E+02   -.357E-01 -.204E+01 -.131E+01
   0.300E+02 0.147E+03 -.228E+02   -.302E+02 -.146E+03 0.240E+02   0.922E-01 -.761E+00 -.121E+01
   0.943E+01 0.904E+02 -.530E+02   -.941E+01 -.878E+02 0.562E+02   -.203E-01 -.231E+01 -.296E+01
   -.319E+02 0.176E+03 -.632E+01   0.325E+02 -.173E+03 0.891E+01   -.522E+00 -.251E+01 -.244E+01
   -.128E+02 0.904E+02 -.688E+02   0.128E+02 -.876E+02 0.709E+02   0.152E-02 -.244E+01 -.187E+01
   0.122E+02 -.186E+03 0.785E+02   -.116E+02 0.182E+03 -.754E+02   -.440E+00 0.302E+01 -.254E+01
   0.464E+01 -.437E+02 0.690E+00   -.453E+01 0.515E+02 -.434E+01   -.808E-01 -.660E+01 0.308E+01
   0.395E+02 -.751E+02 0.210E+02   -.395E+02 0.831E+02 -.242E+02   0.245E-01 -.679E+01 0.275E+01
   0.260E+01 -.305E+02 0.254E+02   -.266E+01 0.376E+02 -.303E+02   0.426E-01 -.600E+01 0.410E+01
   -.510E+02 -.894E+02 0.289E+02   0.509E+02 0.968E+02 -.312E+02   0.774E-01 -.631E+01 0.205E+01
   -.738E+01 -.369E+02 0.215E+02   0.743E+01 0.442E+02 -.269E+02   -.526E-01 -.619E+01 0.454E+01
   -.160E+01 0.588E+02 -.325E+02   0.170E+01 -.662E+02 0.355E+02   -.819E-01 0.630E+01 -.255E+01
   -.223E+00 0.405E+02 -.572E+01   0.135E+00 -.477E+02 0.938E+01   0.733E-01 0.612E+01 -.310E+01
   0.115E+02 0.595E+02 -.329E+02   -.121E+02 -.688E+02 0.364E+02   0.538E+00 0.782E+01 -.298E+01
   0.125E+01 0.397E+02 -.518E+01   -.110E+01 -.470E+02 0.878E+01   -.129E+00 0.616E+01 -.305E+01
   -.913E+01 0.399E+02 -.430E+02   0.957E+01 -.466E+02 0.480E+02   -.377E+00 0.572E+01 -.424E+01
   -.145E+01 0.405E+02 -.281E+01   0.144E+01 -.480E+02 0.588E+01   0.512E-02 0.634E+01 -.260E+01
   0.631E+00 0.529E+02 0.454E+02   -.831E+00 -.488E+02 -.422E+02   0.172E+00 -.352E+01 -.266E+01
   0.662E+00 0.764E+02 0.369E+02   -.643E+00 -.758E+02 -.317E+02   -.166E-01 -.499E+00 -.441E+01
   0.418E+01 0.720E+02 0.347E+02   -.411E+01 -.706E+02 -.301E+02   -.601E-01 -.121E+01 -.388E+01
   0.383E+01 0.684E+02 0.409E+02   -.417E+01 -.665E+02 -.363E+02   0.287E+00 -.165E+01 -.394E+01
   -.447E+01 0.658E+02 0.355E+02   0.452E+01 -.631E+02 -.313E+02   -.455E-01 -.228E+01 -.356E+01
   -.603E+01 0.719E+02 0.385E+02   0.657E+01 -.704E+02 -.336E+02   -.462E+00 -.126E+01 -.421E+01
   -.966E+01 -.109E+03 -.161E+02   0.899E+01 0.106E+03 0.935E+01   0.566E+00 0.239E+01 0.572E+01
   0.659E+00 -.831E+02 -.377E+02   -.746E+00 0.818E+02 0.337E+02   0.704E-01 0.117E+01 0.337E+01
   0.187E+02 -.101E+03 -.184E+02   -.190E+02 0.985E+02 0.115E+02   0.220E+00 0.240E+01 0.590E+01
   -.191E+01 -.787E+02 -.363E+02   0.215E+01 0.766E+02 0.321E+02   -.203E+00 0.180E+01 0.359E+01
   -.173E+01 -.859E+02 -.287E+02   0.174E+01 0.839E+02 0.232E+02   -.113E-01 0.166E+01 0.461E+01
   0.360E+00 -.809E+02 -.382E+02   -.308E+00 0.788E+02 0.348E+02   -.470E-01 0.180E+01 0.288E+01
   -.939E+01 0.995E+02 0.504E+02   0.961E+01 -.114E+03 -.465E+02   -.182E+00 0.119E+02 -.331E+01
   -.799E+01 0.865E+02 0.811E+02   0.824E+01 -.991E+02 -.761E+02   -.215E+00 0.106E+02 -.415E+01
   0.135E+02 0.102E+03 0.491E+02   -.141E+02 -.115E+03 -.451E+02   0.498E+00 0.105E+02 -.338E+01
   0.139E+02 0.909E+02 0.803E+02   -.148E+02 -.103E+03 -.757E+02   0.755E+00 0.107E+02 -.391E+01
   -.443E+01 0.113E+03 0.548E+02   0.495E+01 -.126E+03 -.509E+02   -.445E+00 0.110E+02 -.332E+01
   -.122E+01 0.964E+02 0.763E+02   0.125E+01 -.109E+03 -.726E+02   -.318E-01 0.106E+02 -.309E+01
   -.381E+00 -.118E+03 -.541E+02   0.369E+00 0.131E+03 0.504E+02   0.116E-01 -.106E+02 0.307E+01
   0.864E+00 -.117E+03 -.753E+02   -.104E+01 0.130E+03 0.722E+02   0.147E+00 -.106E+02 0.263E+01
   0.220E+01 -.114E+03 -.561E+02   -.231E+01 0.126E+03 0.525E+02   0.960E-01 -.106E+02 0.302E+01
   0.202E+01 -.120E+03 -.736E+02   -.196E+01 0.133E+03 0.704E+02   -.523E-01 -.108E+02 0.274E+01
   -.324E+01 -.115E+03 -.562E+02   0.353E+01 0.128E+03 0.527E+02   -.245E+00 -.108E+02 0.301E+01
   0.349E+00 -.116E+03 -.713E+02   -.615E+00 0.129E+03 0.677E+02   0.224E+00 -.107E+02 0.305E+01
   -.295E+01 0.307E+02 0.926E+01   0.311E+01 -.236E+02 -.121E+02   -.134E+00 -.599E+01 0.243E+01
   -.413E+01 0.387E+00 -.306E-01   0.432E+01 0.683E+01 -.386E+01   -.161E+00 -.609E+01 0.329E+01
   0.661E+01 0.290E+02 0.828E+01   -.677E+01 -.219E+02 -.111E+02   0.134E+00 -.596E+01 0.242E+01
   0.650E+01 0.181E+01 0.183E+01   -.662E+01 0.502E+01 -.590E+01   0.105E+00 -.576E+01 0.344E+01
   -.591E+01 0.125E+02 0.142E+02   0.616E+01 -.467E+01 -.179E+02   -.224E+00 -.664E+01 0.315E+01
   -.276E+01 0.107E+01 0.536E+01   0.277E+01 0.567E+01 -.928E+01   -.105E-01 -.569E+01 0.331E+01
   0.608E+02 -.706E+02 -.655E+02   -.680E+02 0.672E+02 0.693E+02   0.612E+01 0.284E+01 -.324E+01
   -.105E+00 -.181E+02 0.319E+02   0.286E+00 0.105E+02 -.270E+02   -.162E+00 0.642E+01 -.417E+01
   0.242E+02 -.164E+02 -.291E+02   -.255E+02 0.109E+02 0.324E+02   0.109E+01 0.469E+01 -.287E+01
   -.423E+00 -.888E+01 0.328E+02   0.213E+01 0.327E+00 -.309E+02   -.145E+01 0.724E+01 -.163E+01
   -.860E+02 -.287E+02 -.124E+02   0.940E+02 0.253E+02 0.130E+02   -.687E+01 0.282E+01 -.566E+00
   0.284E+01 -.113E+02 0.352E+02   -.516E+01 0.280E+01 -.330E+02   0.197E+01 0.717E+01 -.186E+01
   -.566E+01 0.557E+02 0.636E+02   0.582E+01 -.519E+02 -.578E+02   -.144E+00 -.326E+01 -.492E+01
   0.155E+03 0.483E+02 -.630E+02   -.160E+03 -.462E+02 0.682E+02   0.453E+01 -.172E+01 -.446E+01
   0.197E+02 0.585E+02 0.578E+02   -.214E+02 -.550E+02 -.510E+02   0.145E+01 -.292E+01 -.577E+01
   -.251E+02 0.467E+02 0.322E+02   0.249E+02 -.448E+02 -.308E+02   0.569E-01 -.165E+01 -.120E+01
   -.140E+02 0.745E+02 0.471E+02   0.154E+02 -.733E+02 -.407E+02   -.121E+01 -.105E+01 -.542E+01
   0.169E+02 0.158E+03 -.113E+03   -.158E+02 -.167E+03 0.112E+03   -.901E+00 0.794E+01 0.821E+00
   -.620E+00 -.454E+02 -.329E+02   0.873E+00 0.432E+02 0.283E+02   -.221E+00 0.186E+01 0.392E+01
   0.307E+02 -.279E+02 -.719E+02   -.308E+02 0.259E+02 0.665E+02   0.982E-01 0.171E+01 0.460E+01
   0.364E+01 -.526E+02 -.358E+02   -.375E+01 0.507E+02 0.313E+02   0.881E-01 0.161E+01 0.373E+01
   -.534E+02 0.413E+01 -.666E+02   0.522E+02 -.536E+01 0.619E+02   0.938E+00 0.113E+01 0.399E+01
   -.258E+01 -.479E+02 -.330E+02   0.245E+01 0.456E+02 0.284E+02   0.111E+00 0.194E+01 0.393E+01
   0.114E+02 0.171E+03 -.169E+02   -.106E+02 -.184E+03 0.204E+02   -.673E+00 0.116E+02 -.302E+01
   0.481E+01 0.180E+03 0.110E+03   -.498E+01 -.192E+03 -.107E+03   0.143E+00 0.105E+02 -.238E+01
   0.221E+02 0.122E+03 0.336E+02   -.244E+02 -.133E+03 -.294E+02   0.196E+01 0.932E+01 -.361E+01
   0.154E+02 0.167E+03 0.892E+02   -.155E+02 -.180E+03 -.853E+02   0.546E-01 0.112E+02 -.329E+01
   -.355E+02 0.137E+03 0.114E+02   0.373E+02 -.149E+03 -.728E+01   -.155E+01 0.103E+02 -.357E+01
   -.159E+02 0.168E+03 0.908E+02   0.156E+02 -.181E+03 -.868E+02   0.225E+00 0.112E+02 -.338E+01
   -.576E+02 -.102E+03 0.103E+03   0.439E+02 0.115E+03 -.100E+03   0.116E+02 -.106E+02 -.261E+01
   -.129E+02 -.868E+02 -.140E+03   0.129E+02 0.947E+02 0.144E+03   -.148E-01 -.673E+01 -.364E+01
   0.712E+02 -.102E+03 0.787E+02   -.562E+02 0.114E+03 -.768E+02   -.127E+02 -.109E+02 -.152E+01
   0.565E+01 -.124E+03 -.912E+02   -.428E+01 0.137E+03 0.889E+02   -.116E+01 -.106E+02 0.194E+01
   -.239E+02 -.120E+03 -.455E+02   0.258E+02 0.131E+03 0.410E+02   -.158E+01 -.937E+01 0.385E+01
   0.989E+00 -.133E+03 -.757E+02   -.182E+01 0.146E+03 0.728E+02   0.703E+00 -.115E+02 0.240E+01
   0.254E+02 -.406E+02 0.104E+03   -.286E+02 0.445E+02 -.126E+03   0.316E+01 -.392E+01 0.214E+02
 -----------------------------------------------------------------------------------------------
   -.121E+02 -.142E+02 0.120E+02   -.291E-12 -.117E-11 0.611E-12   0.106E+02 0.108E+02 -.832E+01
 
 
 POSITION                                       TOTAL-FORCE (eV/Angst)
 -----------------------------------------------------------------------------------
      9.13304      7.66975     -1.79449         0.000943      0.072143     -0.010527
      9.12883      6.27338     -7.41161         0.004948      0.065000      0.024037
      3.02753      7.67506     -1.79500        -0.018628      0.051871     -0.004371
      3.03702      6.26254     -7.41642        -0.010016      0.051959      0.023570
      6.08879      7.67794     -1.78978         0.015652      0.089344     -0.004135
      6.07867      6.26307     -7.43259         0.008815      0.049253      0.015710
      1.48735      9.47164     -3.89446        -0.056978     -0.049606     -0.002373
      1.50848      7.95715     -9.50029        -0.005250     -0.084269     -0.000659
      4.55645      9.37630     -3.90600        -0.001215     -0.038760     -0.024669
      4.56368      7.98959     -9.52252         0.007142     -0.111419     -0.012109
      7.60443      9.42203     -3.90740         0.017207     -0.003787     -0.046355
      7.59343      7.98046     -9.51423        -0.002109     -0.101153     -0.014643
      1.52617      6.18577     -4.48996        -0.015680     -0.048968      0.007078
      1.50678      4.76582    -10.15603        -0.001918     -0.019935      0.007471
      4.56372      6.14890     -4.50011        -0.017674     -0.046561      0.016590
      4.55731      4.77245    -10.16495        -0.009576     -0.022734      0.009016
      7.60979      6.19411     -4.50562         0.019007     -0.051374      0.018919
      7.60021      4.77270    -10.16291         0.009197     -0.018090      0.006452
      9.10675     10.80584     -1.11686        -0.052172      0.042732      0.001200
      9.12249      9.51210     -6.78992        -0.001906      0.033483      0.023692
      3.08643     10.82544     -1.12403         0.013990      0.048733      0.009408
      3.02435      9.49861     -6.81406        -0.011193      0.033244     -0.001832
      6.08662     10.87430     -1.16166         0.013567      0.035131     -0.020288
      6.07687      9.50049     -6.82770         0.006062      0.016694     -0.028320
      1.47451      0.15642     -7.36065        -0.030488      0.076314      0.096524
      4.59836      1.48647     -1.90563         0.079620      0.019579     -0.356160
      4.54764      0.12752     -7.46376        -0.006034      0.091942      0.055290
      7.63155      1.44441     -1.95799        -0.309133      0.057343     -0.099362
      7.61776      0.14682     -7.38647         0.025501      0.073059      0.092077
      0.02926      3.28601     -3.88911         0.061271      0.165456     -0.026400
      9.13047      1.84469     -9.55353         0.001312     -0.065709      0.006562
      3.02565      3.22043     -3.87087        -0.048457     -0.184651      0.035498
      3.02162      1.84328     -9.56079        -0.009083     -0.076592      0.011929
      6.08341      3.25140     -3.93684        -0.026072     -0.107279     -0.103922
      6.07913      1.82883     -9.55613        -0.006897     -0.094037      0.029534
      9.05160      0.35950     -4.26978        -0.060997     -0.421118     -0.273979
      9.12440     -1.41313    -10.05677         0.050735     -0.105620      0.063466
      3.01009      0.00787     -4.51709         0.038190      0.138216      0.099453
      3.00164     -1.39819    -10.10755        -0.049184     -0.105745      0.100962
      6.07902     -0.03328     -4.54992         0.037788      0.036873      0.037962
      6.07641     -1.34833    -10.21360         0.016401     -0.074783      0.009468
      1.51509      4.76479     -1.20889        -0.004579     -0.019840     -0.109200
      1.50959      3.34281     -6.82115         0.006992      0.021317      0.024687
      4.57189      4.76173     -1.17498        -0.016158     -0.016490     -0.051867
      4.55812      3.35419     -6.84852        -0.007379      0.044841      0.050200
      7.61586      4.73260     -1.17695         0.023443      0.013577     -0.035504
      7.61208      3.35419     -6.83793         0.005067      0.044515      0.046908
      1.51997     11.87517     -1.22037        -0.021325      0.157057     -0.007196
      1.50474     10.51014     -7.07646         0.004005     -0.203525      0.101959
      4.56014     11.88301     -1.44181         0.011877     -0.247698      0.133596
      4.54910     10.48864     -7.14219         0.002231     -0.184172      0.157120
      7.63098     11.86247     -1.43505        -0.023681     -0.235314      0.116007
      7.59865     10.49579     -7.13434        -0.003678     -0.186916      0.163795
      9.13120      5.19140     -4.24604         0.001206      0.227080     -0.106666
      9.12180      3.76072     -9.88517         0.005232      0.179735     -0.120450
      3.03924      5.15808     -4.23288         0.026254      0.270321     -0.121698
      3.03466      3.76044     -9.89045        -0.003140      0.181473     -0.119943
      6.10192      5.17346     -4.18735        -0.021685      0.189101     -0.163878
      6.07887      3.74710     -9.90871         0.000758      0.194981     -0.101926
      1.51576      7.51522     -3.17490         0.010780     -0.117102     -0.066300
      1.50680      6.08290     -8.81837         0.004748      0.003032     -0.137869
      4.55553      7.49711     -3.18885         0.000873     -0.021174     -0.119722
      4.56008      6.08539     -8.82777         0.013848     -0.038116     -0.124576
      7.60572      7.51717     -3.18237        -0.007583     -0.061494     -0.101062
      7.59721      6.08685     -8.82656        -0.017060     -0.024589     -0.132113
      9.14164      9.56789     -2.48202         0.019100      0.048223      0.201752
      9.11648      8.17040     -8.11733         0.005755      0.026226      0.099376
      3.02195      9.57996     -2.48745         0.008187      0.059276      0.204372
      3.04320      8.16146     -8.12722        -0.005526      0.048444      0.105767
      6.07677      9.56841     -2.49602        -0.000166      0.033660      0.145351
      6.07178      8.16869     -8.14731        -0.000252      0.045456      0.076056
      9.13194      8.97544     -5.03506        -0.004716      0.474459     -0.099908
      9.12151      7.57173    -10.65475        -0.005161      0.422134     -0.101141
      3.00677      9.02470     -5.03759         0.023819      0.422104     -0.100197
      3.04205      7.57437    -10.66275         0.033297      0.428946     -0.106915
      6.08018      8.98250     -5.06265        -0.020317      0.445606     -0.098681
      6.07958      7.59962    -10.69463        -0.005766      0.421607     -0.076729
      1.50917      8.07171     -0.61826         0.003848     -0.432518      0.088702
      1.51765      6.67300     -6.27015         0.008718     -0.425986      0.058081
      4.55921      8.07207     -0.63213         0.004000     -0.431608      0.085575
      4.56450      6.66127     -6.27035        -0.003783     -0.436166      0.066537
      7.60940      8.08332     -0.62528        -0.011338     -0.446074      0.087400
      7.59536      6.67224     -6.28041         0.010853     -0.429890      0.073741
      9.11830      5.76704     -1.44404         0.004910     -0.171496      0.107480
      9.13716      4.35742     -7.10794        -0.010941     -0.181800      0.118866
      3.05074      5.77016     -1.44005         0.003498     -0.159145      0.109225
      3.02666      4.34963     -7.12035         0.014103     -0.162428      0.119903
      6.10271      5.75428     -1.44928        -0.018206     -0.200532      0.136213
      6.08691      4.35289     -7.12717        -0.002726     -0.168177      0.118649
      1.43609     -0.86905     -4.12099         0.232376      0.050681     -0.145027
      1.50122      9.86868     -9.78675        -0.005523      0.233743     -0.162616
      4.54487     -1.01418     -4.25392         0.047953      0.100885     -0.116832
      4.54878     -2.36800     -9.94044        -0.051875      0.237604     -0.063550
      7.62097     -0.97695     -4.24595        -0.276539      0.020580     -0.054138
      7.58479     -2.38456     -9.90596         0.086858      0.240911     -0.069319
      9.12874     -0.03849     -8.81972        -0.007760     -0.120199     -0.182733
      3.27220      1.35843     -3.29665         0.327108     -0.031609     -0.210048
      3.01438     -0.04152     -8.85135         0.064766     -0.103761     -0.214716
      6.10027      1.34072     -3.25992        -0.029442     -0.041974      0.002188
      6.07551     -0.05407     -8.86036        -0.049634     -0.018144     -0.195385
      1.50680      3.52434     -2.57373        -0.039463      0.420899     -0.002858
      1.50415      2.02519     -8.15571        -0.014341      0.035054      0.119605
      4.58195      3.41535     -2.46489         0.023111      0.069141      0.162304
      4.54986      2.02570     -8.17160         0.008227      0.032562      0.096982
      7.68560      3.36517     -2.48041         0.005985      0.069594      0.160082
      7.60028      2.02525     -8.16019         0.011110      0.039732      0.119894
      1.51241      2.80097     -5.05571        -0.037508      0.497195     -0.143775
      1.50280      1.45632    -10.73642         0.008506      0.423604     -0.040645
      4.56774      2.93047     -5.07073         0.079003      0.377350     -0.120069
      4.54530      1.40910    -10.72669         0.012408      0.465745     -0.083601
      7.62488      2.89705     -5.05221        -0.077398      0.459372     -0.155824
      7.61483      1.40698    -10.72061         0.001768      0.464952     -0.087596
      0.16835      1.71684     -0.62059         0.428281     -0.431351     -0.087238
      9.10855      0.52726     -6.22228         0.006548     -0.291209     -0.155291
      2.79396      1.73461     -0.67278        -0.469931     -0.426530     -0.014752
      3.04040      0.51723     -6.29347        -0.048089     -0.441361      0.017326
      6.11404      1.85116     -0.70789        -0.078264     -0.376289      0.137758
      6.05744      0.53499     -6.30184         0.036086     -0.476761      0.038659
      1.46570      1.29543     -1.60050         0.086751     -0.297514      1.085671
 -----------------------------------------------------------------------------------
    total drift:                               -0.026254     -0.031083      0.068546


--------------------------------------------------------------------------------------------------------



  FREE ENERGIE OF THE ION-ELECTRON SYSTEM (eV)
  ---------------------------------------------------
  free  energy   TOTEN  =      -976.60727566 eV

  energy  without entropy=     -976.60727566  energy(sigma->0) =     -976.60727566
 


--------------------------------------------------------------------------------------------------------


    POTLOK:  cpu time      1.9335: real time      1.9417


--------------------------------------------------------------------------------------------------------


 writing wavefunctions
     LOOP+:  cpu time  18928.5445: real time  18926.3993
    4ORBIT:  cpu time      0.0000: real time      0.0000

 total amount of memory used by VASP MPI-rank0  7418488. kBytes
=======================================================================

   base      :      30000. kBytes
   nonlr-proj:      46586. kBytes
   fftplans  :      51012. kBytes
   grid      :     102973. kBytes
   one-center:       1850. kBytes
   HF        :        194. kBytes
   wavefun   :    6956640. kBytes
   fock_wrk  :     229233. kBytes
 
  
  
 General timing and accounting informations for this job:
 ========================================================
  
                  Total CPU time used (sec):    18959.916
                            User time (sec):    18943.727
                          System time (sec):       16.190
                         Elapsed time (sec):    18959.353
  
                   Maximum memory used (kb):    13207552.
                   Average memory used (kb):          N/A
  
                          Minor page faults:      6424070
                          Major page faults:            2
                 Voluntary context switches:       347300
