<?xml version="1.0" encoding="ISO-8859-1"?>
<modeling>
 <generator>
  <i name="program" type="string">vasp </i>
  <i name="version" type="string">6.4.2  </i>
  <i name="subversion" type="string">20Jul23 (build Nov 12 2023 22:16:35) complex                          parallel </i>
  <i name="platform" type="string">LinuxNV </i>
  <i name="date" type="string">2025 03 13 </i>
  <i name="time" type="string">02:05:14 </i>
 </generator>
 <incar>
  <i type="int" name="ISTART">     0</i>
  <i type="string" name="PREC">Normal</i>
  <i type="string" name="ALGO">All</i>
  <i type="int" name="ISPIN">     1</i>
  <i type="int" name="ICHARG">     0</i>
  <i type="int" name="NELM">   500</i>
  <i type="int" name="IBRION">    -1</i>
  <i name="EDIFF">      0.00001000</i>
  <i name="EDIFFG">     -0.00500000</i>
  <i type="int" name="NSW">     0</i>
  <i type="int" name="ISIF">     2</i>
  <i name="ENCUT">    450.00000000</i>
  <i type="string" name="LREAL">Auto</i>
  <i type="logical" name="LPLANE"> T  </i>
  <i name="TIME">      0.40000000</i>
  <i type="int" name="ISMEAR">     0</i>
  <i name="SIGMA">      0.05000000</i>
  <i type="logical" name="LWAVE"> T  </i>
  <i type="logical" name="LCHARG"> T  </i>
  <i name="HFSCREEN">      0.18000000</i>
  <i type="logical" name="LHFCALC"> T  </i>
  <i type="int" name="LMAXFOCK">     4</i>
  <i name="AEXX">      0.35000000</i>
  <i type="string" name="PRECFOCK">Fast</i>
 </incar>
 <primitive_cell>
  <structure name="primitive_cell" >
   <crystal>
    <varray name="basis" >
     <v>       0.00000000      12.28047342       0.00000000 </v>
     <v>       9.14270205       0.00000000       0.00000000 </v>
     <v>       0.00000000      -2.76826177     -11.30069772 </v>
    </varray>
    <i name="volume">   1268.80515525 </i>
    <varray name="rec_basis" >
     <v>       0.00000000       0.08143009      -0.01994742 </v>
     <v>       0.10937686      -0.00000000       0.00000000 </v>
     <v>       0.00000000       0.00000000      -0.08849011 </v>
    </varray>
   </crystal>
   <varray name="positions" >
    <v>       0.66034400       0.99894297       0.15879501 </v>
    <v>       0.65868450       0.99848318       0.65585433 </v>
    <v>       0.66078668       0.33114162       0.15883978 </v>
    <v>       0.65789788       0.33218000       0.65627947 </v>
    <v>       0.66091696       0.66597312       0.15837748 </v>
    <v>       0.65826366       0.66486602       0.65771060 </v>
    <v>       0.84896102       0.16268191       0.34462140 </v>
    <v>       0.83745788       0.16499296       0.84068190 </v>
    <v>       0.84142735       0.49837046       0.34564271 </v>
    <v>       0.84054264       0.49916101       0.84264926 </v>
    <v>       0.84517952       0.83174891       0.34576620 </v>
    <v>       0.83963370       0.83054547       0.84191523 </v>
    <v>       0.59327103       0.16692771       0.39731735 </v>
    <v>       0.59066791       0.16480661       0.89870803 </v>
    <v>       0.59047111       0.49916509       0.39821552 </v>
    <v>       0.59138519       0.49846394       0.89949752 </v>
    <v>       0.59426269       0.83233464       0.39870271 </v>
    <v>       0.59136545       0.83128710       0.89931686 </v>
    <v>       0.90219882       0.99606719       0.09883072 </v>
    <v>       0.91001211       0.99778945       0.60084049 </v>
    <v>       0.90393798       0.33758455       0.09946537 </v>
    <v>       0.90939537       0.33079415       0.60297725 </v>
    <v>       0.90866706       0.66573554       0.10279565 </v>
    <v>       0.90982048       0.66466945       0.60418350 </v>
    <v>       0.15956328       0.16127759       0.65134504 </v>
    <v>       0.15905582       0.50295447       0.16862926 </v>
    <v>       0.15926645       0.49740618       0.66046899 </v>
    <v>       0.15667563       0.83471511       0.17326306 </v>
    <v>       0.15929651       0.83320619       0.65362968 </v>
    <v>       0.34515772       0.00320035       0.34414744 </v>
    <v>       0.34078116       0.99866251       0.84539282 </v>
    <v>       0.33945369       0.33093575       0.34253356 </v>
    <v>       0.34081128       0.33049490       0.84603497 </v>
    <v>       0.34329147       0.66538383       0.34837117 </v>
    <v>       0.33954237       0.66491590       0.84562334 </v>
    <v>       0.11444562       0.99003585       0.37783348 </v>
    <v>       0.08553540       0.99799770       0.88992432 </v>
    <v>       0.09074541       0.32923411       0.39971739 </v>
    <v>       0.08776504       0.32831031       0.89441804 </v>
    <v>       0.08804960       0.66490397       0.40262300 </v>
    <v>       0.09393998       0.66461884       0.90380243 </v>
    <v>       0.41211114       0.16571632       0.10697501 </v>
    <v>       0.40826935       0.16511396       0.60360422 </v>
    <v>       0.41118589       0.50005889       0.10397394 </v>
    <v>       0.40974229       0.49855259       0.60602611 </v>
    <v>       0.40885285       0.83299917       0.10414875 </v>
    <v>       0.40953111       0.83258494       0.60508880 </v>
    <v>       0.99133965       0.16624986       0.10799038 </v>
    <v>       0.99699879       0.16458380       0.62619711 </v>
    <v>       0.99639523       0.49877355       0.12758612 </v>
    <v>       0.99655951       0.49756650       0.63201362 </v>
    <v>       0.99458742       0.83465245       0.12698815 </v>
    <v>       0.99698514       0.83111674       0.63131858 </v>
    <v>       0.50743376       0.99874170       0.37573253 </v>
    <v>       0.50341922       0.99771378       0.87473956 </v>
    <v>       0.50445799       0.33242223       0.37456770 </v>
    <v>       0.50350205       0.33192187       0.87520682 </v>
    <v>       0.50480199       0.66740915       0.37053897 </v>
    <v>       0.50277980       0.66488777       0.87682282 </v>
    <v>       0.67529583       0.16578852       0.28094743 </v>
    <v>       0.67123509       0.16480865       0.78033812 </v>
    <v>       0.67409998       0.49826921       0.28218187 </v>
    <v>       0.67162501       0.49876719       0.78116996 </v>
    <v>       0.67560417       0.83188947       0.28160810 </v>
    <v>       0.67172018       0.83095862       0.78106306 </v>
    <v>       0.82862370       0.99988384       0.21963453 </v>
    <v>       0.82723648       0.99713167       0.71830311 </v>
    <v>       0.82971509       0.33053179       0.22011458 </v>
    <v>       0.82670567       0.33285616       0.71917881 </v>
    <v>       0.82894576       0.66465807       0.22087267 </v>
    <v>       0.82769450       0.66411270       0.72095615 </v>
    <v>       0.83130710       0.99882314       0.44555312 </v>
    <v>       0.82910137       0.99768241       0.94284022 </v>
    <v>       0.83536934       0.32887084       0.44577647 </v>
    <v>       0.82947627       0.33273030       0.94354808 </v>
    <v>       0.83243224       0.66503073       0.44799451 </v>
    <v>       0.83216764       0.66496530       0.94636915 </v>
    <v>       0.66961310       0.16506877       0.05471002 </v>
    <v>       0.66845653       0.16599563       0.55484611 </v>
    <v>       0.66991859       0.49867213       0.05593683 </v>
    <v>       0.66750512       0.49925064       0.55486405 </v>
    <v>       0.67069825       0.83229261       0.05533130 </v>
    <v>       0.66859896       0.83075694       0.55575422 </v>
    <v>       0.49841583       0.99733127       0.12778359 </v>
    <v>       0.49660980       0.99939404       0.62898198 </v>
    <v>       0.49859012       0.33368079       0.12742979 </v>
    <v>       0.49622323       0.33104627       0.63008034 </v>
    <v>       0.49748049       0.66749517       0.12824667 </v>
    <v>       0.49662525       0.66576739       0.63068437 </v>
    <v>       0.01143639       0.15707498       0.36466716 </v>
    <v>       0.99882775       0.16419903       0.86603068 </v>
    <v>       0.00227029       0.49710411       0.37642969 </v>
    <v>       0.00545935       0.49753143       0.87963026 </v>
    <v>       0.00514243       0.83355788       0.37572443 </v>
    <v>       0.00342344       0.82960075       0.87657929 </v>
    <v>       0.17279665       0.99847300       0.78045808 </v>
    <v>       0.17637667       0.35790324       0.29172052 </v>
    <v>       0.17318047       0.32970387       0.78325692 </v>
    <v>       0.17420181       0.66722785       0.28847066 </v>
    <v>       0.17233816       0.66452003       0.78405462 </v>
    <v>       0.33832657       0.16480953       0.22774945 </v>
    <v>       0.32759669       0.16451905       0.72169952 </v>
    <v>       0.32728031       0.50115982       0.21811795 </v>
    <v>       0.32795506       0.49764936       0.72310576 </v>
    <v>       0.32350385       0.84062669       0.21949151 </v>
    <v>       0.32769101       0.83129432       0.72209640 </v>
    <v>       0.32893143       0.16542280       0.44738025 </v>
    <v>       0.33275221       0.16437175       0.95006665 </v>
    <v>       0.33977655       0.49960549       0.44870982 </v>
    <v>       0.32871317       0.49715034       0.94920593 </v>
    <v>       0.33668594       0.83398502       0.44707053 </v>
    <v>       0.32841912       0.83288566       0.94866815 </v>
    <v>       0.15218156       0.01841404       0.05491585 </v>
    <v>       0.16705324       0.99626412       0.55061036 </v>
    <v>       0.15466989       0.30559509       0.05953410 </v>
    <v>       0.16765620       0.33254992       0.55690977 </v>
    <v>       0.16486111       0.66873423       0.06264132 </v>
    <v>       0.16927007       0.66254365       0.55765026 </v>
    <v>       0.13741302       0.16031413       0.14162819 </v>
   </varray>
  </structure>
  <varray name="primitive_index" >
   <v type="int" >        1 </v>
   <v type="int" >        2 </v>
   <v type="int" >        3 </v>
   <v type="int" >        4 </v>
   <v type="int" >        5 </v>
   <v type="int" >        6 </v>
   <v type="int" >        7 </v>
   <v type="int" >        8 </v>
   <v type="int" >        9 </v>
   <v type="int" >       10 </v>
   <v type="int" >       11 </v>
   <v type="int" >       12 </v>
   <v type="int" >       13 </v>
   <v type="int" >       14 </v>
   <v type="int" >       15 </v>
   <v type="int" >       16 </v>
   <v type="int" >       17 </v>
   <v type="int" >       18 </v>
   <v type="int" >       19 </v>
   <v type="int" >       20 </v>
   <v type="int" >       21 </v>
   <v type="int" >       22 </v>
   <v type="int" >       23 </v>
   <v type="int" >       24 </v>
   <v type="int" >       25 </v>
   <v type="int" >       26 </v>
   <v type="int" >       27 </v>
   <v type="int" >       28 </v>
   <v type="int" >       29 </v>
   <v type="int" >       30 </v>
   <v type="int" >       31 </v>
   <v type="int" >       32 </v>
   <v type="int" >       33 </v>
   <v type="int" >       34 </v>
   <v type="int" >       35 </v>
   <v type="int" >       36 </v>
   <v type="int" >       37 </v>
   <v type="int" >       38 </v>
   <v type="int" >       39 </v>
   <v type="int" >       40 </v>
   <v type="int" >       41 </v>
   <v type="int" >       42 </v>
   <v type="int" >       43 </v>
   <v type="int" >       44 </v>
   <v type="int" >       45 </v>
   <v type="int" >       46 </v>
   <v type="int" >       47 </v>
   <v type="int" >       48 </v>
   <v type="int" >       49 </v>
   <v type="int" >       50 </v>
   <v type="int" >       51 </v>
   <v type="int" >       52 </v>
   <v type="int" >       53 </v>
   <v type="int" >       54 </v>
   <v type="int" >       55 </v>
   <v type="int" >       56 </v>
   <v type="int" >       57 </v>
   <v type="int" >       58 </v>
   <v type="int" >       59 </v>
   <v type="int" >       60 </v>
   <v type="int" >       61 </v>
   <v type="int" >       62 </v>
   <v type="int" >       63 </v>
   <v type="int" >       64 </v>
   <v type="int" >       65 </v>
   <v type="int" >       66 </v>
   <v type="int" >       67 </v>
   <v type="int" >       68 </v>
   <v type="int" >       69 </v>
   <v type="int" >       70 </v>
   <v type="int" >       71 </v>
   <v type="int" >       72 </v>
   <v type="int" >       73 </v>
   <v type="int" >       74 </v>
   <v type="int" >       75 </v>
   <v type="int" >       76 </v>
   <v type="int" >       77 </v>
   <v type="int" >       78 </v>
   <v type="int" >       79 </v>
   <v type="int" >       80 </v>
   <v type="int" >       81 </v>
   <v type="int" >       82 </v>
   <v type="int" >       83 </v>
   <v type="int" >       84 </v>
   <v type="int" >       85 </v>
   <v type="int" >       86 </v>
   <v type="int" >       87 </v>
   <v type="int" >       88 </v>
   <v type="int" >       89 </v>
   <v type="int" >       90 </v>
   <v type="int" >       91 </v>
   <v type="int" >       92 </v>
   <v type="int" >       93 </v>
   <v type="int" >       94 </v>
   <v type="int" >       95 </v>
   <v type="int" >       96 </v>
   <v type="int" >       97 </v>
   <v type="int" >       98 </v>
   <v type="int" >       99 </v>
   <v type="int" >      100 </v>
   <v type="int" >      101 </v>
   <v type="int" >      102 </v>
   <v type="int" >      103 </v>
   <v type="int" >      104 </v>
   <v type="int" >      105 </v>
   <v type="int" >      106 </v>
   <v type="int" >      107 </v>
   <v type="int" >      108 </v>
   <v type="int" >      109 </v>
   <v type="int" >      110 </v>
   <v type="int" >      111 </v>
   <v type="int" >      112 </v>
   <v type="int" >      113 </v>
   <v type="int" >      114 </v>
   <v type="int" >      115 </v>
   <v type="int" >      116 </v>
   <v type="int" >      117 </v>
   <v type="int" >      118 </v>
   <v type="int" >      119 </v>
  </varray>
 </primitive_cell>
 <kpoints>
  <generation param="Gamma">
   <v type="int" name="divisions">       2        2        2 </v>
   <v name="usershift">      0.00000000       0.00000000       0.00000000 </v>
   <v name="genvec1">      0.50000000       0.00000000       0.00000000 </v>
   <v name="genvec2">      0.00000000       0.50000000       0.00000000 </v>
   <v name="genvec3">      0.00000000       0.00000000       0.50000000 </v>
   <v name="shift">      0.00000000       0.00000000       0.00000000 </v>
  </generation>
  <varray name="kpointlist" >
   <v>       0.00000000       0.00000000       0.00000000 </v>
   <v>       0.50000000       0.00000000       0.00000000 </v>
   <v>       0.00000000       0.50000000       0.00000000 </v>
   <v>       0.50000000       0.50000000       0.00000000 </v>
   <v>       0.00000000       0.00000000       0.50000000 </v>
   <v>       0.50000000       0.00000000       0.50000000 </v>
   <v>       0.00000000       0.50000000       0.50000000 </v>
   <v>       0.50000000       0.50000000       0.50000000 </v>
  </varray>
  <varray name="weights" >
   <v>       0.12500000 </v>
   <v>       0.12500000 </v>
   <v>       0.12500000 </v>
   <v>       0.12500000 </v>
   <v>       0.12500000 </v>
   <v>       0.12500000 </v>
   <v>       0.12500000 </v>
   <v>       0.12500000 </v>
  </varray>
 </kpoints>
 <parameters>
  <separator name="general" >
   <i type="string" name="SYSTEM">unknown system</i>
   <i type="logical" name="LCOMPAT"> F  </i>
  </separator>
  <separator name="electronic" >
   <i type="string" name="PREC">normal</i>
   <i name="ENMAX">    450.00000000</i>
   <i name="ENAUG">    605.39200000</i>
   <i name="EDIFF">      0.00001000</i>
   <i type="int" name="IALGO">    58</i>
   <i type="int" name="IWAVPR">    10</i>
   <i type="int" name="NBANDS">   625</i>
   <i type="int" name="NBANDSLOW">    -1</i>
   <i type="int" name="NBANDSHIGH">    -1</i>
   <i name="NELECT">   1042.00000000</i>
   <i type="int" name="TURBO">     0</i>
   <i type="int" name="IRESTART">     0</i>
   <i type="int" name="NREBOOT">     0</i>
   <i type="int" name="NMIN">     0</i>
   <i name="EREF">      0.00000000</i>
   <separator name="electronic smearing" >
    <i type="int" name="ISMEAR">     0</i>
    <i name="SIGMA">      0.05000000</i>
    <i name="KSPACING">      0.50000000</i>
    <i type="logical" name="KGAMMA"> T  </i>
    <i type="logical" name="KBLOWUP"> T  </i>
   </separator>
   <separator name="electronic projectors" >
    <i type="logical" name="LREAL"> T  </i>
    <v name="ROPT">     -0.00050000     -0.00050000     -0.00050000</v>
    <i type="int" name="LMAXPAW">  -100</i>
    <i type="int" name="LMAXMIX">     2</i>
    <i type="logical" name="NLSPLINE"> F  </i>
   </separator>
   <separator name="electronic startup" >
    <i type="int" name="ISTART">     0</i>
    <i type="int" name="ICHARG">     0</i>
    <i type="int" name="INIWAV">     1</i>
   </separator>
   <separator name="electronic spin" >
    <i type="int" name="ISPIN">     1</i>
    <i type="logical" name="LNONCOLLINEAR"> F  </i>
    <v name="MAGMOM">      1.00000000      1.00000000      1.00000000      1.00000000      1.00000000      1.00000000      1.00000000      1.00000000      1.00000000      1.00000000      1.00000000      1.00000000      1.00000000      1.00000000      1.00000000      1.00000000      1.00000000      1.00000000      1.00000000      1.00000000
      1.00000000      1.00000000      1.00000000      1.00000000      1.00000000      1.00000000      1.00000000      1.00000000      1.00000000      1.00000000      1.00000000      1.00000000      1.00000000      1.00000000      1.00000000      1.00000000      1.00000000      1.00000000      1.00000000      1.00000000
      1.00000000      1.00000000      1.00000000      1.00000000      1.00000000      1.00000000      1.00000000      1.00000000      1.00000000      1.00000000      1.00000000      1.00000000      1.00000000      1.00000000      1.00000000      1.00000000      1.00000000      1.00000000      1.00000000      1.00000000
      1.00000000      1.00000000      1.00000000      1.00000000      1.00000000      1.00000000      1.00000000      1.00000000      1.00000000      1.00000000      1.00000000      1.00000000      1.00000000      1.00000000      1.00000000      1.00000000      1.00000000      1.00000000      1.00000000      1.00000000
      1.00000000      1.00000000      1.00000000      1.00000000      1.00000000      1.00000000      1.00000000      1.00000000      1.00000000      1.00000000      1.00000000      1.00000000      1.00000000      1.00000000      1.00000000      1.00000000      1.00000000      1.00000000      1.00000000      1.00000000
      1.00000000      1.00000000      1.00000000      1.00000000      1.00000000      1.00000000      1.00000000      1.00000000      1.00000000      1.00000000      1.00000000      1.00000000      1.00000000      1.00000000      1.00000000      1.00000000      1.00000000      1.00000000      1.00000000</v>
    <i name="NUPDOWN">     -1.00000000</i>
    <i type="logical" name="LSORBIT"> F  </i>
    <v name="SAXIS">      0.00000000      0.00000000      1.00000000</v>
    <i type="logical" name="LSPIRAL"> F  </i>
    <v name="QSPIRAL">      0.00000000      0.00000000      0.00000000</v>
    <i type="logical" name="LZEROZ"> F  </i>
   </separator>
   <separator name="electronic exchange-correlation" >
    <i type="logical" name="LASPH"> F  </i>
    <i type="logical" name="LMETAGGA"> F  </i>
   </separator>
   <separator name="electronic convergence" >
    <i type="int" name="NELM">   500</i>
    <i type="int" name="NELMDL">    -5</i>
    <i type="int" name="NELMIN">     2</i>
    <i name="ENINI">    450.00000000</i>
    <separator name="electronic convergence detail" >
     <i type="logical" name="LDIAG"> T  </i>
     <i type="logical" name="LSUBROT"> F  </i>
     <i name="WEIMIN">      0.00000000</i>
     <i name="EBREAK">      0.00000000</i>
     <i name="DEPER">      0.30000000</i>
     <i type="int" name="NRMM">     4</i>
     <i name="TIME">      0.40000000</i>
    </separator>
   </separator>
   <separator name="electronic mixer" >
    <i name="AMIX">      0.40000000</i>
    <i name="BMIX">      1.00000000</i>
    <i name="AMIN">      0.10000000</i>
    <i name="AMIX_MAG">      1.60000000</i>
    <i name="BMIX_MAG">      1.00000000</i>
    <separator name="electronic mixer details" >
     <i type="int" name="IMIX">     4</i>
     <i type="logical" name="MIXFIRST"> F  </i>
     <i type="int" name="MAXMIX">   -45</i>
     <i name="WC">    100.00000000</i>
     <i type="int" name="INIMIX">     1</i>
     <i type="int" name="MIXPRE">     1</i>
     <i type="int" name="MREMOVE">     5</i>
    </separator>
   </separator>
   <separator name="electronic dipolcorrection" >
    <i type="logical" name="LDIPOL"> F  </i>
    <i type="logical" name="LMONO"> F  </i>
    <i type="int" name="IDIPOL">     0</i>
    <i name="EPSILON">      1.00000000</i>
    <v name="DIPOL">   -100.00000000   -100.00000000   -100.00000000</v>
    <i name="EFIELD">      0.00000000</i>
   </separator>
  </separator>
  <separator name="grids" >
   <i type="int" name="NGX">    64</i>
   <i type="int" name="NGY">    48</i>
   <i type="int" name="NGZ">    60</i>
   <i type="int" name="NGXF">   128</i>
   <i type="int" name="NGYF">    96</i>
   <i type="int" name="NGZF">   120</i>
   <i type="logical" name="ADDGRID"> F  </i>
  </separator>
  <separator name="ionic" >
   <i type="int" name="NSW">     0</i>
   <i type="int" name="IBRION">    -1</i>
   <i type="int" name="MDALGO">     0</i>
   <i type="int" name="ISIF">     2</i>
   <i name="PSTRESS">      0.00000000</i>
   <i name="EDIFFG">     -0.00500000</i>
   <i type="int" name="NFREE">     0</i>
   <i name="POTIM">      0.50000000</i>
   <i name="SMASS">     -3.00000000</i>
   <i name="SCALEE">      1.00000000</i>
  </separator>
  <separator name="ionic md" >
   <i name="TEBEG">      0.00010000</i>
   <i name="TEEND">      0.00010000</i>
   <i type="int" name="NBLOCK">     1</i>
   <i type="int" name="KBLOCK">     1</i>
   <i type="int" name="NPACO">   256</i>
   <i name="APACO">     10.00000000</i>
  </separator>
  <separator name="symmetry" >
   <i type="int" name="ISYM">     3</i>
   <i name="SYMPREC">      0.00001000</i>
  </separator>
  <separator name="dos" >
   <i type="int" name="LORBIT">     0</i>
   <v name="RWIGS">     -1.00000000     -1.00000000     -1.00000000</v>
   <i type="int" name="NEDOS">   301</i>
   <i name="EMIN">     10.00000000</i>
   <i name="EMAX">    -10.00000000</i>
   <i name="EFERMI">      0.00000000</i>
  </separator>
  <separator name="writing" >
   <i type="int" name="NWRITE">     2</i>
   <i type="logical" name="LWAVE"> T  </i>
   <i type="logical" name="LDOWNSAMPLE"> F  </i>
   <i type="logical" name="LCHARG"> T  </i>
   <i type="logical" name="LPARD"> F  </i>
   <i type="logical" name="LVTOT"> F  </i>
   <i type="logical" name="LVHAR"> F  </i>
   <i type="logical" name="LELF"> F  </i>
   <i type="logical" name="LOPTICS"> F  </i>
   <v name="STM">      0.00000000      0.00000000      0.00000000      0.00000000      0.00000000      0.00000000      0.00000000</v>
  </separator>
  <separator name="performance" >
   <i type="int" name="NPAR">     1</i>
   <i type="int" name="NSIM">     4</i>
   <i type="int" name="NBLK">    -1</i>
   <i type="logical" name="LPLANE"> T  </i>
   <i type="logical" name="LSCALAPACK"> T  </i>
   <i type="logical" name="LSCAAWARE"> F  </i>
   <i type="logical" name="LSCALU"> F  </i>
   <i type="logical" name="LASYNC"> F  </i>
   <i type="logical" name="LORBITALREAL"> F  </i>
  </separator>
  <separator name="miscellaneous" >
   <i type="int" name="IDIOT">     3</i>
   <i type="int" name="PHON_NSTRUCT">    -1</i>
   <i type="logical" name="LMUSIC"> F  </i>
   <v name="POMASS">     69.72300000     16.00000000     30.97400000</v>
   <v name="DARWINR">      0.00000000      0.00000000      0.00000000</v>
   <v name="DARWINV">      1.00000000      1.00000000      1.00000000</v>
   <i type="logical" name="LCORR"> T  </i>
  </separator>
  <i type="logical" name="GGA_COMPAT"> T  </i>
  <i type="logical" name="LBERRY"> F  </i>
  <i type="int" name="ICORELEVEL">     0</i>
  <i type="logical" name="LDAU"> F  </i>
  <i type="int" name="I_CONSTRAINED_M">     0</i>
  <separator name="electronic exchange-correlation" >
   <i type="string" name="GGA">--</i>
   <i type="int" name="VOSKOWN">     0</i>
   <i type="logical" name="LHFCALC"> T  </i>
   <i type="string" name="PRECFOCK">fast</i>
   <i type="logical" name="LSYMGRAD"> F  </i>
   <i type="logical" name="LHFONE"> F  </i>
   <i type="logical" name="LRHFCALC"> F  </i>
   <i type="logical" name="LTHOMAS"> F  </i>
   <i type="logical" name="LMODELHF"> F  </i>
   <i type="logical" name="LFOCKACE"> T  </i>
   <i name="ENCUT4O">     -1.00000000</i>
   <i type="int" name="EXXOEP">     0</i>
   <i type="int" name="FOURORBIT">     0</i>
   <i name="AEXX">      0.35000000</i>
   <i name="HFALPHA">     -1.00000000</i>
   <i name="MCALPHA">      0.00000000</i>
   <i name="ALDAX">      0.65000000</i>
   <i name="AGGAX">      0.65000000</i>
   <i name="ALDAC">      1.00000000</i>
   <i name="AGGAC">      1.00000000</i>
   <i type="int" name="NKREDX">     1</i>
   <i type="int" name="NKREDY">     1</i>
   <i type="int" name="NKREDZ">     1</i>
   <i type="logical" name="SHIFTRED"> F  </i>
   <i type="logical" name="ODDONLY"> F  </i>
   <i type="logical" name="EVENONLY"> F  </i>
   <i type="int" name="LMAXFOCK">     4</i>
   <i type="int" name="NMAXFOCKAE">     1</i>
   <i type="logical" name="LFOCKAEDFT"> F  </i>
   <i name="HFSCREEN">      0.18000000</i>
   <i name="HFSCREENC">      0.18000000</i>
   <i type="int" name="NBANDSGWLOW">     1</i>
  </separator>
  <separator name="vdW DFT" >
   <i type="logical" name="LUSE_VDW"> F  </i>
   <i type="int" name="IVDW_NL">     1</i>
   <i type="logical" name="LSPIN_VDW"> F  </i>
   <i name="Zab_VDW">     -0.84910000</i>
   <i name="PARAM1">      0.12340000</i>
   <i name="PARAM2">      1.00000000</i>
   <i name="PARAM3">      0.00000000</i>
  </separator>
  <separator name="model GW" >
   <i type="int" name="MODEL_GW">     0</i>
   <i name="MODEL_EPS0">      6.39733692</i>
   <i name="MODEL_ALPHA">      1.00000000</i>
  </separator>
  <separator name="linear response parameters" >
   <i type="logical" name="LEPSILON"> F  </i>
   <i type="logical" name="LRPA"> F  </i>
   <i type="logical" name="LNABLA"> F  </i>
   <i type="logical" name="LVEL"> F  </i>
   <i name="CSHIFT">      0.10000000</i>
   <i name="OMEGAMAX">     -1.00000000</i>
   <i name="DEG_THRESHOLD">      0.00200000</i>
   <i name="RTIME">     -0.10000000</i>
   <i name="WPLASMAI">      0.00000000</i>
   <v name="DFIELD">      0.00000000      0.00000000      0.00000000</v>
   <v name="WPLASMA">      0.00000000      0.00000000      0.00000000      0.00000000      0.00000000      0.00000000      0.00000000      0.00000000      0.00000000</v>
  </separator>
  <separator name="orbital magnetization" >
   <i type="logical" name="NUCIND"> F  </i>
   <v name="MAGPOS">      0.00000000      0.00000000      0.00000000</v>
   <i type="logical" name="LNICSALL"> T  </i>
   <i type="logical" name="ORBITALMAG"> F  </i>
   <i type="logical" name="LMAGBLOCH"> F  </i>
   <i type="logical" name="LCHIMAG"> F  </i>
   <i type="logical" name="LGAUGE"> T  </i>
   <i type="int" name="MAGATOM">     0</i>
   <v name="MAGDIPOL">      0.00000000      0.00000000      0.00000000</v>
   <v name="AVECCONST">      0.00000000      0.00000000      0.00000000</v>
  </separator>
  <separator name="response functions" >
   <i type="logical" name="LALL_IN_ONE"> F  </i>
   <i type="int" name="IALL_IN_ONE">    -1</i>
   <i type="int" name="NBANDS_WAVE">    -1</i>
   <i type="logical" name="LFINITE_TEMPERATURE"> F  </i>
   <i type="logical" name="LADDER"> F  </i>
   <i type="logical" name="LRPAFORCE"> F  </i>
   <i type="logical" name="LFXC"> F  </i>
   <i type="logical" name="LHARTREE"> T  </i>
   <i type="int" name="IBSE">     0</i>
   <v type="int" name="KPOINT">    -1     0     0     0</v>
   <i type="logical" name="LTCTC"> F  </i>
   <i type="logical" name="LTCTE"> F  </i>
   <i type="logical" name="LTETE"> F  </i>
   <i type="logical" name="LTRIPLET"> F  </i>
   <i type="logical" name="LFXCEPS"> F  </i>
   <i type="logical" name="LFXHEG"> F  </i>
   <i type="int" name="NATURALO">     2</i>
   <i type="logical" name="LHOLEGF"> F  </i>
   <i type="logical" name="L2ORDER"> F  </i>
   <i type="logical" name="LDMP1"> F  </i>
   <i type="logical" name="LMP2LT"> F  </i>
   <i type="logical" name="LSMP2LT"> F  </i>
   <i type="logical" name="LGWLF"> F  </i>
   <i name="ENCUTGW">     -1.60000002</i>
   <i name="ENCUTGWSOFT">     -1.60000002</i>
   <i name="ENCUTLF">     -1.00000000</i>
   <i type="logical" name="LESF_SPLINES"> F  </i>
   <i type="int" name="LMAXMP2">    -1</i>
   <i name="SCISSOR">      0.00000000</i>
   <i type="int" name="NOMEGA">     0</i>
   <i type="int" name="NOMEGAR">     0</i>
   <i type="int" name="NBANDSGW">    -1</i>
   <i type="int" name="NBANDSO">    -1</i>
   <i type="int" name="NBANDSV">    -1</i>
   <i type="int" name="NELMGW">     1</i>
   <i type="int" name="NELMHF">     1</i>
   <i type="int" name="DIM">     3</i>
   <i type="int" name="IESPILON">     4</i>
   <i type="int" name="ANTIRES">     0</i>
   <i name="OMEGAMAX">    -30.00000000</i>
   <i name="OMEGAMIN">    -30.00000000</i>
   <i name="OMEGATL">   -200.00000000</i>
   <i type="int" name="OMEGAGRID">     0</i>
   <i name="CSHIFT">     -0.10000000</i>
   <i type="logical" name="LSELFENERGY"> F  </i>
   <i type="logical" name="LSPECTRAL"> F  </i>
   <i type="logical" name="LSPECTRALGW"> F  </i>
   <i type="logical" name="LSINGLES"> F  </i>
   <i type="logical" name="LFERMIGW"> F  </i>
   <i type="logical" name="ODDONLYGW"> F  </i>
   <i type="logical" name="EVENONLYGW"> F  </i>
   <i type="int" name="NKREDLFX">     1</i>
   <i type="int" name="NKREDLFY">     1</i>
   <i type="int" name="NKREDLFZ">     1</i>
   <i type="int" name="MAXMEM">  2800</i>
   <i type="int" name="TELESCOPE">     0</i>
   <i type="int" name="NTAUPAR">    -1</i>
   <i type="int" name="NOMEGAPAR">    -1</i>
   <i name="DAMP_NEWTON">      0.80000001</i>
   <i name="LAMBDA">      1.00000000</i>
  </separator>
  <separator name="External order field" >
   <i name="OFIELD_KAPPA">      0.00000000</i>
   <v name="OFIELD_K">      0.00000000      0.00000000      0.00000000</v>
   <i name="OFIELD_Q6_NEAR">      0.00000000</i>
   <i name="OFIELD_Q6_FAR">      0.00000000</i>
   <i name="OFIELD_A">      0.00000000</i>
  </separator>
  <separator name="optional k-points parameters" >
   <i type="int" name="KPOINTS_OPT_MODE">     1</i>
   <i type="logical" name="LKPOINTS_OPT"> F  </i>
  </separator>
 </parameters>
 <atominfo>
  <atoms>     119 </atoms>
  <types>       3 </types>
  <array name="atoms" >
   <dimension dim="1">ion</dimension>
   <field type="string">element</field>
   <field type="int">atomtype</field>
   <set>
    <rc><c>Ga</c><c>   1</c></rc>
    <rc><c>Ga</c><c>   1</c></rc>
    <rc><c>Ga</c><c>   1</c></rc>
    <rc><c>Ga</c><c>   1</c></rc>
    <rc><c>Ga</c><c>   1</c></rc>
    <rc><c>Ga</c><c>   1</c></rc>
    <rc><c>Ga</c><c>   1</c></rc>
    <rc><c>Ga</c><c>   1</c></rc>
    <rc><c>Ga</c><c>   1</c></rc>
    <rc><c>Ga</c><c>   1</c></rc>
    <rc><c>Ga</c><c>   1</c></rc>
    <rc><c>Ga</c><c>   1</c></rc>
    <rc><c>Ga</c><c>   1</c></rc>
    <rc><c>Ga</c><c>   1</c></rc>
    <rc><c>Ga</c><c>   1</c></rc>
    <rc><c>Ga</c><c>   1</c></rc>
    <rc><c>Ga</c><c>   1</c></rc>
    <rc><c>Ga</c><c>   1</c></rc>
    <rc><c>Ga</c><c>   1</c></rc>
    <rc><c>Ga</c><c>   1</c></rc>
    <rc><c>Ga</c><c>   1</c></rc>
    <rc><c>Ga</c><c>   1</c></rc>
    <rc><c>Ga</c><c>   1</c></rc>
    <rc><c>Ga</c><c>   1</c></rc>
    <rc><c>Ga</c><c>   1</c></rc>
    <rc><c>Ga</c><c>   1</c></rc>
    <rc><c>Ga</c><c>   1</c></rc>
    <rc><c>Ga</c><c>   1</c></rc>
    <rc><c>Ga</c><c>   1</c></rc>
    <rc><c>Ga</c><c>   1</c></rc>
    <rc><c>Ga</c><c>   1</c></rc>
    <rc><c>Ga</c><c>   1</c></rc>
    <rc><c>Ga</c><c>   1</c></rc>
    <rc><c>Ga</c><c>   1</c></rc>
    <rc><c>Ga</c><c>   1</c></rc>
    <rc><c>Ga</c><c>   1</c></rc>
    <rc><c>Ga</c><c>   1</c></rc>
    <rc><c>Ga</c><c>   1</c></rc>
    <rc><c>Ga</c><c>   1</c></rc>
    <rc><c>Ga</c><c>   1</c></rc>
    <rc><c>Ga</c><c>   1</c></rc>
    <rc><c>Ga</c><c>   1</c></rc>
    <rc><c>Ga</c><c>   1</c></rc>
    <rc><c>Ga</c><c>   1</c></rc>
    <rc><c>Ga</c><c>   1</c></rc>
    <rc><c>Ga</c><c>   1</c></rc>
    <rc><c>Ga</c><c>   1</c></rc>
    <rc><c>O </c><c>   2</c></rc>
    <rc><c>O </c><c>   2</c></rc>
    <rc><c>O </c><c>   2</c></rc>
    <rc><c>O </c><c>   2</c></rc>
    <rc><c>O </c><c>   2</c></rc>
    <rc><c>O </c><c>   2</c></rc>
    <rc><c>O </c><c>   2</c></rc>
    <rc><c>O </c><c>   2</c></rc>
    <rc><c>O </c><c>   2</c></rc>
    <rc><c>O </c><c>   2</c></rc>
    <rc><c>O </c><c>   2</c></rc>
    <rc><c>O </c><c>   2</c></rc>
    <rc><c>O </c><c>   2</c></rc>
    <rc><c>O </c><c>   2</c></rc>
    <rc><c>O </c><c>   2</c></rc>
    <rc><c>O </c><c>   2</c></rc>
    <rc><c>O </c><c>   2</c></rc>
    <rc><c>O </c><c>   2</c></rc>
    <rc><c>O </c><c>   2</c></rc>
    <rc><c>O </c><c>   2</c></rc>
    <rc><c>O </c><c>   2</c></rc>
    <rc><c>O </c><c>   2</c></rc>
    <rc><c>O </c><c>   2</c></rc>
    <rc><c>O </c><c>   2</c></rc>
    <rc><c>O </c><c>   2</c></rc>
    <rc><c>O </c><c>   2</c></rc>
    <rc><c>O </c><c>   2</c></rc>
    <rc><c>O </c><c>   2</c></rc>
    <rc><c>O </c><c>   2</c></rc>
    <rc><c>O </c><c>   2</c></rc>
    <rc><c>O </c><c>   2</c></rc>
    <rc><c>O </c><c>   2</c></rc>
    <rc><c>O </c><c>   2</c></rc>
    <rc><c>O </c><c>   2</c></rc>
    <rc><c>O </c><c>   2</c></rc>
    <rc><c>O </c><c>   2</c></rc>
    <rc><c>O </c><c>   2</c></rc>
    <rc><c>O </c><c>   2</c></rc>
    <rc><c>O </c><c>   2</c></rc>
    <rc><c>O </c><c>   2</c></rc>
    <rc><c>O </c><c>   2</c></rc>
    <rc><c>O </c><c>   2</c></rc>
    <rc><c>O </c><c>   2</c></rc>
    <rc><c>O </c><c>   2</c></rc>
    <rc><c>O </c><c>   2</c></rc>
    <rc><c>O </c><c>   2</c></rc>
    <rc><c>O </c><c>   2</c></rc>
    <rc><c>O </c><c>   2</c></rc>
    <rc><c>O </c><c>   2</c></rc>
    <rc><c>O </c><c>   2</c></rc>
    <rc><c>O </c><c>   2</c></rc>
    <rc><c>O </c><c>   2</c></rc>
    <rc><c>O </c><c>   2</c></rc>
    <rc><c>O </c><c>   2</c></rc>
    <rc><c>O </c><c>   2</c></rc>
    <rc><c>O </c><c>   2</c></rc>
    <rc><c>O </c><c>   2</c></rc>
    <rc><c>O </c><c>   2</c></rc>
    <rc><c>O </c><c>   2</c></rc>
    <rc><c>O </c><c>   2</c></rc>
    <rc><c>O </c><c>   2</c></rc>
    <rc><c>O </c><c>   2</c></rc>
    <rc><c>O </c><c>   2</c></rc>
    <rc><c>O </c><c>   2</c></rc>
    <rc><c>O </c><c>   2</c></rc>
    <rc><c>O </c><c>   2</c></rc>
    <rc><c>O </c><c>   2</c></rc>
    <rc><c>O </c><c>   2</c></rc>
    <rc><c>O </c><c>   2</c></rc>
    <rc><c>O </c><c>   2</c></rc>
    <rc><c>O </c><c>   2</c></rc>
    <rc><c>P </c><c>   3</c></rc>
   </set>
  </array>
  <array name="atomtypes" >
   <dimension dim="1">type</dimension>
   <field type="int">atomspertype</field>
   <field type="string">element</field>
   <field>mass</field>
   <field>valence</field>
   <field type="string">pseudopotential</field>
   <set>
    <rc><c>  47</c><c>Ga</c><c>     69.72300000</c><c>     13.00000000</c><c>  PAW_PBE Ga_d 06Jul2010                </c></rc>
    <rc><c>  71</c><c>O </c><c>     16.00000000</c><c>      6.00000000</c><c>   PAW_PBE O 08Apr2002                  </c></rc>
    <rc><c>   1</c><c>P </c><c>     30.97400000</c><c>      5.00000000</c><c>  PAW_PBE P 06Sep2000                   </c></rc>
   </set>
  </array>
 </atominfo>
 <structure name="initialpos" >
  <crystal>
   <varray name="basis" >
    <v>       0.00000000      12.28047342       0.00000000 </v>
    <v>       9.14270205       0.00000000       0.00000000 </v>
    <v>       0.00000000      -2.76826177     -11.30069772 </v>
   </varray>
   <i name="volume">   1268.80515525 </i>
   <varray name="rec_basis" >
    <v>       0.00000000       0.08143009      -0.01994742 </v>
    <v>       0.10937686      -0.00000000       0.00000000 </v>
    <v>       0.00000000       0.00000000      -0.08849011 </v>
   </varray>
  </crystal>
  <varray name="positions" >
   <v>       0.66034400       0.99894297       0.15879501 </v>
   <v>       0.65868450       0.99848318       0.65585433 </v>
   <v>       0.66078668       0.33114162       0.15883978 </v>
   <v>       0.65789788       0.33218000       0.65627947 </v>
   <v>       0.66091696       0.66597312       0.15837748 </v>
   <v>       0.65826366       0.66486602       0.65771060 </v>
   <v>       0.84896102       0.16268191       0.34462140 </v>
   <v>       0.83745788       0.16499296       0.84068190 </v>
   <v>       0.84142735       0.49837046       0.34564271 </v>
   <v>       0.84054264       0.49916101       0.84264926 </v>
   <v>       0.84517952       0.83174891       0.34576620 </v>
   <v>       0.83963370       0.83054547       0.84191523 </v>
   <v>       0.59327103       0.16692771       0.39731735 </v>
   <v>       0.59066791       0.16480661       0.89870803 </v>
   <v>       0.59047111       0.49916509       0.39821552 </v>
   <v>       0.59138519       0.49846394       0.89949752 </v>
   <v>       0.59426269       0.83233464       0.39870271 </v>
   <v>       0.59136545       0.83128710       0.89931686 </v>
   <v>       0.90219882       0.99606719       0.09883072 </v>
   <v>       0.91001211       0.99778945       0.60084049 </v>
   <v>       0.90393798       0.33758455       0.09946537 </v>
   <v>       0.90939537       0.33079415       0.60297725 </v>
   <v>       0.90866706       0.66573554       0.10279565 </v>
   <v>       0.90982048       0.66466945       0.60418350 </v>
   <v>       0.15956328       0.16127759       0.65134504 </v>
   <v>       0.15905582       0.50295447       0.16862926 </v>
   <v>       0.15926645       0.49740618       0.66046899 </v>
   <v>       0.15667563       0.83471511       0.17326306 </v>
   <v>       0.15929651       0.83320619       0.65362968 </v>
   <v>       0.34515772       0.00320035       0.34414744 </v>
   <v>       0.34078116       0.99866251       0.84539282 </v>
   <v>       0.33945369       0.33093575       0.34253356 </v>
   <v>       0.34081128       0.33049490       0.84603497 </v>
   <v>       0.34329147       0.66538383       0.34837117 </v>
   <v>       0.33954237       0.66491590       0.84562334 </v>
   <v>       0.11444562       0.99003585       0.37783348 </v>
   <v>       0.08553540       0.99799770       0.88992432 </v>
   <v>       0.09074541       0.32923411       0.39971739 </v>
   <v>       0.08776504       0.32831031       0.89441804 </v>
   <v>       0.08804960       0.66490397       0.40262300 </v>
   <v>       0.09393998       0.66461884       0.90380243 </v>
   <v>       0.41211114       0.16571632       0.10697501 </v>
   <v>       0.40826935       0.16511396       0.60360422 </v>
   <v>       0.41118589       0.50005889       0.10397394 </v>
   <v>       0.40974229       0.49855259       0.60602611 </v>
   <v>       0.40885285       0.83299917       0.10414875 </v>
   <v>       0.40953111       0.83258494       0.60508880 </v>
   <v>       0.99133965       0.16624986       0.10799038 </v>
   <v>       0.99699879       0.16458380       0.62619711 </v>
   <v>       0.99639523       0.49877355       0.12758612 </v>
   <v>       0.99655951       0.49756650       0.63201362 </v>
   <v>       0.99458742       0.83465245       0.12698815 </v>
   <v>       0.99698514       0.83111674       0.63131858 </v>
   <v>       0.50743376       0.99874170       0.37573253 </v>
   <v>       0.50341922       0.99771378       0.87473956 </v>
   <v>       0.50445799       0.33242223       0.37456770 </v>
   <v>       0.50350205       0.33192187       0.87520682 </v>
   <v>       0.50480199       0.66740915       0.37053897 </v>
   <v>       0.50277980       0.66488777       0.87682282 </v>
   <v>       0.67529583       0.16578852       0.28094743 </v>
   <v>       0.67123509       0.16480865       0.78033812 </v>
   <v>       0.67409998       0.49826921       0.28218187 </v>
   <v>       0.67162501       0.49876719       0.78116996 </v>
   <v>       0.67560417       0.83188947       0.28160810 </v>
   <v>       0.67172018       0.83095862       0.78106306 </v>
   <v>       0.82862370       0.99988384       0.21963453 </v>
   <v>       0.82723648       0.99713167       0.71830311 </v>
   <v>       0.82971509       0.33053179       0.22011458 </v>
   <v>       0.82670567       0.33285616       0.71917881 </v>
   <v>       0.82894576       0.66465807       0.22087267 </v>
   <v>       0.82769450       0.66411270       0.72095615 </v>
   <v>       0.83130710       0.99882314       0.44555312 </v>
   <v>       0.82910137       0.99768241       0.94284022 </v>
   <v>       0.83536934       0.32887084       0.44577647 </v>
   <v>       0.82947627       0.33273030       0.94354808 </v>
   <v>       0.83243224       0.66503073       0.44799451 </v>
   <v>       0.83216764       0.66496530       0.94636915 </v>
   <v>       0.66961310       0.16506877       0.05471002 </v>
   <v>       0.66845653       0.16599563       0.55484611 </v>
   <v>       0.66991859       0.49867213       0.05593683 </v>
   <v>       0.66750512       0.49925064       0.55486405 </v>
   <v>       0.67069825       0.83229261       0.05533130 </v>
   <v>       0.66859896       0.83075694       0.55575422 </v>
   <v>       0.49841583       0.99733127       0.12778359 </v>
   <v>       0.49660980       0.99939404       0.62898198 </v>
   <v>       0.49859012       0.33368079       0.12742979 </v>
   <v>       0.49622323       0.33104627       0.63008034 </v>
   <v>       0.49748049       0.66749517       0.12824667 </v>
   <v>       0.49662525       0.66576739       0.63068437 </v>
   <v>       0.01143639       0.15707498       0.36466716 </v>
   <v>       0.99882775       0.16419903       0.86603068 </v>
   <v>       0.00227029       0.49710411       0.37642969 </v>
   <v>       0.00545935       0.49753143       0.87963026 </v>
   <v>       0.00514243       0.83355788       0.37572443 </v>
   <v>       0.00342344       0.82960075       0.87657929 </v>
   <v>       0.17279665       0.99847300       0.78045808 </v>
   <v>       0.17637667       0.35790324       0.29172052 </v>
   <v>       0.17318047       0.32970387       0.78325692 </v>
   <v>       0.17420181       0.66722785       0.28847066 </v>
   <v>       0.17233816       0.66452003       0.78405462 </v>
   <v>       0.33832657       0.16480953       0.22774945 </v>
   <v>       0.32759669       0.16451905       0.72169952 </v>
   <v>       0.32728031       0.50115982       0.21811795 </v>
   <v>       0.32795506       0.49764936       0.72310576 </v>
   <v>       0.32350385       0.84062669       0.21949151 </v>
   <v>       0.32769101       0.83129432       0.72209640 </v>
   <v>       0.32893143       0.16542280       0.44738025 </v>
   <v>       0.33275221       0.16437175       0.95006665 </v>
   <v>       0.33977655       0.49960549       0.44870982 </v>
   <v>       0.32871317       0.49715034       0.94920593 </v>
   <v>       0.33668594       0.83398502       0.44707053 </v>
   <v>       0.32841912       0.83288566       0.94866815 </v>
   <v>       0.15218156       0.01841404       0.05491585 </v>
   <v>       0.16705324       0.99626412       0.55061036 </v>
   <v>       0.15466989       0.30559509       0.05953410 </v>
   <v>       0.16765620       0.33254992       0.55690977 </v>
   <v>       0.16486111       0.66873423       0.06264132 </v>
   <v>       0.16927007       0.66254365       0.55765026 </v>
   <v>       0.13741302       0.16031413       0.14162819 </v>
  </varray>
 </structure>
 <calculation>
  <scstep>
   <time name="total">    3.92    3.92</time>
   <energy>
    <i name="alphaZ">   5376.25786726 </i>
    <i name="ewald"> -86697.10272022 </i>
    <i name="hartreedc">  -2071.99327065 </i>
    <i name="XCdc">   2751.57392285 </i>
    <i name="pawpsdc"> 329105.94833461 </i>
    <i name="pawaedc">-360418.44441715 </i>
    <i name="eentropy">     -0.00930148 </i>
    <i name="bandstr"> -40887.36664243 </i>
    <i name="atom"> 131459.35058357 </i>
    <i name="e_fr_energy"> -21381.78564365 </i>
    <i name="e_wo_entrp"> -21381.77634217 </i>
    <i name="e_0_energy"> -21381.78099291 </i>
   </energy>
  </scstep>
  <scstep>
   <time name="total">    3.10    3.11</time>
   <energy>
    <i name="e_fr_energy"> -66059.89271386 </i>
    <i name="e_wo_entrp"> -66059.87731932 </i>
    <i name="e_0_energy"> -66059.88501659 </i>
   </energy>
  </scstep>
  <scstep>
   <time name="total">    3.32    3.32</time>
   <energy>
    <i name="e_fr_energy"> -71265.00209101 </i>
    <i name="e_wo_entrp"> -71264.97424220 </i>
    <i name="e_0_energy"> -71264.98816661 </i>
   </energy>
  </scstep>
  <scstep>
   <time name="total">    3.77    3.77</time>
   <energy>
    <i name="e_fr_energy"> -71990.62855882 </i>
    <i name="e_wo_entrp"> -71990.57591628 </i>
    <i name="e_0_energy"> -71990.60223755 </i>
   </energy>
  </scstep>
  <scstep>
   <time name="total">  230.59  230.56</time>
   <energy>
    <i name="e_fr_energy"> -39609.19225324 </i>
    <i name="e_wo_entrp"> -39609.19225324 </i>
    <i name="e_0_energy"> -39609.19225324 </i>
   </energy>
  </scstep>
  <scstep>
   <time name="total">  458.85  458.80</time>
   <energy>
    <i name="e_fr_energy">  34548.15045195 </i>
    <i name="e_wo_entrp">  34548.17470713 </i>
    <i name="e_0_energy">  34548.16257954 </i>
   </energy>
  </scstep>
  <scstep>
   <time name="total">  459.75  459.69</time>
   <energy>
    <i name="e_fr_energy">  15716.55753388 </i>
    <i name="e_wo_entrp">  15716.57401548 </i>
    <i name="e_0_energy">  15716.56577468 </i>
   </energy>
  </scstep>
  <scstep>
   <time name="total">  459.38  459.33</time>
   <energy>
    <i name="e_fr_energy">   8503.58616899 </i>
    <i name="e_wo_entrp">   8503.61724511 </i>
    <i name="e_0_energy">   8503.60170705 </i>
   </energy>
  </scstep>
  <scstep>
   <time name="total">  459.84  459.78</time>
   <energy>
    <i name="e_fr_energy">   5812.10470957 </i>
    <i name="e_wo_entrp">   5812.12090543 </i>
    <i name="e_0_energy">   5812.11280750 </i>
   </energy>
  </scstep>
  <scstep>
   <time name="total">  459.41  459.35</time>
   <energy>
    <i name="e_fr_energy">   3515.01988439 </i>
    <i name="e_wo_entrp">   3515.02991040 </i>
    <i name="e_0_energy">   3515.02489740 </i>
   </energy>
  </scstep>
  <scstep>
   <time name="total">  459.53  459.46</time>
   <energy>
    <i name="e_fr_energy">   1854.77522678 </i>
    <i name="e_wo_entrp">   1854.78435132 </i>
    <i name="e_0_energy">   1854.77978905 </i>
   </energy>
  </scstep>
  <scstep>
   <time name="total">  459.20  459.14</time>
   <energy>
    <i name="e_fr_energy">    578.19442827 </i>
    <i name="e_wo_entrp">    578.19714919 </i>
    <i name="e_0_energy">    578.19578873 </i>
   </energy>
  </scstep>
  <scstep>
   <time name="total">  459.04  459.00</time>
   <energy>
    <i name="e_fr_energy">   -141.51029790 </i>
    <i name="e_wo_entrp">   -141.50561636 </i>
    <i name="e_0_energy">   -141.50795713 </i>
   </energy>
  </scstep>
  <scstep>
   <time name="total">  459.20  459.14</time>
   <energy>
    <i name="e_fr_energy">   -557.55353459 </i>
    <i name="e_wo_entrp">   -557.54571959 </i>
    <i name="e_0_energy">   -557.54962709 </i>
   </energy>
  </scstep>
  <scstep>
   <time name="total">  459.00  458.95</time>
   <energy>
    <i name="e_fr_energy">   -752.69210221 </i>
    <i name="e_wo_entrp">   -752.68564532 </i>
    <i name="e_0_energy">   -752.68887376 </i>
   </energy>
  </scstep>
  <scstep>
   <time name="total">  459.16  459.10</time>
   <energy>
    <i name="e_fr_energy">   -822.70907937 </i>
    <i name="e_wo_entrp">   -822.70878182 </i>
    <i name="e_0_energy">   -822.70893059 </i>
   </energy>
  </scstep>
  <scstep>
   <time name="total">  458.47  458.41</time>
   <energy>
    <i name="e_fr_energy">   -873.82650566 </i>
    <i name="e_wo_entrp">   -873.82161712 </i>
    <i name="e_0_energy">   -873.82406139 </i>
   </energy>
  </scstep>
  <scstep>
   <time name="total">  458.39  458.34</time>
   <energy>
    <i name="e_fr_energy">   -907.57721753 </i>
    <i name="e_wo_entrp">   -907.57721753 </i>
    <i name="e_0_energy">   -907.57721753 </i>
   </energy>
  </scstep>
  <scstep>
   <time name="total">  458.63  458.58</time>
   <energy>
    <i name="e_fr_energy">   -931.21146695 </i>
    <i name="e_wo_entrp">   -931.21146695 </i>
    <i name="e_0_energy">   -931.21146695 </i>
   </energy>
  </scstep>
  <scstep>
   <time name="total">  458.62  458.57</time>
   <energy>
    <i name="e_fr_energy">   -948.30165706 </i>
    <i name="e_wo_entrp">   -948.30165706 </i>
    <i name="e_0_energy">   -948.30165706 </i>
   </energy>
  </scstep>
  <scstep>
   <time name="total">  458.39  458.33</time>
   <energy>
    <i name="e_fr_energy">   -958.74178815 </i>
    <i name="e_wo_entrp">   -958.74178815 </i>
    <i name="e_0_energy">   -958.74178815 </i>
   </energy>
  </scstep>
  <scstep>
   <time name="total">  458.93  458.87</time>
   <energy>
    <i name="e_fr_energy">   -965.73224597 </i>
    <i name="e_wo_entrp">   -965.73224597 </i>
    <i name="e_0_energy">   -965.73224597 </i>
   </energy>
  </scstep>
  <scstep>
   <time name="total">  458.36  458.30</time>
   <energy>
    <i name="e_fr_energy">   -969.90987093 </i>
    <i name="e_wo_entrp">   -969.90987093 </i>
    <i name="e_0_energy">   -969.90987093 </i>
   </energy>
  </scstep>
  <scstep>
   <time name="total">  458.66  458.60</time>
   <energy>
    <i name="e_fr_energy">   -972.28574548 </i>
    <i name="e_wo_entrp">   -972.28574548 </i>
    <i name="e_0_energy">   -972.28574548 </i>
   </energy>
  </scstep>
  <scstep>
   <time name="total">  458.40  458.34</time>
   <energy>
    <i name="e_fr_energy">   -973.90633478 </i>
    <i name="e_wo_entrp">   -973.90633478 </i>
    <i name="e_0_energy">   -973.90633478 </i>
   </energy>
  </scstep>
  <scstep>
   <time name="total">  458.46  458.39</time>
   <energy>
    <i name="e_fr_energy">   -974.85803356 </i>
    <i name="e_wo_entrp">   -974.85803356 </i>
    <i name="e_0_energy">   -974.85803356 </i>
   </energy>
  </scstep>
  <scstep>
   <time name="total">  458.72  458.66</time>
   <energy>
    <i name="e_fr_energy">   -975.46670018 </i>
    <i name="e_wo_entrp">   -975.46670018 </i>
    <i name="e_0_energy">   -975.46670018 </i>
   </energy>
  </scstep>
  <scstep>
   <time name="total">  458.47  458.43</time>
   <energy>
    <i name="e_fr_energy">   -975.90700470 </i>
    <i name="e_wo_entrp">   -975.90700470 </i>
    <i name="e_0_energy">   -975.90700470 </i>
   </energy>
  </scstep>
  <scstep>
   <time name="total">  458.30  458.25</time>
   <energy>
    <i name="e_fr_energy">   -976.16782831 </i>
    <i name="e_wo_entrp">   -976.16782831 </i>
    <i name="e_0_energy">   -976.16782831 </i>
   </energy>
  </scstep>
  <scstep>
   <time name="total">  458.40  458.37</time>
   <energy>
    <i name="e_fr_energy">   -976.32003254 </i>
    <i name="e_wo_entrp">   -976.32003254 </i>
    <i name="e_0_energy">   -976.32003254 </i>
   </energy>
  </scstep>
  <scstep>
   <time name="total">  458.40  458.34</time>
   <energy>
    <i name="e_fr_energy">   -976.42543529 </i>
    <i name="e_wo_entrp">   -976.42543529 </i>
    <i name="e_0_energy">   -976.42543529 </i>
   </energy>
  </scstep>
  <scstep>
   <time name="total">  458.48  458.43</time>
   <energy>
    <i name="e_fr_energy">   -976.48821145 </i>
    <i name="e_wo_entrp">   -976.48821145 </i>
    <i name="e_0_energy">   -976.48821145 </i>
   </energy>
  </scstep>
  <scstep>
   <time name="total">  458.43  458.38</time>
   <energy>
    <i name="e_fr_energy">   -976.52705211 </i>
    <i name="e_wo_entrp">   -976.52705211 </i>
    <i name="e_0_energy">   -976.52705211 </i>
   </energy>
  </scstep>
  <scstep>
   <time name="total">  458.40  458.35</time>
   <energy>
    <i name="e_fr_energy">   -976.55632881 </i>
    <i name="e_wo_entrp">   -976.55632881 </i>
    <i name="e_0_energy">   -976.55632881 </i>
   </energy>
  </scstep>
  <scstep>
   <time name="total">  458.37  458.31</time>
   <energy>
    <i name="e_fr_energy">   -976.57506339 </i>
    <i name="e_wo_entrp">   -976.57506339 </i>
    <i name="e_0_energy">   -976.57506339 </i>
   </energy>
  </scstep>
  <scstep>
   <time name="total">  458.47  458.40</time>
   <energy>
    <i name="e_fr_energy">   -976.58642890 </i>
    <i name="e_wo_entrp">   -976.58642890 </i>
    <i name="e_0_energy">   -976.58642890 </i>
   </energy>
  </scstep>
  <scstep>
   <time name="total">  458.46  458.41</time>
   <energy>
    <i name="e_fr_energy">   -976.59413428 </i>
    <i name="e_wo_entrp">   -976.59413428 </i>
    <i name="e_0_energy">   -976.59413428 </i>
   </energy>
  </scstep>
  <scstep>
   <time name="total">  458.56  458.49</time>
   <energy>
    <i name="e_fr_energy">   -976.60265638 </i>
    <i name="e_wo_entrp">   -976.60265638 </i>
    <i name="e_0_energy">   -976.60265638 </i>
   </energy>
  </scstep>
  <scstep>
   <time name="total">  458.46  458.41</time>
   <energy>
    <i name="e_fr_energy">   -976.60579891 </i>
    <i name="e_wo_entrp">   -976.60579891 </i>
    <i name="e_0_energy">   -976.60579891 </i>
   </energy>
  </scstep>
  <scstep>
   <time name="total">  458.63  458.56</time>
   <energy>
    <i name="e_fr_energy">   -976.60684193 </i>
    <i name="e_wo_entrp">   -976.60684193 </i>
    <i name="e_0_energy">   -976.60684193 </i>
   </energy>
  </scstep>
  <scstep>
   <time name="total">  458.52  458.45</time>
   <energy>
    <i name="e_fr_energy">   -976.60713080 </i>
    <i name="e_wo_entrp">   -976.60713080 </i>
    <i name="e_0_energy">   -976.60713080 </i>
   </energy>
  </scstep>
  <scstep>
   <time name="total">  458.48  458.41</time>
   <energy>
    <i name="e_fr_energy">   -976.60724143 </i>
    <i name="e_wo_entrp">   -976.60724143 </i>
    <i name="e_0_energy">   -976.60724143 </i>
   </energy>
  </scstep>
  <scstep>
   <time name="total">  458.43  458.35</time>
   <energy>
    <i name="e_fr_energy">   -976.60726577 </i>
    <i name="e_wo_entrp">   -976.60726577 </i>
    <i name="e_0_energy">   -976.60726577 </i>
   </energy>
  </scstep>
  <scstep>
   <time name="total">  683.42  683.31</time>
   <energy>
    <i name="alphaZ">   5376.25786726 </i>
    <i name="ewald"> -86697.10272022 </i>
    <i name="hartreedc"> -33856.44438212 </i>
    <i name="XCdc">   2753.08691088 </i>
    <i name="pawpsdc"> 120569.46001120 </i>
    <i name="pawaedc">-135733.64287353 </i>
    <i name="eentropy">     -0.00000000 </i>
    <i name="bandstr">  -9101.24245954 </i>
    <i name="atom"> 131459.35058357 </i>
    <i name="e_fr_energy">   -976.60727566 </i>
    <i name="e_wo_entrp">   -976.60727566 </i>
    <i name="e_0_energy">   -976.60727566 </i>
   </energy>
  </scstep>
  <structure>
   <crystal>
    <varray name="basis" >
     <v>       0.00000000      12.28047342       0.00000000 </v>
     <v>       9.14270205       0.00000000       0.00000000 </v>
     <v>       0.00000000      -2.76826177     -11.30069772 </v>
    </varray>
    <i name="volume">   1268.80515525 </i>
    <varray name="rec_basis" >
     <v>       0.00000000       0.08143009      -0.01994742 </v>
     <v>       0.10937686      -0.00000000       0.00000000 </v>
     <v>       0.00000000       0.00000000      -0.08849011 </v>
    </varray>
   </crystal>
   <varray name="positions" >
    <v>       0.66034400       0.99894297       0.15879501 </v>
    <v>       0.65868450       0.99848318       0.65585433 </v>
    <v>       0.66078668       0.33114162       0.15883978 </v>
    <v>       0.65789788       0.33218000       0.65627947 </v>
    <v>       0.66091696       0.66597312       0.15837748 </v>
    <v>       0.65826366       0.66486602       0.65771060 </v>
    <v>       0.84896102       0.16268191       0.34462140 </v>
    <v>       0.83745788       0.16499296       0.84068190 </v>
    <v>       0.84142735       0.49837046       0.34564271 </v>
    <v>       0.84054264       0.49916101       0.84264926 </v>
    <v>       0.84517952       0.83174891       0.34576620 </v>
    <v>       0.83963370       0.83054547       0.84191523 </v>
    <v>       0.59327103       0.16692771       0.39731735 </v>
    <v>       0.59066791       0.16480661       0.89870803 </v>
    <v>       0.59047111       0.49916509       0.39821552 </v>
    <v>       0.59138519       0.49846394       0.89949752 </v>
    <v>       0.59426269       0.83233464       0.39870271 </v>
    <v>       0.59136545       0.83128710       0.89931686 </v>
    <v>       0.90219882       0.99606719       0.09883072 </v>
    <v>       0.91001211       0.99778945       0.60084049 </v>
    <v>       0.90393798       0.33758455       0.09946537 </v>
    <v>       0.90939537       0.33079415       0.60297725 </v>
    <v>       0.90866706       0.66573554       0.10279565 </v>
    <v>       0.90982048       0.66466945       0.60418350 </v>
    <v>       0.15956328       0.16127759       0.65134504 </v>
    <v>       0.15905582       0.50295447       0.16862926 </v>
    <v>       0.15926645       0.49740618       0.66046899 </v>
    <v>       0.15667563       0.83471511       0.17326306 </v>
    <v>       0.15929651       0.83320619       0.65362968 </v>
    <v>       0.34515772       0.00320035       0.34414744 </v>
    <v>       0.34078116       0.99866251       0.84539282 </v>
    <v>       0.33945369       0.33093575       0.34253356 </v>
    <v>       0.34081128       0.33049490       0.84603497 </v>
    <v>       0.34329147       0.66538383       0.34837117 </v>
    <v>       0.33954237       0.66491590       0.84562334 </v>
    <v>       0.11444562       0.99003585       0.37783348 </v>
    <v>       0.08553540       0.99799770       0.88992432 </v>
    <v>       0.09074541       0.32923411       0.39971739 </v>
    <v>       0.08776504       0.32831031       0.89441804 </v>
    <v>       0.08804960       0.66490397       0.40262300 </v>
    <v>       0.09393998       0.66461884       0.90380243 </v>
    <v>       0.41211114       0.16571632       0.10697501 </v>
    <v>       0.40826935       0.16511396       0.60360422 </v>
    <v>       0.41118589       0.50005889       0.10397394 </v>
    <v>       0.40974229       0.49855259       0.60602611 </v>
    <v>       0.40885285       0.83299917       0.10414875 </v>
    <v>       0.40953111       0.83258494       0.60508880 </v>
    <v>       0.99133965       0.16624986       0.10799038 </v>
    <v>       0.99699879       0.16458380       0.62619711 </v>
    <v>       0.99639523       0.49877355       0.12758612 </v>
    <v>       0.99655951       0.49756650       0.63201362 </v>
    <v>       0.99458742       0.83465245       0.12698815 </v>
    <v>       0.99698514       0.83111674       0.63131858 </v>
    <v>       0.50743376       0.99874170       0.37573253 </v>
    <v>       0.50341922       0.99771378       0.87473956 </v>
    <v>       0.50445799       0.33242223       0.37456770 </v>
    <v>       0.50350205       0.33192187       0.87520682 </v>
    <v>       0.50480199       0.66740915       0.37053897 </v>
    <v>       0.50277980       0.66488777       0.87682282 </v>
    <v>       0.67529583       0.16578852       0.28094743 </v>
    <v>       0.67123509       0.16480865       0.78033812 </v>
    <v>       0.67409998       0.49826921       0.28218187 </v>
    <v>       0.67162501       0.49876719       0.78116996 </v>
    <v>       0.67560417       0.83188947       0.28160810 </v>
    <v>       0.67172018       0.83095862       0.78106306 </v>
    <v>       0.82862370       0.99988384       0.21963453 </v>
    <v>       0.82723648       0.99713167       0.71830311 </v>
    <v>       0.82971509       0.33053179       0.22011458 </v>
    <v>       0.82670567       0.33285616       0.71917881 </v>
    <v>       0.82894576       0.66465807       0.22087267 </v>
    <v>       0.82769450       0.66411270       0.72095615 </v>
    <v>       0.83130710       0.99882314       0.44555312 </v>
    <v>       0.82910137       0.99768241       0.94284022 </v>
    <v>       0.83536934       0.32887084       0.44577647 </v>
    <v>       0.82947627       0.33273030       0.94354808 </v>
    <v>       0.83243224       0.66503073       0.44799451 </v>
    <v>       0.83216764       0.66496530       0.94636915 </v>
    <v>       0.66961310       0.16506877       0.05471002 </v>
    <v>       0.66845653       0.16599563       0.55484611 </v>
    <v>       0.66991859       0.49867213       0.05593683 </v>
    <v>       0.66750512       0.49925064       0.55486405 </v>
    <v>       0.67069825       0.83229261       0.05533130 </v>
    <v>       0.66859896       0.83075694       0.55575422 </v>
    <v>       0.49841583       0.99733127       0.12778359 </v>
    <v>       0.49660980       0.99939404       0.62898198 </v>
    <v>       0.49859012       0.33368079       0.12742979 </v>
    <v>       0.49622323       0.33104627       0.63008034 </v>
    <v>       0.49748049       0.66749517       0.12824667 </v>
    <v>       0.49662525       0.66576739       0.63068437 </v>
    <v>       0.01143639       0.15707498       0.36466716 </v>
    <v>       0.99882775       0.16419903       0.86603068 </v>
    <v>       0.00227029       0.49710411       0.37642969 </v>
    <v>       0.00545935       0.49753143       0.87963026 </v>
    <v>       0.00514243       0.83355788       0.37572443 </v>
    <v>       0.00342344       0.82960075       0.87657929 </v>
    <v>       0.17279665       0.99847300       0.78045808 </v>
    <v>       0.17637667       0.35790324       0.29172052 </v>
    <v>       0.17318047       0.32970387       0.78325692 </v>
    <v>       0.17420181       0.66722785       0.28847066 </v>
    <v>       0.17233816       0.66452003       0.78405462 </v>
    <v>       0.33832657       0.16480953       0.22774945 </v>
    <v>       0.32759669       0.16451905       0.72169952 </v>
    <v>       0.32728031       0.50115982       0.21811795 </v>
    <v>       0.32795506       0.49764936       0.72310576 </v>
    <v>       0.32350385       0.84062669       0.21949151 </v>
    <v>       0.32769101       0.83129432       0.72209640 </v>
    <v>       0.32893143       0.16542280       0.44738025 </v>
    <v>       0.33275221       0.16437175       0.95006665 </v>
    <v>       0.33977655       0.49960549       0.44870982 </v>
    <v>       0.32871317       0.49715034       0.94920593 </v>
    <v>       0.33668594       0.83398502       0.44707053 </v>
    <v>       0.32841912       0.83288566       0.94866815 </v>
    <v>       0.15218156       0.01841404       0.05491585 </v>
    <v>       0.16705324       0.99626412       0.55061036 </v>
    <v>       0.15466989       0.30559509       0.05953410 </v>
    <v>       0.16765620       0.33254992       0.55690977 </v>
    <v>       0.16486111       0.66873423       0.06264132 </v>
    <v>       0.16927007       0.66254365       0.55765026 </v>
    <v>       0.13741302       0.16031413       0.14162819 </v>
   </varray>
  </structure>
  <varray name="forces" >
   <v>       0.00094308       0.07214334      -0.01052726 </v>
   <v>       0.00494815       0.06499955       0.02403746 </v>
   <v>      -0.01862844       0.05187097      -0.00437114 </v>
   <v>      -0.01001626       0.05195885       0.02357048 </v>
   <v>       0.01565164       0.08934442      -0.00413463 </v>
   <v>       0.00881462       0.04925336       0.01571033 </v>
   <v>      -0.05697773      -0.04960590      -0.00237250 </v>
   <v>      -0.00525048      -0.08426867      -0.00065921 </v>
   <v>      -0.00121513      -0.03876030      -0.02466897 </v>
   <v>       0.00714172      -0.11141920      -0.01210916 </v>
   <v>       0.01720739      -0.00378658      -0.04635503 </v>
   <v>      -0.00210934      -0.10115275      -0.01464274 </v>
   <v>      -0.01567974      -0.04896840       0.00707775 </v>
   <v>      -0.00191772      -0.01993467       0.00747095 </v>
   <v>      -0.01767441      -0.04656060       0.01659016 </v>
   <v>      -0.00957627      -0.02273391       0.00901605 </v>
   <v>       0.01900667      -0.05137439       0.01891871 </v>
   <v>       0.00919698      -0.01808952       0.00645173 </v>
   <v>      -0.05217162       0.04273208       0.00120030 </v>
   <v>      -0.00190581       0.03348328       0.02369169 </v>
   <v>       0.01398970       0.04873302       0.00940787 </v>
   <v>      -0.01119301       0.03324422      -0.00183238 </v>
   <v>       0.01356676       0.03513055      -0.02028796 </v>
   <v>       0.00606249       0.01669402      -0.02831996 </v>
   <v>      -0.03048772       0.07631361       0.09652439 </v>
   <v>       0.07961997       0.01957893      -0.35615964 </v>
   <v>      -0.00603430       0.09194233       0.05528972 </v>
   <v>      -0.30913323       0.05734283      -0.09936199 </v>
   <v>       0.02550085       0.07305905       0.09207728 </v>
   <v>       0.06127126       0.16545601      -0.02639963 </v>
   <v>       0.00131208      -0.06570871       0.00656158 </v>
   <v>      -0.04845662      -0.18465055       0.03549767 </v>
   <v>      -0.00908348      -0.07659191       0.01192908 </v>
   <v>      -0.02607193      -0.10727851      -0.10392213 </v>
   <v>      -0.00689727      -0.09403652       0.02953354 </v>
   <v>      -0.06099736      -0.42111791      -0.27397945 </v>
   <v>       0.05073537      -0.10562026       0.06346556 </v>
   <v>       0.03818991       0.13821558       0.09945343 </v>
   <v>      -0.04918361      -0.10574512       0.10096203 </v>
   <v>       0.03778758       0.03687286       0.03796175 </v>
   <v>       0.01640131      -0.07478318       0.00946798 </v>
   <v>      -0.00457890      -0.01984041      -0.10919965 </v>
   <v>       0.00699227       0.02131652       0.02468703 </v>
   <v>      -0.01615750      -0.01649022      -0.05186696 </v>
   <v>      -0.00737865       0.04484130       0.05019963 </v>
   <v>       0.02344286       0.01357681      -0.03550410 </v>
   <v>       0.00506653       0.04451489       0.04690833 </v>
   <v>      -0.02132549       0.15705668      -0.00719647 </v>
   <v>       0.00400544      -0.20352481       0.10195855 </v>
   <v>       0.01187744      -0.24769834       0.13359614 </v>
   <v>       0.00223101      -0.18417204       0.15712012 </v>
   <v>      -0.02368079      -0.23531362       0.11600735 </v>
   <v>      -0.00367811      -0.18691621       0.16379456 </v>
   <v>       0.00120629       0.22707988      -0.10666566 </v>
   <v>       0.00523187       0.17973497      -0.12044953 </v>
   <v>       0.02625394       0.27032100      -0.12169838 </v>
   <v>      -0.00314004       0.18147296      -0.11994256 </v>
   <v>      -0.02168503       0.18910112      -0.16387794 </v>
   <v>       0.00075813       0.19498129      -0.10192571 </v>
   <v>       0.01077966      -0.11710216      -0.06629993 </v>
   <v>       0.00474783       0.00303240      -0.13786925 </v>
   <v>       0.00087256      -0.02117443      -0.11972211 </v>
   <v>       0.01384811      -0.03811630      -0.12457617 </v>
   <v>      -0.00758282      -0.06149424      -0.10106157 </v>
   <v>      -0.01705971      -0.02458931      -0.13211298 </v>
   <v>       0.01909983       0.04822315       0.20175164 </v>
   <v>       0.00575549       0.02622596       0.09937641 </v>
   <v>       0.00818667       0.05927575       0.20437230 </v>
   <v>      -0.00552614       0.04844404       0.10576694 </v>
   <v>      -0.00016613       0.03366024       0.14535095 </v>
   <v>      -0.00025206       0.04545589       0.07605629 </v>
   <v>      -0.00471551       0.47445852      -0.09990811 </v>
   <v>      -0.00516091       0.42213436      -0.10114057 </v>
   <v>       0.02381869       0.42210352      -0.10019697 </v>
   <v>       0.03329682       0.42894571      -0.10691522 </v>
   <v>      -0.02031737       0.44560561      -0.09868076 </v>
   <v>      -0.00576601       0.42160684      -0.07672862 </v>
   <v>       0.00384758      -0.43251818       0.08870181 </v>
   <v>       0.00871807      -0.42598640       0.05808144 </v>
   <v>       0.00400019      -0.43160771       0.08557484 </v>
   <v>      -0.00378303      -0.43616644       0.06653716 </v>
   <v>      -0.01133822      -0.44607351       0.08740021 </v>
   <v>       0.01085273      -0.42989013       0.07374121 </v>
   <v>       0.00491029      -0.17149556       0.10747998 </v>
   <v>      -0.01094090      -0.18180035       0.11886630 </v>
   <v>       0.00349780      -0.15914524       0.10922461 </v>
   <v>       0.01410317      -0.16242849       0.11990259 </v>
   <v>      -0.01820649      -0.20053183       0.13621305 </v>
   <v>      -0.00272630      -0.16817688       0.11864906 </v>
   <v>       0.23237614       0.05068057      -0.14502692 </v>
   <v>      -0.00552325       0.23374331      -0.16261613 </v>
   <v>       0.04795259       0.10088468      -0.11683186 </v>
   <v>      -0.05187500       0.23760394      -0.06355034 </v>
   <v>      -0.27653864       0.02057957      -0.05413780 </v>
   <v>       0.08685801       0.24091141      -0.06931877 </v>
   <v>      -0.00775968      -0.12019873      -0.18273272 </v>
   <v>       0.32710762      -0.03160880      -0.21004756 </v>
   <v>       0.06476605      -0.10376056      -0.21471620 </v>
   <v>      -0.02944233      -0.04197395       0.00218808 </v>
   <v>      -0.04963420      -0.01814377      -0.19538484 </v>
   <v>      -0.03946265       0.42089884      -0.00285768 </v>
   <v>      -0.01434084       0.03505358       0.11960475 </v>
   <v>       0.02311080       0.06914071       0.16230356 </v>
   <v>       0.00822745       0.03256191       0.09698193 </v>
   <v>       0.00598505       0.06959432       0.16008229 </v>
   <v>       0.01110967       0.03973232       0.11989374 </v>
   <v>      -0.03750800       0.49719459      -0.14377479 </v>
   <v>       0.00850648       0.42360384      -0.04064460 </v>
   <v>       0.07900313       0.37734968      -0.12006851 </v>
   <v>       0.01240809       0.46574475      -0.08360119 </v>
   <v>      -0.07739765       0.45937169      -0.15582413 </v>
   <v>       0.00176801       0.46495235      -0.08759574 </v>
   <v>       0.42828096      -0.43135054      -0.08723805 </v>
   <v>       0.00654802      -0.29120927      -0.15529110 </v>
   <v>      -0.46993125      -0.42653029      -0.01475167 </v>
   <v>      -0.04808910      -0.44136052       0.01732602 </v>
   <v>      -0.07826367      -0.37628882       0.13775789 </v>
   <v>       0.03608577      -0.47676079       0.03865858 </v>
   <v>       0.08675121      -0.29751396       1.08567073 </v>
  </varray>
  <varray name="stress" >
   <v>     -59.17784688       2.06633090      -0.02924470 </v>
   <v>       2.06633113     -55.71723702      -3.60437484 </v>
   <v>      -0.02924473      -3.60437406     -52.28002191 </v>
  </varray>
  <energy>
   <i name="e_fr_energy">   -976.60727566 </i>
   <i name="e_wo_entrp">   -976.60727566 </i>
   <i name="e_0_energy">   -976.60727566 </i>
  </energy>
  <time name="totalsc">18928.5418926.40</time>
  <eigenvalues>
   <array>
    <dimension dim="1">band</dimension>
    <dimension dim="2">kpoint</dimension>
    <dimension dim="3">spin</dimension>
    <field>eigene</field>
    <field>occ</field>
    <set>
     <set comment="spin 1">
      <set comment="kpoint 1">
       <r>  -20.0807    1.0000 </r>
       <r>  -19.0339    1.0000 </r>
       <r>  -18.8019    1.0000 </r>
       <r>  -18.7646    1.0000 </r>
       <r>  -18.6677    1.0000 </r>
       <r>  -18.6038    1.0000 </r>
       <r>  -18.5316    1.0000 </r>
       <r>  -18.5137    1.0000 </r>
       <r>  -18.3714    1.0000 </r>
       <r>  -18.3457    1.0000 </r>
       <r>  -18.2912    1.0000 </r>
       <r>  -18.2583    1.0000 </r>
       <r>  -18.2233    1.0000 </r>
       <r>  -18.1836    1.0000 </r>
       <r>  -18.1522    1.0000 </r>
       <r>  -18.1209    1.0000 </r>
       <r>  -18.0840    1.0000 </r>
       <r>  -18.0790    1.0000 </r>
       <r>  -18.0695    1.0000 </r>
       <r>  -18.0403    1.0000 </r>
       <r>  -17.9911    1.0000 </r>
       <r>  -17.9543    1.0000 </r>
       <r>  -17.9371    1.0000 </r>
       <r>  -17.9280    1.0000 </r>
       <r>  -17.9189    1.0000 </r>
       <r>  -17.8989    1.0000 </r>
       <r>  -17.8867    1.0000 </r>
       <r>  -17.8233    1.0000 </r>
       <r>  -17.7981    1.0000 </r>
       <r>  -17.7867    1.0000 </r>
       <r>  -17.7752    1.0000 </r>
       <r>  -17.7616    1.0000 </r>
       <r>  -17.7378    1.0000 </r>
       <r>  -17.7289    1.0000 </r>
       <r>  -17.6983    1.0000 </r>
       <r>  -17.6925    1.0000 </r>
       <r>  -17.6802    1.0000 </r>
       <r>  -17.6527    1.0000 </r>
       <r>  -17.6190    1.0000 </r>
       <r>  -17.6020    1.0000 </r>
       <r>  -17.5970    1.0000 </r>
       <r>  -17.5808    1.0000 </r>
       <r>  -17.5622    1.0000 </r>
       <r>  -17.5480    1.0000 </r>
       <r>  -17.5313    1.0000 </r>
       <r>  -17.5063    1.0000 </r>
       <r>  -17.4995    1.0000 </r>
       <r>  -17.4647    1.0000 </r>
       <r>  -17.4344    1.0000 </r>
       <r>  -17.4160    1.0000 </r>
       <r>  -17.3809    1.0000 </r>
       <r>  -17.3627    1.0000 </r>
       <r>  -17.3542    1.0000 </r>
       <r>  -17.3431    1.0000 </r>
       <r>  -17.3328    1.0000 </r>
       <r>  -17.3218    1.0000 </r>
       <r>  -17.3021    1.0000 </r>
       <r>  -17.2968    1.0000 </r>
       <r>  -17.2887    1.0000 </r>
       <r>  -17.2845    1.0000 </r>
       <r>  -17.2735    1.0000 </r>
       <r>  -17.2678    1.0000 </r>
       <r>  -17.2523    1.0000 </r>
       <r>  -17.2413    1.0000 </r>
       <r>  -17.2276    1.0000 </r>
       <r>  -17.2030    1.0000 </r>
       <r>  -17.1807    1.0000 </r>
       <r>  -17.1325    1.0000 </r>
       <r>  -17.0735    1.0000 </r>
       <r>  -17.0156    1.0000 </r>
       <r>  -16.7160    1.0000 </r>
       <r>  -13.7749    1.0000 </r>
       <r>  -13.7252    1.0000 </r>
       <r>  -13.6996    1.0000 </r>
       <r>  -13.6914    1.0000 </r>
       <r>  -13.6602    1.0000 </r>
       <r>  -13.6306    1.0000 </r>
       <r>  -13.6103    1.0000 </r>
       <r>  -13.6052    1.0000 </r>
       <r>  -13.5891    1.0000 </r>
       <r>  -13.5822    1.0000 </r>
       <r>  -13.5661    1.0000 </r>
       <r>  -13.5604    1.0000 </r>
       <r>  -13.5548    1.0000 </r>
       <r>  -13.5446    1.0000 </r>
       <r>  -13.5344    1.0000 </r>
       <r>  -13.5272    1.0000 </r>
       <r>  -13.5205    1.0000 </r>
       <r>  -13.5151    1.0000 </r>
       <r>  -13.5098    1.0000 </r>
       <r>  -13.4996    1.0000 </r>
       <r>  -13.4861    1.0000 </r>
       <r>  -13.4811    1.0000 </r>
       <r>  -13.4710    1.0000 </r>
       <r>  -13.4647    1.0000 </r>
       <r>  -13.4636    1.0000 </r>
       <r>  -13.4555    1.0000 </r>
       <r>  -13.4494    1.0000 </r>
       <r>  -13.4402    1.0000 </r>
       <r>  -13.4323    1.0000 </r>
       <r>  -13.4289    1.0000 </r>
       <r>  -13.4244    1.0000 </r>
       <r>  -13.4111    1.0000 </r>
       <r>  -13.4046    1.0000 </r>
       <r>  -13.4031    1.0000 </r>
       <r>  -13.4021    1.0000 </r>
       <r>  -13.3874    1.0000 </r>
       <r>  -13.3849    1.0000 </r>
       <r>  -13.3791    1.0000 </r>
       <r>  -13.3752    1.0000 </r>
       <r>  -13.3705    1.0000 </r>
       <r>  -13.3669    1.0000 </r>
       <r>  -13.3658    1.0000 </r>
       <r>  -13.3600    1.0000 </r>
       <r>  -13.3587    1.0000 </r>
       <r>  -13.3569    1.0000 </r>
       <r>  -13.3522    1.0000 </r>
       <r>  -13.3491    1.0000 </r>
       <r>  -13.3475    1.0000 </r>
       <r>  -13.3463    1.0000 </r>
       <r>  -13.3403    1.0000 </r>
       <r>  -13.3382    1.0000 </r>
       <r>  -13.3359    1.0000 </r>
       <r>  -13.3331    1.0000 </r>
       <r>  -13.3298    1.0000 </r>
       <r>  -13.3271    1.0000 </r>
       <r>  -13.3209    1.0000 </r>
       <r>  -13.3167    1.0000 </r>
       <r>  -13.3146    1.0000 </r>
       <r>  -13.3111    1.0000 </r>
       <r>  -13.3070    1.0000 </r>
       <r>  -13.3022    1.0000 </r>
       <r>  -13.2961    1.0000 </r>
       <r>  -13.2923    1.0000 </r>
       <r>  -13.2899    1.0000 </r>
       <r>  -13.2869    1.0000 </r>
       <r>  -13.2822    1.0000 </r>
       <r>  -13.2802    1.0000 </r>
       <r>  -13.2744    1.0000 </r>
       <r>  -13.2705    1.0000 </r>
       <r>  -13.2680    1.0000 </r>
       <r>  -13.2669    1.0000 </r>
       <r>  -13.2602    1.0000 </r>
       <r>  -13.2560    1.0000 </r>
       <r>  -13.2537    1.0000 </r>
       <r>  -13.2510    1.0000 </r>
       <r>  -13.2442    1.0000 </r>
       <r>  -13.2391    1.0000 </r>
       <r>  -13.2376    1.0000 </r>
       <r>  -13.2326    1.0000 </r>
       <r>  -13.2314    1.0000 </r>
       <r>  -13.2290    1.0000 </r>
       <r>  -13.2220    1.0000 </r>
       <r>  -13.2173    1.0000 </r>
       <r>  -13.2155    1.0000 </r>
       <r>  -13.2141    1.0000 </r>
       <r>  -13.2133    1.0000 </r>
       <r>  -13.2108    1.0000 </r>
       <r>  -13.2070    1.0000 </r>
       <r>  -13.2031    1.0000 </r>
       <r>  -13.2020    1.0000 </r>
       <r>  -13.1970    1.0000 </r>
       <r>  -13.1936    1.0000 </r>
       <r>  -13.1914    1.0000 </r>
       <r>  -13.1876    1.0000 </r>
       <r>  -13.1852    1.0000 </r>
       <r>  -13.1839    1.0000 </r>
       <r>  -13.1800    1.0000 </r>
       <r>  -13.1785    1.0000 </r>
       <r>  -13.1769    1.0000 </r>
       <r>  -13.1726    1.0000 </r>
       <r>  -13.1720    1.0000 </r>
       <r>  -13.1658    1.0000 </r>
       <r>  -13.1617    1.0000 </r>
       <r>  -13.1563    1.0000 </r>
       <r>  -13.1544    1.0000 </r>
       <r>  -13.1505    1.0000 </r>
       <r>  -13.1485    1.0000 </r>
       <r>  -13.1463    1.0000 </r>
       <r>  -13.1443    1.0000 </r>
       <r>  -13.1393    1.0000 </r>
       <r>  -13.1379    1.0000 </r>
       <r>  -13.1356    1.0000 </r>
       <r>  -13.1313    1.0000 </r>
       <r>  -13.1302    1.0000 </r>
       <r>  -13.1282    1.0000 </r>
       <r>  -13.1220    1.0000 </r>
       <r>  -13.1200    1.0000 </r>
       <r>  -13.1191    1.0000 </r>
       <r>  -13.1161    1.0000 </r>
       <r>  -13.1148    1.0000 </r>
       <r>  -13.1090    1.0000 </r>
       <r>  -13.1082    1.0000 </r>
       <r>  -13.0994    1.0000 </r>
       <r>  -13.0986    1.0000 </r>
       <r>  -13.0960    1.0000 </r>
       <r>  -13.0938    1.0000 </r>
       <r>  -13.0931    1.0000 </r>
       <r>  -13.0853    1.0000 </r>
       <r>  -13.0818    1.0000 </r>
       <r>  -13.0799    1.0000 </r>
       <r>  -13.0777    1.0000 </r>
       <r>  -13.0754    1.0000 </r>
       <r>  -13.0723    1.0000 </r>
       <r>  -13.0692    1.0000 </r>
       <r>  -13.0679    1.0000 </r>
       <r>  -13.0664    1.0000 </r>
       <r>  -13.0629    1.0000 </r>
       <r>  -13.0604    1.0000 </r>
       <r>  -13.0586    1.0000 </r>
       <r>  -13.0550    1.0000 </r>
       <r>  -13.0529    1.0000 </r>
       <r>  -13.0479    1.0000 </r>
       <r>  -13.0431    1.0000 </r>
       <r>  -13.0413    1.0000 </r>
       <r>  -13.0380    1.0000 </r>
       <r>  -13.0371    1.0000 </r>
       <r>  -13.0339    1.0000 </r>
       <r>  -13.0321    1.0000 </r>
       <r>  -13.0299    1.0000 </r>
       <r>  -13.0274    1.0000 </r>
       <r>  -13.0256    1.0000 </r>
       <r>  -13.0239    1.0000 </r>
       <r>  -13.0203    1.0000 </r>
       <r>  -13.0193    1.0000 </r>
       <r>  -13.0157    1.0000 </r>
       <r>  -13.0147    1.0000 </r>
       <r>  -13.0108    1.0000 </r>
       <r>  -13.0101    1.0000 </r>
       <r>  -13.0056    1.0000 </r>
       <r>  -13.0024    1.0000 </r>
       <r>  -12.9994    1.0000 </r>
       <r>  -12.9942    1.0000 </r>
       <r>  -12.9927    1.0000 </r>
       <r>  -12.9873    1.0000 </r>
       <r>  -12.9856    1.0000 </r>
       <r>  -12.9826    1.0000 </r>
       <r>  -12.9769    1.0000 </r>
       <r>  -12.9715    1.0000 </r>
       <r>  -12.9710    1.0000 </r>
       <r>  -12.9655    1.0000 </r>
       <r>  -12.9597    1.0000 </r>
[...]
       <r>   -13.5877   109.1209   160.8397 </r>
       <r>   -13.4506   241.6043   193.9608 </r>
       <r>   -13.3135   455.7434   256.4379 </r>
       <r>   -13.1764   596.0595   338.1507 </r>
       <r>   -13.0393   677.9701   431.0924 </r>
       <r>   -12.9023   514.8954   501.6785 </r>
       <r>   -12.7652   187.2663   527.3506 </r>
       <r>   -12.6281   151.4164   548.1080 </r>
       <r>   -12.4910   106.4312   562.6985 </r>
       <r>   -12.3539   119.3813   579.0642 </r>
       <r>   -12.2168   112.8661   594.5369 </r>
       <r>   -12.0797    79.4906   605.4341 </r>
       <r>   -11.9426    43.7489   611.4316 </r>
       <r>   -11.8055     4.1463   612.0000 </r>
       <r>   -11.6685     0.0002   612.0000 </r>
       <r>   -11.5314     0.0000   612.0000 </r>
       <r>   -11.3943     0.0000   612.0000 </r>
       <r>   -11.2572     0.0000   612.0000 </r>
       <r>   -11.1201     0.0000   612.0000 </r>
       <r>   -10.9830     0.0000   612.0000 </r>
       <r>   -10.8459     0.0000   612.0000 </r>
       <r>   -10.7088     0.0000   612.0000 </r>
       <r>   -10.5718     0.0000   612.0000 </r>
       <r>   -10.4347     0.0000   612.0000 </r>
       <r>   -10.2976     0.0000   612.0000 </r>
       <r>   -10.1605     0.0000   612.0000 </r>
       <r>   -10.0234     0.0000   612.0000 </r>
       <r>    -9.8863     0.0000   612.0000 </r>
       <r>    -9.7492     0.0000   612.0000 </r>
       <r>    -9.6121     0.0000   612.0000 </r>
       <r>    -9.4750     0.0000   612.0000 </r>
       <r>    -9.3380     0.0000   612.0000 </r>
       <r>    -9.2009     0.0000   612.0000 </r>
       <r>    -9.0638     0.0000   612.0000 </r>
       <r>    -8.9267     0.0000   612.0000 </r>
       <r>    -8.7896     0.0000   612.0000 </r>
       <r>    -8.6525     0.0000   612.0000 </r>
       <r>    -8.5154     0.0000   612.0000 </r>
       <r>    -8.3783     0.0000   612.0000 </r>
       <r>    -8.2412     0.0000   612.0000 </r>
       <r>    -8.1042     0.0000   612.0000 </r>
       <r>    -7.9671     0.0000   612.0000 </r>
       <r>    -7.8300     0.0000   612.0000 </r>
       <r>    -7.6929     0.0033   612.0005 </r>
       <r>    -7.5558     9.2325   613.2661 </r>
       <r>    -7.4187     5.3531   614.0000 </r>
       <r>    -7.2816     0.0002   614.0000 </r>
       <r>    -7.1445     0.0000   614.0000 </r>
       <r>    -7.0075     0.0000   614.0000 </r>
       <r>    -6.8704     0.0000   614.0000 </r>
       <r>    -6.7333     0.0000   614.0000 </r>
       <r>    -6.5962     0.0000   614.0000 </r>
       <r>    -6.4591     0.0000   614.0000 </r>
       <r>    -6.3220     0.0000   614.0000 </r>
       <r>    -6.1849     0.0000   614.0000 </r>
       <r>    -6.0478     0.0000   614.0000 </r>
       <r>    -5.9107     0.0000   614.0000 </r>
       <r>    -5.7737     0.0000   614.0000 </r>
       <r>    -5.6366     0.0000   614.0000 </r>
       <r>    -5.4995     0.0006   614.0001 </r>
       <r>    -5.3624     2.9766   614.4081 </r>
       <r>    -5.2253    17.5260   616.8108 </r>
       <r>    -5.0882    27.2733   620.5496 </r>
       <r>    -4.9511    32.0171   624.9388 </r>
       <r>    -4.8140    34.7280   629.6996 </r>
       <r>    -4.6770    37.9537   634.9026 </r>
       <r>    -4.5399    39.0804   640.2601 </r>
       <r>    -4.4028    45.6750   646.5216 </r>
       <r>    -4.2657    48.3978   653.1563 </r>
       <r>    -4.1286    48.9733   659.8700 </r>
       <r>    -3.9915    42.9711   665.7608 </r>
       <r>    -3.8544    48.2133   672.3703 </r>
       <r>    -3.7173    31.0334   676.6246 </r>
       <r>    -3.5802    30.3107   680.7799 </r>
       <r>    -3.4432    35.8791   685.6985 </r>
       <r>    -3.3061    36.0614   690.6421 </r>
       <r>    -3.1690    35.5785   695.5195 </r>
       <r>    -3.0319    42.8275   701.3906 </r>
       <r>    -2.8948    27.1777   705.1164 </r>
       <r>    -2.7577    36.6160   710.1360 </r>
       <r>    -2.6206    37.1307   715.2262 </r>
       <r>    -2.4835    45.1327   721.4133 </r>
       <r>    -2.3465    41.9774   727.1680 </r>
       <r>    -2.2094    41.9200   732.9147 </r>
       <r>    -2.0723    45.9534   739.2144 </r>
       <r>    -1.9352    64.7974   748.0973 </r>
       <r>    -1.7981    64.0480   756.8776 </r>
       <r>    -1.6610    58.1840   764.8539 </r>
       <r>    -1.5239    59.0034   772.9426 </r>
       <r>    -1.3868    63.2617   781.6150 </r>
       <r>    -1.2497    45.4826   787.8502 </r>
       <r>    -1.1127    60.1060   796.0900 </r>
       <r>    -0.9756    73.3599   806.1468 </r>
       <r>    -0.8385    67.0272   815.3354 </r>
       <r>    -0.7014    70.8244   825.0446 </r>
       <r>    -0.5643    58.1231   833.0126 </r>
       <r>    -0.4272    67.3246   842.2420 </r>
       <r>    -0.2901    72.2430   852.1457 </r>
       <r>    -0.1530    77.4734   862.7664 </r>
       <r>    -0.0160    84.6289   874.3680 </r>
       <r>     0.1211    65.1439   883.2985 </r>
       <r>     0.2582    70.4060   892.9503 </r>
       <r>     0.3953    85.8081   904.7136 </r>
       <r>     0.5324    80.7097   915.7780 </r>
       <r>     0.6695    89.4555   928.0413 </r>
       <r>     0.8066    87.9793   940.1022 </r>
       <r>     0.9437    96.6038   953.3454 </r>
       <r>     1.0808   114.6468   969.0622 </r>
       <r>     1.2178   114.9094   984.8149 </r>
       <r>     1.3549   119.6737  1001.2208 </r>
       <r>     1.4920   102.6220  1015.2890 </r>
       <r>     1.6291    62.1089  1023.8035 </r>
       <r>     1.7662    55.2476  1031.3773 </r>
       <r>     1.9033    36.7645  1036.4172 </r>
       <r>     2.0404    11.5228  1037.9969 </r>
       <r>     2.1775     0.0227  1038.0000 </r>
       <r>     2.3145     0.0000  1038.0000 </r>
       <r>     2.4516     0.0000  1038.0000 </r>
       <r>     2.5887     0.0000  1038.0000 </r>
       <r>     2.7258     0.0000  1038.0000 </r>
       <r>     2.8629     0.0000  1038.0000 </r>
       <r>     3.0000     0.0156  1038.0021 </r>
       <r>     3.1371     2.2928  1038.3164 </r>
       <r>     3.2742     8.4283  1039.4719 </r>
       <r>     3.4113     3.8487  1039.9995 </r>
       <r>     3.5483     0.0037  1040.0000 </r>
       <r>     3.6854     0.0000  1040.0000 </r>
       <r>     3.8225     0.0000  1040.0000 </r>
       <r>     3.9596     0.0000  1040.0000 </r>
       <r>     4.0967     0.0000  1040.0000 </r>
       <r>     4.2338     0.0000  1040.0000 </r>
       <r>     4.3709     0.0000  1040.0000 </r>
       <r>     4.5080     0.0000  1040.0000 </r>
       <r>     4.6451     0.0001  1040.0000 </r>
       <r>     4.7821     2.8115  1040.3854 </r>
       <r>     4.9192    10.9987  1041.8932 </r>
       <r>     5.0563     0.7787  1042.0000 </r>
       <r>     5.1934     0.0000  1042.0000 </r>
       <r>     5.3305     0.0000  1042.0000 </r>
       <r>     5.4676     0.0000  1042.0000 </r>
       <r>     5.6047     0.0000  1042.0000 </r>
       <r>     5.7418     0.0000  1042.0000 </r>
       <r>     5.8788     0.0000  1042.0000 </r>
       <r>     6.0159     0.0000  1042.0000 </r>
       <r>     6.1530     0.0000  1042.0000 </r>
       <r>     6.2901     0.0000  1042.0000 </r>
       <r>     6.4272     0.0000  1042.0000 </r>
       <r>     6.5643     0.0000  1042.0000 </r>
       <r>     6.7014     0.0000  1042.0000 </r>
       <r>     6.8385     0.0000  1042.0000 </r>
       <r>     6.9756     0.0200  1042.0027 </r>
       <r>     7.1126     1.7008  1042.2359 </r>
       <r>     7.2497     0.1029  1042.2500 </r>
       <r>     7.3868     0.0000  1042.2500 </r>
       <r>     7.5239     0.7806  1042.3570 </r>
       <r>     7.6610     2.7516  1042.7342 </r>
       <r>     7.7981     0.1759  1042.7583 </r>
       <r>     7.9352     3.3395  1043.2161 </r>
       <r>     8.0723     3.3739  1043.6787 </r>
       <r>     8.2093     2.1821  1043.9778 </r>
       <r>     8.3464     4.6766  1044.6189 </r>
       <r>     8.4835     6.0788  1045.4522 </r>
       <r>     8.6206     2.1862  1045.7519 </r>
       <r>     8.7577     4.3845  1046.3530 </r>
       <r>     8.8948    10.4737  1047.7888 </r>
       <r>     9.0319     7.1156  1048.7643 </r>
       <r>     9.1690     8.4880  1049.9279 </r>
       <r>     9.3061     7.8021  1050.9975 </r>
       <r>     9.4431     8.7191  1052.1928 </r>
       <r>     9.5802     4.5639  1052.8184 </r>
       <r>     9.7173     5.6306  1053.5903 </r>
       <r>     9.8544    14.2363  1055.5419 </r>
       <r>     9.9915    13.9738  1057.4576 </r>
       <r>    10.1286    12.5919  1059.1838 </r>
       <r>    10.2657    15.9253  1061.3669 </r>
       <r>    10.4028    22.5265  1064.4551 </r>
       <r>    10.5398    22.1997  1067.4984 </r>
       <r>    10.6769    26.1249  1071.0798 </r>
       <r>    10.8140    39.9642  1076.5584 </r>
       <r>    10.9511    41.2258  1082.2100 </r>
       <r>    11.0882    28.1968  1086.0754 </r>
       <r>    11.2253    30.0121  1090.1897 </r>
       <r>    11.3624    31.2915  1094.4795 </r>
       <r>    11.4995    28.4193  1098.3754 </r>
       <r>    11.6366    27.4775  1102.1422 </r>
       <r>    11.7736    34.5474  1106.8783 </r>
       <r>    11.9107    38.5016  1112.1564 </r>
       <r>    12.0478    39.0892  1117.5151 </r>
       <r>    12.1849    28.9950  1121.4899 </r>
       <r>    12.3220    33.6969  1126.1094 </r>
       <r>    12.4591    39.6556  1131.5457 </r>
       <r>    12.5962    42.0256  1137.3069 </r>
       <r>    12.7333    37.8163  1142.4911 </r>
       <r>    12.8703    26.3567  1146.1043 </r>
       <r>    13.0074    24.3915  1149.4481 </r>
       <r>    13.1445    34.4306  1154.1681 </r>
       <r>    13.2816    38.8187  1159.4897 </r>
       <r>    13.4187    33.3816  1164.0659 </r>
       <r>    13.5558    34.7937  1168.8357 </r>
       <r>    13.6929    34.9317  1173.6245 </r>
       <r>    13.8300    37.0724  1178.7067 </r>
       <r>    13.9671    33.3093  1183.2730 </r>
       <r>    14.1041    33.8549  1187.9141 </r>
       <r>    14.2412    26.3599  1191.5277 </r>
       <r>    14.3783    26.8433  1195.2076 </r>
       <r>    14.5154    27.0382  1198.9143 </r>
       <r>    14.6525    32.6637  1203.3921 </r>
       <r>    14.7896    22.5516  1206.4836 </r>
       <r>    14.9267    25.5735  1209.9895 </r>
       <r>    15.0638    22.2588  1213.0409 </r>
       <r>    15.2008    20.4524  1215.8447 </r>
       <r>    15.3379    27.8221  1219.6588 </r>
       <r>    15.4750    20.6548  1222.4903 </r>
       <r>    15.6121    18.7976  1225.0672 </r>
       <r>    15.7492    19.1000  1227.6856 </r>
       <r>    15.8863    20.2555  1230.4624 </r>
       <r>    16.0234    18.5774  1233.0091 </r>
       <r>    16.1605    16.8202  1235.3150 </r>
       <r>    16.2976    21.9115  1238.3188 </r>
       <r>    16.4346    17.4917  1240.7167 </r>
       <r>    16.5717    14.9388  1242.7647 </r>
       <r>    16.7088    14.2124  1244.7130 </r>
       <r>    16.8459    14.1203  1246.6487 </r>
       <r>    16.9830    10.4392  1248.0798 </r>
       <r>    17.1201    10.9672  1249.5833 </r>
       <r>    17.2572     1.3606  1249.7698 </r>
       <r>    17.3943     1.6667  1249.9983 </r>
       <r>    17.5313     0.0124  1250.0000 </r>
       <r>    17.6684     0.0000  1250.0000 </r>
       <r>    17.8055     0.0000  1250.0000 </r>
       <r>    17.9426     0.0000  1250.0000 </r>
       <r>    18.0797     0.0000  1250.0000 </r>
       <r>    18.2168     0.0000  1250.0000 </r>
       <r>    18.3539     0.0000  1250.0000 </r>
       <r>    18.4910     0.0000  1250.0000 </r>
       <r>    18.6281     0.0000  1250.0000 </r>
       <r>    18.7651     0.0000  1250.0000 </r>
       <r>    18.9022     0.0000  1250.0000 </r>
       <r>    19.0393     0.0000  1250.0000 </r>
       <r>    19.1764     0.0000  1250.0000 </r>
      </set>
     </set>
    </array>
   </total>
  </dos>
 </calculation>
 <structure name="finalpos" >
  <crystal>
   <varray name="basis" >
    <v>       0.00000000      12.28047342       0.00000000 </v>
    <v>       9.14270205       0.00000000       0.00000000 </v>
    <v>       0.00000000      -2.76826177     -11.30069772 </v>
   </varray>
   <i name="volume">   1268.80515525 </i>
   <varray name="rec_basis" >
    <v>       0.00000000       0.08143009      -0.01994742 </v>
    <v>       0.10937686      -0.00000000       0.00000000 </v>
    <v>       0.00000000       0.00000000      -0.08849011 </v>
   </varray>
  </crystal>
  <varray name="positions" >
   <v>       0.66034400       0.99894297       0.15879501 </v>
   <v>       0.65868450       0.99848318       0.65585433 </v>
   <v>       0.66078668       0.33114162       0.15883978 </v>
   <v>       0.65789788       0.33218000       0.65627947 </v>
   <v>       0.66091696       0.66597312       0.15837748 </v>
   <v>       0.65826366       0.66486602       0.65771060 </v>
   <v>       0.84896102       0.16268191       0.34462140 </v>
   <v>       0.83745788       0.16499296       0.84068190 </v>
   <v>       0.84142735       0.49837046       0.34564271 </v>
   <v>       0.84054264       0.49916101       0.84264926 </v>
   <v>       0.84517952       0.83174891       0.34576620 </v>
   <v>       0.83963370       0.83054547       0.84191523 </v>
   <v>       0.59327103       0.16692771       0.39731735 </v>
   <v>       0.59066791       0.16480661       0.89870803 </v>
   <v>       0.59047111       0.49916509       0.39821552 </v>
   <v>       0.59138519       0.49846394       0.89949752 </v>
   <v>       0.59426269       0.83233464       0.39870271 </v>
   <v>       0.59136545       0.83128710       0.89931686 </v>
   <v>       0.90219882       0.99606719       0.09883072 </v>
   <v>       0.91001211       0.99778945       0.60084049 </v>
   <v>       0.90393798       0.33758455       0.09946537 </v>
   <v>       0.90939537       0.33079415       0.60297725 </v>
   <v>       0.90866706       0.66573554       0.10279565 </v>
   <v>       0.90982048       0.66466945       0.60418350 </v>
   <v>       0.15956328       0.16127759       0.65134504 </v>
   <v>       0.15905582       0.50295447       0.16862926 </v>
   <v>       0.15926645       0.49740618       0.66046899 </v>
   <v>       0.15667563       0.83471511       0.17326306 </v>
   <v>       0.15929651       0.83320619       0.65362968 </v>
   <v>       0.34515772       0.00320035       0.34414744 </v>
   <v>       0.34078116       0.99866251       0.84539282 </v>
   <v>       0.33945369       0.33093575       0.34253356 </v>
   <v>       0.34081128       0.33049490       0.84603497 </v>
   <v>       0.34329147       0.66538383       0.34837117 </v>
   <v>       0.33954237       0.66491590       0.84562334 </v>
   <v>       0.11444562       0.99003585       0.37783348 </v>
   <v>       0.08553540       0.99799770       0.88992432 </v>
   <v>       0.09074541       0.32923411       0.39971739 </v>
   <v>       0.08776504       0.32831031       0.89441804 </v>
   <v>       0.08804960       0.66490397       0.40262300 </v>
   <v>       0.09393998       0.66461884       0.90380243 </v>
   <v>       0.41211114       0.16571632       0.10697501 </v>
   <v>       0.40826935       0.16511396       0.60360422 </v>
   <v>       0.41118589       0.50005889       0.10397394 </v>
   <v>       0.40974229       0.49855259       0.60602611 </v>
   <v>       0.40885285       0.83299917       0.10414875 </v>
   <v>       0.40953111       0.83258494       0.60508880 </v>
   <v>       0.99133965       0.16624986       0.10799038 </v>
   <v>       0.99699879       0.16458380       0.62619711 </v>
   <v>       0.99639523       0.49877355       0.12758612 </v>
   <v>       0.99655951       0.49756650       0.63201362 </v>
   <v>       0.99458742       0.83465245       0.12698815 </v>
   <v>       0.99698514       0.83111674       0.63131858 </v>
   <v>       0.50743376       0.99874170       0.37573253 </v>
   <v>       0.50341922       0.99771378       0.87473956 </v>
   <v>       0.50445799       0.33242223       0.37456770 </v>
   <v>       0.50350205       0.33192187       0.87520682 </v>
   <v>       0.50480199       0.66740915       0.37053897 </v>
   <v>       0.50277980       0.66488777       0.87682282 </v>
   <v>       0.67529583       0.16578852       0.28094743 </v>
   <v>       0.67123509       0.16480865       0.78033812 </v>
   <v>       0.67409998       0.49826921       0.28218187 </v>
   <v>       0.67162501       0.49876719       0.78116996 </v>
   <v>       0.67560417       0.83188947       0.28160810 </v>
   <v>       0.67172018       0.83095862       0.78106306 </v>
   <v>       0.82862370       0.99988384       0.21963453 </v>
   <v>       0.82723648       0.99713167       0.71830311 </v>
   <v>       0.82971509       0.33053179       0.22011458 </v>
   <v>       0.82670567       0.33285616       0.71917881 </v>
   <v>       0.82894576       0.66465807       0.22087267 </v>
   <v>       0.82769450       0.66411270       0.72095615 </v>
   <v>       0.83130710       0.99882314       0.44555312 </v>
   <v>       0.82910137       0.99768241       0.94284022 </v>
   <v>       0.83536934       0.32887084       0.44577647 </v>
   <v>       0.82947627       0.33273030       0.94354808 </v>
   <v>       0.83243224       0.66503073       0.44799451 </v>
   <v>       0.83216764       0.66496530       0.94636915 </v>
   <v>       0.66961310       0.16506877       0.05471002 </v>
   <v>       0.66845653       0.16599563       0.55484611 </v>
   <v>       0.66991859       0.49867213       0.05593683 </v>
   <v>       0.66750512       0.49925064       0.55486405 </v>
   <v>       0.67069825       0.83229261       0.05533130 </v>
   <v>       0.66859896       0.83075694       0.55575422 </v>
   <v>       0.49841583       0.99733127       0.12778359 </v>
   <v>       0.49660980       0.99939404       0.62898198 </v>
   <v>       0.49859012       0.33368079       0.12742979 </v>
   <v>       0.49622323       0.33104627       0.63008034 </v>
   <v>       0.49748049       0.66749517       0.12824667 </v>
   <v>       0.49662525       0.66576739       0.63068437 </v>
   <v>       0.01143639       0.15707498       0.36466716 </v>
   <v>       0.99882775       0.16419903       0.86603068 </v>
   <v>       0.00227029       0.49710411       0.37642969 </v>
   <v>       0.00545935       0.49753143       0.87963026 </v>
   <v>       0.00514243       0.83355788       0.37572443 </v>
   <v>       0.00342344       0.82960075       0.87657929 </v>
   <v>       0.17279665       0.99847300       0.78045808 </v>
   <v>       0.17637667       0.35790324       0.29172052 </v>
   <v>       0.17318047       0.32970387       0.78325692 </v>
   <v>       0.17420181       0.66722785       0.28847066 </v>
   <v>       0.17233816       0.66452003       0.78405462 </v>
   <v>       0.33832657       0.16480953       0.22774945 </v>
   <v>       0.32759669       0.16451905       0.72169952 </v>
   <v>       0.32728031       0.50115982       0.21811795 </v>
   <v>       0.32795506       0.49764936       0.72310576 </v>
   <v>       0.32350385       0.84062669       0.21949151 </v>
   <v>       0.32769101       0.83129432       0.72209640 </v>
   <v>       0.32893143       0.16542280       0.44738025 </v>
   <v>       0.33275221       0.16437175       0.95006665 </v>
   <v>       0.33977655       0.49960549       0.44870982 </v>
   <v>       0.32871317       0.49715034       0.94920593 </v>
   <v>       0.33668594       0.83398502       0.44707053 </v>
   <v>       0.32841912       0.83288566       0.94866815 </v>
   <v>       0.15218156       0.01841404       0.05491585 </v>
   <v>       0.16705324       0.99626412       0.55061036 </v>
   <v>       0.15466989       0.30559509       0.05953410 </v>
   <v>       0.16765620       0.33254992       0.55690977 </v>
   <v>       0.16486111       0.66873423       0.06264132 </v>
   <v>       0.16927007       0.66254365       0.55765026 </v>
   <v>       0.13741302       0.16031413       0.14162819 </v>
  </varray>
 </structure>
</modeling>
