<?xml version="1.0" encoding="ISO-8859-1"?>
<modeling>
 <generator>
  <i name="program" type="string">vasp </i>
  <i name="version" type="string">6.4.2  </i>
  <i name="subversion" type="string">20Jul23 (build Nov 12 2023 22:16:35) complex                          parallel </i>
  <i name="platform" type="string">LinuxNV </i>
  <i name="date" type="string">2025 03 12 </i>
  <i name="time" type="string">13:10:53 </i>
 </generator>
 <incar>
  <i type="int" name="ISTART">     0</i>
  <i type="string" name="PREC">Normal</i>
  <i type="string" name="ALGO">All</i>
  <i type="int" name="ISPIN">     1</i>
  <i type="int" name="ICHARG">     0</i>
  <i type="int" name="NELM">   500</i>
  <i type="int" name="IBRION">    -1</i>
  <i name="EDIFF">      0.00001000</i>
  <i name="EDIFFG">     -0.00500000</i>
  <i type="int" name="NSW">     0</i>
  <i type="int" name="ISIF">     2</i>
  <i name="ENCUT">    450.00000000</i>
  <i type="string" name="LREAL">Auto</i>
  <i type="logical" name="LPLANE"> T  </i>
  <i name="TIME">      0.40000000</i>
  <i type="int" name="ISMEAR">     0</i>
  <i name="SIGMA">      0.05000000</i>
  <i type="logical" name="LWAVE"> T  </i>
  <i type="logical" name="LCHARG"> T  </i>
  <i name="HFSCREEN">      0.18000000</i>
  <i type="logical" name="LHFCALC"> T  </i>
  <i type="int" name="LMAXFOCK">     4</i>
  <i name="AEXX">      0.35000000</i>
  <i type="string" name="PRECFOCK">Fast</i>
 </incar>
 <primitive_cell>
  <structure name="primitive_cell" >
   <crystal>
    <varray name="basis" >
     <v>       0.00000000      12.28047342       0.00000000 </v>
     <v>       9.14270205       0.00000000       0.00000000 </v>
     <v>       0.00000000      -2.76826177     -11.30069772 </v>
    </varray>
    <i name="volume">   1268.80515525 </i>
    <varray name="rec_basis" >
     <v>       0.00000000       0.08143009      -0.01994742 </v>
     <v>       0.10937686      -0.00000000       0.00000000 </v>
     <v>       0.00000000       0.00000000      -0.08849011 </v>
    </varray>
   </crystal>
   <varray name="positions" >
    <v>       0.65846082       0.00000000       0.15461602 </v>
    <v>       0.66029752       0.00000000       0.65615530 </v>
    <v>       0.65946433       0.33307416       0.15616046 </v>
    <v>       0.65993398       0.33363955       0.65606495 </v>
    <v>       0.65946433       0.66692584       0.15616046 </v>
    <v>       0.65993398       0.66636045       0.65606495 </v>
    <v>       0.83964929       0.16362000       0.34181416 </v>
    <v>       0.84075032       0.16642003       0.84305674 </v>
    <v>       0.84379971       0.50000000       0.34236011 </v>
    <v>       0.83959675       0.50000000       0.84349243 </v>
    <v>       0.83964929       0.83638000       0.34181416 </v>
    <v>       0.84075032       0.83357997       0.84305674 </v>
    <v>       0.59362761       0.16837644       0.39798480 </v>
    <v>       0.59153490       0.16657127       0.89682040 </v>
    <v>       0.59078217       0.50000000       0.39645497 </v>
    <v>       0.59050786       0.50000000       0.89727897 </v>
    <v>       0.59362761       0.83162356       0.39798480 </v>
    <v>       0.59153490       0.83342873       0.89682040 </v>
    <v>       0.91166752       0.00000000       0.10247680 </v>
    <v>       0.90882370       0.00000000       0.60234650 </v>
    <v>       0.91016685       0.33293943       0.10148241 </v>
    <v>       0.90941684       0.33371782       0.60337918 </v>
    <v>       0.91016685       0.66706057       0.10148241 </v>
    <v>       0.90941684       0.66628218       0.60337918 </v>
    <v>       0.15931511       0.17656684       0.14541745 </v>
    <v>       0.15753832       0.16982711       0.65710531 </v>
    <v>       0.15965724       0.50000000       0.15492154 </v>
    <v>       0.15958582       0.50000000       0.65351632 </v>
    <v>       0.15931511       0.82343316       0.14541745 </v>
    <v>       0.15753832       0.83017289       0.65710531 </v>
    <v>       0.34970257       0.00000000       0.34609192 </v>
    <v>       0.34120577       0.00000000       0.84094744 </v>
    <v>       0.34068425       0.33353393       0.34344969 </v>
    <v>       0.34091788       0.33354588       0.84264248 </v>
    <v>       0.34068425       0.66646607       0.34344969 </v>
    <v>       0.34091788       0.66645412       0.84264248 </v>
    <v>       0.09161048       0.00000000       0.89513491 </v>
    <v>       0.09276228       0.32961358       0.39544225 </v>
    <v>       0.08975053       0.33484747       0.89291848 </v>
    <v>       0.09276228       0.67038642       0.39544225 </v>
    <v>       0.08975053       0.66515253       0.89291848 </v>
    <v>       0.40787333       0.16601613       0.10082219 </v>
    <v>       0.40994695       0.16673432       0.60155894 </v>
    <v>       0.40871397       0.50000000       0.10134661 </v>
    <v>       0.40928443       0.50000000       0.60141555 </v>
    <v>       0.40787333       0.83398387       0.10082219 </v>
    <v>       0.40994695       0.83326568       0.60155894 </v>
    <v>       0.00058723       0.16634898       0.13379604 </v>
    <v>       0.99663990       0.16643614       0.62776579 </v>
    <v>       0.99793186       0.50000000       0.12511680 </v>
    <v>       0.99753395       0.50000000       0.62654833 </v>
    <v>       0.00058723       0.83365102       0.13379604 </v>
    <v>       0.99663990       0.83356386       0.62776579 </v>
    <v>       0.50779392       0.00000000       0.37281522 </v>
    <v>       0.50331181       0.00000000       0.87160299 </v>
    <v>       0.50278581       0.33267334       0.37168419 </v>
    <v>       0.50298746       0.33266757       0.87156524 </v>
    <v>       0.50278581       0.66732666       0.37168419 </v>
    <v>       0.50298746       0.66733243       0.87156524 </v>
    <v>       0.67325048       0.16699435       0.27939555 </v>
    <v>       0.67275415       0.16631663       0.77959255 </v>
    <v>       0.67533581       0.50000000       0.28093858 </v>
    <v>       0.67196770       0.50000000       0.77962080 </v>
    <v>       0.67325048       0.83300565       0.27939555 </v>
    <v>       0.67275415       0.83368337       0.77959255 </v>
    <v>       0.82962802       0.00000000       0.22010346 </v>
    <v>       0.82861922       0.00000000       0.72028551 </v>
    <v>       0.83152437       0.32992138       0.22095393 </v>
    <v>       0.82803429       0.33334957       0.71999309 </v>
    <v>       0.83152437       0.67007862       0.22095393 </v>
    <v>       0.82803429       0.66665043       0.71999309 </v>
    <v>       0.83211122       0.00000000       0.44538732 </v>
    <v>       0.83403887       0.00000000       0.94679981 </v>
    <v>       0.84122912       0.33034416       0.44403018 </v>
    <v>       0.83221284       0.33247009       0.94595954 </v>
    <v>       0.84122912       0.66965584       0.44403018 </v>
    <v>       0.83221284       0.66752991       0.94595954 </v>
    <v>       0.66837777       0.16668570       0.05372691 </v>
    <v>       0.67084797       0.16729554       0.55404490 </v>
    <v>       0.66864536       0.50000000       0.05439456 </v>
    <v>       0.67045064       0.50000000       0.55264334 </v>
    <v>       0.66837777       0.83331430       0.05372691 </v>
    <v>       0.67084797       0.83270446       0.55404490 </v>
    <v>       0.49594898       0.00000000       0.12732167 </v>
    <v>       0.49733575       0.00000000       0.62477815 </v>
    <v>       0.49581379       0.33246124       0.12778530 </v>
    <v>       0.49691830       0.33333039       0.62510121 </v>
    <v>       0.49581379       0.66753876       0.12778530 </v>
    <v>       0.49691830       0.66666961       0.62510121 </v>
    <v>       0.01722956       0.14140331       0.38008750 </v>
    <v>       0.00444463       0.16677599       0.87513563 </v>
    <v>       0.00706610       0.50000000       0.36986372 </v>
    <v>       0.00184452       0.50000000       0.87084106 </v>
    <v>       0.01722956       0.85859669       0.38008750 </v>
    <v>       0.00444463       0.83322401       0.87513563 </v>
    <v>       0.17063283       0.00000000       0.77426913 </v>
    <v>       0.17198423       0.33025158       0.27706742 </v>
    <v>       0.17269209       0.33413328       0.77796390 </v>
    <v>       0.17198423       0.66974842       0.27706742 </v>
    <v>       0.17269209       0.66586672       0.77796390 </v>
    <v>       0.32245770       0.15941753       0.21926304 </v>
    <v>       0.32487315       0.16418012       0.71550848 </v>
    <v>       0.32687002       0.50000000       0.21933415 </v>
    <v>       0.32694105       0.50000000       0.71765553 </v>
    <v>       0.32245770       0.84058247       0.21926304 </v>
    <v>       0.32487315       0.83581988       0.71550848 </v>
    <v>       0.33060436       0.16457551       0.44417518 </v>
    <v>       0.32953557       0.16555766       0.94380065 </v>
    <v>       0.32936928       0.50000000       0.44504986 </v>
    <v>       0.33272197       0.50000000       0.94433076 </v>
    <v>       0.33060436       0.83542449       0.44417518 </v>
    <v>       0.32953557       0.83444234       0.94380065 </v>
    <v>       0.16483712       0.00000000       0.05699993 </v>
    <v>       0.15408217       0.00000000       0.53973530 </v>
    <v>       0.17100137       0.33827889       0.04872146 </v>
    <v>       0.16678836       0.33140731       0.55182887 </v>
    <v>       0.17100137       0.66172111       0.04872146 </v>
    <v>       0.16678836       0.66859269       0.55182887 </v>
    <v>       0.10299654       0.00000000       0.39748272 </v>
   </varray>
  </structure>
  <varray name="primitive_index" >
   <v type="int" >        1 </v>
   <v type="int" >        2 </v>
   <v type="int" >        3 </v>
   <v type="int" >        4 </v>
   <v type="int" >        5 </v>
   <v type="int" >        6 </v>
   <v type="int" >        7 </v>
   <v type="int" >        8 </v>
   <v type="int" >        9 </v>
   <v type="int" >       10 </v>
   <v type="int" >       11 </v>
   <v type="int" >       12 </v>
   <v type="int" >       13 </v>
   <v type="int" >       14 </v>
   <v type="int" >       15 </v>
   <v type="int" >       16 </v>
   <v type="int" >       17 </v>
   <v type="int" >       18 </v>
   <v type="int" >       19 </v>
   <v type="int" >       20 </v>
   <v type="int" >       21 </v>
   <v type="int" >       22 </v>
   <v type="int" >       23 </v>
   <v type="int" >       24 </v>
   <v type="int" >       25 </v>
   <v type="int" >       26 </v>
   <v type="int" >       27 </v>
   <v type="int" >       28 </v>
   <v type="int" >       29 </v>
   <v type="int" >       30 </v>
   <v type="int" >       31 </v>
   <v type="int" >       32 </v>
   <v type="int" >       33 </v>
   <v type="int" >       34 </v>
   <v type="int" >       35 </v>
   <v type="int" >       36 </v>
   <v type="int" >       37 </v>
   <v type="int" >       38 </v>
   <v type="int" >       39 </v>
   <v type="int" >       40 </v>
   <v type="int" >       41 </v>
   <v type="int" >       42 </v>
   <v type="int" >       43 </v>
   <v type="int" >       44 </v>
   <v type="int" >       45 </v>
   <v type="int" >       46 </v>
   <v type="int" >       47 </v>
   <v type="int" >       48 </v>
   <v type="int" >       49 </v>
   <v type="int" >       50 </v>
   <v type="int" >       51 </v>
   <v type="int" >       52 </v>
   <v type="int" >       53 </v>
   <v type="int" >       54 </v>
   <v type="int" >       55 </v>
   <v type="int" >       56 </v>
   <v type="int" >       57 </v>
   <v type="int" >       58 </v>
   <v type="int" >       59 </v>
   <v type="int" >       60 </v>
   <v type="int" >       61 </v>
   <v type="int" >       62 </v>
   <v type="int" >       63 </v>
   <v type="int" >       64 </v>
   <v type="int" >       65 </v>
   <v type="int" >       66 </v>
   <v type="int" >       67 </v>
   <v type="int" >       68 </v>
   <v type="int" >       69 </v>
   <v type="int" >       70 </v>
   <v type="int" >       71 </v>
   <v type="int" >       72 </v>
   <v type="int" >       73 </v>
   <v type="int" >       74 </v>
   <v type="int" >       75 </v>
   <v type="int" >       76 </v>
   <v type="int" >       77 </v>
   <v type="int" >       78 </v>
   <v type="int" >       79 </v>
   <v type="int" >       80 </v>
   <v type="int" >       81 </v>
   <v type="int" >       82 </v>
   <v type="int" >       83 </v>
   <v type="int" >       84 </v>
   <v type="int" >       85 </v>
   <v type="int" >       86 </v>
   <v type="int" >       87 </v>
   <v type="int" >       88 </v>
   <v type="int" >       89 </v>
   <v type="int" >       90 </v>
   <v type="int" >       91 </v>
   <v type="int" >       92 </v>
   <v type="int" >       93 </v>
   <v type="int" >       94 </v>
   <v type="int" >       95 </v>
   <v type="int" >       96 </v>
   <v type="int" >       97 </v>
   <v type="int" >       98 </v>
   <v type="int" >       99 </v>
   <v type="int" >      100 </v>
   <v type="int" >      101 </v>
   <v type="int" >      102 </v>
   <v type="int" >      103 </v>
   <v type="int" >      104 </v>
   <v type="int" >      105 </v>
   <v type="int" >      106 </v>
   <v type="int" >      107 </v>
   <v type="int" >      108 </v>
   <v type="int" >      109 </v>
   <v type="int" >      110 </v>
   <v type="int" >      111 </v>
   <v type="int" >      112 </v>
   <v type="int" >      113 </v>
   <v type="int" >      114 </v>
   <v type="int" >      115 </v>
   <v type="int" >      116 </v>
   <v type="int" >      117 </v>
   <v type="int" >      118 </v>
   <v type="int" >      119 </v>
  </varray>
 </primitive_cell>
 <kpoints>
  <generation param="Gamma">
   <v type="int" name="divisions">       2        2        2 </v>
   <v name="usershift">      0.00000000       0.00000000       0.00000000 </v>
   <v name="genvec1">      0.50000000       0.00000000       0.00000000 </v>
   <v name="genvec2">      0.00000000       0.50000000       0.00000000 </v>
   <v name="genvec3">      0.00000000       0.00000000       0.50000000 </v>
   <v name="shift">      0.00000000       0.00000000       0.00000000 </v>
  </generation>
  <varray name="kpointlist" >
   <v>       0.00000000       0.00000000       0.00000000 </v>
   <v>       0.50000000       0.00000000       0.00000000 </v>
   <v>       0.00000000       0.50000000       0.00000000 </v>
   <v>       0.50000000       0.50000000       0.00000000 </v>
   <v>       0.00000000       0.00000000       0.50000000 </v>
   <v>       0.50000000       0.00000000       0.50000000 </v>
   <v>       0.00000000       0.50000000       0.50000000 </v>
   <v>       0.50000000       0.50000000       0.50000000 </v>
  </varray>
  <varray name="weights" >
   <v>       0.12500000 </v>
   <v>       0.12500000 </v>
   <v>       0.12500000 </v>
   <v>       0.12500000 </v>
   <v>       0.12500000 </v>
   <v>       0.12500000 </v>
   <v>       0.12500000 </v>
   <v>       0.12500000 </v>
  </varray>
 </kpoints>
 <parameters>
  <separator name="general" >
   <i type="string" name="SYSTEM">unknown system</i>
   <i type="logical" name="LCOMPAT"> F  </i>
  </separator>
  <separator name="electronic" >
   <i type="string" name="PREC">normal</i>
   <i name="ENMAX">    450.00000000</i>
   <i name="ENAUG">    605.39200000</i>
   <i name="EDIFF">      0.00001000</i>
   <i type="int" name="IALGO">    58</i>
   <i type="int" name="IWAVPR">    10</i>
   <i type="int" name="NBANDS">   625</i>
   <i type="int" name="NBANDSLOW">    -1</i>
   <i type="int" name="NBANDSHIGH">    -1</i>
   <i name="NELECT">   1042.00000000</i>
   <i type="int" name="TURBO">     0</i>
   <i type="int" name="IRESTART">     0</i>
   <i type="int" name="NREBOOT">     0</i>
   <i type="int" name="NMIN">     0</i>
   <i name="EREF">      0.00000000</i>
   <separator name="electronic smearing" >
    <i type="int" name="ISMEAR">     0</i>
    <i name="SIGMA">      0.05000000</i>
    <i name="KSPACING">      0.50000000</i>
    <i type="logical" name="KGAMMA"> T  </i>
    <i type="logical" name="KBLOWUP"> T  </i>
   </separator>
   <separator name="electronic projectors" >
    <i type="logical" name="LREAL"> T  </i>
    <v name="ROPT">     -0.00050000     -0.00050000     -0.00050000</v>
    <i type="int" name="LMAXPAW">  -100</i>
    <i type="int" name="LMAXMIX">     2</i>
    <i type="logical" name="NLSPLINE"> F  </i>
   </separator>
   <separator name="electronic startup" >
    <i type="int" name="ISTART">     0</i>
    <i type="int" name="ICHARG">     0</i>
    <i type="int" name="INIWAV">     1</i>
   </separator>
   <separator name="electronic spin" >
    <i type="int" name="ISPIN">     1</i>
    <i type="logical" name="LNONCOLLINEAR"> F  </i>
    <v name="MAGMOM">      1.00000000      1.00000000      1.00000000      1.00000000      1.00000000      1.00000000      1.00000000      1.00000000      1.00000000      1.00000000      1.00000000      1.00000000      1.00000000      1.00000000      1.00000000      1.00000000      1.00000000      1.00000000      1.00000000      1.00000000
      1.00000000      1.00000000      1.00000000      1.00000000      1.00000000      1.00000000      1.00000000      1.00000000      1.00000000      1.00000000      1.00000000      1.00000000      1.00000000      1.00000000      1.00000000      1.00000000      1.00000000      1.00000000      1.00000000      1.00000000
      1.00000000      1.00000000      1.00000000      1.00000000      1.00000000      1.00000000      1.00000000      1.00000000      1.00000000      1.00000000      1.00000000      1.00000000      1.00000000      1.00000000      1.00000000      1.00000000      1.00000000      1.00000000      1.00000000      1.00000000
      1.00000000      1.00000000      1.00000000      1.00000000      1.00000000      1.00000000      1.00000000      1.00000000      1.00000000      1.00000000      1.00000000      1.00000000      1.00000000      1.00000000      1.00000000      1.00000000      1.00000000      1.00000000      1.00000000      1.00000000
      1.00000000      1.00000000      1.00000000      1.00000000      1.00000000      1.00000000      1.00000000      1.00000000      1.00000000      1.00000000      1.00000000      1.00000000      1.00000000      1.00000000      1.00000000      1.00000000      1.00000000      1.00000000      1.00000000      1.00000000
      1.00000000      1.00000000      1.00000000      1.00000000      1.00000000      1.00000000      1.00000000      1.00000000      1.00000000      1.00000000      1.00000000      1.00000000      1.00000000      1.00000000      1.00000000      1.00000000      1.00000000      1.00000000      1.00000000</v>
    <i name="NUPDOWN">     -1.00000000</i>
    <i type="logical" name="LSORBIT"> F  </i>
    <v name="SAXIS">      0.00000000      0.00000000      1.00000000</v>
    <i type="logical" name="LSPIRAL"> F  </i>
    <v name="QSPIRAL">      0.00000000      0.00000000      0.00000000</v>
    <i type="logical" name="LZEROZ"> F  </i>
   </separator>
   <separator name="electronic exchange-correlation" >
    <i type="logical" name="LASPH"> F  </i>
    <i type="logical" name="LMETAGGA"> F  </i>
   </separator>
   <separator name="electronic convergence" >
    <i type="int" name="NELM">   500</i>
    <i type="int" name="NELMDL">    -5</i>
    <i type="int" name="NELMIN">     2</i>
    <i name="ENINI">    450.00000000</i>
    <separator name="electronic convergence detail" >
     <i type="logical" name="LDIAG"> T  </i>
     <i type="logical" name="LSUBROT"> F  </i>
     <i name="WEIMIN">      0.00000000</i>
     <i name="EBREAK">      0.00000000</i>
     <i name="DEPER">      0.30000000</i>
     <i type="int" name="NRMM">     4</i>
     <i name="TIME">      0.40000000</i>
    </separator>
   </separator>
   <separator name="electronic mixer" >
    <i name="AMIX">      0.40000000</i>
    <i name="BMIX">      1.00000000</i>
    <i name="AMIN">      0.10000000</i>
    <i name="AMIX_MAG">      1.60000000</i>
    <i name="BMIX_MAG">      1.00000000</i>
    <separator name="electronic mixer details" >
     <i type="int" name="IMIX">     4</i>
     <i type="logical" name="MIXFIRST"> F  </i>
     <i type="int" name="MAXMIX">   -45</i>
     <i name="WC">    100.00000000</i>
     <i type="int" name="INIMIX">     1</i>
     <i type="int" name="MIXPRE">     1</i>
     <i type="int" name="MREMOVE">     5</i>
    </separator>
   </separator>
   <separator name="electronic dipolcorrection" >
    <i type="logical" name="LDIPOL"> F  </i>
    <i type="logical" name="LMONO"> F  </i>
    <i type="int" name="IDIPOL">     0</i>
    <i name="EPSILON">      1.00000000</i>
    <v name="DIPOL">   -100.00000000   -100.00000000   -100.00000000</v>
    <i name="EFIELD">      0.00000000</i>
   </separator>
  </separator>
  <separator name="grids" >
   <i type="int" name="NGX">    64</i>
   <i type="int" name="NGY">    48</i>
   <i type="int" name="NGZ">    60</i>
   <i type="int" name="NGXF">   128</i>
   <i type="int" name="NGYF">    96</i>
   <i type="int" name="NGZF">   120</i>
   <i type="logical" name="ADDGRID"> F  </i>
  </separator>
  <separator name="ionic" >
   <i type="int" name="NSW">     0</i>
   <i type="int" name="IBRION">    -1</i>
   <i type="int" name="MDALGO">     0</i>
   <i type="int" name="ISIF">     2</i>
   <i name="PSTRESS">      0.00000000</i>
   <i name="EDIFFG">     -0.00500000</i>
   <i type="int" name="NFREE">     0</i>
   <i name="POTIM">      0.50000000</i>
   <i name="SMASS">     -3.00000000</i>
   <i name="SCALEE">      1.00000000</i>
  </separator>
  <separator name="ionic md" >
   <i name="TEBEG">      0.00010000</i>
   <i name="TEEND">      0.00010000</i>
   <i type="int" name="NBLOCK">     1</i>
   <i type="int" name="KBLOCK">     1</i>
   <i type="int" name="NPACO">   256</i>
   <i name="APACO">     10.00000000</i>
  </separator>
  <separator name="symmetry" >
   <i type="int" name="ISYM">     3</i>
   <i name="SYMPREC">      0.00001000</i>
  </separator>
  <separator name="dos" >
   <i type="int" name="LORBIT">     0</i>
   <v name="RWIGS">     -1.00000000     -1.00000000     -1.00000000</v>
   <i type="int" name="NEDOS">   301</i>
   <i name="EMIN">     10.00000000</i>
   <i name="EMAX">    -10.00000000</i>
   <i name="EFERMI">      0.00000000</i>
  </separator>
  <separator name="writing" >
   <i type="int" name="NWRITE">     2</i>
   <i type="logical" name="LWAVE"> T  </i>
   <i type="logical" name="LDOWNSAMPLE"> F  </i>
   <i type="logical" name="LCHARG"> T  </i>
   <i type="logical" name="LPARD"> F  </i>
   <i type="logical" name="LVTOT"> F  </i>
   <i type="logical" name="LVHAR"> F  </i>
   <i type="logical" name="LELF"> F  </i>
   <i type="logical" name="LOPTICS"> F  </i>
   <v name="STM">      0.00000000      0.00000000      0.00000000      0.00000000      0.00000000      0.00000000      0.00000000</v>
  </separator>
  <separator name="performance" >
   <i type="int" name="NPAR">     1</i>
   <i type="int" name="NSIM">     4</i>
   <i type="int" name="NBLK">    -1</i>
   <i type="logical" name="LPLANE"> T  </i>
   <i type="logical" name="LSCALAPACK"> T  </i>
   <i type="logical" name="LSCAAWARE"> F  </i>
   <i type="logical" name="LSCALU"> F  </i>
   <i type="logical" name="LASYNC"> F  </i>
   <i type="logical" name="LORBITALREAL"> F  </i>
  </separator>
  <separator name="miscellaneous" >
   <i type="int" name="IDIOT">     3</i>
   <i type="int" name="PHON_NSTRUCT">    -1</i>
   <i type="logical" name="LMUSIC"> F  </i>
   <v name="POMASS">     69.72300000     16.00000000     30.97400000</v>
   <v name="DARWINR">      0.00000000      0.00000000      0.00000000</v>
   <v name="DARWINV">      1.00000000      1.00000000      1.00000000</v>
   <i type="logical" name="LCORR"> T  </i>
  </separator>
  <i type="logical" name="GGA_COMPAT"> T  </i>
  <i type="logical" name="LBERRY"> F  </i>
  <i type="int" name="ICORELEVEL">     0</i>
  <i type="logical" name="LDAU"> F  </i>
  <i type="int" name="I_CONSTRAINED_M">     0</i>
  <separator name="electronic exchange-correlation" >
   <i type="string" name="GGA">--</i>
   <i type="int" name="VOSKOWN">     0</i>
   <i type="logical" name="LHFCALC"> T  </i>
   <i type="string" name="PRECFOCK">fast</i>
   <i type="logical" name="LSYMGRAD"> F  </i>
   <i type="logical" name="LHFONE"> F  </i>
   <i type="logical" name="LRHFCALC"> F  </i>
   <i type="logical" name="LTHOMAS"> F  </i>
   <i type="logical" name="LMODELHF"> F  </i>
   <i type="logical" name="LFOCKACE"> T  </i>
   <i name="ENCUT4O">     -1.00000000</i>
   <i type="int" name="EXXOEP">     0</i>
   <i type="int" name="FOURORBIT">     0</i>
   <i name="AEXX">      0.35000000</i>
   <i name="HFALPHA">     -1.00000000</i>
   <i name="MCALPHA">      0.00000000</i>
   <i name="ALDAX">      0.65000000</i>
   <i name="AGGAX">      0.65000000</i>
   <i name="ALDAC">      1.00000000</i>
   <i name="AGGAC">      1.00000000</i>
   <i type="int" name="NKREDX">     1</i>
   <i type="int" name="NKREDY">     1</i>
   <i type="int" name="NKREDZ">     1</i>
   <i type="logical" name="SHIFTRED"> F  </i>
   <i type="logical" name="ODDONLY"> F  </i>
   <i type="logical" name="EVENONLY"> F  </i>
   <i type="int" name="LMAXFOCK">     4</i>
   <i type="int" name="NMAXFOCKAE">     1</i>
   <i type="logical" name="LFOCKAEDFT"> F  </i>
   <i name="HFSCREEN">      0.18000000</i>
   <i name="HFSCREENC">      0.18000000</i>
   <i type="int" name="NBANDSGWLOW">     1</i>
  </separator>
  <separator name="vdW DFT" >
   <i type="logical" name="LUSE_VDW"> F  </i>
   <i type="int" name="IVDW_NL">     1</i>
   <i type="logical" name="LSPIN_VDW"> F  </i>
   <i name="Zab_VDW">     -0.84910000</i>
   <i name="PARAM1">      0.12340000</i>
   <i name="PARAM2">      1.00000000</i>
   <i name="PARAM3">      0.00000000</i>
  </separator>
  <separator name="model GW" >
   <i type="int" name="MODEL_GW">     0</i>
   <i name="MODEL_EPS0">      6.39733692</i>
   <i name="MODEL_ALPHA">      1.00000000</i>
  </separator>
  <separator name="linear response parameters" >
   <i type="logical" name="LEPSILON"> F  </i>
   <i type="logical" name="LRPA"> F  </i>
   <i type="logical" name="LNABLA"> F  </i>
   <i type="logical" name="LVEL"> F  </i>
   <i name="CSHIFT">      0.10000000</i>
   <i name="OMEGAMAX">     -1.00000000</i>
   <i name="DEG_THRESHOLD">      0.00200000</i>
   <i name="RTIME">     -0.10000000</i>
   <i name="WPLASMAI">      0.00000000</i>
   <v name="DFIELD">      0.00000000      0.00000000      0.00000000</v>
   <v name="WPLASMA">      0.00000000      0.00000000      0.00000000      0.00000000      0.00000000      0.00000000      0.00000000      0.00000000      0.00000000</v>
  </separator>
  <separator name="orbital magnetization" >
   <i type="logical" name="NUCIND"> F  </i>
   <v name="MAGPOS">      0.00000000      0.00000000      0.00000000</v>
   <i type="logical" name="LNICSALL"> T  </i>
   <i type="logical" name="ORBITALMAG"> F  </i>
   <i type="logical" name="LMAGBLOCH"> F  </i>
   <i type="logical" name="LCHIMAG"> F  </i>
   <i type="logical" name="LGAUGE"> T  </i>
   <i type="int" name="MAGATOM">     0</i>
   <v name="MAGDIPOL">      0.00000000      0.00000000      0.00000000</v>
   <v name="AVECCONST">      0.00000000      0.00000000      0.00000000</v>
  </separator>
  <separator name="response functions" >
   <i type="logical" name="LALL_IN_ONE"> F  </i>
   <i type="int" name="IALL_IN_ONE">    -1</i>
   <i type="int" name="NBANDS_WAVE">    -1</i>
   <i type="logical" name="LFINITE_TEMPERATURE"> F  </i>
   <i type="logical" name="LADDER"> F  </i>
   <i type="logical" name="LRPAFORCE"> F  </i>
   <i type="logical" name="LFXC"> F  </i>
   <i type="logical" name="LHARTREE"> T  </i>
   <i type="int" name="IBSE">     0</i>
   <v type="int" name="KPOINT">    -1     0     0     0</v>
   <i type="logical" name="LTCTC"> F  </i>
   <i type="logical" name="LTCTE"> F  </i>
   <i type="logical" name="LTETE"> F  </i>
   <i type="logical" name="LTRIPLET"> F  </i>
   <i type="logical" name="LFXCEPS"> F  </i>
   <i type="logical" name="LFXHEG"> F  </i>
   <i type="int" name="NATURALO">     2</i>
   <i type="logical" name="LHOLEGF"> F  </i>
   <i type="logical" name="L2ORDER"> F  </i>
   <i type="logical" name="LDMP1"> F  </i>
   <i type="logical" name="LMP2LT"> F  </i>
   <i type="logical" name="LSMP2LT"> F  </i>
   <i type="logical" name="LGWLF"> F  </i>
   <i name="ENCUTGW">     -1.60000002</i>
   <i name="ENCUTGWSOFT">     -1.60000002</i>
   <i name="ENCUTLF">     -1.00000000</i>
   <i type="logical" name="LESF_SPLINES"> F  </i>
   <i type="int" name="LMAXMP2">    -1</i>
   <i name="SCISSOR">      0.00000000</i>
   <i type="int" name="NOMEGA">     0</i>
   <i type="int" name="NOMEGAR">     0</i>
   <i type="int" name="NBANDSGW">    -1</i>
   <i type="int" name="NBANDSO">    -1</i>
   <i type="int" name="NBANDSV">    -1</i>
   <i type="int" name="NELMGW">     1</i>
   <i type="int" name="NELMHF">     1</i>
   <i type="int" name="DIM">     3</i>
   <i type="int" name="IESPILON">     4</i>
   <i type="int" name="ANTIRES">     0</i>
   <i name="OMEGAMAX">    -30.00000000</i>
   <i name="OMEGAMIN">    -30.00000000</i>
   <i name="OMEGATL">   -200.00000000</i>
   <i type="int" name="OMEGAGRID">     0</i>
   <i name="CSHIFT">     -0.10000000</i>
   <i type="logical" name="LSELFENERGY"> F  </i>
   <i type="logical" name="LSPECTRAL"> F  </i>
   <i type="logical" name="LSPECTRALGW"> F  </i>
   <i type="logical" name="LSINGLES"> F  </i>
   <i type="logical" name="LFERMIGW"> F  </i>
   <i type="logical" name="ODDONLYGW"> F  </i>
   <i type="logical" name="EVENONLYGW"> F  </i>
   <i type="int" name="NKREDLFX">     1</i>
   <i type="int" name="NKREDLFY">     1</i>
   <i type="int" name="NKREDLFZ">     1</i>
   <i type="int" name="MAXMEM">  2800</i>
   <i type="int" name="TELESCOPE">     0</i>
   <i type="int" name="NTAUPAR">    -1</i>
   <i type="int" name="NOMEGAPAR">    -1</i>
   <i name="DAMP_NEWTON">      0.80000001</i>
   <i name="LAMBDA">      1.00000000</i>
  </separator>
  <separator name="External order field" >
   <i name="OFIELD_KAPPA">      0.00000000</i>
   <v name="OFIELD_K">      0.00000000      0.00000000      0.00000000</v>
   <i name="OFIELD_Q6_NEAR">      0.00000000</i>
   <i name="OFIELD_Q6_FAR">      0.00000000</i>
   <i name="OFIELD_A">      0.00000000</i>
  </separator>
  <separator name="optional k-points parameters" >
   <i type="int" name="KPOINTS_OPT_MODE">     1</i>
   <i type="logical" name="LKPOINTS_OPT"> F  </i>
  </separator>
 </parameters>
 <atominfo>
  <atoms>     119 </atoms>
  <types>       3 </types>
  <array name="atoms" >
   <dimension dim="1">ion</dimension>
   <field type="string">element</field>
   <field type="int">atomtype</field>
   <set>
    <rc><c>Ga</c><c>   1</c></rc>
    <rc><c>Ga</c><c>   1</c></rc>
    <rc><c>Ga</c><c>   1</c></rc>
    <rc><c>Ga</c><c>   1</c></rc>
    <rc><c>Ga</c><c>   1</c></rc>
    <rc><c>Ga</c><c>   1</c></rc>
    <rc><c>Ga</c><c>   1</c></rc>
    <rc><c>Ga</c><c>   1</c></rc>
    <rc><c>Ga</c><c>   1</c></rc>
    <rc><c>Ga</c><c>   1</c></rc>
    <rc><c>Ga</c><c>   1</c></rc>
    <rc><c>Ga</c><c>   1</c></rc>
    <rc><c>Ga</c><c>   1</c></rc>
    <rc><c>Ga</c><c>   1</c></rc>
    <rc><c>Ga</c><c>   1</c></rc>
    <rc><c>Ga</c><c>   1</c></rc>
    <rc><c>Ga</c><c>   1</c></rc>
    <rc><c>Ga</c><c>   1</c></rc>
    <rc><c>Ga</c><c>   1</c></rc>
    <rc><c>Ga</c><c>   1</c></rc>
    <rc><c>Ga</c><c>   1</c></rc>
    <rc><c>Ga</c><c>   1</c></rc>
    <rc><c>Ga</c><c>   1</c></rc>
    <rc><c>Ga</c><c>   1</c></rc>
    <rc><c>Ga</c><c>   1</c></rc>
    <rc><c>Ga</c><c>   1</c></rc>
    <rc><c>Ga</c><c>   1</c></rc>
    <rc><c>Ga</c><c>   1</c></rc>
    <rc><c>Ga</c><c>   1</c></rc>
    <rc><c>Ga</c><c>   1</c></rc>
    <rc><c>Ga</c><c>   1</c></rc>
    <rc><c>Ga</c><c>   1</c></rc>
    <rc><c>Ga</c><c>   1</c></rc>
    <rc><c>Ga</c><c>   1</c></rc>
    <rc><c>Ga</c><c>   1</c></rc>
    <rc><c>Ga</c><c>   1</c></rc>
    <rc><c>Ga</c><c>   1</c></rc>
    <rc><c>Ga</c><c>   1</c></rc>
    <rc><c>Ga</c><c>   1</c></rc>
    <rc><c>Ga</c><c>   1</c></rc>
    <rc><c>Ga</c><c>   1</c></rc>
    <rc><c>Ga</c><c>   1</c></rc>
    <rc><c>Ga</c><c>   1</c></rc>
    <rc><c>Ga</c><c>   1</c></rc>
    <rc><c>Ga</c><c>   1</c></rc>
    <rc><c>Ga</c><c>   1</c></rc>
    <rc><c>Ga</c><c>   1</c></rc>
    <rc><c>O </c><c>   2</c></rc>
    <rc><c>O </c><c>   2</c></rc>
    <rc><c>O </c><c>   2</c></rc>
    <rc><c>O </c><c>   2</c></rc>
    <rc><c>O </c><c>   2</c></rc>
    <rc><c>O </c><c>   2</c></rc>
    <rc><c>O </c><c>   2</c></rc>
    <rc><c>O </c><c>   2</c></rc>
    <rc><c>O </c><c>   2</c></rc>
    <rc><c>O </c><c>   2</c></rc>
    <rc><c>O </c><c>   2</c></rc>
    <rc><c>O </c><c>   2</c></rc>
    <rc><c>O </c><c>   2</c></rc>
    <rc><c>O </c><c>   2</c></rc>
    <rc><c>O </c><c>   2</c></rc>
    <rc><c>O </c><c>   2</c></rc>
    <rc><c>O </c><c>   2</c></rc>
    <rc><c>O </c><c>   2</c></rc>
    <rc><c>O </c><c>   2</c></rc>
    <rc><c>O </c><c>   2</c></rc>
    <rc><c>O </c><c>   2</c></rc>
    <rc><c>O </c><c>   2</c></rc>
    <rc><c>O </c><c>   2</c></rc>
    <rc><c>O </c><c>   2</c></rc>
    <rc><c>O </c><c>   2</c></rc>
    <rc><c>O </c><c>   2</c></rc>
    <rc><c>O </c><c>   2</c></rc>
    <rc><c>O </c><c>   2</c></rc>
    <rc><c>O </c><c>   2</c></rc>
    <rc><c>O </c><c>   2</c></rc>
    <rc><c>O </c><c>   2</c></rc>
    <rc><c>O </c><c>   2</c></rc>
    <rc><c>O </c><c>   2</c></rc>
    <rc><c>O </c><c>   2</c></rc>
    <rc><c>O </c><c>   2</c></rc>
    <rc><c>O </c><c>   2</c></rc>
    <rc><c>O </c><c>   2</c></rc>
    <rc><c>O </c><c>   2</c></rc>
    <rc><c>O </c><c>   2</c></rc>
    <rc><c>O </c><c>   2</c></rc>
    <rc><c>O </c><c>   2</c></rc>
    <rc><c>O </c><c>   2</c></rc>
    <rc><c>O </c><c>   2</c></rc>
    <rc><c>O </c><c>   2</c></rc>
    <rc><c>O </c><c>   2</c></rc>
    <rc><c>O </c><c>   2</c></rc>
    <rc><c>O </c><c>   2</c></rc>
    <rc><c>O </c><c>   2</c></rc>
    <rc><c>O </c><c>   2</c></rc>
    <rc><c>O </c><c>   2</c></rc>
    <rc><c>O </c><c>   2</c></rc>
    <rc><c>O </c><c>   2</c></rc>
    <rc><c>O </c><c>   2</c></rc>
    <rc><c>O </c><c>   2</c></rc>
    <rc><c>O </c><c>   2</c></rc>
    <rc><c>O </c><c>   2</c></rc>
    <rc><c>O </c><c>   2</c></rc>
    <rc><c>O </c><c>   2</c></rc>
    <rc><c>O </c><c>   2</c></rc>
    <rc><c>O </c><c>   2</c></rc>
    <rc><c>O </c><c>   2</c></rc>
    <rc><c>O </c><c>   2</c></rc>
    <rc><c>O </c><c>   2</c></rc>
    <rc><c>O </c><c>   2</c></rc>
    <rc><c>O </c><c>   2</c></rc>
    <rc><c>O </c><c>   2</c></rc>
    <rc><c>O </c><c>   2</c></rc>
    <rc><c>O </c><c>   2</c></rc>
    <rc><c>O </c><c>   2</c></rc>
    <rc><c>O </c><c>   2</c></rc>
    <rc><c>O </c><c>   2</c></rc>
    <rc><c>P </c><c>   3</c></rc>
   </set>
  </array>
  <array name="atomtypes" >
   <dimension dim="1">type</dimension>
   <field type="int">atomspertype</field>
   <field type="string">element</field>
   <field>mass</field>
   <field>valence</field>
   <field type="string">pseudopotential</field>
   <set>
    <rc><c>  47</c><c>Ga</c><c>     69.72300000</c><c>     13.00000000</c><c>  PAW_PBE Ga_d 06Jul2010                </c></rc>
    <rc><c>  71</c><c>O </c><c>     16.00000000</c><c>      6.00000000</c><c>   PAW_PBE O 08Apr2002                  </c></rc>
    <rc><c>   1</c><c>P </c><c>     30.97400000</c><c>      5.00000000</c><c>  PAW_PBE P 06Sep2000                   </c></rc>
   </set>
  </array>
 </atominfo>
 <structure name="initialpos" >
  <crystal>
   <varray name="basis" >
    <v>       0.00000000      12.28047342       0.00000000 </v>
    <v>       9.14270205       0.00000000       0.00000000 </v>
    <v>       0.00000000      -2.76826177     -11.30069772 </v>
   </varray>
   <i name="volume">   1268.80515525 </i>
   <varray name="rec_basis" >
    <v>       0.00000000       0.08143009      -0.01994742 </v>
    <v>       0.10937686      -0.00000000       0.00000000 </v>
    <v>       0.00000000       0.00000000      -0.08849011 </v>
   </varray>
  </crystal>
  <varray name="positions" >
   <v>       0.65846082       0.00000000       0.15461602 </v>
   <v>       0.66029752       0.00000000       0.65615530 </v>
   <v>       0.65946433       0.33307416       0.15616046 </v>
   <v>       0.65993398       0.33363955       0.65606495 </v>
   <v>       0.65946433       0.66692584       0.15616046 </v>
   <v>       0.65993398       0.66636045       0.65606495 </v>
   <v>       0.83964929       0.16362000       0.34181416 </v>
   <v>       0.84075032       0.16642003       0.84305674 </v>
   <v>       0.84379971       0.50000000       0.34236011 </v>
   <v>       0.83959675       0.50000000       0.84349243 </v>
   <v>       0.83964929       0.83638000       0.34181416 </v>
   <v>       0.84075032       0.83357997       0.84305674 </v>
   <v>       0.59362761       0.16837644       0.39798480 </v>
   <v>       0.59153490       0.16657127       0.89682040 </v>
   <v>       0.59078217       0.50000000       0.39645497 </v>
   <v>       0.59050786       0.50000000       0.89727897 </v>
   <v>       0.59362761       0.83162356       0.39798480 </v>
   <v>       0.59153490       0.83342873       0.89682040 </v>
   <v>       0.91166752       0.00000000       0.10247680 </v>
   <v>       0.90882370       0.00000000       0.60234650 </v>
   <v>       0.91016685       0.33293943       0.10148241 </v>
   <v>       0.90941684       0.33371782       0.60337918 </v>
   <v>       0.91016685       0.66706057       0.10148241 </v>
   <v>       0.90941684       0.66628218       0.60337918 </v>
   <v>       0.15931511       0.17656684       0.14541745 </v>
   <v>       0.15753832       0.16982711       0.65710531 </v>
   <v>       0.15965724       0.50000000       0.15492154 </v>
   <v>       0.15958582       0.50000000       0.65351632 </v>
   <v>       0.15931511       0.82343316       0.14541745 </v>
   <v>       0.15753832       0.83017289       0.65710531 </v>
   <v>       0.34970257       0.00000000       0.34609192 </v>
   <v>       0.34120577       0.00000000       0.84094744 </v>
   <v>       0.34068425       0.33353393       0.34344969 </v>
   <v>       0.34091788       0.33354588       0.84264248 </v>
   <v>       0.34068425       0.66646607       0.34344969 </v>
   <v>       0.34091788       0.66645412       0.84264248 </v>
   <v>       0.09161048       0.00000000       0.89513491 </v>
   <v>       0.09276228       0.32961358       0.39544225 </v>
   <v>       0.08975053       0.33484747       0.89291848 </v>
   <v>       0.09276228       0.67038642       0.39544225 </v>
   <v>       0.08975053       0.66515253       0.89291848 </v>
   <v>       0.40787333       0.16601613       0.10082219 </v>
   <v>       0.40994695       0.16673432       0.60155894 </v>
   <v>       0.40871397       0.50000000       0.10134661 </v>
   <v>       0.40928443       0.50000000       0.60141555 </v>
   <v>       0.40787333       0.83398387       0.10082219 </v>
   <v>       0.40994695       0.83326568       0.60155894 </v>
   <v>       0.00058723       0.16634898       0.13379604 </v>
   <v>       0.99663990       0.16643614       0.62776579 </v>
   <v>       0.99793186       0.50000000       0.12511680 </v>
   <v>       0.99753395       0.50000000       0.62654833 </v>
   <v>       0.00058723       0.83365102       0.13379604 </v>
   <v>       0.99663990       0.83356386       0.62776579 </v>
   <v>       0.50779392       0.00000000       0.37281522 </v>
   <v>       0.50331181       0.00000000       0.87160299 </v>
   <v>       0.50278581       0.33267334       0.37168419 </v>
   <v>       0.50298746       0.33266757       0.87156524 </v>
   <v>       0.50278581       0.66732666       0.37168419 </v>
   <v>       0.50298746       0.66733243       0.87156524 </v>
   <v>       0.67325048       0.16699435       0.27939555 </v>
   <v>       0.67275415       0.16631663       0.77959255 </v>
   <v>       0.67533581       0.50000000       0.28093858 </v>
   <v>       0.67196770       0.50000000       0.77962080 </v>
   <v>       0.67325048       0.83300565       0.27939555 </v>
   <v>       0.67275415       0.83368337       0.77959255 </v>
   <v>       0.82962802       0.00000000       0.22010346 </v>
   <v>       0.82861922       0.00000000       0.72028551 </v>
   <v>       0.83152437       0.32992138       0.22095393 </v>
   <v>       0.82803429       0.33334957       0.71999309 </v>
   <v>       0.83152437       0.67007862       0.22095393 </v>
   <v>       0.82803429       0.66665043       0.71999309 </v>
   <v>       0.83211122       0.00000000       0.44538732 </v>
   <v>       0.83403887       0.00000000       0.94679981 </v>
   <v>       0.84122912       0.33034416       0.44403018 </v>
   <v>       0.83221284       0.33247009       0.94595954 </v>
   <v>       0.84122912       0.66965584       0.44403018 </v>
   <v>       0.83221284       0.66752991       0.94595954 </v>
   <v>       0.66837777       0.16668570       0.05372691 </v>
   <v>       0.67084797       0.16729554       0.55404490 </v>
   <v>       0.66864536       0.50000000       0.05439456 </v>
   <v>       0.67045064       0.50000000       0.55264334 </v>
   <v>       0.66837777       0.83331430       0.05372691 </v>
   <v>       0.67084797       0.83270446       0.55404490 </v>
   <v>       0.49594898       0.00000000       0.12732167 </v>
   <v>       0.49733575       0.00000000       0.62477815 </v>
   <v>       0.49581379       0.33246124       0.12778530 </v>
   <v>       0.49691830       0.33333039       0.62510121 </v>
   <v>       0.49581379       0.66753876       0.12778530 </v>
   <v>       0.49691830       0.66666961       0.62510121 </v>
   <v>       0.01722956       0.14140331       0.38008750 </v>
   <v>       0.00444463       0.16677599       0.87513563 </v>
   <v>       0.00706610       0.50000000       0.36986372 </v>
   <v>       0.00184452       0.50000000       0.87084106 </v>
   <v>       0.01722956       0.85859669       0.38008750 </v>
   <v>       0.00444463       0.83322401       0.87513563 </v>
   <v>       0.17063283       0.00000000       0.77426913 </v>
   <v>       0.17198423       0.33025158       0.27706742 </v>
   <v>       0.17269209       0.33413328       0.77796390 </v>
   <v>       0.17198423       0.66974842       0.27706742 </v>
   <v>       0.17269209       0.66586672       0.77796390 </v>
   <v>       0.32245770       0.15941753       0.21926304 </v>
   <v>       0.32487315       0.16418012       0.71550848 </v>
   <v>       0.32687002       0.50000000       0.21933415 </v>
   <v>       0.32694105       0.50000000       0.71765553 </v>
   <v>       0.32245770       0.84058247       0.21926304 </v>
   <v>       0.32487315       0.83581988       0.71550848 </v>
   <v>       0.33060436       0.16457551       0.44417518 </v>
   <v>       0.32953557       0.16555766       0.94380065 </v>
   <v>       0.32936928       0.50000000       0.44504986 </v>
   <v>       0.33272197       0.50000000       0.94433076 </v>
   <v>       0.33060436       0.83542449       0.44417518 </v>
   <v>       0.32953557       0.83444234       0.94380065 </v>
   <v>       0.16483712       0.00000000       0.05699993 </v>
   <v>       0.15408217       0.00000000       0.53973530 </v>
   <v>       0.17100137       0.33827889       0.04872146 </v>
   <v>       0.16678836       0.33140731       0.55182887 </v>
   <v>       0.17100137       0.66172111       0.04872146 </v>
   <v>       0.16678836       0.66859269       0.55182887 </v>
   <v>       0.10299654       0.00000000       0.39748272 </v>
  </varray>
 </structure>
 <calculation>
  <scstep>
   <time name="total">    3.89    3.89</time>
   <energy>
    <i name="alphaZ">   5376.25786726 </i>
    <i name="ewald"> -86630.39988638 </i>
    <i name="hartreedc">  -2080.38015315 </i>
    <i name="XCdc">   2751.56796214 </i>
    <i name="pawpsdc"> 332312.58831619 </i>
    <i name="pawaedc">-363625.51082660 </i>
    <i name="eentropy">     -0.01144864 </i>
    <i name="bandstr"> -40947.21810090 </i>
    <i name="atom"> 131459.35058357 </i>
    <i name="e_fr_energy"> -21383.75568651 </i>
    <i name="e_wo_entrp"> -21383.74423787 </i>
    <i name="e_0_energy"> -21383.74996219 </i>
   </energy>
  </scstep>
  <scstep>
   <time name="total">    3.12    3.12</time>
   <energy>
    <i name="e_fr_energy"> -65790.59511390 </i>
    <i name="e_wo_entrp"> -65790.57975801 </i>
    <i name="e_0_energy"> -65790.58743595 </i>
   </energy>
  </scstep>
  <scstep>
   <time name="total">    3.29    3.29</time>
   <energy>
    <i name="e_fr_energy"> -70748.27908502 </i>
    <i name="e_wo_entrp"> -70748.24562224 </i>
    <i name="e_0_energy"> -70748.26235363 </i>
   </energy>
  </scstep>
  <scstep>
   <time name="total">    3.82    3.82</time>
   <energy>
    <i name="e_fr_energy"> -71468.97133256 </i>
    <i name="e_wo_entrp"> -71468.91474416 </i>
    <i name="e_0_energy"> -71468.94303836 </i>
   </energy>
  </scstep>
  <scstep>
   <time name="total">  231.38  231.36</time>
   <energy>
    <i name="e_fr_energy"> -39060.96468109 </i>
    <i name="e_wo_entrp"> -39060.96467822 </i>
    <i name="e_0_energy"> -39060.96467966 </i>
   </energy>
  </scstep>
  <scstep>
   <time name="total">  459.61  459.60</time>
   <energy>
    <i name="e_fr_energy">  32497.33859641 </i>
    <i name="e_wo_entrp">  32497.36457302 </i>
    <i name="e_0_energy">  32497.35158472 </i>
   </energy>
  </scstep>
  <scstep>
   <time name="total">  461.09  461.01</time>
   <energy>
    <i name="e_fr_energy">  13525.29482453 </i>
    <i name="e_wo_entrp">  13525.32311748 </i>
    <i name="e_0_energy">  13525.30897100 </i>
   </energy>
  </scstep>
  <scstep>
   <time name="total">  460.26  460.18</time>
   <energy>
    <i name="e_fr_energy">   9274.54629097 </i>
    <i name="e_wo_entrp">   9274.57635334 </i>
    <i name="e_0_energy">   9274.56132216 </i>
   </energy>
  </scstep>
  <scstep>
   <time name="total">  459.73  459.65</time>
   <energy>
    <i name="e_fr_energy">   7147.48726742 </i>
    <i name="e_wo_entrp">   7147.50539723 </i>
    <i name="e_0_energy">   7147.49633233 </i>
   </energy>
  </scstep>
  <scstep>
   <time name="total">  459.69  459.61</time>
   <energy>
    <i name="e_fr_energy">   5470.15118115 </i>
    <i name="e_wo_entrp">   5470.16002901 </i>
    <i name="e_0_energy">   5470.15560508 </i>
   </energy>
  </scstep>
  <scstep>
   <time name="total">  459.14  459.06</time>
   <energy>
    <i name="e_fr_energy">   3186.26654728 </i>
    <i name="e_wo_entrp">   3186.27612744 </i>
    <i name="e_0_energy">   3186.27133736 </i>
   </energy>
  </scstep>
  <scstep>
   <time name="total">  458.78  458.69</time>
   <energy>
    <i name="e_fr_energy">   1836.28563295 </i>
    <i name="e_wo_entrp">   1836.28865047 </i>
    <i name="e_0_energy">   1836.28714171 </i>
   </energy>
  </scstep>
  <scstep>
   <time name="total">  458.96  458.88</time>
   <energy>
    <i name="e_fr_energy">    627.08633031 </i>
    <i name="e_wo_entrp">    627.10329733 </i>
    <i name="e_0_energy">    627.09481382 </i>
   </energy>
  </scstep>
  <scstep>
   <time name="total">  459.24  459.16</time>
   <energy>
    <i name="e_fr_energy">   -111.50320817 </i>
    <i name="e_wo_entrp">   -111.49835615 </i>
    <i name="e_0_energy">   -111.50078216 </i>
   </energy>
  </scstep>
  <scstep>
   <time name="total">  459.10  459.02</time>
   <energy>
    <i name="e_fr_energy">   -546.70577789 </i>
    <i name="e_wo_entrp">   -546.69151605 </i>
    <i name="e_0_energy">   -546.69864697 </i>
   </energy>
  </scstep>
  <scstep>
   <time name="total">  458.83  458.75</time>
   <energy>
    <i name="e_fr_energy">   -751.07452285 </i>
    <i name="e_wo_entrp">   -751.06860883 </i>
    <i name="e_0_energy">   -751.07156584 </i>
   </energy>
  </scstep>
  <scstep>
   <time name="total">  458.94  458.87</time>
   <energy>
    <i name="e_fr_energy">   -836.54682908 </i>
    <i name="e_wo_entrp">   -836.53979351 </i>
    <i name="e_0_energy">   -836.54331129 </i>
   </energy>
  </scstep>
  <scstep>
   <time name="total">  458.78  458.70</time>
   <energy>
    <i name="e_fr_energy">   -891.22366630 </i>
    <i name="e_wo_entrp">   -891.22026980 </i>
    <i name="e_0_energy">   -891.22196805 </i>
   </energy>
  </scstep>
  <scstep>
   <time name="total">  458.55  458.48</time>
   <energy>
    <i name="e_fr_energy">   -924.10001166 </i>
    <i name="e_wo_entrp">   -924.09816168 </i>
    <i name="e_0_energy">   -924.09908667 </i>
   </energy>
  </scstep>
  <scstep>
   <time name="total">  458.58  458.50</time>
   <energy>
    <i name="e_fr_energy">   -945.43675801 </i>
    <i name="e_wo_entrp">   -945.43483254 </i>
    <i name="e_0_energy">   -945.43579527 </i>
   </energy>
  </scstep>
  <scstep>
   <time name="total">  458.87  458.79</time>
   <energy>
    <i name="e_fr_energy">   -958.89154863 </i>
    <i name="e_wo_entrp">   -958.88540375 </i>
    <i name="e_0_energy">   -958.88847619 </i>
   </energy>
  </scstep>
  <scstep>
   <time name="total">  459.07  458.98</time>
   <energy>
    <i name="e_fr_energy">   -966.36875000 </i>
    <i name="e_wo_entrp">   -966.35470790 </i>
    <i name="e_0_energy">   -966.36172895 </i>
   </energy>
  </scstep>
  <scstep>
   <time name="total">  458.64  458.55</time>
   <energy>
    <i name="e_fr_energy">   -970.61414180 </i>
    <i name="e_wo_entrp">   -970.60105233 </i>
    <i name="e_0_energy">   -970.60759706 </i>
   </energy>
  </scstep>
  <scstep>
   <time name="total">  459.26  459.17</time>
   <energy>
    <i name="e_fr_energy">   -972.84836949 </i>
    <i name="e_wo_entrp">   -972.83748562 </i>
    <i name="e_0_energy">   -972.84292756 </i>
   </energy>
  </scstep>
  <scstep>
   <time name="total">  459.17  459.09</time>
   <energy>
    <i name="e_fr_energy">   -974.15538628 </i>
    <i name="e_wo_entrp">   -974.14694542 </i>
    <i name="e_0_energy">   -974.15116585 </i>
   </energy>
  </scstep>
  <scstep>
   <time name="total">  458.92  458.84</time>
   <energy>
    <i name="e_fr_energy">   -974.95116437 </i>
    <i name="e_wo_entrp">   -974.94370877 </i>
    <i name="e_0_energy">   -974.94743657 </i>
   </energy>
  </scstep>
  <scstep>
   <time name="total">  458.71  458.64</time>
   <energy>
    <i name="e_fr_energy">   -975.41089492 </i>
    <i name="e_wo_entrp">   -975.40472291 </i>
    <i name="e_0_energy">   -975.40780891 </i>
   </energy>
  </scstep>
  <scstep>
   <time name="total">  459.19  459.13</time>
   <energy>
    <i name="e_fr_energy">   -975.69444880 </i>
    <i name="e_wo_entrp">   -975.69021619 </i>
    <i name="e_0_energy">   -975.69233249 </i>
   </energy>
  </scstep>
  <scstep>
   <time name="total">  458.86  458.78</time>
   <energy>
    <i name="e_fr_energy">   -975.86555352 </i>
    <i name="e_wo_entrp">   -975.86216107 </i>
    <i name="e_0_energy">   -975.86385730 </i>
   </energy>
  </scstep>
  <scstep>
   <time name="total">  459.12  459.04</time>
   <energy>
    <i name="e_fr_energy">   -975.95747851 </i>
    <i name="e_wo_entrp">   -975.95421404 </i>
    <i name="e_0_energy">   -975.95584628 </i>
   </energy>
  </scstep>
  <scstep>
   <time name="total">  458.81  458.73</time>
   <energy>
    <i name="e_fr_energy">   -976.01408769 </i>
    <i name="e_wo_entrp">   -976.01078826 </i>
    <i name="e_0_energy">   -976.01243797 </i>
   </energy>
  </scstep>
  <scstep>
   <time name="total">  458.83  458.75</time>
   <energy>
    <i name="e_fr_energy">   -976.04615459 </i>
    <i name="e_wo_entrp">   -976.04280999 </i>
    <i name="e_0_energy">   -976.04448229 </i>
   </energy>
  </scstep>
  <scstep>
   <time name="total">  458.96  458.88</time>
   <energy>
    <i name="e_fr_energy">   -976.06516489 </i>
    <i name="e_wo_entrp">   -976.06168963 </i>
    <i name="e_0_energy">   -976.06342726 </i>
   </energy>
  </scstep>
  <scstep>
   <time name="total">  458.83  458.75</time>
   <energy>
    <i name="e_fr_energy">   -976.07695456 </i>
    <i name="e_wo_entrp">   -976.07330778 </i>
    <i name="e_0_energy">   -976.07513117 </i>
   </energy>
  </scstep>
  <scstep>
   <time name="total">  458.93  458.85</time>
   <energy>
    <i name="e_fr_energy">   -976.08361935 </i>
    <i name="e_wo_entrp">   -976.07983368 </i>
    <i name="e_0_energy">   -976.08172651 </i>
   </energy>
  </scstep>
  <scstep>
   <time name="total">  458.82  458.75</time>
   <energy>
    <i name="e_fr_energy">   -976.08784198 </i>
    <i name="e_wo_entrp">   -976.08400520 </i>
    <i name="e_0_energy">   -976.08592359 </i>
   </energy>
  </scstep>
  <scstep>
   <time name="total">  458.89  458.81</time>
   <energy>
    <i name="e_fr_energy">   -976.09019444 </i>
    <i name="e_wo_entrp">   -976.08642321 </i>
    <i name="e_0_energy">   -976.08830883 </i>
   </energy>
  </scstep>
  <scstep>
   <time name="total">  458.86  458.77</time>
   <energy>
    <i name="e_fr_energy">   -976.09245441 </i>
    <i name="e_wo_entrp">   -976.08869866 </i>
    <i name="e_0_energy">   -976.09057653 </i>
   </energy>
  </scstep>
  <scstep>
   <time name="total">  458.73  458.65</time>
   <energy>
    <i name="e_fr_energy">   -976.09330039 </i>
    <i name="e_wo_entrp">   -976.08954838 </i>
    <i name="e_0_energy">   -976.09142438 </i>
   </energy>
  </scstep>
  <scstep>
   <time name="total">  458.72  458.64</time>
   <energy>
    <i name="e_fr_energy">   -976.09353551 </i>
    <i name="e_wo_entrp">   -976.08979416 </i>
    <i name="e_0_energy">   -976.09166483 </i>
   </energy>
  </scstep>
  <scstep>
   <time name="total">  458.85  458.77</time>
   <energy>
    <i name="e_fr_energy">   -976.09361991 </i>
    <i name="e_wo_entrp">   -976.08988421 </i>
    <i name="e_0_energy">   -976.09175206 </i>
   </energy>
  </scstep>
  <scstep>
   <time name="total">  458.82  458.76</time>
   <energy>
    <i name="e_fr_energy">   -976.09364284 </i>
    <i name="e_wo_entrp">   -976.08990685 </i>
    <i name="e_0_energy">   -976.09177484 </i>
   </energy>
  </scstep>
  <scstep>
   <time name="total">  683.89  683.79</time>
   <energy>
    <i name="alphaZ">   5376.25786726 </i>
    <i name="ewald"> -86630.39988638 </i>
    <i name="hartreedc"> -33926.62691371 </i>
    <i name="XCdc">   2753.24935399 </i>
    <i name="pawpsdc"> 120691.62077300 </i>
    <i name="pawaedc">-135853.92774961 </i>
    <i name="eentropy">     -0.00373740 </i>
    <i name="bandstr">  -9098.08640878 </i>
    <i name="atom"> 131459.35058357 </i>
    <i name="e_fr_energy">   -976.09364954 </i>
    <i name="e_wo_entrp">   -976.08991214 </i>
    <i name="e_0_energy">   -976.09178084 </i>
   </energy>
  </scstep>
  <structure>
   <crystal>
    <varray name="basis" >
     <v>       0.00000000      12.28047342       0.00000000 </v>
     <v>       9.14270205       0.00000000       0.00000000 </v>
     <v>       0.00000000      -2.76826177     -11.30069772 </v>
    </varray>
    <i name="volume">   1268.80515525 </i>
    <varray name="rec_basis" >
     <v>       0.00000000       0.08143009      -0.01994742 </v>
     <v>       0.10937686      -0.00000000       0.00000000 </v>
     <v>       0.00000000       0.00000000      -0.08849011 </v>
    </varray>
   </crystal>
   <varray name="positions" >
    <v>       0.65846082       0.00000000       0.15461602 </v>
    <v>       0.66029752       0.00000000       0.65615530 </v>
    <v>       0.65946433       0.33307416       0.15616046 </v>
    <v>       0.65993398       0.33363955       0.65606495 </v>
    <v>       0.65946433       0.66692584       0.15616046 </v>
    <v>       0.65993398       0.66636045       0.65606495 </v>
    <v>       0.83964929       0.16362000       0.34181416 </v>
    <v>       0.84075032       0.16642003       0.84305674 </v>
    <v>       0.84379971       0.50000000       0.34236011 </v>
    <v>       0.83959675       0.50000000       0.84349243 </v>
    <v>       0.83964929       0.83638000       0.34181416 </v>
    <v>       0.84075032       0.83357997       0.84305674 </v>
    <v>       0.59362761       0.16837644       0.39798480 </v>
    <v>       0.59153490       0.16657127       0.89682040 </v>
    <v>       0.59078217       0.50000000       0.39645497 </v>
    <v>       0.59050786       0.50000000       0.89727897 </v>
    <v>       0.59362761       0.83162356       0.39798480 </v>
    <v>       0.59153490       0.83342873       0.89682040 </v>
    <v>       0.91166752       0.00000000       0.10247680 </v>
    <v>       0.90882370       0.00000000       0.60234650 </v>
    <v>       0.91016685       0.33293943       0.10148241 </v>
    <v>       0.90941684       0.33371782       0.60337918 </v>
    <v>       0.91016685       0.66706057       0.10148241 </v>
    <v>       0.90941684       0.66628218       0.60337918 </v>
    <v>       0.15931511       0.17656684       0.14541745 </v>
    <v>       0.15753832       0.16982711       0.65710531 </v>
    <v>       0.15965724       0.50000000       0.15492154 </v>
    <v>       0.15958582       0.50000000       0.65351632 </v>
    <v>       0.15931511       0.82343316       0.14541745 </v>
    <v>       0.15753832       0.83017289       0.65710531 </v>
    <v>       0.34970257       0.00000000       0.34609192 </v>
    <v>       0.34120577       0.00000000       0.84094744 </v>
    <v>       0.34068425       0.33353393       0.34344969 </v>
    <v>       0.34091788       0.33354588       0.84264248 </v>
    <v>       0.34068425       0.66646607       0.34344969 </v>
    <v>       0.34091788       0.66645412       0.84264248 </v>
    <v>       0.09161048       0.00000000       0.89513491 </v>
    <v>       0.09276228       0.32961358       0.39544225 </v>
    <v>       0.08975053       0.33484747       0.89291848 </v>
    <v>       0.09276228       0.67038642       0.39544225 </v>
    <v>       0.08975053       0.66515253       0.89291848 </v>
    <v>       0.40787333       0.16601613       0.10082219 </v>
    <v>       0.40994695       0.16673432       0.60155894 </v>
    <v>       0.40871397       0.50000000       0.10134661 </v>
    <v>       0.40928443       0.50000000       0.60141555 </v>
    <v>       0.40787333       0.83398387       0.10082219 </v>
    <v>       0.40994695       0.83326568       0.60155894 </v>
    <v>       0.00058723       0.16634898       0.13379604 </v>
    <v>       0.99663990       0.16643614       0.62776579 </v>
    <v>       0.99793186       0.50000000       0.12511680 </v>
    <v>       0.99753395       0.50000000       0.62654833 </v>
    <v>       0.00058723       0.83365102       0.13379604 </v>
    <v>       0.99663990       0.83356386       0.62776579 </v>
    <v>       0.50779392       0.00000000       0.37281522 </v>
    <v>       0.50331181       0.00000000       0.87160299 </v>
    <v>       0.50278581       0.33267334       0.37168419 </v>
    <v>       0.50298746       0.33266757       0.87156524 </v>
    <v>       0.50278581       0.66732666       0.37168419 </v>
    <v>       0.50298746       0.66733243       0.87156524 </v>
    <v>       0.67325048       0.16699435       0.27939555 </v>
    <v>       0.67275415       0.16631663       0.77959255 </v>
    <v>       0.67533581       0.50000000       0.28093858 </v>
    <v>       0.67196770       0.50000000       0.77962080 </v>
    <v>       0.67325048       0.83300565       0.27939555 </v>
    <v>       0.67275415       0.83368337       0.77959255 </v>
    <v>       0.82962802       0.00000000       0.22010346 </v>
    <v>       0.82861922       0.00000000       0.72028551 </v>
    <v>       0.83152437       0.32992138       0.22095393 </v>
    <v>       0.82803429       0.33334957       0.71999309 </v>
    <v>       0.83152437       0.67007862       0.22095393 </v>
    <v>       0.82803429       0.66665043       0.71999309 </v>
    <v>       0.83211122       0.00000000       0.44538732 </v>
    <v>       0.83403887       0.00000000       0.94679981 </v>
    <v>       0.84122912       0.33034416       0.44403018 </v>
    <v>       0.83221284       0.33247009       0.94595954 </v>
    <v>       0.84122912       0.66965584       0.44403018 </v>
    <v>       0.83221284       0.66752991       0.94595954 </v>
    <v>       0.66837777       0.16668570       0.05372691 </v>
    <v>       0.67084797       0.16729554       0.55404490 </v>
    <v>       0.66864536       0.50000000       0.05439456 </v>
    <v>       0.67045064       0.50000000       0.55264334 </v>
    <v>       0.66837777       0.83331430       0.05372691 </v>
    <v>       0.67084797       0.83270446       0.55404490 </v>
    <v>       0.49594898       0.00000000       0.12732167 </v>
    <v>       0.49733575       0.00000000       0.62477815 </v>
    <v>       0.49581379       0.33246124       0.12778530 </v>
    <v>       0.49691830       0.33333039       0.62510121 </v>
    <v>       0.49581379       0.66753876       0.12778530 </v>
    <v>       0.49691830       0.66666961       0.62510121 </v>
    <v>       0.01722956       0.14140331       0.38008750 </v>
    <v>       0.00444463       0.16677599       0.87513563 </v>
    <v>       0.00706610       0.50000000       0.36986372 </v>
    <v>       0.00184452       0.50000000       0.87084106 </v>
    <v>       0.01722956       0.85859669       0.38008750 </v>
    <v>       0.00444463       0.83322401       0.87513563 </v>
    <v>       0.17063283       0.00000000       0.77426913 </v>
    <v>       0.17198423       0.33025158       0.27706742 </v>
    <v>       0.17269209       0.33413328       0.77796390 </v>
    <v>       0.17198423       0.66974842       0.27706742 </v>
    <v>       0.17269209       0.66586672       0.77796390 </v>
    <v>       0.32245770       0.15941753       0.21926304 </v>
    <v>       0.32487315       0.16418012       0.71550848 </v>
    <v>       0.32687002       0.50000000       0.21933415 </v>
    <v>       0.32694105       0.50000000       0.71765553 </v>
    <v>       0.32245770       0.84058247       0.21926304 </v>
    <v>       0.32487315       0.83581988       0.71550848 </v>
    <v>       0.33060436       0.16457551       0.44417518 </v>
    <v>       0.32953557       0.16555766       0.94380065 </v>
    <v>       0.32936928       0.50000000       0.44504986 </v>
    <v>       0.33272197       0.50000000       0.94433076 </v>
    <v>       0.33060436       0.83542449       0.44417518 </v>
    <v>       0.32953557       0.83444234       0.94380065 </v>
    <v>       0.16483712       0.00000000       0.05699993 </v>
    <v>       0.15408217       0.00000000       0.53973530 </v>
    <v>       0.17100137       0.33827889       0.04872146 </v>
    <v>       0.16678836       0.33140731       0.55182887 </v>
    <v>       0.17100137       0.66172111       0.04872146 </v>
    <v>       0.16678836       0.66859269       0.55182887 </v>
    <v>       0.10299654       0.00000000       0.39748272 </v>
   </varray>
  </structure>
  <varray name="forces" >
   <v>      -0.00000000       0.02652761       0.02153847 </v>
   <v>      -0.00000000       0.08636781       0.00694629 </v>
   <v>      -0.01495167       0.02870401       0.01455490 </v>
   <v>      -0.00602430       0.08896030       0.01313396 </v>
   <v>       0.01495167       0.02870401       0.01455490 </v>
   <v>       0.00602430       0.08896030       0.01313396 </v>
   <v>      -0.04248206      -0.22205120       0.00593088 </v>
   <v>      -0.00150587      -0.05914884      -0.01833432 </v>
   <v>      -0.00000000      -0.05978937      -0.02483226 </v>
   <v>      -0.00000000      -0.04955457      -0.00332751 </v>
   <v>       0.04248206      -0.22205120       0.00593088 </v>
   <v>       0.00150587      -0.05914884      -0.01833432 </v>
   <v>      -0.03497637      -0.04533034       0.02709163 </v>
   <v>       0.00059940      -0.01926428       0.01855874 </v>
   <v>      -0.00000000      -0.02957910       0.00416126 </v>
   <v>      -0.00000000      -0.01081752       0.02629132 </v>
   <v>       0.03497637      -0.04533034       0.02709163 </v>
   <v>      -0.00059940      -0.01926428       0.01855874 </v>
   <v>      -0.00000000       0.04873261      -0.04124153 </v>
   <v>      -0.00000000       0.04478728      -0.01938069 </v>
   <v>      -0.00966438       0.02963752      -0.01372642 </v>
   <v>      -0.02070553       0.05761484      -0.01199960 </v>
   <v>       0.00966438       0.02963752      -0.01372642 </v>
   <v>       0.02070553       0.05761484      -0.01199960 </v>
   <v>       0.12613760       0.14184385       0.13112021 </v>
   <v>       0.08044727       0.02176960      -0.05012132 </v>
   <v>      -0.00000000       0.11900075       0.03306090 </v>
   <v>      -0.00000000       0.06321129      -0.00840227 </v>
   <v>      -0.12613760       0.14184385       0.13112021 </v>
   <v>      -0.08044727       0.02176960      -0.05012132 </v>
   <v>      -0.00000000       0.19308526      -0.02752212 </v>
   <v>      -0.00000000      -0.09647943      -0.03366939 </v>
   <v>       0.00472442      -0.08212286       0.00869712 </v>
   <v>       0.02271538      -0.10016611      -0.04885661 </v>
   <v>      -0.00472442      -0.08212286       0.00869712 </v>
   <v>      -0.02271538      -0.10016611      -0.04885661 </v>
   <v>      -0.00000000      -0.06352640      -0.03065821 </v>
   <v>       0.06440303       0.13326070      -0.02894680 </v>
   <v>      -0.00621257      -0.00899247      -0.02833540 </v>
   <v>      -0.06440303       0.13326070      -0.02894680 </v>
   <v>       0.00621257      -0.00899247      -0.02833540 </v>
   <v>      -0.02331323       0.00834832      -0.03313508 </v>
   <v>      -0.00234851       0.01304652       0.01987655 </v>
   <v>      -0.00000000      -0.00084976      -0.03358077 </v>
   <v>      -0.00000000       0.01874680       0.00536367 </v>
   <v>       0.02331323       0.00834832      -0.03313508 </v>
   <v>       0.00234851       0.01304652       0.01987655 </v>
   <v>       0.03843970      -0.21679371       0.23587602 </v>
   <v>       0.02179810      -0.16451309       0.11645252 </v>
   <v>      -0.00000000      -0.20145686       0.10678769 </v>
   <v>      -0.00000000      -0.18565877       0.11291067 </v>
   <v>      -0.03843970      -0.21679371       0.23587602 </v>
   <v>      -0.02179810      -0.16451309       0.11645252 </v>
   <v>      -0.00000000       0.13040439      -0.14643668 </v>
   <v>      -0.00000000       0.19104313      -0.12196173 </v>
   <v>       0.01583004       0.20183118      -0.14474803 </v>
   <v>       0.00633794       0.18796390      -0.12655169 </v>
   <v>      -0.01583004       0.20183118      -0.14474803 </v>
   <v>      -0.00633794       0.18796390      -0.12655169 </v>
   <v>       0.01545669       0.01323665      -0.12784968 </v>
   <v>      -0.00182452      -0.04848346      -0.13807926 </v>
   <v>      -0.00000000      -0.01387899      -0.10173255 </v>
   <v>      -0.00000000      -0.03470431      -0.13302202 </v>
   <v>      -0.01545669       0.01323665      -0.12784968 </v>
   <v>       0.00182452      -0.04848346      -0.13807926 </v>
   <v>      -0.00000000       0.02123447       0.02819026 </v>
   <v>      -0.00000000       0.02707897       0.12096879 </v>
   <v>      -0.00071466       0.05482879       0.09400753 </v>
   <v>       0.00104386       0.03701765       0.13495682 </v>
   <v>       0.00071466       0.05482879       0.09400753 </v>
   <v>      -0.00104386       0.03701765       0.13495682 </v>
   <v>      -0.00000000       0.43852991      -0.01585848 </v>
   <v>      -0.00000000       0.40500905      -0.08700436 </v>
   <v>      -0.01313232       0.33998607      -0.05257298 </v>
   <v>       0.01662922       0.41775756      -0.08566217 </v>
   <v>       0.01313232       0.33998607      -0.05257298 </v>
   <v>      -0.01662922       0.41775756      -0.08566217 </v>
   <v>      -0.00566679      -0.43441600       0.07542261 </v>
   <v>       0.01187498      -0.44014483       0.08004787 </v>
   <v>      -0.00000000      -0.42869410       0.07130218 </v>
   <v>      -0.00000000      -0.44584496       0.06802366 </v>
   <v>       0.00566679      -0.43441600       0.07542261 </v>
   <v>      -0.01187498      -0.44014483       0.08004787 </v>
   <v>      -0.00000000      -0.13346616       0.15819046 </v>
   <v>      -0.00000000      -0.19299417       0.09691231 </v>
   <v>       0.02856481      -0.13208100       0.15648786 </v>
   <v>      -0.00214383      -0.19150763       0.10107043 </v>
   <v>      -0.02856481      -0.13208100       0.15648786 </v>
   <v>       0.00214383      -0.19150763       0.10107043 </v>
   <v>      -0.21656950       0.43174629      -0.14880472 </v>
   <v>       0.02578356       0.17917269      -0.04499789 </v>
   <v>      -0.00000000       0.16423267      -0.13177377 </v>
   <v>      -0.00000000       0.20399565      -0.09971382 </v>
   <v>       0.21656950       0.43174629      -0.14880472 </v>
   <v>      -0.02578356       0.17917269      -0.04499789 </v>
   <v>      -0.00000000      -0.02286058      -0.01941183 </v>
   <v>       0.05683085      -0.07759141      -0.16254913 </v>
   <v>      -0.02604688      -0.04840264      -0.08201791 </v>
   <v>      -0.05683085      -0.07759141      -0.16254913 </v>
   <v>       0.02604688      -0.04840264      -0.08201791 </v>
   <v>       0.06611677       0.06950966       0.12446829 </v>
   <v>      -0.00734537       0.04721593       0.12427233 </v>
   <v>      -0.00000000       0.02309017       0.11506299 </v>
   <v>      -0.00000000       0.04322753       0.13775167 </v>
   <v>      -0.06611677       0.06950966       0.12446829 </v>
   <v>       0.00734537       0.04721593       0.12427233 </v>
   <v>       0.00013298       0.46831249      -0.10818686 </v>
   <v>       0.01647206       0.47735561      -0.03319266 </v>
   <v>      -0.00000000       0.46157895      -0.08414850 </v>
   <v>      -0.00000000       0.44216844      -0.04362149 </v>
   <v>      -0.00013298       0.46831249      -0.10818686 </v>
   <v>      -0.01647206       0.47735561      -0.03319266 </v>
   <v>      -0.00000000      -0.36424363       0.14299804 </v>
   <v>      -0.00000000      -0.33396109       0.49672206 </v>
   <v>      -0.08181366      -0.50190495       0.01233255 </v>
   <v>      -0.00344913      -0.42839167       0.08509943 </v>
   <v>       0.08181366      -0.50190495       0.01233255 </v>
   <v>       0.00344913      -0.42839167       0.08509943 </v>
   <v>      -0.00000000      -0.93932025      -0.72746210 </v>
  </varray>
  <varray name="stress" >
   <v>     -52.72596497       0.00000000       0.00000000 </v>
   <v>       0.00000000     -42.10059583       4.61519548 </v>
   <v>       0.00000000       4.61519567     -40.12396400 </v>
  </varray>
  <energy>
   <i name="e_fr_energy">   -976.09364954 </i>
   <i name="e_wo_entrp">   -976.08991214 </i>
   <i name="e_0_energy">   -976.09178084 </i>
  </energy>
  <time name="totalsc">18486.5118485.72</time>
  <eigenvalues>
   <array>
    <dimension dim="1">band</dimension>
    <dimension dim="2">kpoint</dimension>
    <dimension dim="3">spin</dimension>
    <field>eigene</field>
    <field>occ</field>
    <set>
     <set comment="spin 1">
      <set comment="kpoint 1">
       <r>  -20.2392    1.0000 </r>
       <r>  -19.0027    1.0000 </r>
       <r>  -18.8269    1.0000 </r>
       <r>  -18.7423    1.0000 </r>
       <r>  -18.7223    1.0000 </r>
       <r>  -18.6181    1.0000 </r>
       <r>  -18.4984    1.0000 </r>
       <r>  -18.3779    1.0000 </r>
       <r>  -18.3398    1.0000 </r>
       <r>  -18.3193    1.0000 </r>
       <r>  -18.2430    1.0000 </r>
       <r>  -18.2281    1.0000 </r>
       <r>  -18.1897    1.0000 </r>
       <r>  -18.1317    1.0000 </r>
       <r>  -18.1098    1.0000 </r>
       <r>  -18.0806    1.0000 </r>
       <r>  -18.0637    1.0000 </r>
       <r>  -18.0540    1.0000 </r>
       <r>  -18.0466    1.0000 </r>
       <r>  -18.0132    1.0000 </r>
       <r>  -18.0109    1.0000 </r>
       <r>  -17.9234    1.0000 </r>
       <r>  -17.9023    1.0000 </r>
       <r>  -17.9002    1.0000 </r>
       <r>  -17.8853    1.0000 </r>
       <r>  -17.8609    1.0000 </r>
       <r>  -17.8338    1.0000 </r>
       <r>  -17.8189    1.0000 </r>
       <r>  -17.8089    1.0000 </r>
       <r>  -17.7659    1.0000 </r>
       <r>  -17.7542    1.0000 </r>
       <r>  -17.7492    1.0000 </r>
       <r>  -17.7393    1.0000 </r>
       <r>  -17.7220    1.0000 </r>
       <r>  -17.7008    1.0000 </r>
       <r>  -17.6715    1.0000 </r>
       <r>  -17.6659    1.0000 </r>
       <r>  -17.6622    1.0000 </r>
       <r>  -17.6445    1.0000 </r>
       <r>  -17.6217    1.0000 </r>
       <r>  -17.6205    1.0000 </r>
       <r>  -17.6025    1.0000 </r>
       <r>  -17.5995    1.0000 </r>
       <r>  -17.5755    1.0000 </r>
       <r>  -17.5742    1.0000 </r>
       <r>  -17.5531    1.0000 </r>
       <r>  -17.5528    1.0000 </r>
       <r>  -17.5313    1.0000 </r>
       <r>  -17.5110    1.0000 </r>
       <r>  -17.4910    1.0000 </r>
       <r>  -17.4848    1.0000 </r>
       <r>  -17.4596    1.0000 </r>
       <r>  -17.4429    1.0000 </r>
       <r>  -17.4186    1.0000 </r>
       <r>  -17.3996    1.0000 </r>
       <r>  -17.3852    1.0000 </r>
       <r>  -17.3751    1.0000 </r>
       <r>  -17.3628    1.0000 </r>
       <r>  -17.3031    1.0000 </r>
       <r>  -17.2931    1.0000 </r>
       <r>  -17.2714    1.0000 </r>
       <r>  -17.2534    1.0000 </r>
       <r>  -17.2512    1.0000 </r>
       <r>  -17.2436    1.0000 </r>
       <r>  -17.2292    1.0000 </r>
       <r>  -17.2252    1.0000 </r>
       <r>  -17.2195    1.0000 </r>
       <r>  -17.2113    1.0000 </r>
       <r>  -17.2024    1.0000 </r>
       <r>  -17.1828    1.0000 </r>
       <r>  -17.1247    1.0000 </r>
       <r>  -13.7211    1.0000 </r>
       <r>  -13.6698    1.0000 </r>
       <r>  -13.6158    1.0000 </r>
       <r>  -13.6131    1.0000 </r>
       <r>  -13.6112    1.0000 </r>
       <r>  -13.5856    1.0000 </r>
       <r>  -13.5537    1.0000 </r>
       <r>  -13.5419    1.0000 </r>
       <r>  -13.5024    1.0000 </r>
       <r>  -13.4974    1.0000 </r>
       <r>  -13.4844    1.0000 </r>
       <r>  -13.4709    1.0000 </r>
       <r>  -13.4564    1.0000 </r>
       <r>  -13.4524    1.0000 </r>
       <r>  -13.4496    1.0000 </r>
       <r>  -13.4473    1.0000 </r>
       <r>  -13.4248    1.0000 </r>
       <r>  -13.4203    1.0000 </r>
       <r>  -13.4180    1.0000 </r>
       <r>  -13.4129    1.0000 </r>
       <r>  -13.4075    1.0000 </r>
       <r>  -13.4035    1.0000 </r>
       <r>  -13.3977    1.0000 </r>
       <r>  -13.3949    1.0000 </r>
       <r>  -13.3887    1.0000 </r>
       <r>  -13.3872    1.0000 </r>
       <r>  -13.3816    1.0000 </r>
       <r>  -13.3766    1.0000 </r>
       <r>  -13.3756    1.0000 </r>
       <r>  -13.3698    1.0000 </r>
       <r>  -13.3629    1.0000 </r>
       <r>  -13.3565    1.0000 </r>
       <r>  -13.3557    1.0000 </r>
       <r>  -13.3520    1.0000 </r>
       <r>  -13.3493    1.0000 </r>
       <r>  -13.3490    1.0000 </r>
       <r>  -13.3477    1.0000 </r>
       <r>  -13.3442    1.0000 </r>
       <r>  -13.3421    1.0000 </r>
       <r>  -13.3404    1.0000 </r>
       <r>  -13.3312    1.0000 </r>
       <r>  -13.3272    1.0000 </r>
       <r>  -13.3255    1.0000 </r>
       <r>  -13.3171    1.0000 </r>
       <r>  -13.3167    1.0000 </r>
       <r>  -13.3164    1.0000 </r>
       <r>  -13.3064    1.0000 </r>
       <r>  -13.3058    1.0000 </r>
       <r>  -13.3055    1.0000 </r>
       <r>  -13.3007    1.0000 </r>
       <r>  -13.2987    1.0000 </r>
       <r>  -13.2964    1.0000 </r>
       <r>  -13.2944    1.0000 </r>
       <r>  -13.2896    1.0000 </r>
       <r>  -13.2879    1.0000 </r>
       <r>  -13.2846    1.0000 </r>
       <r>  -13.2778    1.0000 </r>
       <r>  -13.2739    1.0000 </r>
       <r>  -13.2729    1.0000 </r>
       <r>  -13.2717    1.0000 </r>
       <r>  -13.2680    1.0000 </r>
       <r>  -13.2667    1.0000 </r>
       <r>  -13.2637    1.0000 </r>
       <r>  -13.2620    1.0000 </r>
       <r>  -13.2559    1.0000 </r>
       <r>  -13.2550    1.0000 </r>
       <r>  -13.2521    1.0000 </r>
       <r>  -13.2478    1.0000 </r>
       <r>  -13.2438    1.0000 </r>
       <r>  -13.2415    1.0000 </r>
       <r>  -13.2404    1.0000 </r>
       <r>  -13.2391    1.0000 </r>
       <r>  -13.2364    1.0000 </r>
       <r>  -13.2354    1.0000 </r>
       <r>  -13.2348    1.0000 </r>
       <r>  -13.2320    1.0000 </r>
       <r>  -13.2318    1.0000 </r>
       <r>  -13.2278    1.0000 </r>
       <r>  -13.2245    1.0000 </r>
       <r>  -13.2211    1.0000 </r>
       <r>  -13.2179    1.0000 </r>
       <r>  -13.2131    1.0000 </r>
       <r>  -13.2118    1.0000 </r>
       <r>  -13.2010    1.0000 </r>
       <r>  -13.1982    1.0000 </r>
       <r>  -13.1967    1.0000 </r>
       <r>  -13.1898    1.0000 </r>
       <r>  -13.1895    1.0000 </r>
       <r>  -13.1846    1.0000 </r>
       <r>  -13.1821    1.0000 </r>
       <r>  -13.1774    1.0000 </r>
       <r>  -13.1773    1.0000 </r>
       <r>  -13.1696    1.0000 </r>
       <r>  -13.1662    1.0000 </r>
       <r>  -13.1643    1.0000 </r>
       <r>  -13.1603    1.0000 </r>
       <r>  -13.1576    1.0000 </r>
       <r>  -13.1566    1.0000 </r>
       <r>  -13.1531    1.0000 </r>
       <r>  -13.1521    1.0000 </r>
       <r>  -13.1520    1.0000 </r>
       <r>  -13.1449    1.0000 </r>
       <r>  -13.1413    1.0000 </r>
       <r>  -13.1393    1.0000 </r>
       <r>  -13.1322    1.0000 </r>
       <r>  -13.1309    1.0000 </r>
       <r>  -13.1276    1.0000 </r>
       <r>  -13.1267    1.0000 </r>
       <r>  -13.1252    1.0000 </r>
       <r>  -13.1221    1.0000 </r>
       <r>  -13.1213    1.0000 </r>
       <r>  -13.1208    1.0000 </r>
       <r>  -13.1126    1.0000 </r>
       <r>  -13.1111    1.0000 </r>
       <r>  -13.1067    1.0000 </r>
       <r>  -13.1061    1.0000 </r>
       <r>  -13.1059    1.0000 </r>
       <r>  -13.1017    1.0000 </r>
       <r>  -13.1004    1.0000 </r>
       <r>  -13.0979    1.0000 </r>
       <r>  -13.0971    1.0000 </r>
       <r>  -13.0932    1.0000 </r>
       <r>  -13.0917    1.0000 </r>
       <r>  -13.0862    1.0000 </r>
       <r>  -13.0853    1.0000 </r>
       <r>  -13.0847    1.0000 </r>
       <r>  -13.0819    1.0000 </r>
       <r>  -13.0807    1.0000 </r>
       <r>  -13.0797    1.0000 </r>
       <r>  -13.0787    1.0000 </r>
       <r>  -13.0724    1.0000 </r>
       <r>  -13.0682    1.0000 </r>
       <r>  -13.0638    1.0000 </r>
       <r>  -13.0621    1.0000 </r>
       <r>  -13.0584    1.0000 </r>
       <r>  -13.0554    1.0000 </r>
       <r>  -13.0547    1.0000 </r>
       <r>  -13.0530    1.0000 </r>
       <r>  -13.0474    1.0000 </r>
       <r>  -13.0429    1.0000 </r>
       <r>  -13.0407    1.0000 </r>
       <r>  -13.0395    1.0000 </r>
       <r>  -13.0361    1.0000 </r>
       <r>  -13.0325    1.0000 </r>
       <r>  -13.0285    1.0000 </r>
       <r>  -13.0244    1.0000 </r>
       <r>  -13.0234    1.0000 </r>
       <r>  -13.0173    1.0000 </r>
       <r>  -13.0148    1.0000 </r>
       <r>  -13.0132    1.0000 </r>
       <r>  -13.0072    1.0000 </r>
       <r>  -13.0066    1.0000 </r>
       <r>  -13.0062    1.0000 </r>
       <r>  -13.0015    1.0000 </r>
       <r>  -12.9996    1.0000 </r>
       <r>  -12.9979    1.0000 </r>
       <r>  -12.9972    1.0000 </r>
       <r>  -12.9899    1.0000 </r>
       <r>  -12.9861    1.0000 </r>
       <r>  -12.9842    1.0000 </r>
       <r>  -12.9807    1.0000 </r>
       <r>  -12.9789    1.0000 </r>
       <r>  -12.9757    1.0000 </r>
       <r>  -12.9743    1.0000 </r>
       <r>  -12.9726    1.0000 </r>
       <r>  -12.9714    1.0000 </r>
       <r>  -12.9647    1.0000 </r>
       <r>  -12.9600    1.0000 </r>
       <r>  -12.9583    1.0000 </r>
       <r>  -12.9426    1.0000 </r>
       <r>  -12.9411    1.0000 </r>
       <r>  -12.9357    1.0000 </r>
       <r>  -12.9336    1.0000 </r>
       <r>  -12.9305    1.0000 </r>
       <r>  -12.9225    1.0000 </r>
       <r>  -12.9225    1.0000 </r>
       <r>  -12.9156    1.0000 </r>
       <r>  -12.9131    1.0000 </r>
[...]
       <r>   -13.7766     1.6087   142.2195 </r>
       <r>   -13.6402    33.4682   146.7861 </r>
       <r>   -13.5037   102.4707   160.7680 </r>
       <r>   -13.3673   310.8208   203.1785 </r>
       <r>   -13.2308   644.6397   291.1376 </r>
       <r>   -13.0944   678.7124   383.7458 </r>
       <r>   -12.9579   667.6033   474.8382 </r>
       <r>   -12.8215   374.8666   525.9876 </r>
       <r>   -12.6850   142.1933   545.3894 </r>
       <r>   -12.5486   108.4903   560.1926 </r>
       <r>   -12.4121    96.3224   573.3355 </r>
       <r>   -12.2757   110.4225   588.4023 </r>
       <r>   -12.1392   108.2114   603.1674 </r>
       <r>   -12.0028    57.6258   611.0303 </r>
       <r>   -11.8663     7.1028   611.9994 </r>
       <r>   -11.7299     0.0043   612.0000 </r>
       <r>   -11.5935     0.0000   612.0000 </r>
       <r>   -11.4570     0.0000   612.0000 </r>
       <r>   -11.3206     0.0000   612.0000 </r>
       <r>   -11.1841     0.0000   612.0000 </r>
       <r>   -11.0477     0.0000   612.0000 </r>
       <r>   -10.9112     0.0000   612.0000 </r>
       <r>   -10.7748     0.0000   612.0000 </r>
       <r>   -10.6383     0.0000   612.0000 </r>
       <r>   -10.5019     0.0000   612.0000 </r>
       <r>   -10.3654     0.0000   612.0000 </r>
       <r>   -10.2290     0.0000   612.0000 </r>
       <r>   -10.0925     0.0000   612.0000 </r>
       <r>    -9.9561     0.0000   612.0000 </r>
       <r>    -9.8196     0.0000   612.0000 </r>
       <r>    -9.6832     0.0000   612.0000 </r>
       <r>    -9.5468     0.0000   612.0000 </r>
       <r>    -9.4103     0.0000   612.0000 </r>
       <r>    -9.2739     0.0000   612.0000 </r>
       <r>    -9.1374     0.0000   612.0000 </r>
       <r>    -9.0010     0.0000   612.0000 </r>
       <r>    -8.8645     0.0000   612.0000 </r>
       <r>    -8.7281     0.0000   612.0000 </r>
       <r>    -8.5916     0.0000   612.0000 </r>
       <r>    -8.4552     0.0000   612.0000 </r>
       <r>    -8.3187     0.0000   612.0000 </r>
       <r>    -8.1823     0.0000   612.0000 </r>
       <r>    -8.0458     0.0000   612.0000 </r>
       <r>    -7.9094     0.0000   612.0000 </r>
       <r>    -7.7729     0.0000   612.0000 </r>
       <r>    -7.6365     0.0013   612.0002 </r>
       <r>    -7.5000     5.9414   612.8109 </r>
       <r>    -7.3636     8.7057   613.9987 </r>
       <r>    -7.2272     0.0093   614.0000 </r>
       <r>    -7.0907     0.0000   614.0000 </r>
       <r>    -6.9543     0.0000   614.0000 </r>
       <r>    -6.8178     0.0000   614.0000 </r>
       <r>    -6.6814     0.0000   614.0000 </r>
       <r>    -6.5449     0.0000   614.0000 </r>
       <r>    -6.4085     0.0000   614.0000 </r>
       <r>    -6.2720     0.0000   614.0000 </r>
       <r>    -6.1356     0.0000   614.0000 </r>
       <r>    -5.9991     0.0000   614.0000 </r>
       <r>    -5.8627     0.0000   614.0000 </r>
       <r>    -5.7262     0.0000   614.0000 </r>
       <r>    -5.5898     0.0009   614.0001 </r>
       <r>    -5.4533     2.8710   614.3919 </r>
       <r>    -5.3169    10.2614   615.7920 </r>
       <r>    -5.1805    16.7719   618.0805 </r>
       <r>    -5.0440    19.1861   620.6984 </r>
       <r>    -4.9076    30.2814   624.8302 </r>
       <r>    -4.7711    35.8622   629.7235 </r>
       <r>    -4.6347    40.8123   635.2922 </r>
       <r>    -4.4982    41.8606   641.0039 </r>
       <r>    -4.3618    52.2890   648.1386 </r>
       <r>    -4.2253    53.8612   655.4878 </r>
       <r>    -4.0889    41.9840   661.2164 </r>
       <r>    -3.9524    47.7802   667.7358 </r>
       <r>    -3.8160    47.3959   674.2029 </r>
       <r>    -3.6795    37.0449   679.2575 </r>
       <r>    -3.5431    25.2158   682.6981 </r>
       <r>    -3.4066    35.1603   687.4957 </r>
       <r>    -3.2702    38.3294   692.7256 </r>
       <r>    -3.1337    28.1539   696.5671 </r>
       <r>    -2.9973    35.7924   701.4509 </r>
       <r>    -2.8609    43.4594   707.3808 </r>
       <r>    -2.7244    41.7969   713.0838 </r>
       <r>    -2.5880    35.7472   717.9614 </r>
       <r>    -2.4515    38.2828   723.1850 </r>
       <r>    -2.3151    48.4497   729.7958 </r>
       <r>    -2.1786    34.1858   734.4603 </r>
       <r>    -2.0422    51.0666   741.4282 </r>
       <r>    -1.9057    67.9191   750.6956 </r>
       <r>    -1.7693    62.1770   759.1794 </r>
       <r>    -1.6328    59.3565   767.2785 </r>
       <r>    -1.4964    62.5211   775.8093 </r>
       <r>    -1.3599    59.1282   783.8771 </r>
       <r>    -1.2235    48.8411   790.5413 </r>
       <r>    -1.0870    64.1471   799.2940 </r>
       <r>    -0.9506    66.5632   808.3764 </r>
       <r>    -0.8141    71.6055   818.1467 </r>
       <r>    -0.6777    69.1812   827.5863 </r>
       <r>    -0.5413    65.7592   836.5589 </r>
       <r>    -0.4048    62.8054   845.1285 </r>
       <r>    -0.2684    72.4368   855.0123 </r>
       <r>    -0.1319    71.3897   864.7532 </r>
       <r>     0.0045    83.6417   876.1658 </r>
       <r>     0.1410    70.3880   885.7701 </r>
       <r>     0.2774    70.6173   895.4056 </r>
       <r>     0.4139    84.9918   907.0024 </r>
       <r>     0.5503    92.6368   919.6424 </r>
       <r>     0.6868    86.7084   931.4735 </r>
       <r>     0.8232    87.4095   943.4003 </r>
       <r>     0.9597    99.1028   956.9226 </r>
       <r>     1.0961   124.3001   973.8829 </r>
       <r>     1.2326   113.3027   989.3427 </r>
       <r>     1.3690   121.3043  1005.8943 </r>
       <r>     1.5054   101.4841  1019.7415 </r>
       <r>     1.6419    56.4351  1027.4419 </r>
       <r>     1.7783    44.0673  1033.4547 </r>
       <r>     1.9148    32.4506  1037.8825 </r>
       <r>     2.0512     0.8610  1038.0000 </r>
       <r>     2.1877     0.0000  1038.0000 </r>
       <r>     2.3241     0.0000  1038.0000 </r>
       <r>     2.4606     0.0000  1038.0000 </r>
       <r>     2.5970     0.0006  1038.0001 </r>
       <r>     2.7335     1.8352  1038.2505 </r>
       <r>     2.8699    12.3689  1039.9382 </r>
       <r>     3.0064     0.4531  1040.0000 </r>
       <r>     3.1428     0.0000  1040.0000 </r>
       <r>     3.2793     0.0000  1040.0000 </r>
       <r>     3.4157     0.0000  1040.0000 </r>
       <r>     3.5522     0.0000  1040.0000 </r>
       <r>     3.6886     0.0000  1040.0000 </r>
       <r>     3.8250     0.0000  1040.0000 </r>
       <r>     3.9615     0.0000  1040.0000 </r>
       <r>     4.0979     0.0000  1040.0000 </r>
       <r>     4.2344     0.0000  1040.0000 </r>
       <r>     4.3708     0.0000  1040.0000 </r>
       <r>     4.5073     0.0000  1040.0000 </r>
       <r>     4.6437     0.0000  1040.0000 </r>
       <r>     4.7802     0.0000  1040.0000 </r>
       <r>     4.9166     0.0000  1040.0000 </r>
       <r>     5.0531     0.0000  1040.0000 </r>
       <r>     5.1895     0.0000  1040.0000 </r>
       <r>     5.3260     0.0000  1040.0000 </r>
       <r>     5.4624     0.0000  1040.0000 </r>
       <r>     5.5989     0.0000  1040.0000 </r>
       <r>     5.7353     0.0000  1040.0000 </r>
       <r>     5.8717     0.0000  1040.0000 </r>
       <r>     6.0082     0.0000  1040.0000 </r>
       <r>     6.1446     0.0000  1040.0000 </r>
       <r>     6.2811     0.0000  1040.0000 </r>
       <r>     6.4175     0.0000  1040.0000 </r>
       <r>     6.5540     0.2215  1040.0302 </r>
       <r>     6.6904     1.6041  1040.2491 </r>
       <r>     6.8269     0.0066  1040.2500 </r>
       <r>     6.9633     0.0000  1040.2500 </r>
       <r>     7.0998     0.0016  1040.2502 </r>
       <r>     7.2362     2.3187  1040.5666 </r>
       <r>     7.3727     2.5830  1040.9190 </r>
       <r>     7.5091     2.2333  1041.2238 </r>
       <r>     7.6456     1.4780  1041.4254 </r>
       <r>     7.7820     1.8534  1041.6783 </r>
       <r>     7.9185     4.6812  1042.3171 </r>
       <r>     8.0549     4.9222  1042.9887 </r>
       <r>     8.1913     0.9098  1043.1128 </r>
       <r>     8.3278     5.4903  1043.8619 </r>
       <r>     8.4642     5.5962  1044.6255 </r>
       <r>     8.6007     6.4977  1045.5121 </r>
       <r>     8.7371     4.2631  1046.0938 </r>
       <r>     8.8736     5.0282  1046.7799 </r>
       <r>     9.0100     4.1760  1047.3497 </r>
       <r>     9.1465     6.7372  1048.2690 </r>
       <r>     9.2829    10.5832  1049.7130 </r>
       <r>     9.4194     6.1454  1050.5515 </r>
       <r>     9.5558    14.3357  1052.5076 </r>
       <r>     9.6923    12.9307  1054.2719 </r>
       <r>     9.8287     7.9456  1055.3561 </r>
       <r>     9.9652     8.9916  1056.5829 </r>
       <r>    10.1016    18.6284  1059.1247 </r>
       <r>    10.2381    10.9707  1060.6217 </r>
       <r>    10.3745    24.4723  1063.9608 </r>
       <r>    10.5109    25.6794  1067.4647 </r>
       <r>    10.6474    28.3130  1071.3279 </r>
       <r>    10.7838    38.6256  1076.5983 </r>
       <r>    10.9203    38.3836  1081.8356 </r>
       <r>    11.0567    33.7415  1086.4395 </r>
       <r>    11.1932    31.0891  1090.6815 </r>
       <r>    11.3296    30.3360  1094.8208 </r>
       <r>    11.4661    26.5014  1098.4368 </r>
       <r>    11.6025    24.2241  1101.7421 </r>
       <r>    11.7390    38.6733  1107.0190 </r>
       <r>    11.8754    35.3239  1111.8388 </r>
       <r>    12.0119    35.1499  1116.6349 </r>
       <r>    12.1483    31.2734  1120.9021 </r>
       <r>    12.2848    33.2415  1125.4378 </r>
       <r>    12.4212    37.7641  1130.5906 </r>
       <r>    12.5576    52.9955  1137.8216 </r>
       <r>    12.6941    35.1458  1142.6172 </r>
       <r>    12.8305    23.2017  1145.7830 </r>
       <r>    12.9670    28.5099  1149.6731 </r>
       <r>    13.1034    29.8079  1153.7403 </r>
       <r>    13.2399    32.5103  1158.1762 </r>
       <r>    13.3763    36.4956  1163.1559 </r>
       <r>    13.5128    36.0007  1168.0681 </r>
       <r>    13.6492    31.8134  1172.4089 </r>
       <r>    13.7857    34.2310  1177.0796 </r>
       <r>    13.9221    36.8962  1182.1140 </r>
       <r>    14.0586    28.7380  1186.0352 </r>
       <r>    14.1950    36.6072  1191.0301 </r>
       <r>    14.3315    31.7043  1195.3561 </r>
       <r>    14.4679    30.1311  1199.4674 </r>
       <r>    14.6044    30.3156  1203.6038 </r>
       <r>    14.7408    34.7616  1208.3470 </r>
       <r>    14.8772    29.7978  1212.4128 </r>
       <r>    15.0137    26.1139  1215.9759 </r>
       <r>    15.1501    24.3708  1219.3013 </r>
       <r>    15.2866    23.8835  1222.5601 </r>
       <r>    15.4230    23.5866  1225.7784 </r>
       <r>    15.5595    25.7126  1229.2868 </r>
       <r>    15.6959    21.5629  1232.2290 </r>
       <r>    15.8324    15.6395  1234.3630 </r>
       <r>    15.9688    17.7707  1236.7877 </r>
       <r>    16.1053    20.6519  1239.6056 </r>
       <r>    16.2417    13.8924  1241.5012 </r>
       <r>    16.3782    16.5456  1243.7588 </r>
       <r>    16.5146    14.3345  1245.7147 </r>
       <r>    16.6511     9.9781  1247.0762 </r>
       <r>    16.7875     8.7461  1248.2695 </r>
       <r>    16.9239     9.6919  1249.5920 </r>
       <r>    17.0604     2.9775  1249.9982 </r>
       <r>    17.1968     0.0129  1250.0000 </r>
       <r>    17.3333     0.0000  1250.0000 </r>
       <r>    17.4697     0.0000  1250.0000 </r>
       <r>    17.6062     0.0000  1250.0000 </r>
       <r>    17.7426     0.0000  1250.0000 </r>
       <r>    17.8791     0.0000  1250.0000 </r>
       <r>    18.0155     0.0000  1250.0000 </r>
       <r>    18.1520     0.0000  1250.0000 </r>
       <r>    18.2884     0.0000  1250.0000 </r>
       <r>    18.4249     0.0000  1250.0000 </r>
       <r>    18.5613     0.0000  1250.0000 </r>
       <r>    18.6978     0.0000  1250.0000 </r>
       <r>    18.8342     0.0000  1250.0000 </r>
      </set>
     </set>
    </array>
   </total>
  </dos>
 </calculation>
 <structure name="finalpos" >
  <crystal>
   <varray name="basis" >
    <v>       0.00000000      12.28047342       0.00000000 </v>
    <v>       9.14270205       0.00000000       0.00000000 </v>
    <v>       0.00000000      -2.76826177     -11.30069772 </v>
   </varray>
   <i name="volume">   1268.80515525 </i>
   <varray name="rec_basis" >
    <v>       0.00000000       0.08143009      -0.01994742 </v>
    <v>       0.10937686      -0.00000000       0.00000000 </v>
    <v>       0.00000000       0.00000000      -0.08849011 </v>
   </varray>
  </crystal>
  <varray name="positions" >
   <v>       0.65846082       0.00000000       0.15461602 </v>
   <v>       0.66029752       0.00000000       0.65615530 </v>
   <v>       0.65946433       0.33307416       0.15616046 </v>
   <v>       0.65993398       0.33363955       0.65606495 </v>
   <v>       0.65946433       0.66692584       0.15616046 </v>
   <v>       0.65993398       0.66636045       0.65606495 </v>
   <v>       0.83964929       0.16362000       0.34181416 </v>
   <v>       0.84075032       0.16642003       0.84305674 </v>
   <v>       0.84379971       0.50000000       0.34236011 </v>
   <v>       0.83959675       0.50000000       0.84349243 </v>
   <v>       0.83964929       0.83638000       0.34181416 </v>
   <v>       0.84075032       0.83357997       0.84305674 </v>
   <v>       0.59362761       0.16837644       0.39798480 </v>
   <v>       0.59153490       0.16657127       0.89682040 </v>
   <v>       0.59078217       0.50000000       0.39645497 </v>
   <v>       0.59050786       0.50000000       0.89727897 </v>
   <v>       0.59362761       0.83162356       0.39798480 </v>
   <v>       0.59153490       0.83342873       0.89682040 </v>
   <v>       0.91166752       0.00000000       0.10247680 </v>
   <v>       0.90882370       0.00000000       0.60234650 </v>
   <v>       0.91016685       0.33293943       0.10148241 </v>
   <v>       0.90941684       0.33371782       0.60337918 </v>
   <v>       0.91016685       0.66706057       0.10148241 </v>
   <v>       0.90941684       0.66628218       0.60337918 </v>
   <v>       0.15931511       0.17656684       0.14541745 </v>
   <v>       0.15753832       0.16982711       0.65710531 </v>
   <v>       0.15965724       0.50000000       0.15492154 </v>
   <v>       0.15958582       0.50000000       0.65351632 </v>
   <v>       0.15931511       0.82343316       0.14541745 </v>
   <v>       0.15753832       0.83017289       0.65710531 </v>
   <v>       0.34970257       0.00000000       0.34609192 </v>
   <v>       0.34120577       0.00000000       0.84094744 </v>
   <v>       0.34068425       0.33353393       0.34344969 </v>
   <v>       0.34091788       0.33354588       0.84264248 </v>
   <v>       0.34068425       0.66646607       0.34344969 </v>
   <v>       0.34091788       0.66645412       0.84264248 </v>
   <v>       0.09161048       0.00000000       0.89513491 </v>
   <v>       0.09276228       0.32961358       0.39544225 </v>
   <v>       0.08975053       0.33484747       0.89291848 </v>
   <v>       0.09276228       0.67038642       0.39544225 </v>
   <v>       0.08975053       0.66515253       0.89291848 </v>
   <v>       0.40787333       0.16601613       0.10082219 </v>
   <v>       0.40994695       0.16673432       0.60155894 </v>
   <v>       0.40871397       0.50000000       0.10134661 </v>
   <v>       0.40928443       0.50000000       0.60141555 </v>
   <v>       0.40787333       0.83398387       0.10082219 </v>
   <v>       0.40994695       0.83326568       0.60155894 </v>
   <v>       0.00058723       0.16634898       0.13379604 </v>
   <v>       0.99663990       0.16643614       0.62776579 </v>
   <v>       0.99793186       0.50000000       0.12511680 </v>
   <v>       0.99753395       0.50000000       0.62654833 </v>
   <v>       0.00058723       0.83365102       0.13379604 </v>
   <v>       0.99663990       0.83356386       0.62776579 </v>
   <v>       0.50779392       0.00000000       0.37281522 </v>
   <v>       0.50331181       0.00000000       0.87160299 </v>
   <v>       0.50278581       0.33267334       0.37168419 </v>
   <v>       0.50298746       0.33266757       0.87156524 </v>
   <v>       0.50278581       0.66732666       0.37168419 </v>
   <v>       0.50298746       0.66733243       0.87156524 </v>
   <v>       0.67325048       0.16699435       0.27939555 </v>
   <v>       0.67275415       0.16631663       0.77959255 </v>
   <v>       0.67533581       0.50000000       0.28093858 </v>
   <v>       0.67196770       0.50000000       0.77962080 </v>
   <v>       0.67325048       0.83300565       0.27939555 </v>
   <v>       0.67275415       0.83368337       0.77959255 </v>
   <v>       0.82962802       0.00000000       0.22010346 </v>
   <v>       0.82861922       0.00000000       0.72028551 </v>
   <v>       0.83152437       0.32992138       0.22095393 </v>
   <v>       0.82803429       0.33334957       0.71999309 </v>
   <v>       0.83152437       0.67007862       0.22095393 </v>
   <v>       0.82803429       0.66665043       0.71999309 </v>
   <v>       0.83211122       0.00000000       0.44538732 </v>
   <v>       0.83403887       0.00000000       0.94679981 </v>
   <v>       0.84122912       0.33034416       0.44403018 </v>
   <v>       0.83221284       0.33247009       0.94595954 </v>
   <v>       0.84122912       0.66965584       0.44403018 </v>
   <v>       0.83221284       0.66752991       0.94595954 </v>
   <v>       0.66837777       0.16668570       0.05372691 </v>
   <v>       0.67084797       0.16729554       0.55404490 </v>
   <v>       0.66864536       0.50000000       0.05439456 </v>
   <v>       0.67045064       0.50000000       0.55264334 </v>
   <v>       0.66837777       0.83331430       0.05372691 </v>
   <v>       0.67084797       0.83270446       0.55404490 </v>
   <v>       0.49594898       0.00000000       0.12732167 </v>
   <v>       0.49733575       0.00000000       0.62477815 </v>
   <v>       0.49581379       0.33246124       0.12778530 </v>
   <v>       0.49691830       0.33333039       0.62510121 </v>
   <v>       0.49581379       0.66753876       0.12778530 </v>
   <v>       0.49691830       0.66666961       0.62510121 </v>
   <v>       0.01722956       0.14140331       0.38008750 </v>
   <v>       0.00444463       0.16677599       0.87513563 </v>
   <v>       0.00706610       0.50000000       0.36986372 </v>
   <v>       0.00184452       0.50000000       0.87084106 </v>
   <v>       0.01722956       0.85859669       0.38008750 </v>
   <v>       0.00444463       0.83322401       0.87513563 </v>
   <v>       0.17063283       0.00000000       0.77426913 </v>
   <v>       0.17198423       0.33025158       0.27706742 </v>
   <v>       0.17269209       0.33413328       0.77796390 </v>
   <v>       0.17198423       0.66974842       0.27706742 </v>
   <v>       0.17269209       0.66586672       0.77796390 </v>
   <v>       0.32245770       0.15941753       0.21926304 </v>
   <v>       0.32487315       0.16418012       0.71550848 </v>
   <v>       0.32687002       0.50000000       0.21933415 </v>
   <v>       0.32694105       0.50000000       0.71765553 </v>
   <v>       0.32245770       0.84058247       0.21926304 </v>
   <v>       0.32487315       0.83581988       0.71550848 </v>
   <v>       0.33060436       0.16457551       0.44417518 </v>
   <v>       0.32953557       0.16555766       0.94380065 </v>
   <v>       0.32936928       0.50000000       0.44504986 </v>
   <v>       0.33272197       0.50000000       0.94433076 </v>
   <v>       0.33060436       0.83542449       0.44417518 </v>
   <v>       0.32953557       0.83444234       0.94380065 </v>
   <v>       0.16483712       0.00000000       0.05699993 </v>
   <v>       0.15408217       0.00000000       0.53973530 </v>
   <v>       0.17100137       0.33827889       0.04872146 </v>
   <v>       0.16678836       0.33140731       0.55182887 </v>
   <v>       0.17100137       0.66172111       0.04872146 </v>
   <v>       0.16678836       0.66859269       0.55182887 </v>
   <v>       0.10299654       0.00000000       0.39748272 </v>
  </varray>
 </structure>
</modeling>
