 running    4 mpi-ranks, on    1 nodes
 distrk:  each k-point on    1 cores,    4 groups
 distr:  one band on    1 cores,    1 groups
 OpenACC runtime initialized ...    4 GPUs detected
 vasp.6.4.2 20Jul23 (build Nov 12 2023 22:16:35) complex                         
 POSCAR found type information on POSCAR GaO P 
 POSCAR found :  3 types and     119 ions
 scaLAPACK will be used selectively (only on CPU)
 LDA part: xc-table for Pade appr. of Perdew
 POSCAR, INCAR and KPOINTS ok, starting setup
 FFT: planning ... GRIDC
 FFT: planning ... GRID_SOFT
 FFT: planning ... GRID
 WAVECAR not read
 initial charge from wavefunction
 entering main loop
       N       E                     dE             d eps       ncg     rms          ort
DAV:   1    -0.213400135441E+05   -0.21340E+05   -0.54379E+05  5000   0.751E+03
DAV:   2    -0.656975925608E+05   -0.44358E+05   -0.42914E+05  5000   0.122E+03
DAV:   3    -0.706077600006E+05   -0.49102E+04   -0.44399E+04  5000   0.368E+02
DAV:   4    -0.712676986890E+05   -0.65994E+03   -0.58209E+03  5000   0.114E+02
DAV:   5    -0.388242090297E+05    0.32443E+05   -0.77625E+02  5000   0.605E+01
 gam= 0.000 g(H,U,f)=  0.770E+05 0.145E+05 0.776E+00 ort(H,U,f) = 0.000E+00 0.000E+00 0.000E+00
SDA:   6     0.272244958635E+05    0.66049E+05   -0.77625E+02  5000   0.916E+05 0.000E+00
 gam= 0.000 trial= 0.400  step= 0.434 mean= 0.400
 gam= 0.641 g(H,U,f)=  0.288E+05 0.214E+05 0.847E+04 ort(H,U,f) =-0.845E+04-0.121E+05-0.434E+04
CGA:   7     0.819136451647E+04   -0.19033E+05   -0.19883E+05  5000   0.587E+05-0.249E+05
 gam= 0.641 trial= 0.402  step= 0.221 mean= 0.402
 gam= 0.398 g(H,U,f)=  0.146E+05 0.772E+04 0.102E+04 ort(H,U,f) = 0.317E+04 0.490E+04 0.974E+03
CGA:   8     0.477243267751E+04   -0.34189E+04   -0.47316E+04  5000   0.234E+05 0.904E+04
 gam= 0.398 trial= 0.393  step= 0.209 mean= 0.393
 gam= 0.532 g(H,U,f)=  0.103E+05 0.205E+04 0.689E+02 ort(H,U,f) = 0.251E+04 0.741E+02 0.161E+03
CGA:   9     0.290300744567E+04   -0.18694E+04   -0.28146E+04  5000   0.124E+05 0.274E+04
 gam= 0.532 trial= 0.384  step= 0.267 mean= 0.384
 gam= 0.428 g(H,U,f)=  0.447E+04 0.834E+03 0.161E+02 ort(H,U,f) = 0.122E+04 0.394E+03-0.244E+01
CGA:  10     0.138939252273E+04   -0.15136E+04   -0.18519E+04  5000   0.532E+04 0.162E+04
 gam= 0.428 trial= 0.378  step= 0.369 mean= 0.378
 gam= 0.521 g(H,U,f)=  0.217E+04 0.523E+03 0.751E+02 ort(H,U,f) = 0.467E+03 0.284E+03 0.481E+00
CGA:  11     0.286921474097E+03   -0.11025E+04   -0.11092E+04  5000   0.277E+04 0.751E+03
 gam= 0.521 trial= 0.377  step= 0.377 mean= 0.377
 gam= 0.382 g(H,U,f)=  0.951E+03 0.107E+03 0.137E+00 ort(H,U,f) = 0.227E+03 0.148E+03 0.367E-01
CGA:  12    -0.309183209175E+03   -0.59610E+03   -0.59626E+03  5000   0.106E+04 0.375E+03
 gam= 0.382 trial= 0.377  step= 0.565 mean= 0.377
 gam= 0.538 g(H,U,f)=  0.487E+03 0.817E+02 0.116E+01 ort(H,U,f) =-0.114E+03 0.146E+03 0.108E+01
CGA:  13    -0.655189333074E+03   -0.34601E+03   -0.33941E+03  5000   0.569E+03 0.333E+02
 gam= 0.538 trial= 0.387  step= 0.571 mean= 0.387
 gam= 0.538 g(H,U,f)=  0.264E+03 0.421E+02 0.624E+00 ort(H,U,f) =-0.108E+03 0.877E+02 0.718E+00
CGA:  14    -0.820813006877E+03   -0.16562E+03   -0.16765E+03  5000   0.306E+03-0.193E+02
 gam= 0.538 trial= 0.396  step= 0.525 mean= 0.396
 gam= 0.507 g(H,U,f)=  0.142E+03 0.136E+02 0.226E+00 ort(H,U,f) =-0.188E+02 0.870E+01-0.644E+00
CGA:  15    -0.897652360908E+03   -0.76839E+02   -0.77711E+02  5000   0.155E+03-0.107E+02
 gam= 0.507 trial= 0.402  step= 0.476 mean= 0.402
 gam= 0.446 g(H,U,f)=  0.588E+02 0.104E+02 0.956E-01 ort(H,U,f) = 0.297E+01-0.181E+01 0.101E+00
CGA:  16    -0.933468170330E+03   -0.35816E+02   -0.35705E+02  5000   0.693E+02 0.126E+01
 gam= 0.446 trial= 0.406  step= 0.562 mean= 0.406
 gam= 0.596 g(H,U,f)=  0.339E+02 0.730E+01 0.730E-01 ort(H,U,f) =-0.585E+01 0.281E+01 0.681E-02
CGA:  17    -0.952731533226E+03   -0.19263E+02   -0.19622E+02  5000   0.413E+02-0.303E+01
 gam= 0.596 trial= 0.414  step= 0.541 mean= 0.414
 gam= 0.538 g(H,U,f)=  0.181E+02 0.410E+01 0.288E-05 ort(H,U,f) =-0.503E+01 0.476E+01 0.394E-03
CGA:  18    -0.963400576779E+03   -0.10669E+02   -0.10689E+02  5000   0.222E+02-0.266E+00
 gam= 0.538 trial= 0.420  step= 0.536 mean= 0.420
 gam= 0.584 g(H,U,f)=  0.108E+02 0.214E+01 0.918E-02 ort(H,U,f) =-0.313E+01 0.302E+01 0.129E-01
CGA:  19    -0.969301492073E+03   -0.59009E+01   -0.59082E+01  5000   0.130E+02-0.991E-01
 gam= 0.584 trial= 0.426  step= 0.624 mean= 0.426
 gam= 0.537 g(H,U,f)=  0.605E+01 0.916E+00 0.176E-06 ort(H,U,f) =-0.274E+01 0.105E+01 0.739E-06
CGA:  20    -0.973053062968E+03   -0.37516E+01   -0.40269E+01  5000   0.696E+01-0.168E+01
 gam= 0.537 trial= 0.436  step= 0.547 mean= 0.436
 gam= 0.525 g(H,U,f)=  0.325E+01 0.404E+00 0.142E-14 ort(H,U,f) =-0.265E+00 0.303E+00 0.166E-13
CGA:  21    -0.974713663774E+03   -0.16606E+01   -0.16587E+01  5000   0.366E+01 0.386E-01
 gam= 0.525 trial= 0.441  step= 0.542 mean= 0.441
 gam= 0.536 g(H,U,f)=  0.171E+01 0.244E+00 0.120E-10 ort(H,U,f) =-0.118E-01 0.398E-01-0.124E-10
CGA:  22    -0.975710648565E+03   -0.99698E+00   -0.99559E+00  5000   0.196E+01 0.280E-01
 gam= 0.536 trial= 0.446  step= 0.553 mean= 0.446
 gam= 0.575 g(H,U,f)=  0.957E+00 0.169E+00 0.566E-19 ort(H,U,f) =-0.507E-01 0.621E-01 0.256E-19
CGA:  23    -0.976257059070E+03   -0.54641E+00   -0.54580E+00  5000   0.113E+01 0.113E-01
 gam= 0.575 trial= 0.452  step= 0.481 mean= 0.452
 gam= 0.471 g(H,U,f)=  0.423E+00 0.107E+00 0.539E-20 ort(H,U,f) =-0.937E-01 0.962E-01 0.102E-19
CGA:  24    -0.976529562562E+03   -0.27250E+00   -0.27248E+00  5000   0.530E+00 0.252E-02
 gam= 0.471 trial= 0.453  step= 0.571 mean= 0.453
 gam= 0.601 g(H,U,f)=  0.260E+00 0.587E-01 0.241E-18 ort(H,U,f) =-0.794E-01 0.799E-01 0.103E-17
CGA:  25    -0.976681061908E+03   -0.15150E+00   -0.15148E+00  5000   0.319E+00 0.515E-03
 gam= 0.601 trial= 0.459  step= 0.583 mean= 0.459
 gam= 0.506 g(H,U,f)=  0.139E+00 0.226E-01 0.176E-18 ort(H,U,f) =-0.415E-01 0.419E-01 0.242E-17
CGA:  26    -0.976773984906E+03   -0.92923E-01   -0.92905E-01  5000   0.161E+00 0.420E-03
 gam= 0.506 trial= 0.465  step= 0.584 mean= 0.465
 gam= 0.553 g(H,U,f)=  0.784E-01 0.107E-01 0.500E-13 ort(H,U,f) =-0.102E-01 0.105E-01 0.390E-12
CGA:  27    -0.976821079820E+03   -0.47095E-01   -0.47077E-01  5000   0.891E-01 0.289E-03
 gam= 0.553 trial= 0.471  step= 0.599 mean= 0.471
 gam= 0.573 g(H,U,f)=  0.440E-01 0.705E-02 0.123E-13 ort(H,U,f) =-0.133E-02 0.138E-02-0.983E-13
CGA:  28    -0.976847846145E+03   -0.26766E-01   -0.26764E-01  5000   0.511E-01 0.473E-04
 gam= 0.573 trial= 0.478  step= 0.523 mean= 0.478
 gam= 0.493 g(H,U,f)=  0.209E-01 0.427E-02 0.117E-20 ort(H,U,f) =-0.796E-03 0.805E-03-0.189E-20
CGA:  29    -0.976861215820E+03   -0.13370E-01   -0.13370E-01  5000   0.252E-01 0.914E-05
 gam= 0.493 trial= 0.480  step= 0.531 mean= 0.480
 gam= 0.575 g(H,U,f)=  0.116E-01 0.290E-02 0.806E-17 ort(H,U,f) =-0.146E-02 0.152E-02 0.124E-17
CGA:  30    -0.976867912953E+03   -0.66971E-02   -0.66956E-02  5000   0.145E-01 0.583E-04
 gam= 0.575 trial= 0.482  step= 0.564 mean= 0.482
 gam= 0.532 g(H,U,f)=  0.606E-02 0.164E-02 0.179E-15 ort(H,U,f) =-0.174E-02 0.181E-02 0.253E-15
CGA:  31    -0.976872012472E+03   -0.40995E-02   -0.40966E-02  5000   0.771E-02 0.710E-04
 gam= 0.532 trial= 0.487  step= 0.577 mean= 0.487
 gam= 0.555 g(H,U,f)=  0.360E-02 0.672E-03 0.107E-15 ort(H,U,f) =-0.113E-02 0.117E-02 0.442E-15
CGA:  32    -0.976874250219E+03   -0.22377E-02   -0.22358E-02  5000   0.427E-02 0.415E-04
 gam= 0.555 trial= 0.491  step= 0.636 mean= 0.491
 gam= 0.602 g(H,U,f)=  0.229E-02 0.280E-03 0.885E-17 ort(H,U,f) =-0.327E-03 0.335E-03-0.209E-15
CGA:  33    -0.976875616568E+03   -0.13663E-02   -0.13658E-02  5000   0.257E-02 0.766E-05
 gam= 0.602 trial= 0.498  step= 0.569 mean= 0.498
 gam= 0.541 g(H,U,f)=  0.124E-02 0.154E-03 0.187E-14 ort(H,U,f) =-0.197E-04 0.104E-04-0.837E-14
CGA:  34    -0.976876349228E+03   -0.73266E-03   -0.73299E-03  5000   0.139E-02-0.923E-05
 gam= 0.541 trial= 0.502  step= 0.535 mean= 0.502
 gam= 0.545 g(H,U,f)=  0.633E-03 0.126E-03 0.666E-16 ort(H,U,f) = 0.122E-04-0.176E-04-0.350E-15
CGA:  35    -0.976876720257E+03   -0.37103E-03   -0.37112E-03  5000   0.759E-03-0.541E-05
 gam= 0.545 trial= 0.503  step= 0.544 mean= 0.503
 gam= 0.540 g(H,U,f)=  0.317E-03 0.933E-04 0.188E-15 ort(H,U,f) =-0.417E-04 0.410E-04-0.322E-15
CGA:  36    -0.976876926025E+03   -0.20577E-03   -0.20578E-03  5000   0.410E-03-0.626E-06
 gam= 0.540 trial= 0.506  step= 0.576 mean= 0.506
 gam= 0.000 g(H,U,f)=  0.175E-03 0.480E-04 0.455E-23 ort(H,U,f) =-0.539E-04 0.531E-04 0.411E-23
SDA:  37    -0.976877044026E+03   -0.11800E-03   -0.11803E-03  5000   0.223E-03-0.813E-06
 gam= 0.000 trial= 0.509  step= 1.012 mean= 0.509
 gam= 0.474 g(H,U,f)=  0.876E-04 0.180E-04 0.256E-21 ort(H,U,f) =-0.319E-04 0.266E-04 0.343E-21
CGA:  38    -0.976877155562E+03   -0.11154E-03   -0.11285E-03  5000   0.106E-03-0.523E-05
 gam= 0.474 trial= 0.534  step= 0.682 mean= 0.534
 gam= 0.354 g(H,U,f)=  0.323E-04 0.505E-05 0.538E-20 ort(H,U,f) =-0.155E-04 0.161E-04 0.160E-19
CGA:  39    -0.976877190790E+03   -0.35228E-04   -0.35180E-04  5000   0.373E-04 0.640E-06
 gam= 0.354 trial= 0.542  step= 0.644 mean= 0.542
 gam= 0.293 g(H,U,f)=  0.987E-05 0.109E-05 0.273E-19 ort(H,U,f) =-0.366E-05 0.462E-05 0.159E-18
CGA:  40    -0.976877202936E+03   -0.12146E-04   -0.12097E-04  5000   0.110E-04 0.956E-06
 gam= 0.293 trial= 0.547  step= 0.681 mean= 0.547
 gam= 0.353 g(H,U,f)=  0.369E-05 0.178E-06 0.336E-19 ort(H,U,f) =-0.139E-05 0.916E-06 0.432E-18
CGA:  41    -0.976877206727E+03   -0.37911E-05   -0.38227E-05  5000   0.387E-05-0.472E-06
 gam= 0.353 trial= 0.553  step= 0.727 mean= 0.553
 final diagonalization
   1 F= -.97687721E+03 E0= -.97687721E+03  d E =-.505875E-13
 writing wavefunctions
Warning: ieee_invalid is signaling
Warning: ieee_divide_by_zero is signaling
Warning: ieee_underflow is signaling
Warning: ieee_inexact is signaling
FORTRAN STOP
Warning: ieee_invalid is signaling
Warning: ieee_divide_by_zero is signaling
Warning: ieee_underflow is signaling
Warning: ieee_inexact is signaling
FORTRAN STOP
Warning: ieee_invalid is signaling
Warning: ieee_divide_by_zero is signaling
Warning: ieee_underflow is signaling
Warning: ieee_inexact is signaling
FORTRAN STOP
Warning: ieee_invalid is signaling
Warning: ieee_divide_by_zero is signaling
Warning: ieee_underflow is signaling
Warning: ieee_inexact is signaling
FORTRAN STOP
