       N       E                     dE             d eps       ncg     rms          ort
DAV:   1    -0.213400135441E+05   -0.21340E+05   -0.54379E+05  5000   0.751E+03
DAV:   2    -0.656975925608E+05   -0.44358E+05   -0.42914E+05  5000   0.122E+03
DAV:   3    -0.706077600006E+05   -0.49102E+04   -0.44399E+04  5000   0.368E+02
DAV:   4    -0.712676986890E+05   -0.65994E+03   -0.58209E+03  5000   0.114E+02
DAV:   5    -0.388242090297E+05    0.32443E+05   -0.77625E+02  5000   0.605E+01
SDA:   6     0.272244958635E+05    0.66049E+05   -0.77625E+02  5000   0.916E+05 0.000E+00
CGA:   7     0.819136451647E+04   -0.19033E+05   -0.19883E+05  5000   0.587E+05-0.249E+05
CGA:   8     0.477243267751E+04   -0.34189E+04   -0.47316E+04  5000   0.234E+05 0.904E+04
CGA:   9     0.290300744567E+04   -0.18694E+04   -0.28146E+04  5000   0.124E+05 0.274E+04
CGA:  10     0.138939252273E+04   -0.15136E+04   -0.18519E+04  5000   0.532E+04 0.162E+04
CGA:  11     0.286921474097E+03   -0.11025E+04   -0.11092E+04  5000   0.277E+04 0.751E+03
CGA:  12    -0.309183209175E+03   -0.59610E+03   -0.59626E+03  5000   0.106E+04 0.375E+03
CGA:  13    -0.655189333074E+03   -0.34601E+03   -0.33941E+03  5000   0.569E+03 0.333E+02
CGA:  14    -0.820813006877E+03   -0.16562E+03   -0.16765E+03  5000   0.306E+03-0.193E+02
CGA:  15    -0.897652360908E+03   -0.76839E+02   -0.77711E+02  5000   0.155E+03-0.107E+02
CGA:  16    -0.933468170330E+03   -0.35816E+02   -0.35705E+02  5000   0.693E+02 0.126E+01
CGA:  17    -0.952731533226E+03   -0.19263E+02   -0.19622E+02  5000   0.413E+02-0.303E+01
CGA:  18    -0.963400576779E+03   -0.10669E+02   -0.10689E+02  5000   0.222E+02-0.266E+00
CGA:  19    -0.969301492073E+03   -0.59009E+01   -0.59082E+01  5000   0.130E+02-0.991E-01
CGA:  20    -0.973053062968E+03   -0.37516E+01   -0.40269E+01  5000   0.696E+01-0.168E+01
CGA:  21    -0.974713663774E+03   -0.16606E+01   -0.16587E+01  5000   0.366E+01 0.386E-01
CGA:  22    -0.975710648565E+03   -0.99698E+00   -0.99559E+00  5000   0.196E+01 0.280E-01
CGA:  23    -0.976257059070E+03   -0.54641E+00   -0.54580E+00  5000   0.113E+01 0.113E-01
CGA:  24    -0.976529562562E+03   -0.27250E+00   -0.27248E+00  5000   0.530E+00 0.252E-02
CGA:  25    -0.976681061908E+03   -0.15150E+00   -0.15148E+00  5000   0.319E+00 0.515E-03
CGA:  26    -0.976773984906E+03   -0.92923E-01   -0.92905E-01  5000   0.161E+00 0.420E-03
CGA:  27    -0.976821079820E+03   -0.47095E-01   -0.47077E-01  5000   0.891E-01 0.289E-03
CGA:  28    -0.976847846145E+03   -0.26766E-01   -0.26764E-01  5000   0.511E-01 0.473E-04
CGA:  29    -0.976861215820E+03   -0.13370E-01   -0.13370E-01  5000   0.252E-01 0.914E-05
CGA:  30    -0.976867912953E+03   -0.66971E-02   -0.66956E-02  5000   0.145E-01 0.583E-04
CGA:  31    -0.976872012472E+03   -0.40995E-02   -0.40966E-02  5000   0.771E-02 0.710E-04
CGA:  32    -0.976874250219E+03   -0.22377E-02   -0.22358E-02  5000   0.427E-02 0.415E-04
CGA:  33    -0.976875616568E+03   -0.13663E-02   -0.13658E-02  5000   0.257E-02 0.766E-05
CGA:  34    -0.976876349228E+03   -0.73266E-03   -0.73299E-03  5000   0.139E-02-0.923E-05
CGA:  35    -0.976876720257E+03   -0.37103E-03   -0.37112E-03  5000   0.759E-03-0.541E-05
CGA:  36    -0.976876926025E+03   -0.20577E-03   -0.20578E-03  5000   0.410E-03-0.626E-06
SDA:  37    -0.976877044026E+03   -0.11800E-03   -0.11803E-03  5000   0.223E-03-0.813E-06
CGA:  38    -0.976877155562E+03   -0.11154E-03   -0.11285E-03  5000   0.106E-03-0.523E-05
CGA:  39    -0.976877190790E+03   -0.35228E-04   -0.35180E-04  5000   0.373E-04 0.640E-06
CGA:  40    -0.976877202936E+03   -0.12146E-04   -0.12097E-04  5000   0.110E-04 0.956E-06
CGA:  41    -0.976877206727E+03   -0.37911E-05   -0.38227E-05  5000   0.387E-05-0.472E-06
   1 F= -.97687721E+03 E0= -.97687721E+03  d E =-.505875E-13
