<?xml version="1.0" encoding="ISO-8859-1"?>
<modeling>
 <generator>
  <i name="program" type="string">vasp </i>
  <i name="version" type="string">6.4.2  </i>
  <i name="subversion" type="string">20Jul23 (build Nov 12 2023 22:16:35) complex                          parallel </i>
  <i name="platform" type="string">LinuxNV </i>
  <i name="date" type="string">2025 03 11 </i>
  <i name="time" type="string">23:31:53 </i>
 </generator>
 <incar>
  <i type="int" name="ISTART">     0</i>
  <i type="string" name="PREC">Normal</i>
  <i type="string" name="ALGO">All</i>
  <i type="int" name="ISPIN">     1</i>
  <i type="int" name="ICHARG">     0</i>
  <i type="int" name="NELM">   500</i>
  <i type="int" name="IBRION">    -1</i>
  <i name="EDIFF">      0.00001000</i>
  <i name="EDIFFG">     -0.00500000</i>
  <i type="int" name="NSW">     0</i>
  <i type="int" name="ISIF">     2</i>
  <i name="ENCUT">    450.00000000</i>
  <i type="string" name="LREAL">Auto</i>
  <i type="logical" name="LPLANE"> T  </i>
  <i name="TIME">      0.40000000</i>
  <i type="int" name="ISMEAR">     0</i>
  <i name="SIGMA">      0.05000000</i>
  <i type="logical" name="LWAVE"> T  </i>
  <i type="logical" name="LCHARG"> T  </i>
  <i name="HFSCREEN">      0.18000000</i>
  <i type="logical" name="LHFCALC"> T  </i>
  <i type="int" name="LMAXFOCK">     4</i>
  <i name="AEXX">      0.35000000</i>
  <i type="string" name="PRECFOCK">Fast</i>
 </incar>
 <primitive_cell>
  <structure name="primitive_cell" >
   <crystal>
    <varray name="basis" >
     <v>       0.00000000      12.28047342       0.00000000 </v>
     <v>       9.14270205       0.00000000       0.00000000 </v>
     <v>       0.00000000      -2.76826177     -11.30069772 </v>
    </varray>
    <i name="volume">   1268.80515525 </i>
    <varray name="rec_basis" >
     <v>       0.00000000       0.08143009      -0.01994742 </v>
     <v>       0.10937686      -0.00000000       0.00000000 </v>
     <v>       0.00000000       0.00000000      -0.08849011 </v>
    </varray>
   </crystal>
   <varray name="positions" >
    <v>       0.65618701       0.99731715       0.15512525 </v>
    <v>       0.66027536       0.00178682       0.65685475 </v>
    <v>       0.65694367       0.33220892       0.15696583 </v>
    <v>       0.65934907       0.33537821       0.65704708 </v>
    <v>       0.65891922       0.66576957       0.15809200 </v>
    <v>       0.65983850       0.66827113       0.65672062 </v>
    <v>       0.83348961       0.15642006       0.34083750 </v>
    <v>       0.84127863       0.16821118       0.84386153 </v>
    <v>       0.84694254       0.49420788       0.34264673 </v>
    <v>       0.84071704       0.50190810       0.84355318 </v>
    <v>       0.84619331       0.82899177       0.34416429 </v>
    <v>       0.84172424       0.83567432       0.84410424 </v>
    <v>       0.58835553       0.16732455       0.39831009 </v>
    <v>       0.59011536       0.16736343       0.89734300 </v>
    <v>       0.59138127       0.50232405       0.39712104 </v>
    <v>       0.58877705       0.50131600       0.89685722 </v>
    <v>       0.59257330       0.83500718       0.39733130 </v>
    <v>       0.59090954       0.83427866       0.89739481 </v>
    <v>       0.91005138       0.00210021       0.10454288 </v>
    <v>       0.90864252       0.00087057       0.60154281 </v>
    <v>       0.90902969       0.33586687       0.10307895 </v>
    <v>       0.90938998       0.33450642       0.60261457 </v>
    <v>       0.90786140       0.66695345       0.10158329 </v>
    <v>       0.90784979       0.66629648       0.60132698 </v>
    <v>       0.15804057       0.17366702       0.15799693 </v>
    <v>       0.15870087       0.17417538       0.65555817 </v>
    <v>       0.16004611       0.50224669       0.15706328 </v>
    <v>       0.15922318       0.50472427       0.65579225 </v>
    <v>       0.15492344       0.83000742       0.15632655 </v>
    <v>       0.15510179       0.83510228       0.64884929 </v>
    <v>       0.33930850       0.00342497       0.34779727 </v>
    <v>       0.33958410       0.00138883       0.84004600 </v>
    <v>       0.34167903       0.33804057       0.34342917 </v>
    <v>       0.33945007       0.33558199       0.84427621 </v>
    <v>       0.34046572       0.66981359       0.34418850 </v>
    <v>       0.33884885       0.66870376       0.84268898 </v>
    <v>       0.09266000       0.00178848       0.89747652 </v>
    <v>       0.09875939       0.31155870       0.40065593 </v>
    <v>       0.09066013       0.33586274       0.89750007 </v>
    <v>       0.08760257       0.66433078       0.39518400 </v>
    <v>       0.09095295       0.66806690       0.89618862 </v>
    <v>       0.40576420       0.16580595       0.10198554 </v>
    <v>       0.41114335       0.17007797       0.60358495 </v>
    <v>       0.40941082       0.50181223       0.10217975 </v>
    <v>       0.40838040       0.50290914       0.60321515 </v>
    <v>       0.40421108       0.83480752       0.10227576 </v>
    <v>       0.41117344       0.83573436       0.60233034 </v>
    <v>       0.99665264       0.16978896       0.13888527 </v>
    <v>       0.99647625       0.16782345       0.62277112 </v>
    <v>       0.99657313       0.50175706       0.12557582 </v>
    <v>       0.99638956       0.50083522       0.62778863 </v>
    <v>       0.99485527       0.83370097       0.12679783 </v>
    <v>       0.99498098       0.83375353       0.62708905 </v>
    <v>       0.50265175       0.99991249       0.37291439 </v>
    <v>       0.50241541       0.00045553       0.87208726 </v>
    <v>       0.50329164       0.33560131       0.37197779 </v>
    <v>       0.50169630       0.33356195       0.87213729 </v>
    <v>       0.50368915       0.66923272       0.37217105 </v>
    <v>       0.50161293       0.66913592       0.87186867 </v>
    <v>       0.66903802       0.16512486       0.28002940 </v>
    <v>       0.67293129       0.16868215       0.78118602 </v>
    <v>       0.67390906       0.49653162       0.28086017 </v>
    <v>       0.67238448       0.50166573       0.78104407 </v>
    <v>       0.67414513       0.83161691       0.28039811 </v>
    <v>       0.67338987       0.83596822       0.78108423 </v>
    <v>       0.82479135       0.99887501       0.21828875 </v>
    <v>       0.82843743       0.00264437       0.71999285 </v>
    <v>       0.82829091       0.32667512       0.22054022 </v>
    <v>       0.82780528       0.33478447       0.71947044 </v>
    <v>       0.82764058       0.66184357       0.21886919 </v>
    <v>       0.82763216       0.66860688       0.71963132 </v>
    <v>       0.82746962       0.99565451       0.44639458 </v>
    <v>       0.83440506       0.00263188       0.94741992 </v>
    <v>       0.84042691       0.32350945       0.44356182 </v>
    <v>       0.83328389       0.33451429       0.94637768 </v>
    <v>       0.83257572       0.66022261       0.44463198 </v>
    <v>       0.83151881       0.66852007       0.94519901 </v>
    <v>       0.66562691       0.16603086       0.05427140 </v>
    <v>       0.66784536       0.16897963       0.55412257 </v>
    <v>       0.66502217       0.49901741       0.05409403 </v>
    <v>       0.66905416       0.50102640       0.55387026 </v>
    <v>       0.66777961       0.83195789       0.05380844 </v>
    <v>       0.66847712       0.83470440       0.55451948 </v>
    <v>       0.49380665       0.99946268       0.12667229 </v>
    <v>       0.49789518       0.00277072       0.62815463 </v>
    <v>       0.49365207       0.33221255       0.12677884 </v>
    <v>       0.49712162       0.33705403       0.62869828 </v>
    <v>       0.49480695       0.67037040       0.12732363 </v>
    <v>       0.49734495       0.66879634       0.62823413 </v>
    <v>       0.00446418       0.16803956       0.87366959 </v>
    <v>       0.00951024       0.48662378       0.37358218 </v>
    <v>       0.00301141       0.50202235       0.87210623 </v>
    <v>       0.00503796       0.83298024       0.37364411 </v>
    <v>       0.00463858       0.83566953       0.87303216 </v>
    <v>       0.15653433       0.01203867       0.30090717 </v>
    <v>       0.16892588       0.00247010       0.77245048 </v>
    <v>       0.17705379       0.34043026       0.27732130 </v>
    <v>       0.17257467       0.33573468       0.78151330 </v>
    <v>       0.17242304       0.66886836       0.27946534 </v>
    <v>       0.17176650       0.66955594       0.77863083 </v>
    <v>       0.32421842       0.16221512       0.22045839 </v>
    <v>       0.32566305       0.16512321       0.71704181 </v>
    <v>       0.32929513       0.50510900       0.21959288 </v>
    <v>       0.32860329       0.50399691       0.72151749 </v>
    <v>       0.32099512       0.84209723       0.22040713 </v>
    <v>       0.32253618       0.84037130       0.71315097 </v>
    <v>       0.33546654       0.17131162       0.44707556 </v>
    <v>       0.32886833       0.16592251       0.94455928 </v>
    <v>       0.33357423       0.50369981       0.44640984 </v>
    <v>       0.33139687       0.50224790       0.94617930 </v>
    <v>       0.33269093       0.83619342       0.44661755 </v>
    <v>       0.32829806       0.83638998       0.94393379 </v>
    <v>       0.16182225       0.00226817       0.05922090 </v>
    <v>       0.14579895       0.01222058       0.52783730 </v>
    <v>       0.16822153       0.33532250       0.05320329 </v>
    <v>       0.17531029       0.34033250       0.55952254 </v>
    <v>       0.16819609       0.66797897       0.05288960 </v>
    <v>       0.16800693       0.66904665       0.55212452 </v>
    <v>       0.07194391       0.04772049       0.39134104 </v>
   </varray>
  </structure>
  <varray name="primitive_index" >
   <v type="int" >        1 </v>
   <v type="int" >        2 </v>
   <v type="int" >        3 </v>
   <v type="int" >        4 </v>
   <v type="int" >        5 </v>
   <v type="int" >        6 </v>
   <v type="int" >        7 </v>
   <v type="int" >        8 </v>
   <v type="int" >        9 </v>
   <v type="int" >       10 </v>
   <v type="int" >       11 </v>
   <v type="int" >       12 </v>
   <v type="int" >       13 </v>
   <v type="int" >       14 </v>
   <v type="int" >       15 </v>
   <v type="int" >       16 </v>
   <v type="int" >       17 </v>
   <v type="int" >       18 </v>
   <v type="int" >       19 </v>
   <v type="int" >       20 </v>
   <v type="int" >       21 </v>
   <v type="int" >       22 </v>
   <v type="int" >       23 </v>
   <v type="int" >       24 </v>
   <v type="int" >       25 </v>
   <v type="int" >       26 </v>
   <v type="int" >       27 </v>
   <v type="int" >       28 </v>
   <v type="int" >       29 </v>
   <v type="int" >       30 </v>
   <v type="int" >       31 </v>
   <v type="int" >       32 </v>
   <v type="int" >       33 </v>
   <v type="int" >       34 </v>
   <v type="int" >       35 </v>
   <v type="int" >       36 </v>
   <v type="int" >       37 </v>
   <v type="int" >       38 </v>
   <v type="int" >       39 </v>
   <v type="int" >       40 </v>
   <v type="int" >       41 </v>
   <v type="int" >       42 </v>
   <v type="int" >       43 </v>
   <v type="int" >       44 </v>
   <v type="int" >       45 </v>
   <v type="int" >       46 </v>
   <v type="int" >       47 </v>
   <v type="int" >       48 </v>
   <v type="int" >       49 </v>
   <v type="int" >       50 </v>
   <v type="int" >       51 </v>
   <v type="int" >       52 </v>
   <v type="int" >       53 </v>
   <v type="int" >       54 </v>
   <v type="int" >       55 </v>
   <v type="int" >       56 </v>
   <v type="int" >       57 </v>
   <v type="int" >       58 </v>
   <v type="int" >       59 </v>
   <v type="int" >       60 </v>
   <v type="int" >       61 </v>
   <v type="int" >       62 </v>
   <v type="int" >       63 </v>
   <v type="int" >       64 </v>
   <v type="int" >       65 </v>
   <v type="int" >       66 </v>
   <v type="int" >       67 </v>
   <v type="int" >       68 </v>
   <v type="int" >       69 </v>
   <v type="int" >       70 </v>
   <v type="int" >       71 </v>
   <v type="int" >       72 </v>
   <v type="int" >       73 </v>
   <v type="int" >       74 </v>
   <v type="int" >       75 </v>
   <v type="int" >       76 </v>
   <v type="int" >       77 </v>
   <v type="int" >       78 </v>
   <v type="int" >       79 </v>
   <v type="int" >       80 </v>
   <v type="int" >       81 </v>
   <v type="int" >       82 </v>
   <v type="int" >       83 </v>
   <v type="int" >       84 </v>
   <v type="int" >       85 </v>
   <v type="int" >       86 </v>
   <v type="int" >       87 </v>
   <v type="int" >       88 </v>
   <v type="int" >       89 </v>
   <v type="int" >       90 </v>
   <v type="int" >       91 </v>
   <v type="int" >       92 </v>
   <v type="int" >       93 </v>
   <v type="int" >       94 </v>
   <v type="int" >       95 </v>
   <v type="int" >       96 </v>
   <v type="int" >       97 </v>
   <v type="int" >       98 </v>
   <v type="int" >       99 </v>
   <v type="int" >      100 </v>
   <v type="int" >      101 </v>
   <v type="int" >      102 </v>
   <v type="int" >      103 </v>
   <v type="int" >      104 </v>
   <v type="int" >      105 </v>
   <v type="int" >      106 </v>
   <v type="int" >      107 </v>
   <v type="int" >      108 </v>
   <v type="int" >      109 </v>
   <v type="int" >      110 </v>
   <v type="int" >      111 </v>
   <v type="int" >      112 </v>
   <v type="int" >      113 </v>
   <v type="int" >      114 </v>
   <v type="int" >      115 </v>
   <v type="int" >      116 </v>
   <v type="int" >      117 </v>
   <v type="int" >      118 </v>
   <v type="int" >      119 </v>
  </varray>
 </primitive_cell>
 <kpoints>
  <generation param="Gamma">
   <v type="int" name="divisions">       2        2        2 </v>
   <v name="usershift">      0.00000000       0.00000000       0.00000000 </v>
   <v name="genvec1">      0.50000000       0.00000000       0.00000000 </v>
   <v name="genvec2">      0.00000000       0.50000000       0.00000000 </v>
   <v name="genvec3">      0.00000000       0.00000000       0.50000000 </v>
   <v name="shift">      0.00000000       0.00000000       0.00000000 </v>
  </generation>
  <varray name="kpointlist" >
   <v>       0.00000000       0.00000000       0.00000000 </v>
   <v>       0.50000000       0.00000000       0.00000000 </v>
   <v>       0.00000000       0.50000000       0.00000000 </v>
   <v>       0.50000000       0.50000000       0.00000000 </v>
   <v>       0.00000000       0.00000000       0.50000000 </v>
   <v>       0.50000000       0.00000000       0.50000000 </v>
   <v>       0.00000000       0.50000000       0.50000000 </v>
   <v>       0.50000000       0.50000000       0.50000000 </v>
  </varray>
  <varray name="weights" >
   <v>       0.12500000 </v>
   <v>       0.12500000 </v>
   <v>       0.12500000 </v>
   <v>       0.12500000 </v>
   <v>       0.12500000 </v>
   <v>       0.12500000 </v>
   <v>       0.12500000 </v>
   <v>       0.12500000 </v>
  </varray>
 </kpoints>
 <parameters>
  <separator name="general" >
   <i type="string" name="SYSTEM">unknown system</i>
   <i type="logical" name="LCOMPAT"> F  </i>
  </separator>
  <separator name="electronic" >
   <i type="string" name="PREC">normal</i>
   <i name="ENMAX">    450.00000000</i>
   <i name="ENAUG">    605.39200000</i>
   <i name="EDIFF">      0.00001000</i>
   <i type="int" name="IALGO">    58</i>
   <i type="int" name="IWAVPR">    10</i>
   <i type="int" name="NBANDS">   625</i>
   <i type="int" name="NBANDSLOW">    -1</i>
   <i type="int" name="NBANDSHIGH">    -1</i>
   <i name="NELECT">   1042.00000000</i>
   <i type="int" name="TURBO">     0</i>
   <i type="int" name="IRESTART">     0</i>
   <i type="int" name="NREBOOT">     0</i>
   <i type="int" name="NMIN">     0</i>
   <i name="EREF">      0.00000000</i>
   <separator name="electronic smearing" >
    <i type="int" name="ISMEAR">     0</i>
    <i name="SIGMA">      0.05000000</i>
    <i name="KSPACING">      0.50000000</i>
    <i type="logical" name="KGAMMA"> T  </i>
    <i type="logical" name="KBLOWUP"> T  </i>
   </separator>
   <separator name="electronic projectors" >
    <i type="logical" name="LREAL"> T  </i>
    <v name="ROPT">     -0.00050000     -0.00050000     -0.00050000</v>
    <i type="int" name="LMAXPAW">  -100</i>
    <i type="int" name="LMAXMIX">     2</i>
    <i type="logical" name="NLSPLINE"> F  </i>
   </separator>
   <separator name="electronic startup" >
    <i type="int" name="ISTART">     0</i>
    <i type="int" name="ICHARG">     0</i>
    <i type="int" name="INIWAV">     1</i>
   </separator>
   <separator name="electronic spin" >
    <i type="int" name="ISPIN">     1</i>
    <i type="logical" name="LNONCOLLINEAR"> F  </i>
    <v name="MAGMOM">      1.00000000      1.00000000      1.00000000      1.00000000      1.00000000      1.00000000      1.00000000      1.00000000      1.00000000      1.00000000      1.00000000      1.00000000      1.00000000      1.00000000      1.00000000      1.00000000      1.00000000      1.00000000      1.00000000      1.00000000
      1.00000000      1.00000000      1.00000000      1.00000000      1.00000000      1.00000000      1.00000000      1.00000000      1.00000000      1.00000000      1.00000000      1.00000000      1.00000000      1.00000000      1.00000000      1.00000000      1.00000000      1.00000000      1.00000000      1.00000000
      1.00000000      1.00000000      1.00000000      1.00000000      1.00000000      1.00000000      1.00000000      1.00000000      1.00000000      1.00000000      1.00000000      1.00000000      1.00000000      1.00000000      1.00000000      1.00000000      1.00000000      1.00000000      1.00000000      1.00000000
      1.00000000      1.00000000      1.00000000      1.00000000      1.00000000      1.00000000      1.00000000      1.00000000      1.00000000      1.00000000      1.00000000      1.00000000      1.00000000      1.00000000      1.00000000      1.00000000      1.00000000      1.00000000      1.00000000      1.00000000
      1.00000000      1.00000000      1.00000000      1.00000000      1.00000000      1.00000000      1.00000000      1.00000000      1.00000000      1.00000000      1.00000000      1.00000000      1.00000000      1.00000000      1.00000000      1.00000000      1.00000000      1.00000000      1.00000000      1.00000000
      1.00000000      1.00000000      1.00000000      1.00000000      1.00000000      1.00000000      1.00000000      1.00000000      1.00000000      1.00000000      1.00000000      1.00000000      1.00000000      1.00000000      1.00000000      1.00000000      1.00000000      1.00000000      1.00000000</v>
    <i name="NUPDOWN">     -1.00000000</i>
    <i type="logical" name="LSORBIT"> F  </i>
    <v name="SAXIS">      0.00000000      0.00000000      1.00000000</v>
    <i type="logical" name="LSPIRAL"> F  </i>
    <v name="QSPIRAL">      0.00000000      0.00000000      0.00000000</v>
    <i type="logical" name="LZEROZ"> F  </i>
   </separator>
   <separator name="electronic exchange-correlation" >
    <i type="logical" name="LASPH"> F  </i>
    <i type="logical" name="LMETAGGA"> F  </i>
   </separator>
   <separator name="electronic convergence" >
    <i type="int" name="NELM">   500</i>
    <i type="int" name="NELMDL">    -5</i>
    <i type="int" name="NELMIN">     2</i>
    <i name="ENINI">    450.00000000</i>
    <separator name="electronic convergence detail" >
     <i type="logical" name="LDIAG"> T  </i>
     <i type="logical" name="LSUBROT"> F  </i>
     <i name="WEIMIN">      0.00000000</i>
     <i name="EBREAK">      0.00000000</i>
     <i name="DEPER">      0.30000000</i>
     <i type="int" name="NRMM">     4</i>
     <i name="TIME">      0.40000000</i>
    </separator>
   </separator>
   <separator name="electronic mixer" >
    <i name="AMIX">      0.40000000</i>
    <i name="BMIX">      1.00000000</i>
    <i name="AMIN">      0.10000000</i>
    <i name="AMIX_MAG">      1.60000000</i>
    <i name="BMIX_MAG">      1.00000000</i>
    <separator name="electronic mixer details" >
     <i type="int" name="IMIX">     4</i>
     <i type="logical" name="MIXFIRST"> F  </i>
     <i type="int" name="MAXMIX">   -45</i>
     <i name="WC">    100.00000000</i>
     <i type="int" name="INIMIX">     1</i>
     <i type="int" name="MIXPRE">     1</i>
     <i type="int" name="MREMOVE">     5</i>
    </separator>
   </separator>
   <separator name="electronic dipolcorrection" >
    <i type="logical" name="LDIPOL"> F  </i>
    <i type="logical" name="LMONO"> F  </i>
    <i type="int" name="IDIPOL">     0</i>
    <i name="EPSILON">      1.00000000</i>
    <v name="DIPOL">   -100.00000000   -100.00000000   -100.00000000</v>
    <i name="EFIELD">      0.00000000</i>
   </separator>
  </separator>
  <separator name="grids" >
   <i type="int" name="NGX">    64</i>
   <i type="int" name="NGY">    48</i>
   <i type="int" name="NGZ">    60</i>
   <i type="int" name="NGXF">   128</i>
   <i type="int" name="NGYF">    96</i>
   <i type="int" name="NGZF">   120</i>
   <i type="logical" name="ADDGRID"> F  </i>
  </separator>
  <separator name="ionic" >
   <i type="int" name="NSW">     0</i>
   <i type="int" name="IBRION">    -1</i>
   <i type="int" name="MDALGO">     0</i>
   <i type="int" name="ISIF">     2</i>
   <i name="PSTRESS">      0.00000000</i>
   <i name="EDIFFG">     -0.00500000</i>
   <i type="int" name="NFREE">     0</i>
   <i name="POTIM">      0.50000000</i>
   <i name="SMASS">     -3.00000000</i>
   <i name="SCALEE">      1.00000000</i>
  </separator>
  <separator name="ionic md" >
   <i name="TEBEG">      0.00010000</i>
   <i name="TEEND">      0.00010000</i>
   <i type="int" name="NBLOCK">     1</i>
   <i type="int" name="KBLOCK">     1</i>
   <i type="int" name="NPACO">   256</i>
   <i name="APACO">     10.00000000</i>
  </separator>
  <separator name="symmetry" >
   <i type="int" name="ISYM">     3</i>
   <i name="SYMPREC">      0.00001000</i>
  </separator>
  <separator name="dos" >
   <i type="int" name="LORBIT">     0</i>
   <v name="RWIGS">     -1.00000000     -1.00000000     -1.00000000</v>
   <i type="int" name="NEDOS">   301</i>
   <i name="EMIN">     10.00000000</i>
   <i name="EMAX">    -10.00000000</i>
   <i name="EFERMI">      0.00000000</i>
  </separator>
  <separator name="writing" >
   <i type="int" name="NWRITE">     2</i>
   <i type="logical" name="LWAVE"> T  </i>
   <i type="logical" name="LDOWNSAMPLE"> F  </i>
   <i type="logical" name="LCHARG"> T  </i>
   <i type="logical" name="LPARD"> F  </i>
   <i type="logical" name="LVTOT"> F  </i>
   <i type="logical" name="LVHAR"> F  </i>
   <i type="logical" name="LELF"> F  </i>
   <i type="logical" name="LOPTICS"> F  </i>
   <v name="STM">      0.00000000      0.00000000      0.00000000      0.00000000      0.00000000      0.00000000      0.00000000</v>
  </separator>
  <separator name="performance" >
   <i type="int" name="NPAR">     1</i>
   <i type="int" name="NSIM">     4</i>
   <i type="int" name="NBLK">    -1</i>
   <i type="logical" name="LPLANE"> T  </i>
   <i type="logical" name="LSCALAPACK"> T  </i>
   <i type="logical" name="LSCAAWARE"> F  </i>
   <i type="logical" name="LSCALU"> F  </i>
   <i type="logical" name="LASYNC"> F  </i>
   <i type="logical" name="LORBITALREAL"> F  </i>
  </separator>
  <separator name="miscellaneous" >
   <i type="int" name="IDIOT">     3</i>
   <i type="int" name="PHON_NSTRUCT">    -1</i>
   <i type="logical" name="LMUSIC"> F  </i>
   <v name="POMASS">     69.72300000     16.00000000     30.97400000</v>
   <v name="DARWINR">      0.00000000      0.00000000      0.00000000</v>
   <v name="DARWINV">      1.00000000      1.00000000      1.00000000</v>
   <i type="logical" name="LCORR"> T  </i>
  </separator>
  <i type="logical" name="GGA_COMPAT"> T  </i>
  <i type="logical" name="LBERRY"> F  </i>
  <i type="int" name="ICORELEVEL">     0</i>
  <i type="logical" name="LDAU"> F  </i>
  <i type="int" name="I_CONSTRAINED_M">     0</i>
  <separator name="electronic exchange-correlation" >
   <i type="string" name="GGA">--</i>
   <i type="int" name="VOSKOWN">     0</i>
   <i type="logical" name="LHFCALC"> T  </i>
   <i type="string" name="PRECFOCK">fast</i>
   <i type="logical" name="LSYMGRAD"> F  </i>
   <i type="logical" name="LHFONE"> F  </i>
   <i type="logical" name="LRHFCALC"> F  </i>
   <i type="logical" name="LTHOMAS"> F  </i>
   <i type="logical" name="LMODELHF"> F  </i>
   <i type="logical" name="LFOCKACE"> T  </i>
   <i name="ENCUT4O">     -1.00000000</i>
   <i type="int" name="EXXOEP">     0</i>
   <i type="int" name="FOURORBIT">     0</i>
   <i name="AEXX">      0.35000000</i>
   <i name="HFALPHA">     -1.00000000</i>
   <i name="MCALPHA">      0.00000000</i>
   <i name="ALDAX">      0.65000000</i>
   <i name="AGGAX">      0.65000000</i>
   <i name="ALDAC">      1.00000000</i>
   <i name="AGGAC">      1.00000000</i>
   <i type="int" name="NKREDX">     1</i>
   <i type="int" name="NKREDY">     1</i>
   <i type="int" name="NKREDZ">     1</i>
   <i type="logical" name="SHIFTRED"> F  </i>
   <i type="logical" name="ODDONLY"> F  </i>
   <i type="logical" name="EVENONLY"> F  </i>
   <i type="int" name="LMAXFOCK">     4</i>
   <i type="int" name="NMAXFOCKAE">     1</i>
   <i type="logical" name="LFOCKAEDFT"> F  </i>
   <i name="HFSCREEN">      0.18000000</i>
   <i name="HFSCREENC">      0.18000000</i>
   <i type="int" name="NBANDSGWLOW">     1</i>
  </separator>
  <separator name="vdW DFT" >
   <i type="logical" name="LUSE_VDW"> F  </i>
   <i type="int" name="IVDW_NL">     1</i>
   <i type="logical" name="LSPIN_VDW"> F  </i>
   <i name="Zab_VDW">     -0.84910000</i>
   <i name="PARAM1">      0.12340000</i>
   <i name="PARAM2">      1.00000000</i>
   <i name="PARAM3">      0.00000000</i>
  </separator>
  <separator name="model GW" >
   <i type="int" name="MODEL_GW">     0</i>
   <i name="MODEL_EPS0">      6.39733692</i>
   <i name="MODEL_ALPHA">      1.00000000</i>
  </separator>
  <separator name="linear response parameters" >
   <i type="logical" name="LEPSILON"> F  </i>
   <i type="logical" name="LRPA"> F  </i>
   <i type="logical" name="LNABLA"> F  </i>
   <i type="logical" name="LVEL"> F  </i>
   <i name="CSHIFT">      0.10000000</i>
   <i name="OMEGAMAX">     -1.00000000</i>
   <i name="DEG_THRESHOLD">      0.00200000</i>
   <i name="RTIME">     -0.10000000</i>
   <i name="WPLASMAI">      0.00000000</i>
   <v name="DFIELD">      0.00000000      0.00000000      0.00000000</v>
   <v name="WPLASMA">      0.00000000      0.00000000      0.00000000      0.00000000      0.00000000      0.00000000      0.00000000      0.00000000      0.00000000</v>
  </separator>
  <separator name="orbital magnetization" >
   <i type="logical" name="NUCIND"> F  </i>
   <v name="MAGPOS">      0.00000000      0.00000000      0.00000000</v>
   <i type="logical" name="LNICSALL"> T  </i>
   <i type="logical" name="ORBITALMAG"> F  </i>
   <i type="logical" name="LMAGBLOCH"> F  </i>
   <i type="logical" name="LCHIMAG"> F  </i>
   <i type="logical" name="LGAUGE"> T  </i>
   <i type="int" name="MAGATOM">     0</i>
   <v name="MAGDIPOL">      0.00000000      0.00000000      0.00000000</v>
   <v name="AVECCONST">      0.00000000      0.00000000      0.00000000</v>
  </separator>
  <separator name="response functions" >
   <i type="logical" name="LALL_IN_ONE"> F  </i>
   <i type="int" name="IALL_IN_ONE">    -1</i>
   <i type="int" name="NBANDS_WAVE">    -1</i>
   <i type="logical" name="LFINITE_TEMPERATURE"> F  </i>
   <i type="logical" name="LADDER"> F  </i>
   <i type="logical" name="LRPAFORCE"> F  </i>
   <i type="logical" name="LFXC"> F  </i>
   <i type="logical" name="LHARTREE"> T  </i>
   <i type="int" name="IBSE">     0</i>
   <v type="int" name="KPOINT">    -1     0     0     0</v>
   <i type="logical" name="LTCTC"> F  </i>
   <i type="logical" name="LTCTE"> F  </i>
   <i type="logical" name="LTETE"> F  </i>
   <i type="logical" name="LTRIPLET"> F  </i>
   <i type="logical" name="LFXCEPS"> F  </i>
   <i type="logical" name="LFXHEG"> F  </i>
   <i type="int" name="NATURALO">     2</i>
   <i type="logical" name="LHOLEGF"> F  </i>
   <i type="logical" name="L2ORDER"> F  </i>
   <i type="logical" name="LDMP1"> F  </i>
   <i type="logical" name="LMP2LT"> F  </i>
   <i type="logical" name="LSMP2LT"> F  </i>
   <i type="logical" name="LGWLF"> F  </i>
   <i name="ENCUTGW">     -1.60000002</i>
   <i name="ENCUTGWSOFT">     -1.60000002</i>
   <i name="ENCUTLF">     -1.00000000</i>
   <i type="logical" name="LESF_SPLINES"> F  </i>
   <i type="int" name="LMAXMP2">    -1</i>
   <i name="SCISSOR">      0.00000000</i>
   <i type="int" name="NOMEGA">     0</i>
   <i type="int" name="NOMEGAR">     0</i>
   <i type="int" name="NBANDSGW">    -1</i>
   <i type="int" name="NBANDSO">    -1</i>
   <i type="int" name="NBANDSV">    -1</i>
   <i type="int" name="NELMGW">     1</i>
   <i type="int" name="NELMHF">     1</i>
   <i type="int" name="DIM">     3</i>
   <i type="int" name="IESPILON">     4</i>
   <i type="int" name="ANTIRES">     0</i>
   <i name="OMEGAMAX">    -30.00000000</i>
   <i name="OMEGAMIN">    -30.00000000</i>
   <i name="OMEGATL">   -200.00000000</i>
   <i type="int" name="OMEGAGRID">     0</i>
   <i name="CSHIFT">     -0.10000000</i>
   <i type="logical" name="LSELFENERGY"> F  </i>
   <i type="logical" name="LSPECTRAL"> F  </i>
   <i type="logical" name="LSPECTRALGW"> F  </i>
   <i type="logical" name="LSINGLES"> F  </i>
   <i type="logical" name="LFERMIGW"> F  </i>
   <i type="logical" name="ODDONLYGW"> F  </i>
   <i type="logical" name="EVENONLYGW"> F  </i>
   <i type="int" name="NKREDLFX">     1</i>
   <i type="int" name="NKREDLFY">     1</i>
   <i type="int" name="NKREDLFZ">     1</i>
   <i type="int" name="MAXMEM">  2800</i>
   <i type="int" name="TELESCOPE">     0</i>
   <i type="int" name="NTAUPAR">    -1</i>
   <i type="int" name="NOMEGAPAR">    -1</i>
   <i name="DAMP_NEWTON">      0.80000001</i>
   <i name="LAMBDA">      1.00000000</i>
  </separator>
  <separator name="External order field" >
   <i name="OFIELD_KAPPA">      0.00000000</i>
   <v name="OFIELD_K">      0.00000000      0.00000000      0.00000000</v>
   <i name="OFIELD_Q6_NEAR">      0.00000000</i>
   <i name="OFIELD_Q6_FAR">      0.00000000</i>
   <i name="OFIELD_A">      0.00000000</i>
  </separator>
  <separator name="optional k-points parameters" >
   <i type="int" name="KPOINTS_OPT_MODE">     1</i>
   <i type="logical" name="LKPOINTS_OPT"> F  </i>
  </separator>
 </parameters>
 <atominfo>
  <atoms>     119 </atoms>
  <types>       3 </types>
  <array name="atoms" >
   <dimension dim="1">ion</dimension>
   <field type="string">element</field>
   <field type="int">atomtype</field>
   <set>
    <rc><c>Ga</c><c>   1</c></rc>
    <rc><c>Ga</c><c>   1</c></rc>
    <rc><c>Ga</c><c>   1</c></rc>
    <rc><c>Ga</c><c>   1</c></rc>
    <rc><c>Ga</c><c>   1</c></rc>
    <rc><c>Ga</c><c>   1</c></rc>
    <rc><c>Ga</c><c>   1</c></rc>
    <rc><c>Ga</c><c>   1</c></rc>
    <rc><c>Ga</c><c>   1</c></rc>
    <rc><c>Ga</c><c>   1</c></rc>
    <rc><c>Ga</c><c>   1</c></rc>
    <rc><c>Ga</c><c>   1</c></rc>
    <rc><c>Ga</c><c>   1</c></rc>
    <rc><c>Ga</c><c>   1</c></rc>
    <rc><c>Ga</c><c>   1</c></rc>
    <rc><c>Ga</c><c>   1</c></rc>
    <rc><c>Ga</c><c>   1</c></rc>
    <rc><c>Ga</c><c>   1</c></rc>
    <rc><c>Ga</c><c>   1</c></rc>
    <rc><c>Ga</c><c>   1</c></rc>
    <rc><c>Ga</c><c>   1</c></rc>
    <rc><c>Ga</c><c>   1</c></rc>
    <rc><c>Ga</c><c>   1</c></rc>
    <rc><c>Ga</c><c>   1</c></rc>
    <rc><c>Ga</c><c>   1</c></rc>
    <rc><c>Ga</c><c>   1</c></rc>
    <rc><c>Ga</c><c>   1</c></rc>
    <rc><c>Ga</c><c>   1</c></rc>
    <rc><c>Ga</c><c>   1</c></rc>
    <rc><c>Ga</c><c>   1</c></rc>
    <rc><c>Ga</c><c>   1</c></rc>
    <rc><c>Ga</c><c>   1</c></rc>
    <rc><c>Ga</c><c>   1</c></rc>
    <rc><c>Ga</c><c>   1</c></rc>
    <rc><c>Ga</c><c>   1</c></rc>
    <rc><c>Ga</c><c>   1</c></rc>
    <rc><c>Ga</c><c>   1</c></rc>
    <rc><c>Ga</c><c>   1</c></rc>
    <rc><c>Ga</c><c>   1</c></rc>
    <rc><c>Ga</c><c>   1</c></rc>
    <rc><c>Ga</c><c>   1</c></rc>
    <rc><c>Ga</c><c>   1</c></rc>
    <rc><c>Ga</c><c>   1</c></rc>
    <rc><c>Ga</c><c>   1</c></rc>
    <rc><c>Ga</c><c>   1</c></rc>
    <rc><c>Ga</c><c>   1</c></rc>
    <rc><c>Ga</c><c>   1</c></rc>
    <rc><c>O </c><c>   2</c></rc>
    <rc><c>O </c><c>   2</c></rc>
    <rc><c>O </c><c>   2</c></rc>
    <rc><c>O </c><c>   2</c></rc>
    <rc><c>O </c><c>   2</c></rc>
    <rc><c>O </c><c>   2</c></rc>
    <rc><c>O </c><c>   2</c></rc>
    <rc><c>O </c><c>   2</c></rc>
    <rc><c>O </c><c>   2</c></rc>
    <rc><c>O </c><c>   2</c></rc>
    <rc><c>O </c><c>   2</c></rc>
    <rc><c>O </c><c>   2</c></rc>
    <rc><c>O </c><c>   2</c></rc>
    <rc><c>O </c><c>   2</c></rc>
    <rc><c>O </c><c>   2</c></rc>
    <rc><c>O </c><c>   2</c></rc>
    <rc><c>O </c><c>   2</c></rc>
    <rc><c>O </c><c>   2</c></rc>
    <rc><c>O </c><c>   2</c></rc>
    <rc><c>O </c><c>   2</c></rc>
    <rc><c>O </c><c>   2</c></rc>
    <rc><c>O </c><c>   2</c></rc>
    <rc><c>O </c><c>   2</c></rc>
    <rc><c>O </c><c>   2</c></rc>
    <rc><c>O </c><c>   2</c></rc>
    <rc><c>O </c><c>   2</c></rc>
    <rc><c>O </c><c>   2</c></rc>
    <rc><c>O </c><c>   2</c></rc>
    <rc><c>O </c><c>   2</c></rc>
    <rc><c>O </c><c>   2</c></rc>
    <rc><c>O </c><c>   2</c></rc>
    <rc><c>O </c><c>   2</c></rc>
    <rc><c>O </c><c>   2</c></rc>
    <rc><c>O </c><c>   2</c></rc>
    <rc><c>O </c><c>   2</c></rc>
    <rc><c>O </c><c>   2</c></rc>
    <rc><c>O </c><c>   2</c></rc>
    <rc><c>O </c><c>   2</c></rc>
    <rc><c>O </c><c>   2</c></rc>
    <rc><c>O </c><c>   2</c></rc>
    <rc><c>O </c><c>   2</c></rc>
    <rc><c>O </c><c>   2</c></rc>
    <rc><c>O </c><c>   2</c></rc>
    <rc><c>O </c><c>   2</c></rc>
    <rc><c>O </c><c>   2</c></rc>
    <rc><c>O </c><c>   2</c></rc>
    <rc><c>O </c><c>   2</c></rc>
    <rc><c>O </c><c>   2</c></rc>
    <rc><c>O </c><c>   2</c></rc>
    <rc><c>O </c><c>   2</c></rc>
    <rc><c>O </c><c>   2</c></rc>
    <rc><c>O </c><c>   2</c></rc>
    <rc><c>O </c><c>   2</c></rc>
    <rc><c>O </c><c>   2</c></rc>
    <rc><c>O </c><c>   2</c></rc>
    <rc><c>O </c><c>   2</c></rc>
    <rc><c>O </c><c>   2</c></rc>
    <rc><c>O </c><c>   2</c></rc>
    <rc><c>O </c><c>   2</c></rc>
    <rc><c>O </c><c>   2</c></rc>
    <rc><c>O </c><c>   2</c></rc>
    <rc><c>O </c><c>   2</c></rc>
    <rc><c>O </c><c>   2</c></rc>
    <rc><c>O </c><c>   2</c></rc>
    <rc><c>O </c><c>   2</c></rc>
    <rc><c>O </c><c>   2</c></rc>
    <rc><c>O </c><c>   2</c></rc>
    <rc><c>O </c><c>   2</c></rc>
    <rc><c>O </c><c>   2</c></rc>
    <rc><c>O </c><c>   2</c></rc>
    <rc><c>O </c><c>   2</c></rc>
    <rc><c>P </c><c>   3</c></rc>
   </set>
  </array>
  <array name="atomtypes" >
   <dimension dim="1">type</dimension>
   <field type="int">atomspertype</field>
   <field type="string">element</field>
   <field>mass</field>
   <field>valence</field>
   <field type="string">pseudopotential</field>
   <set>
    <rc><c>  47</c><c>Ga</c><c>     69.72300000</c><c>     13.00000000</c><c>  PAW_PBE Ga_d 06Jul2010                </c></rc>
    <rc><c>  71</c><c>O </c><c>     16.00000000</c><c>      6.00000000</c><c>   PAW_PBE O 08Apr2002                  </c></rc>
    <rc><c>   1</c><c>P </c><c>     30.97400000</c><c>      5.00000000</c><c>  PAW_PBE P 06Sep2000                   </c></rc>
   </set>
  </array>
 </atominfo>
 <structure name="initialpos" >
  <crystal>
   <varray name="basis" >
    <v>       0.00000000      12.28047342       0.00000000 </v>
    <v>       9.14270205       0.00000000       0.00000000 </v>
    <v>       0.00000000      -2.76826177     -11.30069772 </v>
   </varray>
   <i name="volume">   1268.80515525 </i>
   <varray name="rec_basis" >
    <v>       0.00000000       0.08143009      -0.01994742 </v>
    <v>       0.10937686      -0.00000000       0.00000000 </v>
    <v>       0.00000000       0.00000000      -0.08849011 </v>
   </varray>
  </crystal>
  <varray name="positions" >
   <v>       0.65618701       0.99731715       0.15512525 </v>
   <v>       0.66027536       0.00178682       0.65685475 </v>
   <v>       0.65694367       0.33220892       0.15696583 </v>
   <v>       0.65934907       0.33537821       0.65704708 </v>
   <v>       0.65891922       0.66576957       0.15809200 </v>
   <v>       0.65983850       0.66827113       0.65672062 </v>
   <v>       0.83348961       0.15642006       0.34083750 </v>
   <v>       0.84127863       0.16821118       0.84386153 </v>
   <v>       0.84694254       0.49420788       0.34264673 </v>
   <v>       0.84071704       0.50190810       0.84355318 </v>
   <v>       0.84619331       0.82899177       0.34416429 </v>
   <v>       0.84172424       0.83567432       0.84410424 </v>
   <v>       0.58835553       0.16732455       0.39831009 </v>
   <v>       0.59011536       0.16736343       0.89734300 </v>
   <v>       0.59138127       0.50232405       0.39712104 </v>
   <v>       0.58877705       0.50131600       0.89685722 </v>
   <v>       0.59257330       0.83500718       0.39733130 </v>
   <v>       0.59090954       0.83427866       0.89739481 </v>
   <v>       0.91005138       0.00210021       0.10454288 </v>
   <v>       0.90864252       0.00087057       0.60154281 </v>
   <v>       0.90902969       0.33586687       0.10307895 </v>
   <v>       0.90938998       0.33450642       0.60261457 </v>
   <v>       0.90786140       0.66695345       0.10158329 </v>
   <v>       0.90784979       0.66629648       0.60132698 </v>
   <v>       0.15804057       0.17366702       0.15799693 </v>
   <v>       0.15870087       0.17417538       0.65555817 </v>
   <v>       0.16004611       0.50224669       0.15706328 </v>
   <v>       0.15922318       0.50472427       0.65579225 </v>
   <v>       0.15492344       0.83000742       0.15632655 </v>
   <v>       0.15510179       0.83510228       0.64884929 </v>
   <v>       0.33930850       0.00342497       0.34779727 </v>
   <v>       0.33958410       0.00138883       0.84004600 </v>
   <v>       0.34167903       0.33804057       0.34342917 </v>
   <v>       0.33945007       0.33558199       0.84427621 </v>
   <v>       0.34046572       0.66981359       0.34418850 </v>
   <v>       0.33884885       0.66870376       0.84268898 </v>
   <v>       0.09266000       0.00178848       0.89747652 </v>
   <v>       0.09875939       0.31155870       0.40065593 </v>
   <v>       0.09066013       0.33586274       0.89750007 </v>
   <v>       0.08760257       0.66433078       0.39518400 </v>
   <v>       0.09095295       0.66806690       0.89618862 </v>
   <v>       0.40576420       0.16580595       0.10198554 </v>
   <v>       0.41114335       0.17007797       0.60358495 </v>
   <v>       0.40941082       0.50181223       0.10217975 </v>
   <v>       0.40838040       0.50290914       0.60321515 </v>
   <v>       0.40421108       0.83480752       0.10227576 </v>
   <v>       0.41117344       0.83573436       0.60233034 </v>
   <v>       0.99665264       0.16978896       0.13888527 </v>
   <v>       0.99647625       0.16782345       0.62277112 </v>
   <v>       0.99657313       0.50175706       0.12557582 </v>
   <v>       0.99638956       0.50083522       0.62778863 </v>
   <v>       0.99485527       0.83370097       0.12679783 </v>
   <v>       0.99498098       0.83375353       0.62708905 </v>
   <v>       0.50265175       0.99991249       0.37291439 </v>
   <v>       0.50241541       0.00045553       0.87208726 </v>
   <v>       0.50329164       0.33560131       0.37197779 </v>
   <v>       0.50169630       0.33356195       0.87213729 </v>
   <v>       0.50368915       0.66923272       0.37217105 </v>
   <v>       0.50161293       0.66913592       0.87186867 </v>
   <v>       0.66903802       0.16512486       0.28002940 </v>
   <v>       0.67293129       0.16868215       0.78118602 </v>
   <v>       0.67390906       0.49653162       0.28086017 </v>
   <v>       0.67238448       0.50166573       0.78104407 </v>
   <v>       0.67414513       0.83161691       0.28039811 </v>
   <v>       0.67338987       0.83596822       0.78108423 </v>
   <v>       0.82479135       0.99887501       0.21828875 </v>
   <v>       0.82843743       0.00264437       0.71999285 </v>
   <v>       0.82829091       0.32667512       0.22054022 </v>
   <v>       0.82780528       0.33478447       0.71947044 </v>
   <v>       0.82764058       0.66184357       0.21886919 </v>
   <v>       0.82763216       0.66860688       0.71963132 </v>
   <v>       0.82746962       0.99565451       0.44639458 </v>
   <v>       0.83440506       0.00263188       0.94741992 </v>
   <v>       0.84042691       0.32350945       0.44356182 </v>
   <v>       0.83328389       0.33451429       0.94637768 </v>
   <v>       0.83257572       0.66022261       0.44463198 </v>
   <v>       0.83151881       0.66852007       0.94519901 </v>
   <v>       0.66562691       0.16603086       0.05427140 </v>
   <v>       0.66784536       0.16897963       0.55412257 </v>
   <v>       0.66502217       0.49901741       0.05409403 </v>
   <v>       0.66905416       0.50102640       0.55387026 </v>
   <v>       0.66777961       0.83195789       0.05380844 </v>
   <v>       0.66847712       0.83470440       0.55451948 </v>
   <v>       0.49380665       0.99946268       0.12667229 </v>
   <v>       0.49789518       0.00277072       0.62815463 </v>
   <v>       0.49365207       0.33221255       0.12677884 </v>
   <v>       0.49712162       0.33705403       0.62869828 </v>
   <v>       0.49480695       0.67037040       0.12732363 </v>
   <v>       0.49734495       0.66879634       0.62823413 </v>
   <v>       0.00446418       0.16803956       0.87366959 </v>
   <v>       0.00951024       0.48662378       0.37358218 </v>
   <v>       0.00301141       0.50202235       0.87210623 </v>
   <v>       0.00503796       0.83298024       0.37364411 </v>
   <v>       0.00463858       0.83566953       0.87303216 </v>
   <v>       0.15653433       0.01203867       0.30090717 </v>
   <v>       0.16892588       0.00247010       0.77245048 </v>
   <v>       0.17705379       0.34043026       0.27732130 </v>
   <v>       0.17257467       0.33573468       0.78151330 </v>
   <v>       0.17242304       0.66886836       0.27946534 </v>
   <v>       0.17176650       0.66955594       0.77863083 </v>
   <v>       0.32421842       0.16221512       0.22045839 </v>
   <v>       0.32566305       0.16512321       0.71704181 </v>
   <v>       0.32929513       0.50510900       0.21959288 </v>
   <v>       0.32860329       0.50399691       0.72151749 </v>
   <v>       0.32099512       0.84209723       0.22040713 </v>
   <v>       0.32253618       0.84037130       0.71315097 </v>
   <v>       0.33546654       0.17131162       0.44707556 </v>
   <v>       0.32886833       0.16592251       0.94455928 </v>
   <v>       0.33357423       0.50369981       0.44640984 </v>
   <v>       0.33139687       0.50224790       0.94617930 </v>
   <v>       0.33269093       0.83619342       0.44661755 </v>
   <v>       0.32829806       0.83638998       0.94393379 </v>
   <v>       0.16182225       0.00226817       0.05922090 </v>
   <v>       0.14579895       0.01222058       0.52783730 </v>
   <v>       0.16822153       0.33532250       0.05320329 </v>
   <v>       0.17531029       0.34033250       0.55952254 </v>
   <v>       0.16819609       0.66797897       0.05288960 </v>
   <v>       0.16800693       0.66904665       0.55212452 </v>
   <v>       0.07194391       0.04772049       0.39134104 </v>
  </varray>
 </structure>
 <calculation>
  <scstep>
   <time name="total">    3.84    3.85</time>
   <energy>
    <i name="alphaZ">   5376.25786726 </i>
    <i name="ewald"> -86723.66616442 </i>
    <i name="hartreedc">  -2072.83337847 </i>
    <i name="XCdc">   2751.53691591 </i>
    <i name="pawpsdc"> 336047.00514426 </i>
    <i name="pawaedc">-367358.55882816 </i>
    <i name="eentropy">     -0.01689981 </i>
    <i name="bandstr"> -40819.08878429 </i>
    <i name="atom"> 131459.35058357 </i>
    <i name="e_fr_energy"> -21340.01354415 </i>
    <i name="e_wo_entrp"> -21339.99664433 </i>
    <i name="e_0_energy"> -21340.00509424 </i>
   </energy>
  </scstep>
  <scstep>
   <time name="total">    3.08    3.08</time>
   <energy>
    <i name="e_fr_energy"> -65697.59256084 </i>
    <i name="e_wo_entrp"> -65697.57996047 </i>
    <i name="e_0_energy"> -65697.58626065 </i>
   </energy>
  </scstep>
  <scstep>
   <time name="total">    3.26    3.26</time>
   <energy>
    <i name="e_fr_energy"> -70607.76000063 </i>
    <i name="e_wo_entrp"> -70607.72131618 </i>
    <i name="e_0_energy"> -70607.74065840 </i>
   </energy>
  </scstep>
  <scstep>
   <time name="total">    3.68    3.68</time>
   <energy>
    <i name="e_fr_energy"> -71267.69868898 </i>
    <i name="e_wo_entrp"> -71267.66574689 </i>
    <i name="e_0_energy"> -71267.68221793 </i>
   </energy>
  </scstep>
  <scstep>
   <time name="total">  230.81  230.79</time>
   <energy>
    <i name="e_fr_energy"> -38824.20902969 </i>
    <i name="e_wo_entrp"> -38824.20902324 </i>
    <i name="e_0_energy"> -38824.20902646 </i>
   </energy>
  </scstep>
  <scstep>
   <time name="total">  459.01  459.00</time>
   <energy>
    <i name="e_fr_energy">  27224.49586349 </i>
    <i name="e_wo_entrp">  27224.52017361 </i>
    <i name="e_0_energy">  27224.50801855 </i>
   </energy>
  </scstep>
  <scstep>
   <time name="total">  459.75  459.73</time>
   <energy>
    <i name="e_fr_energy">   8191.36451647 </i>
    <i name="e_wo_entrp">   8191.39632127 </i>
    <i name="e_0_energy">   8191.38041887 </i>
   </energy>
  </scstep>
  <scstep>
   <time name="total">  460.02  460.02</time>
   <energy>
    <i name="e_fr_energy">   4772.43267751 </i>
    <i name="e_wo_entrp">   4772.46276430 </i>
    <i name="e_0_energy">   4772.44772090 </i>
   </energy>
  </scstep>
  <scstep>
   <time name="total">  459.43  459.41</time>
   <energy>
    <i name="e_fr_energy">   2903.00744567 </i>
    <i name="e_wo_entrp">   2903.03181559 </i>
    <i name="e_0_energy">   2903.01963063 </i>
   </energy>
  </scstep>
  <scstep>
   <time name="total">  459.26  459.24</time>
   <energy>
    <i name="e_fr_energy">   1389.39252273 </i>
    <i name="e_wo_entrp">   1389.40795960 </i>
    <i name="e_0_energy">   1389.40024117 </i>
   </energy>
  </scstep>
  <scstep>
   <time name="total">  459.00  459.00</time>
   <energy>
    <i name="e_fr_energy">    286.92147410 </i>
    <i name="e_wo_entrp">    286.92240177 </i>
    <i name="e_0_energy">    286.92193794 </i>
   </energy>
  </scstep>
  <scstep>
   <time name="total">  458.16  458.15</time>
   <energy>
    <i name="e_fr_energy">   -309.18320917 </i>
    <i name="e_wo_entrp">   -309.17174833 </i>
    <i name="e_0_energy">   -309.17747875 </i>
   </energy>
  </scstep>
  <scstep>
   <time name="total">  458.32  458.35</time>
   <energy>
    <i name="e_fr_energy">   -655.18933307 </i>
    <i name="e_wo_entrp">   -655.18442469 </i>
    <i name="e_0_energy">   -655.18687888 </i>
   </energy>
  </scstep>
  <scstep>
   <time name="total">  458.31  458.32</time>
   <energy>
    <i name="e_fr_energy">   -820.81300688 </i>
    <i name="e_wo_entrp">   -820.80567158 </i>
    <i name="e_0_energy">   -820.80933923 </i>
   </energy>
  </scstep>
  <scstep>
   <time name="total">  458.09  458.10</time>
   <energy>
    <i name="e_fr_energy">   -897.65236091 </i>
    <i name="e_wo_entrp">   -897.65080020 </i>
    <i name="e_0_energy">   -897.65158056 </i>
   </energy>
  </scstep>
  <scstep>
   <time name="total">  458.15  458.17</time>
   <energy>
    <i name="e_fr_energy">   -933.46817033 </i>
    <i name="e_wo_entrp">   -933.45632886 </i>
    <i name="e_0_energy">   -933.46224959 </i>
   </energy>
  </scstep>
  <scstep>
   <time name="total">  457.84  457.86</time>
   <energy>
    <i name="e_fr_energy">   -952.73153323 </i>
    <i name="e_wo_entrp">   -952.72811660 </i>
    <i name="e_0_energy">   -952.72982491 </i>
   </energy>
  </scstep>
  <scstep>
   <time name="total">  458.10  458.10</time>
   <energy>
    <i name="e_fr_energy">   -963.40057678 </i>
    <i name="e_wo_entrp">   -963.39807777 </i>
    <i name="e_0_energy">   -963.39932728 </i>
   </energy>
  </scstep>
  <scstep>
   <time name="total">  457.92  457.90</time>
   <energy>
    <i name="e_fr_energy">   -969.30149207 </i>
    <i name="e_wo_entrp">   -969.30149207 </i>
    <i name="e_0_energy">   -969.30149207 </i>
   </energy>
  </scstep>
  <scstep>
   <time name="total">  457.64  457.67</time>
   <energy>
    <i name="e_fr_energy">   -973.05306297 </i>
    <i name="e_wo_entrp">   -973.05306297 </i>
    <i name="e_0_energy">   -973.05306297 </i>
   </energy>
  </scstep>
  <scstep>
   <time name="total">  457.75  457.74</time>
   <energy>
    <i name="e_fr_energy">   -974.71366377 </i>
    <i name="e_wo_entrp">   -974.71366377 </i>
    <i name="e_0_energy">   -974.71366377 </i>
   </energy>
  </scstep>
  <scstep>
   <time name="total">  458.06  458.04</time>
   <energy>
    <i name="e_fr_energy">   -975.71064857 </i>
    <i name="e_wo_entrp">   -975.71064857 </i>
    <i name="e_0_energy">   -975.71064857 </i>
   </energy>
  </scstep>
  <scstep>
   <time name="total">  457.86  457.88</time>
   <energy>
    <i name="e_fr_energy">   -976.25705907 </i>
    <i name="e_wo_entrp">   -976.25705907 </i>
    <i name="e_0_energy">   -976.25705907 </i>
   </energy>
  </scstep>
  <scstep>
   <time name="total">  457.77  457.82</time>
   <energy>
    <i name="e_fr_energy">   -976.52956256 </i>
    <i name="e_wo_entrp">   -976.52956256 </i>
    <i name="e_0_energy">   -976.52956256 </i>
   </energy>
  </scstep>
  <scstep>
   <time name="total">  457.61  457.61</time>
   <energy>
    <i name="e_fr_energy">   -976.68106191 </i>
    <i name="e_wo_entrp">   -976.68106191 </i>
    <i name="e_0_energy">   -976.68106191 </i>
   </energy>
  </scstep>
  <scstep>
   <time name="total">  457.73  457.71</time>
   <energy>
    <i name="e_fr_energy">   -976.77398491 </i>
    <i name="e_wo_entrp">   -976.77398491 </i>
    <i name="e_0_energy">   -976.77398491 </i>
   </energy>
  </scstep>
  <scstep>
   <time name="total">  457.71  457.68</time>
   <energy>
    <i name="e_fr_energy">   -976.82107982 </i>
    <i name="e_wo_entrp">   -976.82107982 </i>
    <i name="e_0_energy">   -976.82107982 </i>
   </energy>
  </scstep>
  <scstep>
   <time name="total">  457.86  457.87</time>
   <energy>
    <i name="e_fr_energy">   -976.84784614 </i>
    <i name="e_wo_entrp">   -976.84784614 </i>
    <i name="e_0_energy">   -976.84784614 </i>
   </energy>
  </scstep>
  <scstep>
   <time name="total">  457.89  457.86</time>
   <energy>
    <i name="e_fr_energy">   -976.86121582 </i>
    <i name="e_wo_entrp">   -976.86121582 </i>
    <i name="e_0_energy">   -976.86121582 </i>
   </energy>
  </scstep>
  <scstep>
   <time name="total">  457.89  457.88</time>
   <energy>
    <i name="e_fr_energy">   -976.86791295 </i>
    <i name="e_wo_entrp">   -976.86791295 </i>
    <i name="e_0_energy">   -976.86791295 </i>
   </energy>
  </scstep>
  <scstep>
   <time name="total">  457.90  457.89</time>
   <energy>
    <i name="e_fr_energy">   -976.87201247 </i>
    <i name="e_wo_entrp">   -976.87201247 </i>
    <i name="e_0_energy">   -976.87201247 </i>
   </energy>
  </scstep>
  <scstep>
   <time name="total">  457.81  457.80</time>
   <energy>
    <i name="e_fr_energy">   -976.87425022 </i>
    <i name="e_wo_entrp">   -976.87425022 </i>
    <i name="e_0_energy">   -976.87425022 </i>
   </energy>
  </scstep>
  <scstep>
   <time name="total">  457.84  457.82</time>
   <energy>
    <i name="e_fr_energy">   -976.87561657 </i>
    <i name="e_wo_entrp">   -976.87561657 </i>
    <i name="e_0_energy">   -976.87561657 </i>
   </energy>
  </scstep>
  <scstep>
   <time name="total">  457.72  457.70</time>
   <energy>
    <i name="e_fr_energy">   -976.87634923 </i>
    <i name="e_wo_entrp">   -976.87634923 </i>
    <i name="e_0_energy">   -976.87634923 </i>
   </energy>
  </scstep>
  <scstep>
   <time name="total">  457.65  457.65</time>
   <energy>
    <i name="e_fr_energy">   -976.87672026 </i>
    <i name="e_wo_entrp">   -976.87672026 </i>
    <i name="e_0_energy">   -976.87672026 </i>
   </energy>
  </scstep>
  <scstep>
   <time name="total">  458.07  458.07</time>
   <energy>
    <i name="e_fr_energy">   -976.87692602 </i>
    <i name="e_wo_entrp">   -976.87692602 </i>
    <i name="e_0_energy">   -976.87692602 </i>
   </energy>
  </scstep>
  <scstep>
   <time name="total">  457.85  457.85</time>
   <energy>
    <i name="e_fr_energy">   -976.87704403 </i>
    <i name="e_wo_entrp">   -976.87704403 </i>
    <i name="e_0_energy">   -976.87704403 </i>
   </energy>
  </scstep>
  <scstep>
   <time name="total">  457.70  457.70</time>
   <energy>
    <i name="e_fr_energy">   -976.87715556 </i>
    <i name="e_wo_entrp">   -976.87715556 </i>
    <i name="e_0_energy">   -976.87715556 </i>
   </energy>
  </scstep>
  <scstep>
   <time name="total">  457.68  457.69</time>
   <energy>
    <i name="e_fr_energy">   -976.87719079 </i>
    <i name="e_wo_entrp">   -976.87719079 </i>
    <i name="e_0_energy">   -976.87719079 </i>
   </energy>
  </scstep>
  <scstep>
   <time name="total">  457.62  457.64</time>
   <energy>
    <i name="e_fr_energy">   -976.87720294 </i>
    <i name="e_wo_entrp">   -976.87720294 </i>
    <i name="e_0_energy">   -976.87720294 </i>
   </energy>
  </scstep>
  <scstep>
   <time name="total">  682.78  682.78</time>
   <energy>
    <i name="alphaZ">   5376.25786726 </i>
    <i name="ewald"> -86723.66616442 </i>
    <i name="hartreedc"> -33824.79528421 </i>
    <i name="XCdc">   2752.66794289 </i>
    <i name="pawpsdc"> 120138.98637557 </i>
    <i name="pawaedc">-135302.38835854 </i>
    <i name="eentropy">     -0.00000000 </i>
    <i name="bandstr">  -9106.22961031 </i>
    <i name="atom"> 131459.35058357 </i>
    <i name="e_fr_energy">   -976.87720673 </i>
    <i name="e_wo_entrp">   -976.87720673 </i>
    <i name="e_0_energy">   -976.87720673 </i>
   </energy>
  </scstep>
  <structure>
   <crystal>
    <varray name="basis" >
     <v>       0.00000000      12.28047342       0.00000000 </v>
     <v>       9.14270205       0.00000000       0.00000000 </v>
     <v>       0.00000000      -2.76826177     -11.30069772 </v>
    </varray>
    <i name="volume">   1268.80515525 </i>
    <varray name="rec_basis" >
     <v>       0.00000000       0.08143009      -0.01994742 </v>
     <v>       0.10937686      -0.00000000       0.00000000 </v>
     <v>       0.00000000       0.00000000      -0.08849011 </v>
    </varray>
   </crystal>
   <varray name="positions" >
    <v>       0.65618701       0.99731715       0.15512525 </v>
    <v>       0.66027536       0.00178682       0.65685475 </v>
    <v>       0.65694367       0.33220892       0.15696583 </v>
    <v>       0.65934907       0.33537821       0.65704708 </v>
    <v>       0.65891922       0.66576957       0.15809200 </v>
    <v>       0.65983850       0.66827113       0.65672062 </v>
    <v>       0.83348961       0.15642006       0.34083750 </v>
    <v>       0.84127863       0.16821118       0.84386153 </v>
    <v>       0.84694254       0.49420788       0.34264673 </v>
    <v>       0.84071704       0.50190810       0.84355318 </v>
    <v>       0.84619331       0.82899177       0.34416429 </v>
    <v>       0.84172424       0.83567432       0.84410424 </v>
    <v>       0.58835553       0.16732455       0.39831009 </v>
    <v>       0.59011536       0.16736343       0.89734300 </v>
    <v>       0.59138127       0.50232405       0.39712104 </v>
    <v>       0.58877705       0.50131600       0.89685722 </v>
    <v>       0.59257330       0.83500718       0.39733130 </v>
    <v>       0.59090954       0.83427866       0.89739481 </v>
    <v>       0.91005138       0.00210021       0.10454288 </v>
    <v>       0.90864252       0.00087057       0.60154281 </v>
    <v>       0.90902969       0.33586687       0.10307895 </v>
    <v>       0.90938998       0.33450642       0.60261457 </v>
    <v>       0.90786140       0.66695345       0.10158329 </v>
    <v>       0.90784979       0.66629648       0.60132698 </v>
    <v>       0.15804057       0.17366702       0.15799693 </v>
    <v>       0.15870087       0.17417538       0.65555817 </v>
    <v>       0.16004611       0.50224669       0.15706328 </v>
    <v>       0.15922318       0.50472427       0.65579225 </v>
    <v>       0.15492344       0.83000742       0.15632655 </v>
    <v>       0.15510179       0.83510228       0.64884929 </v>
    <v>       0.33930850       0.00342497       0.34779727 </v>
    <v>       0.33958410       0.00138883       0.84004600 </v>
    <v>       0.34167903       0.33804057       0.34342917 </v>
    <v>       0.33945007       0.33558199       0.84427621 </v>
    <v>       0.34046572       0.66981359       0.34418850 </v>
    <v>       0.33884885       0.66870376       0.84268898 </v>
    <v>       0.09266000       0.00178848       0.89747652 </v>
    <v>       0.09875939       0.31155870       0.40065593 </v>
    <v>       0.09066013       0.33586274       0.89750007 </v>
    <v>       0.08760257       0.66433078       0.39518400 </v>
    <v>       0.09095295       0.66806690       0.89618862 </v>
    <v>       0.40576420       0.16580595       0.10198554 </v>
    <v>       0.41114335       0.17007797       0.60358495 </v>
    <v>       0.40941082       0.50181223       0.10217975 </v>
    <v>       0.40838040       0.50290914       0.60321515 </v>
    <v>       0.40421108       0.83480752       0.10227576 </v>
    <v>       0.41117344       0.83573436       0.60233034 </v>
    <v>       0.99665264       0.16978896       0.13888527 </v>
    <v>       0.99647625       0.16782345       0.62277112 </v>
    <v>       0.99657313       0.50175706       0.12557582 </v>
    <v>       0.99638956       0.50083522       0.62778863 </v>
    <v>       0.99485527       0.83370097       0.12679783 </v>
    <v>       0.99498098       0.83375353       0.62708905 </v>
    <v>       0.50265175       0.99991249       0.37291439 </v>
    <v>       0.50241541       0.00045553       0.87208726 </v>
    <v>       0.50329164       0.33560131       0.37197779 </v>
    <v>       0.50169630       0.33356195       0.87213729 </v>
    <v>       0.50368915       0.66923272       0.37217105 </v>
    <v>       0.50161293       0.66913592       0.87186867 </v>
    <v>       0.66903802       0.16512486       0.28002940 </v>
    <v>       0.67293129       0.16868215       0.78118602 </v>
    <v>       0.67390906       0.49653162       0.28086017 </v>
    <v>       0.67238448       0.50166573       0.78104407 </v>
    <v>       0.67414513       0.83161691       0.28039811 </v>
    <v>       0.67338987       0.83596822       0.78108423 </v>
    <v>       0.82479135       0.99887501       0.21828875 </v>
    <v>       0.82843743       0.00264437       0.71999285 </v>
    <v>       0.82829091       0.32667512       0.22054022 </v>
    <v>       0.82780528       0.33478447       0.71947044 </v>
    <v>       0.82764058       0.66184357       0.21886919 </v>
    <v>       0.82763216       0.66860688       0.71963132 </v>
    <v>       0.82746962       0.99565451       0.44639458 </v>
    <v>       0.83440506       0.00263188       0.94741992 </v>
    <v>       0.84042691       0.32350945       0.44356182 </v>
    <v>       0.83328389       0.33451429       0.94637768 </v>
    <v>       0.83257572       0.66022261       0.44463198 </v>
    <v>       0.83151881       0.66852007       0.94519901 </v>
    <v>       0.66562691       0.16603086       0.05427140 </v>
    <v>       0.66784536       0.16897963       0.55412257 </v>
    <v>       0.66502217       0.49901741       0.05409403 </v>
    <v>       0.66905416       0.50102640       0.55387026 </v>
    <v>       0.66777961       0.83195789       0.05380844 </v>
    <v>       0.66847712       0.83470440       0.55451948 </v>
    <v>       0.49380665       0.99946268       0.12667229 </v>
    <v>       0.49789518       0.00277072       0.62815463 </v>
    <v>       0.49365207       0.33221255       0.12677884 </v>
    <v>       0.49712162       0.33705403       0.62869828 </v>
    <v>       0.49480695       0.67037040       0.12732363 </v>
    <v>       0.49734495       0.66879634       0.62823413 </v>
    <v>       0.00446418       0.16803956       0.87366959 </v>
    <v>       0.00951024       0.48662378       0.37358218 </v>
    <v>       0.00301141       0.50202235       0.87210623 </v>
    <v>       0.00503796       0.83298024       0.37364411 </v>
    <v>       0.00463858       0.83566953       0.87303216 </v>
    <v>       0.15653433       0.01203867       0.30090717 </v>
    <v>       0.16892588       0.00247010       0.77245048 </v>
    <v>       0.17705379       0.34043026       0.27732130 </v>
    <v>       0.17257467       0.33573468       0.78151330 </v>
    <v>       0.17242304       0.66886836       0.27946534 </v>
    <v>       0.17176650       0.66955594       0.77863083 </v>
    <v>       0.32421842       0.16221512       0.22045839 </v>
    <v>       0.32566305       0.16512321       0.71704181 </v>
    <v>       0.32929513       0.50510900       0.21959288 </v>
    <v>       0.32860329       0.50399691       0.72151749 </v>
    <v>       0.32099512       0.84209723       0.22040713 </v>
    <v>       0.32253618       0.84037130       0.71315097 </v>
    <v>       0.33546654       0.17131162       0.44707556 </v>
    <v>       0.32886833       0.16592251       0.94455928 </v>
    <v>       0.33357423       0.50369981       0.44640984 </v>
    <v>       0.33139687       0.50224790       0.94617930 </v>
    <v>       0.33269093       0.83619342       0.44661755 </v>
    <v>       0.32829806       0.83638998       0.94393379 </v>
    <v>       0.16182225       0.00226817       0.05922090 </v>
    <v>       0.14579895       0.01222058       0.52783730 </v>
    <v>       0.16822153       0.33532250       0.05320329 </v>
    <v>       0.17531029       0.34033250       0.55952254 </v>
    <v>       0.16819609       0.66797897       0.05288960 </v>
    <v>       0.16800693       0.66904665       0.55212452 </v>
    <v>       0.07194391       0.04772049       0.39134104 </v>
   </varray>
  </structure>
  <varray name="forces" >
   <v>      -0.02734688       0.21262685      -0.05776140 </v>
   <v>      -0.00685975       0.08752748       0.02713411 </v>
   <v>      -0.00691392       0.09909966      -0.03739940 </v>
   <v>       0.00217628       0.07387663       0.03206208 </v>
   <v>       0.03788824       0.15196492      -0.04699041 </v>
   <v>       0.01740658       0.09059993       0.02986267 </v>
   <v>      -0.29674965      -0.08372764      -0.03283008 </v>
   <v>      -0.01815032      -0.04538826      -0.02206006 </v>
   <v>      -0.00011404       0.09216880      -0.07419790 </v>
   <v>       0.01651575      -0.04458941      -0.01519171 </v>
   <v>       0.13440932       0.37106611      -0.14686406 </v>
   <v>       0.01304837      -0.04824731      -0.01927740 </v>
   <v>      -0.01253228      -0.00650169       0.03801664 </v>
   <v>       0.00313853      -0.02266936      -0.00470441 </v>
   <v>      -0.02022866      -0.00696398       0.02552747 </v>
   <v>      -0.01222742      -0.01749866       0.00337201 </v>
   <v>       0.00955411       0.00161426       0.02962955 </v>
   <v>      -0.00477359      -0.01659961      -0.01073873 </v>
   <v>      -0.01198539       0.04031788      -0.26892656 </v>
   <v>      -0.02401622       0.14637012       0.19154443 </v>
   <v>      -0.07363899       0.09675740      -0.15338170 </v>
   <v>      -0.07734043       0.18086857       0.08168380 </v>
   <v>       0.05048795       0.07600610      -0.12010453 </v>
   <v>       0.04106479       0.12359731       0.06512012 </v>
   <v>       0.09278763      -0.05845708      -0.22206950 </v>
   <v>       0.09576105       0.04118974       0.32800780 </v>
   <v>      -0.09487086       0.02336057      -0.20734285 </v>
   <v>      -0.09646790       0.13308088       0.25151127 </v>
   <v>      -0.06291909      -0.04729895      -0.09412701 </v>
   <v>      -0.03762597      -0.02317597       0.22268857 </v>
   <v>       0.05296727      -0.21978704      -0.07689212 </v>
   <v>       0.02206568      -0.08775104       0.07210854 </v>
   <v>       0.00185564      -0.29960998      -0.03451803 </v>
   <v>       0.03019077      -0.12902565       0.04584394 </v>
   <v>      -0.02951580      -0.20249298      -0.03969526 </v>
   <v>      -0.07163150      -0.11734420       0.03696815 </v>
   <v>       0.00840093      -0.13262114       0.02887564 </v>
   <v>      -0.19546444       0.31560179      -0.11389775 </v>
   <v>      -0.00448338       0.00493029       0.00704942 </v>
   <v>       0.28044663      -0.19814240       0.02743761 </v>
   <v>       0.01393439      -0.03007611       0.01900385 </v>
   <v>      -0.00411469       0.00533286      -0.05928344 </v>
   <v>       0.00681060      -0.07842837       0.09236415 </v>
   <v>      -0.00009021      -0.04952450      -0.06832383 </v>
   <v>      -0.01105523      -0.03963982       0.04163781 </v>
   <v>       0.03105469       0.04930341      -0.04684071 </v>
   <v>       0.01787433      -0.06498435       0.06305971 </v>
   <v>       0.04677176      -0.16556338       0.38160736 </v>
   <v>       0.05053413      -0.27481992      -0.01432944 </v>
   <v>       0.00712284      -0.26163057       0.17133649 </v>
   <v>       0.00933080      -0.26706084       0.10182653 </v>
   <v>      -0.03758065      -0.15495489       0.20142614 </v>
   <v>      -0.03561726      -0.20832306       0.08391950 </v>
   <v>       0.02681498       0.25339262      -0.15585518 </v>
   <v>       0.00371055       0.20956090      -0.12576900 </v>
   <v>      -0.00223603       0.20489795      -0.13523437 </v>
   <v>       0.00980352       0.19943094      -0.13620723 </v>
   <v>      -0.01226118       0.23213899      -0.13816091 </v>
   <v>      -0.00775486       0.21242742      -0.13067845 </v>
   <v>       0.03218740      -0.05197957      -0.12597128 </v>
   <v>      -0.00212780      -0.06409295      -0.13529561 </v>
   <v>       0.00222678      -0.15723357      -0.06272784 </v>
   <v>      -0.00732439      -0.05608784      -0.12799092 </v>
   <v>      -0.03474631      -0.17378259      -0.07013136 </v>
   <v>      -0.00364866      -0.06892092      -0.13816606 </v>
   <v>       0.06550367      -0.19186627       0.25625131 </v>
   <v>      -0.00152251      -0.02605926       0.08513877 </v>
   <v>       0.06180671       0.00928451       0.15128480 </v>
   <v>       0.00424027       0.00137877       0.11460841 </v>
   <v>      -0.03825519      -0.01049259       0.22184651 </v>
   <v>      -0.02122772      -0.01937312       0.10926071 </v>
   <v>       0.03397090       0.24602503      -0.13915799 </v>
   <v>       0.00245234       0.40216804      -0.01765984 </v>
   <v>       0.01991413       0.28031884      -0.07292839 </v>
   <v>       0.00621029       0.40983958      -0.05564069 </v>
   <v>      -0.04118224       0.36664386      -0.14763275 </v>
   <v>      -0.01717155       0.42760660      -0.04999377 </v>
   <v>       0.02140480      -0.45410406       0.13294811 </v>
   <v>       0.00472312      -0.46979486       0.05494784 </v>
   <v>       0.00763296      -0.43455443       0.11370417 </v>
   <v>      -0.00078570      -0.45882413       0.06009899 </v>
   <v>       0.01343946      -0.48229817       0.14115804 </v>
   <v>      -0.02020754      -0.46505999       0.05038681 </v>
   <v>      -0.00788765      -0.20858382       0.14758831 </v>
   <v>      -0.01419868      -0.15663804       0.10996680 </v>
   <v>       0.02367382      -0.18220266       0.14021282 </v>
   <v>      -0.02205838      -0.15389563       0.10594789 </v>
   <v>      -0.04412098      -0.20840515       0.14217260 </v>
   <v>       0.01592071      -0.16207122       0.10949668 </v>
   <v>       0.00675517       0.19782217      -0.11491698 </v>
   <v>       0.15564375      -0.00085755      -0.06688214 </v>
   <v>       0.00167859       0.18467697      -0.12911649 </v>
   <v>      -1.32853283      -0.20295063      -0.02958731 </v>
   <v>      -0.00586890       0.19678318      -0.12498449 </v>
   <v>       0.00396922       0.04297209      -0.02302341 </v>
   <v>       0.01025157      -0.01661699      -0.20284932 </v>
   <v>       0.14076715       0.34959813       0.23397230 </v>
   <v>      -0.03482771      -0.02710369      -0.23409645 </v>
   <v>      -0.02236190       0.08931270       0.03310177 </v>
   <v>      -0.06631073      -0.01786648      -0.20837003 </v>
   <v>      -0.00136327       0.10606208       0.21016658 </v>
   <v>      -0.01509877       0.08925344       0.04411793 </v>
   <v>       0.01578763       0.15248994       0.18256822 </v>
   <v>       0.04261021       0.10458615       0.04358413 </v>
   <v>      -0.04348118       0.08956108       0.19423163 </v>
   <v>       0.01013532       0.10316139       0.05822278 </v>
   <v>      -0.03996317       0.54347617      -0.12208038 </v>
   <v>       0.00157418       0.46002928      -0.09416800 </v>
   <v>       0.02488068       0.49602636      -0.11188267 </v>
   <v>      -0.01122752       0.45555769      -0.08631564 </v>
   <v>      -0.01050015       0.53813363      -0.10476590 </v>
   <v>      -0.01843556       0.45109395      -0.08498369 </v>
   <v>      -0.00754401      -0.32051159       0.14118789 </v>
   <v>      -0.05101976      -0.22105835      -0.12750772 </v>
   <v>      -0.01468022      -0.42647753       0.15827874 </v>
   <v>       0.16640231      -0.40783659      -0.40004325 </v>
   <v>       0.00986686      -0.42847409       0.11471359 </v>
   <v>      -0.00833081      -0.43587365      -0.12631691 </v>
   <v>       1.21302028       0.04187409      -0.01694985 </v>
  </varray>
  <varray name="stress" >
   <v>     -63.88997877       9.37971401      -2.25557234 </v>
   <v>       9.37971395     -60.89449856       0.06111310 </v>
   <v>      -2.25557164       0.06111337     -65.14675859 </v>
  </varray>
  <energy>
   <i name="e_fr_energy">   -976.87720673 </i>
   <i name="e_wo_entrp">   -976.87720673 </i>
   <i name="e_0_energy">   -976.87720673 </i>
  </energy>
  <time name="totalsc">17531.0817533.43</time>
  <eigenvalues>
   <array>
    <dimension dim="1">band</dimension>
    <dimension dim="2">kpoint</dimension>
    <dimension dim="3">spin</dimension>
    <field>eigene</field>
    <field>occ</field>
    <set>
     <set comment="spin 1">
      <set comment="kpoint 1">
       <r>  -19.1161    1.0000 </r>
       <r>  -18.8213    1.0000 </r>
       <r>  -18.7932    1.0000 </r>
       <r>  -18.6916    1.0000 </r>
       <r>  -18.5961    1.0000 </r>
       <r>  -18.4897    1.0000 </r>
       <r>  -18.4160    1.0000 </r>
       <r>  -18.3772    1.0000 </r>
       <r>  -18.3221    1.0000 </r>
       <r>  -18.2407    1.0000 </r>
       <r>  -18.2368    1.0000 </r>
       <r>  -18.2095    1.0000 </r>
       <r>  -18.1745    1.0000 </r>
       <r>  -18.1675    1.0000 </r>
       <r>  -18.1445    1.0000 </r>
       <r>  -18.1067    1.0000 </r>
       <r>  -18.0999    1.0000 </r>
       <r>  -18.0676    1.0000 </r>
       <r>  -18.0435    1.0000 </r>
       <r>  -17.9981    1.0000 </r>
       <r>  -17.9906    1.0000 </r>
       <r>  -17.9836    1.0000 </r>
       <r>  -17.9585    1.0000 </r>
       <r>  -17.9447    1.0000 </r>
       <r>  -17.9240    1.0000 </r>
       <r>  -17.9086    1.0000 </r>
       <r>  -17.8369    1.0000 </r>
       <r>  -17.8246    1.0000 </r>
       <r>  -17.8087    1.0000 </r>
       <r>  -17.7953    1.0000 </r>
       <r>  -17.7868    1.0000 </r>
       <r>  -17.7746    1.0000 </r>
       <r>  -17.7728    1.0000 </r>
       <r>  -17.7633    1.0000 </r>
       <r>  -17.7466    1.0000 </r>
       <r>  -17.7071    1.0000 </r>
       <r>  -17.6942    1.0000 </r>
       <r>  -17.6519    1.0000 </r>
       <r>  -17.6402    1.0000 </r>
       <r>  -17.6202    1.0000 </r>
       <r>  -17.6170    1.0000 </r>
       <r>  -17.6046    1.0000 </r>
       <r>  -17.5889    1.0000 </r>
       <r>  -17.5521    1.0000 </r>
       <r>  -17.5222    1.0000 </r>
       <r>  -17.4907    1.0000 </r>
       <r>  -17.4794    1.0000 </r>
       <r>  -17.4704    1.0000 </r>
       <r>  -17.4656    1.0000 </r>
       <r>  -17.4587    1.0000 </r>
       <r>  -17.4470    1.0000 </r>
       <r>  -17.4389    1.0000 </r>
       <r>  -17.4074    1.0000 </r>
       <r>  -17.3977    1.0000 </r>
       <r>  -17.3943    1.0000 </r>
       <r>  -17.3832    1.0000 </r>
       <r>  -17.3670    1.0000 </r>
       <r>  -17.3634    1.0000 </r>
       <r>  -17.3548    1.0000 </r>
       <r>  -17.3471    1.0000 </r>
       <r>  -17.3379    1.0000 </r>
       <r>  -17.3246    1.0000 </r>
       <r>  -17.3149    1.0000 </r>
       <r>  -17.3053    1.0000 </r>
       <r>  -17.2638    1.0000 </r>
       <r>  -17.2442    1.0000 </r>
       <r>  -17.2081    1.0000 </r>
       <r>  -17.1917    1.0000 </r>
       <r>  -17.0684    1.0000 </r>
       <r>  -16.9430    1.0000 </r>
       <r>  -16.3771    1.0000 </r>
       <r>  -13.6081    1.0000 </r>
       <r>  -13.5950    1.0000 </r>
       <r>  -13.5834    1.0000 </r>
       <r>  -13.5809    1.0000 </r>
       <r>  -13.5519    1.0000 </r>
       <r>  -13.5482    1.0000 </r>
       <r>  -13.5427    1.0000 </r>
       <r>  -13.5340    1.0000 </r>
       <r>  -13.5212    1.0000 </r>
       <r>  -13.5202    1.0000 </r>
       <r>  -13.5123    1.0000 </r>
       <r>  -13.5062    1.0000 </r>
       <r>  -13.5002    1.0000 </r>
       <r>  -13.4930    1.0000 </r>
       <r>  -13.4889    1.0000 </r>
       <r>  -13.4815    1.0000 </r>
       <r>  -13.4795    1.0000 </r>
       <r>  -13.4754    1.0000 </r>
       <r>  -13.4713    1.0000 </r>
       <r>  -13.4699    1.0000 </r>
       <r>  -13.4669    1.0000 </r>
       <r>  -13.4636    1.0000 </r>
       <r>  -13.4633    1.0000 </r>
       <r>  -13.4616    1.0000 </r>
       <r>  -13.4571    1.0000 </r>
       <r>  -13.4538    1.0000 </r>
       <r>  -13.4489    1.0000 </r>
       <r>  -13.4459    1.0000 </r>
       <r>  -13.4428    1.0000 </r>
       <r>  -13.4392    1.0000 </r>
       <r>  -13.4334    1.0000 </r>
       <r>  -13.4296    1.0000 </r>
       <r>  -13.4282    1.0000 </r>
       <r>  -13.4245    1.0000 </r>
       <r>  -13.4188    1.0000 </r>
       <r>  -13.4161    1.0000 </r>
       <r>  -13.4149    1.0000 </r>
       <r>  -13.4130    1.0000 </r>
       <r>  -13.4095    1.0000 </r>
       <r>  -13.4072    1.0000 </r>
       <r>  -13.4058    1.0000 </r>
       <r>  -13.4024    1.0000 </r>
       <r>  -13.4010    1.0000 </r>
       <r>  -13.3972    1.0000 </r>
       <r>  -13.3936    1.0000 </r>
       <r>  -13.3904    1.0000 </r>
       <r>  -13.3895    1.0000 </r>
       <r>  -13.3850    1.0000 </r>
       <r>  -13.3842    1.0000 </r>
       <r>  -13.3812    1.0000 </r>
       <r>  -13.3770    1.0000 </r>
       <r>  -13.3749    1.0000 </r>
       <r>  -13.3735    1.0000 </r>
       <r>  -13.3682    1.0000 </r>
       <r>  -13.3601    1.0000 </r>
       <r>  -13.3589    1.0000 </r>
       <r>  -13.3497    1.0000 </r>
       <r>  -13.3481    1.0000 </r>
       <r>  -13.3449    1.0000 </r>
       <r>  -13.3432    1.0000 </r>
       <r>  -13.3362    1.0000 </r>
       <r>  -13.3348    1.0000 </r>
       <r>  -13.3302    1.0000 </r>
       <r>  -13.3296    1.0000 </r>
       <r>  -13.3245    1.0000 </r>
       <r>  -13.3213    1.0000 </r>
       <r>  -13.3192    1.0000 </r>
       <r>  -13.3148    1.0000 </r>
       <r>  -13.3093    1.0000 </r>
       <r>  -13.3065    1.0000 </r>
       <r>  -13.3044    1.0000 </r>
       <r>  -13.3003    1.0000 </r>
       <r>  -13.2963    1.0000 </r>
       <r>  -13.2941    1.0000 </r>
       <r>  -13.2865    1.0000 </r>
       <r>  -13.2838    1.0000 </r>
       <r>  -13.2815    1.0000 </r>
       <r>  -13.2811    1.0000 </r>
       <r>  -13.2749    1.0000 </r>
       <r>  -13.2714    1.0000 </r>
       <r>  -13.2674    1.0000 </r>
       <r>  -13.2650    1.0000 </r>
       <r>  -13.2639    1.0000 </r>
       <r>  -13.2601    1.0000 </r>
       <r>  -13.2560    1.0000 </r>
       <r>  -13.2545    1.0000 </r>
       <r>  -13.2537    1.0000 </r>
       <r>  -13.2495    1.0000 </r>
       <r>  -13.2489    1.0000 </r>
       <r>  -13.2461    1.0000 </r>
       <r>  -13.2391    1.0000 </r>
       <r>  -13.2389    1.0000 </r>
       <r>  -13.2372    1.0000 </r>
       <r>  -13.2349    1.0000 </r>
       <r>  -13.2338    1.0000 </r>
       <r>  -13.2294    1.0000 </r>
       <r>  -13.2270    1.0000 </r>
       <r>  -13.2258    1.0000 </r>
       <r>  -13.2245    1.0000 </r>
       <r>  -13.2218    1.0000 </r>
       <r>  -13.2188    1.0000 </r>
       <r>  -13.2144    1.0000 </r>
       <r>  -13.2142    1.0000 </r>
       <r>  -13.2119    1.0000 </r>
       <r>  -13.2065    1.0000 </r>
       <r>  -13.2046    1.0000 </r>
       <r>  -13.2024    1.0000 </r>
       <r>  -13.2006    1.0000 </r>
       <r>  -13.2005    1.0000 </r>
       <r>  -13.1974    1.0000 </r>
       <r>  -13.1962    1.0000 </r>
       <r>  -13.1937    1.0000 </r>
       <r>  -13.1892    1.0000 </r>
       <r>  -13.1857    1.0000 </r>
       <r>  -13.1825    1.0000 </r>
       <r>  -13.1748    1.0000 </r>
       <r>  -13.1730    1.0000 </r>
       <r>  -13.1711    1.0000 </r>
       <r>  -13.1708    1.0000 </r>
       <r>  -13.1679    1.0000 </r>
       <r>  -13.1647    1.0000 </r>
       <r>  -13.1622    1.0000 </r>
       <r>  -13.1604    1.0000 </r>
       <r>  -13.1554    1.0000 </r>
       <r>  -13.1533    1.0000 </r>
       <r>  -13.1512    1.0000 </r>
       <r>  -13.1488    1.0000 </r>
       <r>  -13.1451    1.0000 </r>
       <r>  -13.1422    1.0000 </r>
       <r>  -13.1396    1.0000 </r>
       <r>  -13.1377    1.0000 </r>
       <r>  -13.1364    1.0000 </r>
       <r>  -13.1348    1.0000 </r>
       <r>  -13.1309    1.0000 </r>
       <r>  -13.1292    1.0000 </r>
       <r>  -13.1292    1.0000 </r>
       <r>  -13.1265    1.0000 </r>
       <r>  -13.1230    1.0000 </r>
       <r>  -13.1222    1.0000 </r>
       <r>  -13.1210    1.0000 </r>
       <r>  -13.1182    1.0000 </r>
       <r>  -13.1141    1.0000 </r>
       <r>  -13.1127    1.0000 </r>
       <r>  -13.1108    1.0000 </r>
       <r>  -13.1079    1.0000 </r>
       <r>  -13.1058    1.0000 </r>
       <r>  -13.1012    1.0000 </r>
       <r>  -13.0974    1.0000 </r>
       <r>  -13.0960    1.0000 </r>
       <r>  -13.0949    1.0000 </r>
       <r>  -13.0909    1.0000 </r>
       <r>  -13.0902    1.0000 </r>
       <r>  -13.0845    1.0000 </r>
       <r>  -13.0826    1.0000 </r>
       <r>  -13.0772    1.0000 </r>
       <r>  -13.0710    1.0000 </r>
       <r>  -13.0636    1.0000 </r>
       <r>  -13.0604    1.0000 </r>
       <r>  -13.0547    1.0000 </r>
       <r>  -13.0541    1.0000 </r>
       <r>  -13.0481    1.0000 </r>
       <r>  -13.0457    1.0000 </r>
       <r>  -13.0425    1.0000 </r>
       <r>  -13.0366    1.0000 </r>
       <r>  -13.0218    1.0000 </r>
       <r>  -13.0213    1.0000 </r>
       <r>  -13.0125    1.0000 </r>
       <r>  -13.0093    1.0000 </r>
       <r>  -13.0038    1.0000 </r>
       <r>  -12.9997    1.0000 </r>
       <r>  -12.9835    1.0000 </r>
       <r>  -12.9825    1.0000 </r>
       <r>  -12.9758    1.0000 </r>
       <r>  -12.9651    1.0000 </r>
       <r>  -12.9586    1.0000 </r>
       <r>  -12.9481    1.0000 </r>
       <r>  -12.9401    1.0000 </r>
       <r>  -12.9260    1.0000 </r>
       <r>  -12.9217    1.0000 </r>
       <r>  -12.9096    1.0000 </r>
       <r>  -12.9009    1.0000 </r>
       <r>  -12.8929    1.0000 </r>
       <r>  -12.8820    1.0000 </r>
       <r>  -12.8763    1.0000 </r>
       <r>  -12.8740    1.0000 </r>
       <r>  -12.8584    1.0000 </r>
       <r>  -12.8532    1.0000 </r>
       <r>  -12.8464    1.0000 </r>
       <r>  -12.8333    1.0000 </r>
       <r>  -12.8190    1.0000 </r>
       <r>  -12.8097    1.0000 </r>
[...]
       <r>   -12.7433   176.9861   531.3588 </r>
       <r>   -12.6087   124.2710   548.0795 </r>
       <r>   -12.4742   127.4606   565.2293 </r>
       <r>   -12.3396   114.6968   580.6618 </r>
       <r>   -12.2051   111.6183   595.6800 </r>
       <r>   -12.0705    68.7650   604.9324 </r>
       <r>   -11.9360    26.3747   608.4811 </r>
       <r>   -11.8014    16.0340   610.6385 </r>
       <r>   -11.6669    10.1118   611.9990 </r>
       <r>   -11.5323     0.0073   612.0000 </r>
       <r>   -11.3978     0.0000   612.0000 </r>
       <r>   -11.2632     0.0000   612.0000 </r>
       <r>   -11.1287     0.0000   612.0000 </r>
       <r>   -10.9941     0.0000   612.0000 </r>
       <r>   -10.8596     0.0000   612.0000 </r>
       <r>   -10.7250     0.0000   612.0000 </r>
       <r>   -10.5905     0.0000   612.0000 </r>
       <r>   -10.4559     0.0000   612.0000 </r>
       <r>   -10.3214     0.0000   612.0000 </r>
       <r>   -10.1868     0.0000   612.0000 </r>
       <r>   -10.0523     0.0000   612.0000 </r>
       <r>    -9.9177     0.0000   612.0000 </r>
       <r>    -9.7832     0.0000   612.0000 </r>
       <r>    -9.6486     0.0000   612.0000 </r>
       <r>    -9.5141     0.0000   612.0000 </r>
       <r>    -9.3795     0.0000   612.0000 </r>
       <r>    -9.2450     0.0000   612.0000 </r>
       <r>    -9.1104     0.0000   612.0000 </r>
       <r>    -8.9759     0.0000   612.0000 </r>
       <r>    -8.8413     0.0000   612.0000 </r>
       <r>    -8.7068     0.0000   612.0000 </r>
       <r>    -8.5722     0.0000   612.0000 </r>
       <r>    -8.4377     0.0000   612.0000 </r>
       <r>    -8.3031     0.0000   612.0000 </r>
       <r>    -8.1686     0.0000   612.0000 </r>
       <r>    -8.0340     0.0000   612.0000 </r>
       <r>    -7.8995     0.0000   612.0000 </r>
       <r>    -7.7649     0.0000   612.0000 </r>
       <r>    -7.6304     0.0000   612.0000 </r>
       <r>    -7.4958     0.0000   612.0000 </r>
       <r>    -7.3613     0.0000   612.0000 </r>
       <r>    -7.2267     0.0000   612.0000 </r>
       <r>    -7.0922     0.0000   612.0000 </r>
       <r>    -6.9576     0.0000   612.0000 </r>
       <r>    -6.8231     0.0280   612.0038 </r>
       <r>    -6.6885    11.1864   613.5089 </r>
       <r>    -6.5540     3.6498   614.0000 </r>
       <r>    -6.4194     0.0001   614.0000 </r>
       <r>    -6.2849     0.0000   614.0000 </r>
       <r>    -6.1503     0.0000   614.0000 </r>
       <r>    -6.0158     0.0000   614.0000 </r>
       <r>    -5.8812     0.0000   614.0000 </r>
       <r>    -5.7467     0.0000   614.0000 </r>
       <r>    -5.6121     0.0000   614.0000 </r>
       <r>    -5.4776     0.8332   614.1121 </r>
       <r>    -5.3430     3.2951   614.5555 </r>
       <r>    -5.2085    15.3643   616.6227 </r>
       <r>    -5.0739    21.8270   619.5595 </r>
       <r>    -4.9394    33.9212   624.1236 </r>
       <r>    -4.8048    27.6183   627.8397 </r>
       <r>    -4.6703    41.0803   633.3670 </r>
       <r>    -4.5357    45.3931   639.4747 </r>
       <r>    -4.4012    55.1268   646.8920 </r>
       <r>    -4.2666    47.4954   653.2825 </r>
       <r>    -4.1321    44.1329   659.2206 </r>
       <r>    -3.9975    46.2365   665.4417 </r>
       <r>    -3.8630    43.9457   671.3546 </r>
       <r>    -3.7284    30.6629   675.4803 </r>
       <r>    -3.5939    30.2304   679.5478 </r>
       <r>    -3.4593    31.3972   683.7723 </r>
       <r>    -3.3248    37.5853   688.8294 </r>
       <r>    -3.1902    31.5639   693.0763 </r>
       <r>    -3.0557    36.7253   698.0177 </r>
       <r>    -2.9211    37.4224   703.0529 </r>
       <r>    -2.7866    37.4908   708.0973 </r>
       <r>    -2.6520    39.9021   713.4662 </r>
       <r>    -2.5175    38.3234   718.6226 </r>
       <r>    -2.3829    46.7780   724.9166 </r>
       <r>    -2.2484    37.4821   729.9598 </r>
       <r>    -2.1138    46.4331   736.2073 </r>
       <r>    -1.9793    73.0209   746.0323 </r>
       <r>    -1.8447    59.3244   754.0144 </r>
       <r>    -1.7102    55.7753   761.5190 </r>
       <r>    -1.5756    61.3545   769.7742 </r>
       <r>    -1.4411    63.3690   778.3005 </r>
       <r>    -1.3065    48.9762   784.8903 </r>
       <r>    -1.1720    57.2299   792.5906 </r>
       <r>    -1.0374    76.5057   802.8844 </r>
       <r>    -0.9029    64.5511   811.5698 </r>
       <r>    -0.7683    70.2987   821.0285 </r>
       <r>    -0.6338    66.1058   829.9230 </r>
       <r>    -0.4992    60.5489   838.0699 </r>
       <r>    -0.3647    71.1889   847.6483 </r>
       <r>    -0.2301    71.4815   857.2662 </r>
       <r>    -0.0956    79.0976   867.9088 </r>
       <r>     0.0390    67.5199   876.9936 </r>
       <r>     0.1735    67.8320   886.1204 </r>
       <r>     0.3081    75.5878   896.2907 </r>
       <r>     0.4426    89.9354   908.3915 </r>
       <r>     0.5772    91.1137   920.6509 </r>
       <r>     0.7117    89.2094   932.6540 </r>
       <r>     0.8463    86.1247   944.2421 </r>
       <r>     0.9808   115.3352   959.7605 </r>
       <r>     1.1154   117.2658   975.5386 </r>
       <r>     1.2499   124.2419   992.2553 </r>
       <r>     1.3845   122.0805  1008.6813 </r>
       <r>     1.5190    86.1124  1020.2677 </r>
       <r>     1.6536    48.1556  1026.7471 </r>
       <r>     1.7881    44.9061  1032.7892 </r>
       <r>     1.9227    19.6531  1035.4335 </r>
       <r>     2.0572     8.8005  1036.6176 </r>
       <r>     2.1918    10.0280  1037.9669 </r>
       <r>     2.3263    10.1161  1039.3280 </r>
       <r>     2.4609     4.9935  1039.9999 </r>
       <r>     2.5954     0.0009  1040.0000 </r>
       <r>     2.7300     0.0000  1040.0000 </r>
       <r>     2.8645     0.0000  1040.0000 </r>
       <r>     2.9991     0.0000  1040.0000 </r>
       <r>     3.1336     0.0000  1040.0000 </r>
       <r>     3.2682     0.0000  1040.0000 </r>
       <r>     3.4027     0.0000  1040.0000 </r>
       <r>     3.5373     0.0000  1040.0000 </r>
       <r>     3.6718     0.0000  1040.0000 </r>
       <r>     3.8064     0.0000  1040.0000 </r>
       <r>     3.9409     0.0000  1040.0000 </r>
       <r>     4.0755     0.0000  1040.0000 </r>
       <r>     4.2100     0.0000  1040.0000 </r>
       <r>     4.3446     0.0000  1040.0000 </r>
       <r>     4.4791     0.0000  1040.0000 </r>
       <r>     4.6137     0.0000  1040.0000 </r>
       <r>     4.7482     0.0000  1040.0000 </r>
       <r>     4.8828     0.0000  1040.0000 </r>
       <r>     5.0173     0.0000  1040.0000 </r>
       <r>     5.1519     0.0000  1040.0000 </r>
       <r>     5.2864     0.0000  1040.0000 </r>
       <r>     5.4210     0.0000  1040.0000 </r>
       <r>     5.5555     0.0000  1040.0000 </r>
       <r>     5.6901     0.0038  1040.0005 </r>
       <r>     5.8246     4.9953  1040.6726 </r>
       <r>     5.9592     2.7616  1041.0442 </r>
       <r>     6.0937     6.9378  1041.9777 </r>
       <r>     6.2283     0.1659  1042.0000 </r>
       <r>     6.3628     0.0000  1042.0000 </r>
       <r>     6.4974     0.0000  1042.0000 </r>
       <r>     6.6319     0.0000  1042.0000 </r>
       <r>     6.7665     0.0022  1042.0003 </r>
       <r>     6.9010     1.4402  1042.1941 </r>
       <r>     7.0356     0.4157  1042.2500 </r>
       <r>     7.1701     0.0000  1042.2500 </r>
       <r>     7.3047     0.0000  1042.2500 </r>
       <r>     7.4392     0.2703  1042.2864 </r>
       <r>     7.5738     2.7957  1042.6625 </r>
       <r>     7.7083     0.7811  1042.7676 </r>
       <r>     7.8429     3.4845  1043.2365 </r>
       <r>     7.9774     2.6412  1043.5918 </r>
       <r>     8.1120     3.4923  1044.0617 </r>
       <r>     8.2465     3.2191  1044.4949 </r>
       <r>     8.3811     1.6197  1044.7128 </r>
       <r>     8.5156     5.8157  1045.4953 </r>
       <r>     8.6502     5.9489  1046.2957 </r>
       <r>     8.7847     8.8839  1047.4911 </r>
       <r>     8.9193     3.8442  1048.0083 </r>
       <r>     9.0538     8.0787  1049.0953 </r>
       <r>     9.1884     5.4855  1049.8334 </r>
       <r>     9.3229     7.9865  1050.9079 </r>
       <r>     9.4575     7.5691  1051.9264 </r>
       <r>     9.5920     5.3034  1052.6399 </r>
       <r>     9.7266     8.3733  1053.7666 </r>
       <r>     9.8611    10.6051  1055.1935 </r>
       <r>     9.9957    10.3378  1056.5844 </r>
       <r>    10.1302    12.9932  1058.3327 </r>
       <r>    10.2648    14.1630  1060.2383 </r>
       <r>    10.3993    28.6844  1064.0978 </r>
       <r>    10.5339    23.0737  1067.2024 </r>
       <r>    10.6684    33.1502  1071.6627 </r>
       <r>    10.8030    39.5002  1076.9775 </r>
       <r>    10.9375    34.4064  1081.6069 </r>
       <r>    11.0721    26.1581  1085.1264 </r>
       <r>    11.2066    28.8211  1089.0043 </r>
       <r>    11.3412    36.5968  1093.9284 </r>
       <r>    11.4757    24.5436  1097.2308 </r>
       <r>    11.6103    35.6173  1102.0231 </r>
       <r>    11.7448    38.0563  1107.1436 </r>
       <r>    11.8794    31.4423  1111.3741 </r>
       <r>    12.0139    41.7557  1116.9924 </r>
       <r>    12.1485    26.5772  1120.5683 </r>
       <r>    12.2830    31.1973  1124.7659 </r>
       <r>    12.4176    42.6965  1130.5107 </r>
       <r>    12.5521    45.1129  1136.5807 </r>
       <r>    12.6867    37.2907  1141.5981 </r>
       <r>    12.8212    27.7272  1145.3288 </r>
       <r>    12.9558    25.5213  1148.7627 </r>
       <r>    13.0903    29.7764  1152.7692 </r>
       <r>    13.2249    34.3902  1157.3964 </r>
       <r>    13.3594    34.7027  1162.0656 </r>
       <r>    13.4940    35.1410  1166.7938 </r>
       <r>    13.6285    30.1448  1170.8498 </r>
       <r>    13.7631    35.5147  1175.6283 </r>
       <r>    13.8976    27.9705  1179.3918 </r>
       <r>    14.0322    27.4177  1183.0808 </r>
       <r>    14.1667    29.8703  1187.0999 </r>
       <r>    14.3013    28.7402  1190.9669 </r>
       <r>    14.4358    28.0530  1194.7414 </r>
       <r>    14.5704    26.3749  1198.2902 </r>
       <r>    14.7049    27.8943  1202.0433 </r>
       <r>    14.8395    26.6200  1205.6251 </r>
       <r>    14.9740    23.6973  1208.8135 </r>
       <r>    15.1086    22.9447  1211.9007 </r>
       <r>    15.2431    24.2027  1215.1572 </r>
       <r>    15.3777    30.0865  1219.2054 </r>
       <r>    15.5122    18.6899  1221.7201 </r>
       <r>    15.6468    18.0031  1224.1424 </r>
       <r>    15.7813    21.8614  1227.0839 </r>
       <r>    15.9159    18.8827  1229.6245 </r>
       <r>    16.0504    24.9175  1232.9772 </r>
       <r>    16.1850    19.2964  1235.5735 </r>
       <r>    16.3195    17.8124  1237.9702 </r>
       <r>    16.4541    19.3849  1240.5784 </r>
       <r>    16.5886    15.0276  1242.6004 </r>
       <r>    16.7232    13.7892  1244.4557 </r>
       <r>    16.8577    12.7305  1246.1686 </r>
       <r>    16.9923     9.8493  1247.4938 </r>
       <r>    17.1268     9.8582  1248.8203 </r>
       <r>    17.2614     1.4283  1249.0124 </r>
       <r>    17.3959     2.9779  1249.4131 </r>
       <r>    17.5305     2.4922  1249.7484 </r>
       <r>    17.6650     1.8553  1249.9981 </r>
       <r>    17.7996     0.0143  1250.0000 </r>
       <r>    17.9341     0.0000  1250.0000 </r>
       <r>    18.0687     0.0000  1250.0000 </r>
       <r>    18.2032     0.0000  1250.0000 </r>
       <r>    18.3378     0.0000  1250.0000 </r>
       <r>    18.4723     0.0000  1250.0000 </r>
       <r>    18.6069     0.0000  1250.0000 </r>
       <r>    18.7414     0.0000  1250.0000 </r>
       <r>    18.8760     0.0000  1250.0000 </r>
       <r>    19.0105     0.0000  1250.0000 </r>
       <r>    19.1451     0.0000  1250.0000 </r>
       <r>    19.2796     0.0000  1250.0000 </r>
       <r>    19.4142     0.0000  1250.0000 </r>
      </set>
     </set>
    </array>
   </total>
  </dos>
 </calculation>
 <structure name="finalpos" >
  <crystal>
   <varray name="basis" >
    <v>       0.00000000      12.28047342       0.00000000 </v>
    <v>       9.14270205       0.00000000       0.00000000 </v>
    <v>       0.00000000      -2.76826177     -11.30069772 </v>
   </varray>
   <i name="volume">   1268.80515525 </i>
   <varray name="rec_basis" >
    <v>       0.00000000       0.08143009      -0.01994742 </v>
    <v>       0.10937686      -0.00000000       0.00000000 </v>
    <v>       0.00000000       0.00000000      -0.08849011 </v>
   </varray>
  </crystal>
  <varray name="positions" >
   <v>       0.65618701       0.99731715       0.15512525 </v>
   <v>       0.66027536       0.00178682       0.65685475 </v>
   <v>       0.65694367       0.33220892       0.15696583 </v>
   <v>       0.65934907       0.33537821       0.65704708 </v>
   <v>       0.65891922       0.66576957       0.15809200 </v>
   <v>       0.65983850       0.66827113       0.65672062 </v>
   <v>       0.83348961       0.15642006       0.34083750 </v>
   <v>       0.84127863       0.16821118       0.84386153 </v>
   <v>       0.84694254       0.49420788       0.34264673 </v>
   <v>       0.84071704       0.50190810       0.84355318 </v>
   <v>       0.84619331       0.82899177       0.34416429 </v>
   <v>       0.84172424       0.83567432       0.84410424 </v>
   <v>       0.58835553       0.16732455       0.39831009 </v>
   <v>       0.59011536       0.16736343       0.89734300 </v>
   <v>       0.59138127       0.50232405       0.39712104 </v>
   <v>       0.58877705       0.50131600       0.89685722 </v>
   <v>       0.59257330       0.83500718       0.39733130 </v>
   <v>       0.59090954       0.83427866       0.89739481 </v>
   <v>       0.91005138       0.00210021       0.10454288 </v>
   <v>       0.90864252       0.00087057       0.60154281 </v>
   <v>       0.90902969       0.33586687       0.10307895 </v>
   <v>       0.90938998       0.33450642       0.60261457 </v>
   <v>       0.90786140       0.66695345       0.10158329 </v>
   <v>       0.90784979       0.66629648       0.60132698 </v>
   <v>       0.15804057       0.17366702       0.15799693 </v>
   <v>       0.15870087       0.17417538       0.65555817 </v>
   <v>       0.16004611       0.50224669       0.15706328 </v>
   <v>       0.15922318       0.50472427       0.65579225 </v>
   <v>       0.15492344       0.83000742       0.15632655 </v>
   <v>       0.15510179       0.83510228       0.64884929 </v>
   <v>       0.33930850       0.00342497       0.34779727 </v>
   <v>       0.33958410       0.00138883       0.84004600 </v>
   <v>       0.34167903       0.33804057       0.34342917 </v>
   <v>       0.33945007       0.33558199       0.84427621 </v>
   <v>       0.34046572       0.66981359       0.34418850 </v>
   <v>       0.33884885       0.66870376       0.84268898 </v>
   <v>       0.09266000       0.00178848       0.89747652 </v>
   <v>       0.09875939       0.31155870       0.40065593 </v>
   <v>       0.09066013       0.33586274       0.89750007 </v>
   <v>       0.08760257       0.66433078       0.39518400 </v>
   <v>       0.09095295       0.66806690       0.89618862 </v>
   <v>       0.40576420       0.16580595       0.10198554 </v>
   <v>       0.41114335       0.17007797       0.60358495 </v>
   <v>       0.40941082       0.50181223       0.10217975 </v>
   <v>       0.40838040       0.50290914       0.60321515 </v>
   <v>       0.40421108       0.83480752       0.10227576 </v>
   <v>       0.41117344       0.83573436       0.60233034 </v>
   <v>       0.99665264       0.16978896       0.13888527 </v>
   <v>       0.99647625       0.16782345       0.62277112 </v>
   <v>       0.99657313       0.50175706       0.12557582 </v>
   <v>       0.99638956       0.50083522       0.62778863 </v>
   <v>       0.99485527       0.83370097       0.12679783 </v>
   <v>       0.99498098       0.83375353       0.62708905 </v>
   <v>       0.50265175       0.99991249       0.37291439 </v>
   <v>       0.50241541       0.00045553       0.87208726 </v>
   <v>       0.50329164       0.33560131       0.37197779 </v>
   <v>       0.50169630       0.33356195       0.87213729 </v>
   <v>       0.50368915       0.66923272       0.37217105 </v>
   <v>       0.50161293       0.66913592       0.87186867 </v>
   <v>       0.66903802       0.16512486       0.28002940 </v>
   <v>       0.67293129       0.16868215       0.78118602 </v>
   <v>       0.67390906       0.49653162       0.28086017 </v>
   <v>       0.67238448       0.50166573       0.78104407 </v>
   <v>       0.67414513       0.83161691       0.28039811 </v>
   <v>       0.67338987       0.83596822       0.78108423 </v>
   <v>       0.82479135       0.99887501       0.21828875 </v>
   <v>       0.82843743       0.00264437       0.71999285 </v>
   <v>       0.82829091       0.32667512       0.22054022 </v>
   <v>       0.82780528       0.33478447       0.71947044 </v>
   <v>       0.82764058       0.66184357       0.21886919 </v>
   <v>       0.82763216       0.66860688       0.71963132 </v>
   <v>       0.82746962       0.99565451       0.44639458 </v>
   <v>       0.83440506       0.00263188       0.94741992 </v>
   <v>       0.84042691       0.32350945       0.44356182 </v>
   <v>       0.83328389       0.33451429       0.94637768 </v>
   <v>       0.83257572       0.66022261       0.44463198 </v>
   <v>       0.83151881       0.66852007       0.94519901 </v>
   <v>       0.66562691       0.16603086       0.05427140 </v>
   <v>       0.66784536       0.16897963       0.55412257 </v>
   <v>       0.66502217       0.49901741       0.05409403 </v>
   <v>       0.66905416       0.50102640       0.55387026 </v>
   <v>       0.66777961       0.83195789       0.05380844 </v>
   <v>       0.66847712       0.83470440       0.55451948 </v>
   <v>       0.49380665       0.99946268       0.12667229 </v>
   <v>       0.49789518       0.00277072       0.62815463 </v>
   <v>       0.49365207       0.33221255       0.12677884 </v>
   <v>       0.49712162       0.33705403       0.62869828 </v>
   <v>       0.49480695       0.67037040       0.12732363 </v>
   <v>       0.49734495       0.66879634       0.62823413 </v>
   <v>       0.00446418       0.16803956       0.87366959 </v>
   <v>       0.00951024       0.48662378       0.37358218 </v>
   <v>       0.00301141       0.50202235       0.87210623 </v>
   <v>       0.00503796       0.83298024       0.37364411 </v>
   <v>       0.00463858       0.83566953       0.87303216 </v>
   <v>       0.15653433       0.01203867       0.30090717 </v>
   <v>       0.16892588       0.00247010       0.77245048 </v>
   <v>       0.17705379       0.34043026       0.27732130 </v>
   <v>       0.17257467       0.33573468       0.78151330 </v>
   <v>       0.17242304       0.66886836       0.27946534 </v>
   <v>       0.17176650       0.66955594       0.77863083 </v>
   <v>       0.32421842       0.16221512       0.22045839 </v>
   <v>       0.32566305       0.16512321       0.71704181 </v>
   <v>       0.32929513       0.50510900       0.21959288 </v>
   <v>       0.32860329       0.50399691       0.72151749 </v>
   <v>       0.32099512       0.84209723       0.22040713 </v>
   <v>       0.32253618       0.84037130       0.71315097 </v>
   <v>       0.33546654       0.17131162       0.44707556 </v>
   <v>       0.32886833       0.16592251       0.94455928 </v>
   <v>       0.33357423       0.50369981       0.44640984 </v>
   <v>       0.33139687       0.50224790       0.94617930 </v>
   <v>       0.33269093       0.83619342       0.44661755 </v>
   <v>       0.32829806       0.83638998       0.94393379 </v>
   <v>       0.16182225       0.00226817       0.05922090 </v>
   <v>       0.14579895       0.01222058       0.52783730 </v>
   <v>       0.16822153       0.33532250       0.05320329 </v>
   <v>       0.17531029       0.34033250       0.55952254 </v>
   <v>       0.16819609       0.66797897       0.05288960 </v>
   <v>       0.16800693       0.66904665       0.55212452 </v>
   <v>       0.07194391       0.04772049       0.39134104 </v>
  </varray>
 </structure>
</modeling>
