 running    4 mpi-ranks, on    1 nodes
 distrk:  each k-point on    1 cores,    4 groups
 distr:  one band on    1 cores,    1 groups
 OpenACC runtime initialized ...    4 GPUs detected
 vasp.6.4.2 20Jul23 (build Nov 12 2023 22:16:35) complex                         
 POSCAR found type information on POSCAR GaO N 
 POSCAR found :  3 types and     120 ions
 scaLAPACK will be used selectively (only on CPU)
 LDA part: xc-table for Pade appr. of Perdew
 POSCAR, INCAR and KPOINTS ok, starting setup
 FFT: planning ... GRIDC
 FFT: planning ... GRID_SOFT
 FFT: planning ... GRID
 WAVECAR not read
 entering main loop
       N       E                     dE             d eps       ncg     rms          rms(c)
DAV:   1     0.220176165099E+05    0.22018E+05   -0.32138E+05 10128   0.282E+03
DAV:   2     0.487499770989E+04   -0.17143E+05   -0.16158E+05 10128   0.816E+02
DAV:   3    -0.149580347387E+03   -0.50246E+04   -0.47260E+04 12912   0.320E+02
DAV:   4    -0.777270867277E+03   -0.62769E+03   -0.61491E+03 12504   0.121E+02
DAV:   5    -0.820366494385E+03   -0.43096E+02   -0.42744E+02 14416   0.344E+01BRMIX: very serious problems
 the old and the new charge density differ
 old charge density:  1055.00000 new 1055.99974
BRMIX: very serious problems
 the old and the new charge density differ
 old charge density:  1055.00000 new 1055.99974
BRMIX: very serious problems
 the old and the new charge density differ
 old charge density:  1055.00000 new 1055.99974
BRMIX: very serious problems
 the old and the new charge density differ
 old charge density:  1055.00000 new 1055.99974
    0.611E+01
RMM:   6    -0.704847080269E+03    0.11552E+03   -0.38690E+02 13204   0.237E+01    0.161E+01
RMM:   7    -0.708694828285E+03   -0.38477E+01   -0.65791E+01 13928   0.981E+00    0.129E+01
RMM:   8    -0.708663350885E+03    0.31477E-01   -0.98794E+00 12744   0.545E+00    0.469E+00
RMM:   9    -0.708152818060E+03    0.51053E+00   -0.24840E+00 15438   0.215E+00    0.219E+00
RMM:  10    -0.708145656269E+03    0.71618E-02   -0.93933E-01 13414   0.110E+00    0.847E-01
RMM:  11    -0.708168447899E+03   -0.22792E-01   -0.27445E-01 15839   0.582E-01    0.651E-01
RMM:  12    -0.708180063209E+03   -0.11615E-01   -0.56979E-02 13203   0.296E-01    0.611E-01
RMM:  13    -0.708175104873E+03    0.49583E-02   -0.20400E-02 14040   0.152E-01    0.187E-01
RMM:  14    -0.708175587342E+03   -0.48247E-03   -0.94203E-03 14959   0.934E-02    0.132E-01
RMM:  15    -0.708175656179E+03   -0.68837E-04   -0.21520E-03 13358   0.521E-02    0.336E-02
RMM:  16    -0.708175733896E+03   -0.77717E-04   -0.81600E-04 11491   0.265E-02    0.152E-02
RMM:  17    -0.708175759966E+03   -0.26070E-04   -0.27238E-04 10210   0.172E-02    0.126E-02
RMM:  18    -0.708175769659E+03   -0.96927E-05   -0.11491E-04  9623   0.100E-02    0.624E-03
RMM:  19    -0.708175772968E+03   -0.33091E-05   -0.38904E-05  8990   0.712E-03
   1 F= -.70817577E+03 E0= -.70817088E+03  d E =-.708176E+03
 curvature:   0.00 expect dE= 0.000E+00 dE for cont linesearch  0.000E+00
 trial: gam= 0.00000 g(F)=  0.125E+01 g(S)=  0.000E+00 ort = 0.000E+00 (trialstep = 0.100E+01)
 search vector abs. value=  0.125E+01
 bond charge predicted
       N       E                     dE             d eps       ncg     rms          rms(c)
DAV:   1    -0.707140560200E+03    0.10352E+01   -0.27253E+02 11976   0.229E+01    0.260E+00
RMM:   2    -0.708305582001E+03   -0.11650E+01   -0.12541E+01 14029   0.709E+00    0.966E-01
RMM:   3    -0.708521331303E+03   -0.21575E+00   -0.28076E+00 15153   0.264E+00    0.102E+00
RMM:   4    -0.708506775427E+03    0.14556E-01   -0.32938E-01 15550   0.893E-01    0.506E-01
RMM:   5    -0.708484433304E+03    0.22342E-01   -0.14145E-01 14441   0.501E-01    0.459E-01
RMM:   6    -0.708483015895E+03    0.14174E-02   -0.19922E-02 15451   0.217E-01    0.174E-01
RMM:   7    -0.708483096456E+03   -0.80561E-04   -0.75260E-03 13704   0.112E-01    0.140E-01
RMM:   8    -0.708482739455E+03    0.35700E-03   -0.19993E-03 15168   0.547E-02    0.523E-02
RMM:   9    -0.708482755996E+03   -0.16541E-04   -0.62529E-04 12423   0.291E-02    0.163E-02
RMM:  10    -0.708482763081E+03   -0.70848E-05   -0.11704E-04 10390   0.148E-02    0.872E-03
RMM:  11    -0.708482765059E+03   -0.19788E-05   -0.47222E-05  9499   0.914E-03
   2 F= -.70848277E+03 E0= -.70848277E+03  d E =-.306992E+00
 trial-energy change:   -0.306992  1 .order   -0.234997   -1.251526    0.781533
 step:   0.6631(harm=  0.6156)  dis= 0.04144  next Energy=  -708.611677 (dE=-0.436E+00)
 bond charge predicted
       N       E                     dE             d eps       ncg     rms          rms(c)
DAV:   1    -0.708483200498E+03   -0.43742E-03   -0.30311E+01 11584   0.805E+00    0.776E-01
RMM:   2    -0.708603934599E+03   -0.12073E+00   -0.13649E+00 14148   0.235E+00    0.339E-01
RMM:   3    -0.708623370750E+03   -0.19436E-01   -0.28604E-01 14899   0.828E-01    0.337E-01
RMM:   4    -0.708618521028E+03    0.48497E-02   -0.37197E-02 15150   0.294E-01    0.107E-01
RMM:   5    -0.708617295729E+03    0.12253E-02   -0.12040E-02 14838   0.146E-01    0.812E-02
RMM:   6    -0.708617305718E+03   -0.99890E-05   -0.19100E-03 15537   0.611E-02    0.404E-02
RMM:   7    -0.708617302525E+03    0.31930E-05   -0.70752E-04 13045   0.375E-02    0.304E-02
RMM:   8    -0.708617294666E+03    0.78597E-05   -0.20297E-04 11427   0.183E-02    0.834E-03
RMM:   9    -0.708617297960E+03   -0.32945E-05   -0.51129E-05  9505   0.109E-02
   3 F= -.70861730E+03 E0= -.70861730E+03  d E =-.441525E+00
 curvature:  -0.30 expect dE=-0.606E-01 dE for cont linesearch -0.961E-04
 trial: gam= 0.17570 g(F)=  0.200E+00 g(S)=  0.000E+00 ort =-0.199E-01 (trialstep = 0.933E+00)
 search vector abs. value=  0.232E+00
 bond charge predicted
       N       E                     dE             d eps       ncg     rms          rms(c)
DAV:   1    -0.708517927808E+03    0.99367E-01   -0.44517E+01 11080   0.929E+00    0.105E+00
RMM:   2    -0.708680876701E+03   -0.16295E+00   -0.17393E+00 13873   0.260E+00    0.366E-01
RMM:   3    -0.708711274435E+03   -0.30398E-01   -0.35389E-01 15274   0.943E-01    0.372E-01
RMM:   4    -0.708711764097E+03   -0.48966E-03   -0.39350E-02 15508   0.312E-01    0.197E-01
RMM:   5    -0.708710842107E+03    0.92199E-03   -0.10079E-02 14797   0.143E-01    0.710E-02
RMM:   6    -0.708710952457E+03   -0.11035E-03   -0.20881E-03 15502   0.652E-02    0.463E-02
RMM:   7    -0.708710956707E+03   -0.42505E-05   -0.60538E-04 13815   0.318E-02    0.226E-02
RMM:   8    -0.708710966057E+03   -0.93498E-05   -0.17251E-04 10833   0.169E-02    0.135E-02
RMM:   9    -0.708710967962E+03   -0.19045E-05   -0.60851E-05  9558   0.111E-02
   4 F= -.70871097E+03 E0= -.70871097E+03  d E =-.936700E-01
 trial-energy change:   -0.093670  1 .order   -0.093349   -0.183233   -0.003465
 step:   0.9504(harm=  0.9506)  dis= 0.03204  next Energy=  -708.711001 (dE=-0.937E-01)
 bond charge predicted
       N       E                     dE             d eps       ncg     rms          rms(c)
DAV:   1    -0.708710948856E+03    0.17201E-04   -0.16351E-02 11656   0.178E-01    0.198E-02
RMM:   2    -0.708711005867E+03   -0.57011E-04   -0.61114E-04 13481   0.495E-02    0.703E-03
RMM:   3    -0.708711016650E+03   -0.10782E-04   -0.13523E-04 12032   0.186E-02    0.648E-03
RMM:   4    -0.708711017109E+03   -0.45956E-06   -0.20641E-05  6414   0.939E-03
   5 F= -.70871102E+03 E0= -.70871102E+03  d E =-.937191E-01
 curvature:  -0.56 expect dE=-0.641E-01 dE for cont linesearch -0.361E-07
 trial: gam= 0.50450 g(F)=  0.115E+00 g(S)=  0.000E+00 ort = 0.122E-03 (trialstep = 0.936E+00)
 search vector abs. value=  0.174E+00
 bond charge predicted
       N       E                     dE             d eps       ncg     rms          rms(c)
DAV:   1    -0.708639869990E+03    0.71147E-01   -0.34273E+01 10504   0.777E+00    0.979E-01
RMM:   2    -0.708747297558E+03   -0.10743E+00   -0.11757E+00 13407   0.206E+00    0.317E-01
RMM:   3    -0.708769202466E+03   -0.21905E-01   -0.24924E-01 15348   0.783E-01    0.351E-01
RMM:   4    -0.708769986704E+03   -0.78424E-03   -0.26607E-02 15487   0.258E-01    0.246E-01
RMM:   5    -0.708768705685E+03    0.12810E-02   -0.90489E-03 13926   0.131E-01    0.793E-02
RMM:   6    -0.708768766297E+03   -0.60612E-04   -0.18805E-03 15058   0.627E-02    0.495E-02
RMM:   7    -0.708768768210E+03   -0.19130E-05   -0.61421E-04 13116   0.286E-02    0.239E-02
RMM:   8    -0.708768769273E+03   -0.10634E-05   -0.15319E-04 10459   0.171E-02    0.547E-03
RMM:   9    -0.708768773191E+03   -0.39173E-05   -0.50724E-05  9006   0.922E-03
   6 F= -.70876877E+03 E0= -.70876877E+03  d E =-.577561E-01
 trial-energy change:   -0.057756  1 .order   -0.057322   -0.107252   -0.007392
 step:   1.0036(harm=  1.0055)  dis= 0.04745  next Energy=  -708.769039 (dE=-0.580E-01)
 bond charge predicted
       N       E                     dE             d eps       ncg     rms          rms(c)
DAV:   1    -0.708768468465E+03    0.30081E-03   -0.17801E-01 11624   0.558E-01    0.638E-02
RMM:   2    -0.708769004193E+03   -0.53573E-03   -0.58210E-03 13357   0.146E-01    0.217E-02
RMM:   3    -0.708769109409E+03   -0.10522E-03   -0.12210E-03 15082   0.552E-02    0.220E-02
RMM:   4    -0.708769111368E+03   -0.19589E-05   -0.13909E-04 12168   0.192E-02    0.122E-02
RMM:   5    -0.708769108225E+03    0.31425E-05   -0.45962E-05  9357   0.117E-02
   7 F= -.70876911E+03 E0= -.70876911E+03  d E =-.580911E-01
 curvature:  -0.76 expect dE=-0.423E-01 dE for cont linesearch -0.297E-05
 trial: gam= 0.49341 g(F)=  0.555E-01 g(S)=  0.000E+00 ort = 0.823E-03 (trialstep = 0.950E+00)
 search vector abs. value=  0.986E-01
 bond charge predicted
       N       E                     dE             d eps       ncg     rms          rms(c)
DAV:   1    -0.708730266912E+03    0.38844E-01   -0.19735E+01 10546   0.579E+00    0.770E-01
RMM:   2    -0.708784355171E+03   -0.54088E-01   -0.60970E-01 13315   0.152E+00    0.235E-01
RMM:   3    -0.708798573648E+03   -0.14218E-01   -0.15754E-01 15295   0.591E-01    0.279E-01
RMM:   4    -0.708799170380E+03   -0.59673E-03   -0.16295E-02 15486   0.193E-01    0.206E-01
RMM:   5    -0.708798334821E+03    0.83556E-03   -0.56320E-03 13563   0.982E-02    0.693E-02
RMM:   6    -0.708798322108E+03    0.12713E-04   -0.12634E-03 14837   0.488E-02    0.308E-02
RMM:   7    -0.708798336878E+03   -0.14770E-04   -0.31284E-04 12696   0.219E-02    0.190E-02
RMM:   8    -0.708798341539E+03   -0.46603E-05   -0.12829E-04 10288   0.145E-02    0.120E-02
RMM:   9    -0.708798340521E+03    0.10174E-05   -0.38653E-05  9063   0.823E-03
   8 F= -.70879834E+03 E0= -.70879834E+03  d E =-.292323E-01
 trial-energy change:   -0.029232  1 .order   -0.029078   -0.053120   -0.005037
 step:   1.0471(harm=  1.0491)  dis= 0.04398  next Energy=  -708.798599 (dE=-0.295E-01)
 bond charge predicted
       N       E                     dE             d eps       ncg     rms          rms(c)
DAV:   1    -0.708797951837E+03    0.38970E-03   -0.20803E-01 11632   0.593E-01    0.748E-02
RMM:   2    -0.708798516156E+03   -0.56432E-03   -0.63182E-03 13297   0.155E-01    0.239E-02
RMM:   3    -0.708798650216E+03   -0.13406E-03   -0.15265E-03 15147   0.602E-02    0.245E-02
RMM:   4    -0.708798658371E+03   -0.81549E-05   -0.19041E-04 12245   0.204E-02    0.165E-02
RMM:   5    -0.708798653244E+03    0.51271E-05   -0.63995E-05  9840   0.134E-02
   9 F= -.70879865E+03 E0= -.70879865E+03  d E =-.295450E-01
 curvature:  -0.92 expect dE=-0.301E-01 dE for cont linesearch -0.276E-05
 trial: gam= 0.58186 g(F)=  0.325E-01 g(S)=  0.000E+00 ort = 0.543E-03 (trialstep = 0.969E+00)
 search vector abs. value=  0.666E-01
 bond charge predicted
       N       E                     dE             d eps       ncg     rms          rms(c)
DAV:   1    -0.708765621334E+03    0.33037E-01   -0.13922E+01 10496   0.505E+00    0.643E-01
RMM:   2    -0.708807045989E+03   -0.41425E-01   -0.44610E-01 13291   0.132E+00    0.207E-01
RMM:   3    -0.708817625956E+03   -0.10580E-01   -0.11424E-01 15344   0.513E-01    0.234E-01
RMM:   4    -0.708818368277E+03   -0.74232E-03   -0.11282E-02 15561   0.167E-01    0.185E-01
RMM:   5    -0.708817895138E+03    0.47314E-03   -0.43736E-03 13418   0.893E-02    0.920E-02
RMM:   6    -0.708817854616E+03    0.40522E-04   -0.82295E-04 14939   0.425E-02    0.594E-02
RMM:   7    -0.708817825677E+03    0.28939E-04   -0.27808E-04 12156   0.193E-02    0.182E-02
RMM:   8    -0.708817826151E+03   -0.47364E-06   -0.64890E-05  9565   0.137E-02
  10 F= -.70881783E+03 E0= -.70881783E+03  d E =-.191729E-01
 trial-energy change:   -0.019173  1 .order   -0.018837   -0.031848   -0.005825
 step:   1.1675(harm=  1.1861)  dis= 0.03513  next Energy=  -708.818425 (dE=-0.198E-01)
 bond charge predicted
       N       E                     dE             d eps       ncg     rms          rms(c)
DAV:   1    -0.708816476697E+03    0.13490E-02   -0.58802E-01 11416   0.104E+00    0.118E-01
RMM:   2    -0.708818224783E+03   -0.17481E-02   -0.18775E-02 13295   0.269E-01    0.408E-02
RMM:   3    -0.708818622231E+03   -0.39745E-03   -0.44153E-03 15288   0.103E-01    0.418E-02
RMM:   4    -0.708818649027E+03   -0.26796E-04   -0.52568E-04 14448   0.347E-02    0.287E-02
RMM:   5    -0.708818636851E+03    0.12176E-04   -0.13201E-04 10946   0.176E-02    0.663E-03
RMM:   6    -0.708818639226E+03   -0.23747E-05   -0.35942E-05  8401   0.948E-03
  11 F= -.70881864E+03 E0= -.70881864E+03  d E =-.199860E-01
 curvature:  -1.19 expect dE=-0.216E-01 dE for cont linesearch -0.157E-04
 trial: gam= 0.51857 g(F)=  0.181E-01 g(S)=  0.000E+00 ort = 0.937E-03 (trialstep = 0.101E+01)
 search vector abs. value=  0.370E-01
 bond charge predicted
       N       E                     dE             d eps       ncg     rms          rms(c)
DAV:   1    -0.708795760338E+03    0.22877E-01   -0.86295E+00 10576   0.414E+00    0.478E-01
RMM:   2    -0.708822718256E+03   -0.26958E-01   -0.28718E-01 13305   0.108E+00    0.154E-01
RMM:   3    -0.708829006185E+03   -0.62879E-02   -0.68695E-02 15361   0.419E-01    0.161E-01
RMM:   4    -0.708829373708E+03   -0.36752E-03   -0.72017E-03 15436   0.137E-01    0.113E-01
RMM:   5    -0.708829142693E+03    0.23102E-03   -0.24584E-03 13938   0.696E-02    0.597E-02
RMM:   6    -0.708829135451E+03    0.72418E-05   -0.46626E-04 14421   0.318E-02    0.322E-02
RMM:   7    -0.708829133004E+03    0.24467E-05   -0.16387E-04 11000   0.152E-02    0.841E-03
RMM:   8    -0.708829134966E+03   -0.19615E-05   -0.38393E-05  8676   0.992E-03
  12 F= -.70882913E+03 E0= -.70882913E+03  d E =-.104957E-01
 trial-energy change:   -0.010496  1 .order   -0.010074   -0.018780   -0.001368
 step:   1.0774(harm=  1.0881)  dis= 0.01838  next Energy=  -708.829182 (dE=-0.105E-01)
 bond charge predicted
       N       E                     dE             d eps       ncg     rms          rms(c)
DAV:   1    -0.708829066479E+03    0.66526E-04   -0.40413E-02 11792   0.284E-01    0.287E-02
RMM:   2    -0.708829195263E+03   -0.12878E-03   -0.13744E-03 13233   0.744E-02    0.106E-02
RMM:   3    -0.708829222399E+03   -0.27136E-04   -0.32160E-04 13776   0.290E-02    0.116E-02
RMM:   4    -0.708829223890E+03   -0.14905E-05   -0.40798E-05  8220   0.121E-02
  13 F= -.70882922E+03 E0= -.70882922E+03  d E =-.105847E-01
 curvature:  -1.06 expect dE=-0.104E-01 dE for cont linesearch -0.155E-05
 trial: gam= 0.56813 g(F)=  0.977E-02 g(S)=  0.000E+00 ort = 0.232E-03 (trialstep = 0.102E+01)
 search vector abs. value=  0.220E-01
 bond charge predicted
       N       E                     dE             d eps       ncg     rms          rms(c)
DAV:   1    -0.708814469573E+03    0.14753E-01   -0.54758E+00 10560   0.329E+00    0.384E-01
RMM:   2    -0.708831224563E+03   -0.16755E-01   -0.17678E-01 13047   0.844E-01    0.120E-01
RMM:   3    -0.708835178708E+03   -0.39541E-02   -0.42331E-02 15294   0.333E-01    0.118E-01
RMM:   4    -0.708835359209E+03   -0.18050E-03   -0.42493E-03 15246   0.107E-01    0.681E-02
RMM:   5    -0.708835310685E+03    0.48524E-04   -0.11289E-03 14586   0.494E-02    0.307E-02
RMM:   6    -0.708835319663E+03   -0.89787E-05   -0.22194E-04 12954   0.218E-02    0.160E-02
RMM:   7    -0.708835322772E+03   -0.31088E-05   -0.74324E-05  9560   0.117E-02
  14 F= -.70883532E+03 E0= -.70883532E+03  d E =-.609888E-02
 trial-energy change:   -0.006099  1 .order   -0.005752   -0.010122   -0.001382
 step:   1.1501(harm=  1.1842)  dis= 0.01073  next Energy=  -708.835410 (dE=-0.619E-02)
 bond charge predicted
       N       E                     dE             d eps       ncg     rms          rms(c)
DAV:   1    -0.708835165031E+03    0.15463E-03   -0.85546E-02 11584   0.412E-01    0.441E-02
RMM:   2    -0.708835432745E+03   -0.26771E-03   -0.28208E-03 13086   0.107E-01    0.146E-02
RMM:   3    -0.708835492172E+03   -0.59426E-04   -0.65741E-04 14749   0.415E-02    0.155E-02
RMM:   4    -0.708835495014E+03   -0.28424E-05   -0.75896E-05 10671   0.150E-02
  15 F= -.70883550E+03 E0= -.70883550E+03  d E =-.627112E-02
 curvature:  -1.26 expect dE=-0.475E-02 dE for cont linesearch -0.114E-04
 trial: gam= 0.34199 g(F)=  0.378E-02 g(S)=  0.000E+00 ort = 0.447E-03 (trialstep = 0.105E+01)
 search vector abs. value=  0.666E-02
 bond charge predicted
       N       E                     dE             d eps       ncg     rms          rms(c)
DAV:   1    -0.708830981487E+03    0.45107E-02   -0.17155E+00 10632   0.191E+00    0.206E-01
RMM:   2    -0.708836609863E+03   -0.56284E-02   -0.58944E-02 13427   0.499E-01    0.646E-02
RMM:   3    -0.708837845262E+03   -0.12354E-02   -0.13170E-02 15283   0.191E-01    0.648E-02
RMM:   4    -0.708837906880E+03   -0.61618E-04   -0.14503E-03 15166   0.632E-02    0.340E-02
RMM:   5    -0.708837899480E+03    0.74001E-05   -0.36251E-04 13310   0.291E-02    0.153E-02
RMM:   6    -0.708837903066E+03   -0.35863E-05   -0.70623E-05  9818   0.132E-02
  16 F= -.70883790E+03 E0= -.70883790E+03  d E =-.240805E-02
 trial-energy change:   -0.002408  1 .order   -0.002187   -0.004126   -0.000248
 step:   1.0974(harm=  1.1151)  dis= 0.00424  next Energy=  -708.837909 (dE=-0.241E-02)
 bond charge predicted
       N       E                     dE             d eps       ncg     rms          rms(c)
DAV:   1    -0.708837904869E+03   -0.53885E-05   -0.40490E-03 11672   0.942E-02    0.889E-03
RMM:   2    -0.708837922608E+03   -0.17740E-04   -0.18718E-04 12771   0.286E-02    0.379E-03
RMM:   3    -0.708837925653E+03   -0.30445E-05   -0.44838E-05  8259   0.122E-02
  17 F= -.70883793E+03 E0= -.70883793E+03  d E =-.243064E-02
 curvature:  -0.88 expect dE=-0.171E-02 dE for cont linesearch -0.144E-05
 trial: gam= 0.55992 g(F)=  0.194E-02 g(S)=  0.000E+00 ort = 0.105E-03 (trialstep = 0.106E+01)
 search vector abs. value=  0.415E-02
 bond charge predicted
       N       E                     dE             d eps       ncg     rms          rms(c)
DAV:   1    -0.708835106116E+03    0.28165E-02   -0.10779E+00 10654   0.151E+00    0.162E-01
RMM:   2    -0.708838492959E+03   -0.33868E-02   -0.35657E-02 13199   0.392E-01    0.517E-02
RMM:   3    -0.708839287598E+03   -0.79464E-03   -0.84598E-03 15234   0.154E-01    0.523E-02
RMM:   4    -0.708839325390E+03   -0.37792E-04   -0.89341E-04 15167   0.502E-02    0.289E-02
RMM:   5    -0.708839316384E+03    0.90065E-05   -0.22911E-04 12774   0.233E-02    0.134E-02
RMM:   6    -0.708839317768E+03   -0.13847E-05   -0.42042E-05  9081   0.107E-02
  18 F= -.70883932E+03 E0= -.70883932E+03  d E =-.139212E-02
 trial-energy change:   -0.001392  1 .order   -0.001227   -0.002119   -0.000335
 step:   1.1806(harm=  1.2567)  dis= 0.00316  next Energy=  -708.839337 (dE=-0.141E-02)
 bond charge predicted
       N       E                     dE             d eps       ncg     rms          rms(c)
DAV:   1    -0.708839300912E+03    0.15471E-04   -0.14876E-02 11872   0.178E-01    0.170E-02
RMM:   2    -0.708839354035E+03   -0.53123E-04   -0.56006E-04 13214   0.492E-02    0.639E-03
RMM:   3    -0.708839364852E+03   -0.10816E-04   -0.12932E-04 12398   0.195E-02    0.726E-03
RMM:   4    -0.708839365342E+03   -0.49040E-06   -0.20489E-05  6300   0.102E-02
  19 F= -.70883937E+03 E0= -.70883937E+03  d E =-.143969E-02
 curvature:  -1.11 expect dE=-0.135E-02 dE for cont linesearch -0.620E-05
 trial: gam= 0.60528 g(F)=  0.121E-02 g(S)=  0.000E+00 ort = 0.152E-03 (trialstep = 0.108E+01)
 search vector abs. value=  0.292E-02
 bond charge predicted
       N       E                     dE             d eps       ncg     rms          rms(c)
DAV:   1    -0.708837211693E+03    0.21532E-02   -0.78775E-01 10864   0.130E+00    0.138E-01
RMM:   2    -0.708839667856E+03   -0.24562E-02   -0.25738E-02 13141   0.336E-01    0.437E-02
RMM:   3    -0.708840260902E+03   -0.59305E-03   -0.62367E-03 15177   0.133E-01    0.424E-02
RMM:   4    -0.708840301674E+03   -0.40773E-04   -0.71736E-04 15095   0.443E-02    0.260E-02
RMM:   5    -0.708840296712E+03    0.49620E-05   -0.17546E-04 12164   0.205E-02    0.114E-02
RMM:   6    -0.708840298033E+03   -0.13205E-05   -0.34494E-05  8687   0.973E-03
  20 F= -.70884030E+03 E0= -.70884030E+03  d E =-.932691E-03
 trial-energy change:   -0.000933  1 .order   -0.000809   -0.001414   -0.000203
 step:   1.1905(harm=  1.2635)  dis= 0.00251  next Energy=  -708.840308 (dE=-0.943E-03)
 bond charge predicted
       N       E                     dE             d eps       ncg     rms          rms(c)
DAV:   1    -0.708840292244E+03    0.44686E-05   -0.81281E-03 11968   0.133E-01    0.122E-02
RMM:   2    -0.708840321742E+03   -0.29499E-04   -0.30933E-04 13003   0.365E-02    0.480E-03
RMM:   3    -0.708840327516E+03   -0.57740E-05   -0.72596E-05 10434   0.148E-02
  21 F= -.70884033E+03 E0= -.70884033E+03  d E =-.962174E-03
 curvature:  -1.18 expect dE=-0.968E-03 dE for cont linesearch -0.725E-06
 trial: gam= 0.70604 g(F)=  0.819E-03 g(S)=  0.000E+00 ort = 0.423E-04 (trialstep = 0.110E+01)
 search vector abs. value=  0.233E-02
 bond charge predicted
       N       E                     dE             d eps       ncg     rms          rms(c)
DAV:   1    -0.708838691896E+03    0.16298E-02   -0.64590E-01 11104   0.118E+00    0.121E-01
RMM:   2    -0.708840557175E+03   -0.18653E-02   -0.19633E-02 12844   0.294E-01    0.409E-02
RMM:   3    -0.708841025631E+03   -0.46846E-03   -0.49685E-03 15071   0.120E-01    0.381E-02
RMM:   4    -0.708841061463E+03   -0.35832E-04   -0.60696E-04 15007   0.406E-02    0.232E-02
RMM:   5    -0.708841058784E+03    0.26793E-05   -0.13833E-04 11319   0.186E-02    0.972E-03
RMM:   6    -0.708841060110E+03   -0.13262E-05   -0.29750E-05  8294   0.927E-03
  22 F= -.70884106E+03 E0= -.70884106E+03  d E =-.732594E-03
 trial-energy change:   -0.000733  1 .order   -0.000604   -0.000937   -0.000271
 step:   1.2945(harm=  1.5529)  dis= 0.00314  next Energy=  -708.841084 (dE=-0.757E-03)
 bond charge predicted
       N       E                     dE             d eps       ncg     rms          rms(c)
DAV:   1    -0.708841042112E+03    0.16672E-04   -0.19591E-02 12024   0.205E-01    0.195E-02
RMM:   2    -0.708841102975E+03   -0.60863E-04   -0.63916E-04 12806   0.526E-02    0.705E-03
RMM:   3    -0.708841116522E+03   -0.13547E-04   -0.15586E-04 12596   0.216E-02    0.739E-03
RMM:   4    -0.708841117549E+03   -0.10272E-05   -0.24308E-05  6683   0.107E-02
  23 F= -.70884112E+03 E0= -.70884112E+03  d E =-.790033E-03
 curvature:  -1.43 expect dE=-0.810E-03 dE for cont linesearch -0.109E-04
 ZBRENT: increasing intervall
 opt :   1.6755  next Energy=  -708.841126 (dE=-0.798E-03)
 bond charge predicted
       N       E                     dE             d eps       ncg     rms          rms(c)
DAV:   1    -0.708840877672E+03    0.23885E-03   -0.76708E-02 11196   0.406E-01    0.428E-02
RMM:   2    -0.708841098488E+03   -0.22082E-03   -0.23221E-03 12812   0.103E-01    0.141E-02
RMM:   3    -0.708841157414E+03   -0.58926E-04   -0.62316E-04 14707   0.424E-02    0.125E-02
RMM:   4    -0.708841162350E+03   -0.49358E-05   -0.77551E-05 10628   0.155E-02
  24 F= -.70884116E+03 E0= -.70884116E+03  d E =-.834834E-03
 curvature:  -1.06 expect dE=-0.100E-02 dE for cont linesearch -0.847E-05
 trial: gam= 1.35784 g(F)=  0.951E-03 g(S)=  0.000E+00 ort =-0.137E-03 (trialstep = 0.582E+00)
 search vector abs. value=  0.488E-02
 bond charge predicted
       N       E                     dE             d eps       ncg     rms          rms(c)
DAV:   1    -0.708840259844E+03    0.89757E-03   -0.36286E-01 11368   0.890E-01    0.904E-02
RMM:   2    -0.708841292654E+03   -0.10328E-02   -0.10838E-02 12924   0.224E-01    0.304E-02
RMM:   3    -0.708841574755E+03   -0.28210E-03   -0.29166E-03 14989   0.920E-02    0.257E-02
RMM:   4    -0.708841601578E+03   -0.26823E-04   -0.36522E-04 14011   0.319E-02    0.183E-02
RMM:   5    -0.708841599934E+03    0.16444E-05   -0.87484E-05 10669   0.162E-02
  25 F= -.70884160E+03 E0= -.70884160E+03  d E =-.437583E-03
 trial-energy change:   -0.000438  1 .order   -0.000327   -0.000446   -0.000209
 step:   0.7003(harm=  1.0963)  dis= 0.00291  next Energy=  -708.841622 (dE=-0.460E-03)
 bond charge predicted
       N       E                     dE             d eps       ncg     rms          rms(c)
DAV:   1    -0.708841592233E+03    0.93454E-05   -0.15094E-02 12173   0.182E-01    0.214E-02
RMM:   2    -0.708841639299E+03   -0.47067E-04   -0.49784E-04 12786   0.487E-02    0.695E-03
RMM:   3    -0.708841652343E+03   -0.13044E-04   -0.14539E-04 12511   0.208E-02    0.503E-03
RMM:   4    -0.708841653885E+03   -0.15418E-05   -0.22828E-05  6466   0.105E-02
  26 F= -.70884165E+03 E0= -.70884165E+03  d E =-.491534E-03
 curvature:  -1.42 expect dE=-0.722E-03 dE for cont linesearch -0.191E-04
 ZBRENT: increasing intervall
 opt :   0.9360  next Energy=  -708.841690 (dE=-0.528E-03)
 bond charge predicted
       N       E                     dE             d eps       ncg     rms          rms(c)
DAV:   1    -0.708841512677E+03    0.13967E-03   -0.59599E-02 11282   0.361E-01    0.364E-02
RMM:   2    -0.708841684467E+03   -0.17179E-03   -0.18050E-03 12860   0.933E-02    0.124E-02
RMM:   3    -0.708841733236E+03   -0.48769E-04   -0.51192E-04 14432   0.386E-02    0.107E-02
RMM:   4    -0.708841737650E+03   -0.44138E-05   -0.63393E-05  9704   0.147E-02
  27 F= -.70884174E+03 E0= -.70884174E+03  d E =-.575300E-03
 curvature:  -2.69 expect dE=-0.153E-02 dE for cont linesearch -0.140E-06
 trial: gam= 0.24845 g(F)=  0.569E-03 g(S)=  0.000E+00 ort = 0.159E-04 (trialstep = 0.653E+00)
 search vector abs. value=  0.879E-03
 bond charge predicted
       N       E                     dE             d eps       ncg     rms          rms(c)
DAV:   1    -0.708841697604E+03    0.35632E-04   -0.81527E-02 11004   0.429E-01    0.419E-02
RMM:   2    -0.708841970544E+03   -0.27294E-03   -0.28882E-03 13358   0.120E-01    0.147E-02
RMM:   3    -0.708842038631E+03   -0.68087E-04   -0.75385E-04 14860   0.472E-02    0.143E-02
RMM:   4    -0.708842043784E+03   -0.51524E-05   -0.94713E-05 11522   0.174E-02
  28 F= -.70884204E+03 E0= -.70884204E+03  d E =-.306134E-03
 trial-energy change:   -0.000306  1 .order   -0.000253   -0.000374   -0.000132
 step:   0.7909(harm=  1.0093)  dis= 0.00125  next Energy=  -708.842058 (dE=-0.321E-03)
 bond charge predicted
       N       E                     dE             d eps       ncg     rms          rms(c)
DAV:   1    -0.708842057099E+03   -0.18468E-04   -0.35579E-03 11957   0.934E-02    0.110E-02
RMM:   2    -0.708842074688E+03   -0.17589E-04   -0.19480E-04 13099   0.345E-02    0.418E-03
RMM:   3    -0.708842078417E+03   -0.37284E-05   -0.50481E-05  8432   0.137E-02
  29 F= -.70884208E+03 E0= -.70884208E+03  d E =-.340767E-03
 curvature:  -0.48 expect dE=-0.991E-04 dE for cont linesearch -0.839E-05
 ZBRENT: increasing intervall
 opt :   1.0664  next Energy=  -708.842091 (dE=-0.353E-03)
 bond charge predicted
       N       E                     dE             d eps       ncg     rms          rms(c)
DAV:   1    -0.708842052993E+03    0.21695E-04   -0.14695E-02 11072   0.184E-01    0.174E-02
RMM:   2    -0.708842106613E+03   -0.53621E-04   -0.57469E-04 13300   0.560E-02    0.675E-03
RMM:   3    -0.708842119565E+03   -0.12951E-04   -0.15369E-04 12574   0.221E-02    0.657E-03
RMM:   4    -0.708842120380E+03   -0.81577E-06   -0.23037E-05  6354   0.112E-02
  30 F= -.70884212E+03 E0= -.70884212E+03  d E =-.382730E-03
 curvature:  -0.71 expect dE=-0.239E-03 dE for cont linesearch -0.447E-07
 trial: gam= 0.65528 g(F)=  0.336E-03 g(S)=  0.000E+00 ort = 0.743E-05 (trialstep = 0.736E+00)
 search vector abs. value=  0.723E-03
 bond charge predicted
       N       E                     dE             d eps       ncg     rms          rms(c)
DAV:   1    -0.708842015536E+03    0.10403E-03   -0.89261E-02 11032   0.439E-01    0.460E-02
RMM:   2    -0.708842271129E+03   -0.25559E-03   -0.27097E-03 12793   0.113E-01    0.150E-02
RMM:   3    -0.708842343566E+03   -0.72437E-04   -0.76577E-04 14836   0.472E-02    0.141E-02
RMM:   4    -0.708842349803E+03   -0.62375E-05   -0.90484E-05 11353   0.166E-02
  31 F= -.70884235E+03 E0= -.70884235E+03  d E =-.229423E-03
 trial-energy change:   -0.000229  1 .order   -0.000179   -0.000251   -0.000107
 step:   0.8909(harm=  1.2870)  dis= 0.00116  next Energy=  -708.842362 (dE=-0.241E-03)
 bond charge predicted
       N       E                     dE             d eps       ncg     rms          rms(c)
DAV:   1    -0.708842361434E+03   -0.17869E-04   -0.38369E-03 12256   0.933E-02    0.126E-02
RMM:   2    -0.708842376103E+03   -0.14668E-04   -0.16231E-04 12286   0.303E-02    0.476E-03
RMM:   3    -0.708842378952E+03   -0.28497E-05   -0.41705E-05  7674   0.127E-02
  32 F= -.70884238E+03 E0= -.70884238E+03  d E =-.258572E-03
 curvature:  -0.66 expect dE=-0.864E-04 dE for cont linesearch -0.824E-05
 ZBRENT: increasing intervall
 opt :   1.2010  next Energy=  -708.842393 (dE=-0.272E-03)
 bond charge predicted
       N       E                     dE             d eps       ncg     rms          rms(c)
DAV:   1    -0.708842363978E+03    0.12125E-04   -0.16046E-02 10980   0.187E-01    0.192E-02
RMM:   2    -0.708842413933E+03   -0.49955E-04   -0.53226E-04 12789   0.517E-02    0.675E-03
RMM:   3    -0.708842427688E+03   -0.13755E-04   -0.15341E-04 12443   0.217E-02    0.644E-03
RMM:   4    -0.708842428808E+03   -0.11205E-05   -0.22552E-05  6502   0.109E-02
  33 F= -.70884243E+03 E0= -.70884243E+03  d E =-.308428E-03
 curvature:  -1.09 expect dE=-0.206E-03 dE for cont linesearch -0.655E-05
 ZBRENT: increasing intervall
 opt :   1.8213  next Energy=  -708.842451 (dE=-0.331E-03)
 bond charge predicted
       N       E                     dE             d eps       ncg     rms          rms(c)
DAV:   1    -0.708842231297E+03    0.19639E-03   -0.63420E-02 11128   0.370E-01    0.392E-02
RMM:   2    -0.708842412287E+03   -0.18099E-03   -0.19141E-03 12895   0.938E-02    0.127E-02
RMM:   3    -0.708842460776E+03   -0.48489E-04   -0.51706E-04 14620   0.386E-02    0.115E-02
RMM:   4    -0.708842464684E+03   -0.39083E-05   -0.60102E-05  9608   0.141E-02
  34 F= -.70884246E+03 E0= -.70884246E+03  d E =-.344304E-03
 curvature:  -3.79 expect dE=-0.157E-02 dE for cont linesearch -0.375E-04
 ZBRENT: bracketing found
 ZBRENT: interpolating
 opt :   1.4724  next Energy=  -708.842438 (dE=-0.317E-03)
 bond charge predicted
       N       E                     dE             d eps       ncg     rms          rms(c)
DAV:   1    -0.708842375337E+03    0.85439E-04   -0.20225E-02 11110   0.210E-01    0.200E-02
RMM:   2    -0.708842438956E+03   -0.63619E-04   -0.67355E-04 12905   0.549E-02    0.705E-03
RMM:   3    -0.708842453188E+03   -0.14232E-04   -0.16249E-04 12828   0.223E-02    0.789E-03
RMM:   4    -0.708842453969E+03   -0.78101E-06   -0.20644E-05  6452   0.101E-02
  35 F= -.70884245E+03 E0= -.70884245E+03  d E =-.333589E-03
 curvature:  -0.90 expect dE=-0.285E-03 dE for cont linesearch -0.204E-04
 ZBRENT: interpolating
 opt :   1.6825  next Energy=  -708.842471 (dE=-0.350E-03)
 bond charge predicted
       N       E                     dE             d eps       ncg     rms          rms(c)
DAV:   1    -0.708842434295E+03    0.18893E-04   -0.73197E-03 10908   0.126E-01    0.122E-02
RMM:   2    -0.708842458308E+03   -0.24013E-04   -0.25291E-04 12786   0.333E-02    0.428E-03
RMM:   3    -0.708842462829E+03   -0.45208E-05   -0.58981E-05  8830   0.136E-02
  36 F= -.70884246E+03 E0= -.70884246E+03  d E =-.342449E-03
 curvature:  -0.26 expect dE=-0.922E-04 dE for cont linesearch -0.143E-05
 ZBRENT: bisectioning
 opt :   1.5774  next Energy=  -708.842469 (dE=-0.348E-03)
 bond charge predicted
       N       E                     dE             d eps       ncg     rms          rms(c)
DAV:   1    -0.708842452634E+03    0.56744E-05   -0.17699E-03 10950   0.621E-02    0.842E-03
RMM:   2    -0.708842459112E+03   -0.64778E-05   -0.68484E-05  9123   0.164E-02
  37 F= -.70884246E+03 E0= -.70884246E+03  d E =-.338732E-03
 curvature:  -1.05 expect dE=-0.385E-03 dE for cont linesearch -0.522E-04
 ZBRENT: interpolating
 opt :   1.6563  next Energy=  -708.842464 (dE=-0.343E-03)
 bond charge predicted
       N       E                     dE             d eps       ncg     rms          rms(c)
DAV:   1    -0.708842458513E+03   -0.58792E-05   -0.93734E-04 10528   0.455E-02    0.575E-03
RMM:   2    -0.708842461604E+03   -0.30904E-05   -0.35808E-05  6969   0.150E-02
  38 F= -.70884246E+03 E0= -.70884246E+03  d E =-.341223E-03
 curvature:  -0.02 expect dE=-0.589E-05 dE for cont linesearch -0.194E-06
 ZBRENT: bisectioning
 opt :   1.6169  next Energy=  -708.842466 (dE=-0.346E-03)
 bond charge predicted
       N       E                     dE             d eps       ncg     rms          rms(c)
DAV:   1    -0.708842460049E+03   -0.15362E-05   -0.21812E-04 10640   0.241E-02    0.283E-03
RMM:   2    -0.708842461780E+03   -0.17303E-05   -0.19150E-05  6111   0.103E-02
  39 F= -.70884246E+03 E0= -.70884246E+03  d E =-.341399E-03
 curvature:  -0.38 expect dE=-0.137E-03 dE for cont linesearch -0.647E-05
 ZBRENT: interpolating
 opt :   1.6384  next Energy=  -708.842462 (dE=-0.342E-03)
 bond charge predicted
       N       E                     dE             d eps       ncg     rms          rms(c)
DAV:   1    -0.708842461356E+03   -0.13063E-05   -0.58602E-05  9366   0.173E-02    0.142E-03
RMM:   2    -0.708842462429E+03   -0.10733E-05   -0.11142E-05  5244   0.688E-03
  40 F= -.70884246E+03 E0= -.70884246E+03  d E =-.342049E-03
 curvature:  -0.05 expect dE=-0.166E-04 dE for cont linesearch -0.116E-06
 trial: gam= 1.16354 g(F)=  0.342E-03 g(S)=  0.000E+00 ort =-0.415E-04 (trialstep = 0.541E+00)
 search vector abs. value=  0.122E-02
 bond charge predicted
       N       E                     dE             d eps       ncg     rms          rms(c)
DAV:   1    -0.708842322233E+03    0.13912E-03   -0.82146E-02 11131   0.423E-01    0.439E-02
RMM:   2    -0.708842557381E+03   -0.23515E-03   -0.24806E-03 12742   0.108E-01    0.144E-02
RMM:   3    -0.708842623533E+03   -0.66152E-04   -0.69845E-04 14726   0.452E-02    0.135E-02
RMM:   4    -0.708842628843E+03   -0.53106E-05   -0.81924E-05 10943   0.161E-02
  41 F= -.70884263E+03 E0= -.70884263E+03  d E =-.166414E-03
 trial-energy change:   -0.000166  1 .order   -0.000113   -0.000159   -0.000067
 step:   0.6196(harm=  0.9331)  dis= 0.00092  next Energy=  -708.842634 (dE=-0.171E-03)
 bond charge predicted
       N       E                     dE             d eps       ncg     rms          rms(c)
DAV:   1    -0.708842635138E+03   -0.11606E-04   -0.16333E-03 12704   0.660E-02    0.992E-03
RMM:   2    -0.708842643806E+03   -0.86678E-05   -0.10016E-04 11071   0.242E-02    0.393E-03
RMM:   3    -0.708842644921E+03   -0.11147E-05   -0.20914E-05  6396   0.965E-03
  42 F= -.70884264E+03 E0= -.70884264E+03  d E =-.182492E-03
 curvature:  -0.70 expect dE=-0.904E-04 dE for cont linesearch -0.496E-05
 ZBRENT: increasing intervall
 opt :   0.7769  next Energy=  -708.842655 (dE=-0.192E-03)
 bond charge predicted
       N       E                     dE             d eps       ncg     rms          rms(c)
DAV:   1    -0.708842645023E+03   -0.12168E-05   -0.70352E-03 11296   0.126E-01    0.129E-02
RMM:   2    -0.708842667600E+03   -0.22577E-04   -0.24106E-04 12444   0.357E-02    0.445E-03
RMM:   3    -0.708842673455E+03   -0.58553E-05   -0.68507E-05  9907   0.152E-02
  43 F= -.70884267E+03 E0= -.70884267E+03  d E =-.211026E-03
 curvature:  -1.39 expect dE=-0.181E-03 dE for cont linesearch -0.282E-05
 ZBRENT: increasing intervall
 opt :   1.0913  next Energy=  -708.842675 (dE=-0.213E-03)
 bond charge predicted
       N       E                     dE             d eps       ncg     rms          rms(c)
DAV:   1    -0.708842602736E+03    0.64863E-04   -0.27769E-02 11264   0.247E-01    0.248E-02
RMM:   2    -0.708842689074E+03   -0.86337E-04   -0.91586E-04 12833   0.665E-02    0.890E-03
RMM:   3    -0.708842712571E+03   -0.23497E-04   -0.25530E-04 13266   0.277E-02    0.836E-03
RMM:   4    -0.708842714455E+03   -0.18847E-05   -0.35740E-05  7646   0.129E-02
  44 F= -.70884271E+03 E0= -.70884271E+03  d E =-.252026E-03
 curvature:  -1.00 expect dE=-0.171E-03 dE for cont linesearch -0.376E-06
 trial: gam= 0.36393 g(F)=  0.170E-03 g(S)=  0.000E+00 ort =-0.214E-04 (trialstep = 0.651E+00)
 search vector abs. value=  0.317E-03
 bond charge predicted
       N       E                     dE             d eps       ncg     rms          rms(c)
DAV:   1    -0.708842683077E+03    0.29493E-04   -0.31319E-02 11038   0.263E-01    0.283E-02
RMM:   2    -0.708842786131E+03   -0.10305E-03   -0.10812E-03 12964   0.696E-02    0.880E-03
RMM:   3    -0.708842809270E+03   -0.23139E-04   -0.25772E-04 13383   0.281E-02    0.844E-03
RMM:   4    -0.708842811225E+03   -0.19546E-05   -0.36654E-05  8099   0.128E-02
  45 F= -.70884281E+03 E0= -.70884281E+03  d E =-.967693E-04
 trial-energy change:   -0.000097  1 .order   -0.000071   -0.000106   -0.000037
 step:   0.9987(harm=  0.9987)  dis= 0.00064  next Energy=  -708.842796 (dE=-0.812E-04)
 bond charge predicted
       N       E                     dE             d eps       ncg     rms          rms(c)
DAV:   1    -0.708842802356E+03    0.69145E-05   -0.89001E-03 11646   0.140E-01    0.158E-02
RMM:   2    -0.708842832713E+03   -0.30357E-04   -0.31852E-04 12839   0.387E-02    0.492E-03
RMM:   3    -0.708842839576E+03   -0.68635E-05   -0.81566E-05 11480   0.158E-02
  46 F= -.70884284E+03 E0= -.70884284E+03  d E =-.125121E-03
 curvature:  -0.97 expect dE=-0.823E-04 dE for cont linesearch -0.338E-07
 trial: gam= 0.51267 g(F)=  0.846E-04 g(S)=  0.000E+00 ort =-0.331E-05 (trialstep = 0.721E+00)
 search vector abs. value=  0.164E-03
 bond charge predicted
       N       E                     dE             d eps       ncg     rms          rms(c)
DAV:   1    -0.708842823393E+03    0.93196E-05   -0.19153E-02 11302   0.210E-01    0.200E-02
RMM:   2    -0.708842887663E+03   -0.64270E-04   -0.67849E-04 13118   0.587E-02    0.720E-03
RMM:   3    -0.708842904664E+03   -0.17001E-04   -0.18662E-04 12988   0.244E-02    0.716E-03
RMM:   4    -0.708842906246E+03   -0.15811E-05   -0.29976E-05  6857   0.127E-02
  47 F= -.70884291E+03 E0= -.70884291E+03  d E =-.666693E-04
 trial-energy change:   -0.000067  1 .order   -0.000042   -0.000060   -0.000024
 step:   1.2104(harm=  1.2104)  dis= 0.00061  next Energy=  -708.842890 (dE=-0.501E-04)
 bond charge predicted
       N       E                     dE             d eps       ncg     rms          rms(c)
DAV:   1    -0.708842897002E+03    0.76621E-05   -0.88363E-03 11614   0.143E-01    0.145E-02
RMM:   2    -0.708842925217E+03   -0.28215E-04   -0.29728E-04 12999   0.385E-02    0.463E-03
RMM:   3    -0.708842932181E+03   -0.69637E-05   -0.79118E-05 11061   0.158E-02
  48 F= -.70884293E+03 E0= -.70884293E+03  d E =-.926045E-04
 curvature:  -1.20 expect dE=-0.673E-04 dE for cont linesearch -0.388E-06
 trial: gam= 0.91048 g(F)=  0.561E-04 g(S)=  0.000E+00 ort =-0.729E-05 (trialstep = 0.752E+00)
 search vector abs. value=  0.179E-03
 bond charge predicted
       N       E                     dE             d eps       ncg     rms          rms(c)
DAV:   1    -0.708842894919E+03    0.30298E-04   -0.22220E-02 11286   0.226E-01    0.211E-02
RMM:   2    -0.708842966012E+03   -0.71093E-04   -0.74476E-04 12943   0.622E-02    0.782E-03
RMM:   3    -0.708842985594E+03   -0.19582E-04   -0.21400E-04 12965   0.262E-02    0.716E-03
RMM:   4    -0.708842987735E+03   -0.21408E-05   -0.33279E-05  7307   0.131E-02
  49 F= -.70884299E+03 E0= -.70884299E+03  d E =-.555541E-04
 trial-energy change:   -0.000056  1 .order   -0.000025   -0.000037   -0.000013
 step:   1.1336(harm=  1.1336)  dis= 0.00060  next Energy=  -708.842960 (dE=-0.280E-04)
 reached required accuracy - stopping structural energy minimisation
Warning: ieee_invalid is signaling
Warning: ieee_divide_by_zero is signaling
Warning: ieee_underflow is signaling
Warning: ieee_inexact is signaling
FORTRAN STOP
Warning: ieee_invalid is signaling
Warning: ieee_divide_by_zero is signaling
Warning: ieee_underflow is signaling
Warning: ieee_inexact is signaling
FORTRAN STOP
Warning: ieee_invalid is signaling
Warning: ieee_divide_by_zero is signaling
Warning: ieee_underflow is signaling
Warning: ieee_inexact is signaling
FORTRAN STOP
Warning: ieee_invalid is signaling
Warning: ieee_divide_by_zero is signaling
Warning: ieee_underflow is signaling
Warning: ieee_inexact is signaling
FORTRAN STOP
